<LesHouchesEvents version="3.0">
<header>
<!--
#*********************************************************************
#                                                                    *
#                        MadGraph5_aMC@NLO                           *
#                                                                    *
#                           Going Beyond                             *
#                                                                    *
#                   http://madgraph.hep.uiuc.edu                     *
#                   http://madgraph.phys.ucl.ac.be                   *
#                   http://amcatnlo.cern.ch                          *
#                                                                    *
#                     The MadGraph5_aMC@NLO team                     *
#                                                                    *
#....................................................................*
#                                                                    *
# This file contains all the information necessary to reproduce      *
# the events generated:                                              *
#                                                                    *
# 1. software version                                                *
# 2. proc_card          : code generation info including model       *
# 3. param_card         : model primary parameters in the LH format  *
# 4. run_card           : running parameters (collider and cuts)     *
# 5. pythia_card        : present only if pythia has been run        *
# 6. pgs_card           : present only if pgs has been run           *
# 7. delphes_cards      : present only if delphes has been run       *
#                                                                    *
#                                                                    *
#*********************************************************************
-->
<MGVersion>
#5.2.2.3
</MGVersion>
<MG5ProcCard>
#************************************************************
#*                     MadGraph5_aMC@NLO                    *
#*                                                          *
#*                *                       *                 *
#*                  *        * *        *                   *
#*                    * * * * 5 * * * *                     *
#*                  *        * *        *                   *
#*                *                       *                 *
#*                                                          *
#*                                                          *
#*         VERSION 2.2.3                 2015-02-10         *
#*                                                          *
#*    The MadGraph5_aMC@NLO Development Team - Find us at   *
#*    https://server06.fynu.ucl.ac.be/projects/madgraph     *
#*                                                          *
#************************************************************
#*                                                          *
#*               Command File for MadGraph5_aMC@NLO         *
#*                                                          *
#*     run as ./bin/mg5_aMC  filename                       *
#*                                                          *
#************************************************************
set group_subprocesses Auto
set ignore_six_quark_processes False
set loop_optimized_output True
set gauge unitary
set complex_mass_scheme False
import model sm
define p = g u c d s u~ c~ d~ s~
define j = g u c d s u~ c~ d~ s~
define l+ = e+ mu+
define l- = e- mu-
define vl = ve vm vt
define vl~ = ve~ vm~ vt~
import model Zprime_UFO
generate p p > zph, zph > j j
add process p p > zph, zph > b b~
output Dijet_signal
</MG5ProcCard>
<MGProcCard>
#*********************************************************************
#                        MadGraph/MadEvent                           *
#                   http://madgraph.hep.uiuc.edu                     *
#                                                                    *
#                          proc_card.dat                             *
#*********************************************************************
#                                                                    *
#            This Files is generated by MADGRAPH 5                   *
#                                                                    *
# WARNING: This Files is generated for MADEVENT (compatibility issue)*
#          This files is NOT a valid MG4 proc_card.dat               *
#          Running this in MG4 will NEVER reproduce the result of MG5*
#                                                                    *
#*********************************************************************
#*********************************************************************
# Process(es) requested : mg2 input                                  *
#*********************************************************************
# Begin PROCESS # This is TAG. Do not modify this line
p p > zph , zph > j j           #Process
# Be carefull the coupling are here in MG5 convention
          
end_coup           # End the couplings input

done               # this tells MG there are no more procs
# End PROCESS  # This is TAG. Do not modify this line
#*********************************************************************
# Model information                                                  *
#*********************************************************************
# Begin MODEL  # This is TAG. Do not modify this line
Zprime_UFO
# End   MODEL  # This is TAG. Do not modify this line
#*********************************************************************
# Start multiparticle definitions                                    *
#*********************************************************************
# Begin MULTIPARTICLES # This is TAG. Do not modify this line

# End  MULTIPARTICLES # This is TAG. Do not modify this line
</MGProcCard>
<MGRunCard>
#*********************************************************************
#                       MadGraph5_aMC@NLO                            *
#                                                                    *
#                     run_card.dat MadEvent                          *
#                                                                    *
#  This file is used to set the parameters of the run.               *
#                                                                    *
#  Some notation/conventions:                                        *
#                                                                    *
#   Lines starting with a '# ' are info or comments                  *
#                                                                    *
#   mind the format:   value    = variable     ! comment             *
#*********************************************************************
#
#*******************                                                 
# Running parameters
#*******************                                                 
#                                                                    
#*********************************************************************
# Tag name for the run (one word)                                    *
#*********************************************************************
  tag_1     = run_tag ! name of the run 
#*********************************************************************
# Run to generate the grid pack                                      *
#*********************************************************************
  .false.     = gridpack  !True = setting up the grid pack
#*********************************************************************
# Number of events and rnd seed                                      *
# Warning: Do not generate more than 1M events in a single run       *
# If you want to run Pythia, avoid more than 50k events in a run.    *
#*********************************************************************
  2000 = nevents ! Number of unweighted events requested 
 2820 = iseed   ! rnd seed (0=assigned automatically=default))
#*********************************************************************
# Collider type and energy                                           *
# lpp: 0=No PDF, 1=proton, -1=antiproton, 2=photon from proton,      *
#                                         3=photon from electron     *
#*********************************************************************
        1     = lpp1    ! beam 1 type 
        1     = lpp2    ! beam 2 type
     4000     = ebeam1  ! beam 1 total energy in GeV
     4000     = ebeam2  ! beam 2 total energy in GeV
#*********************************************************************
# Beam polarization from -100 (left-handed) to 100 (right-handed)    *
#*********************************************************************
        0     = polbeam1 ! beam polarization for beam 1
        0     = polbeam2 ! beam polarization for beam 2
#*********************************************************************
# PDF CHOICE: this automatically fixes also alpha_s and its evol.    *
#*********************************************************************
 'nn23lo1'    = pdlabel     ! PDF set                                     
 230000    = lhaid     ! if pdlabel=lhapdf, this is the lhapdf number
#*********************************************************************
# Renormalization and factorization scales                           *
#*********************************************************************
 F        = fixed_ren_scale  ! if .true. use fixed ren scale
 F        = fixed_fac_scale  ! if .true. use fixed fac scale
 91.1880  = scale            ! fixed ren scale
 91.1880  = dsqrt_q2fact1    ! fixed fact scale for pdf1
 91.1880  = dsqrt_q2fact2    ! fixed fact scale for pdf2
 1        = scalefact        ! scale factor for event-by-event scales
#*********************************************************************
# Matching - Warning! ickkw > 1 is still beta
#*********************************************************************
 0        = ickkw            ! 0 no matching, 1 MLM, 2 CKKW matching
 1        = highestmult      ! for ickkw=2, highest mult group
 1        = ktscheme         ! for ickkw=1, 1 Durham kT, 2 Pythia pTE
 1        = alpsfact         ! scale factor for QCD emission vx
 F        = chcluster        ! cluster only according to channel diag
 T        = pdfwgt           ! for ickkw=1, perform pdf reweighting
 5        = asrwgtflavor     ! highest quark flavor for a_s reweight
 T        = clusinfo         ! include clustering tag in output
 3.0      = lhe_version       ! Change the way clustering information pass to shower.        
#*********************************************************************
#**********************************************************
#
#**********************************************************
# Automatic ptj and mjj cuts if xqcut > 0
# (turn off for VBF and single top processes)
#**********************************************************
   T  = auto_ptj_mjj  ! Automatic setting of ptj and mjj
#**********************************************************
#                                                                    
#**********************************
# BW cutoff (M+/-bwcutoff*Gamma)
#**********************************
  15  = bwcutoff      ! (M+/-bwcutoff*Gamma)
#**********************************************************
# Apply pt/E/eta/dr/mij cuts on decay products or not
# (note that etmiss/ptll/ptheavy/ht/sorted cuts always apply)
#**********************************************************
   T  = cut_decays    ! Cut decay products 
#*************************************************************
# Number of helicities to sum per event (0 = all helicities)
# 0 gives more stable result, but longer run time (needed for
# long decay chains e.g.).
# Use >=2 if most helicities contribute, e.g. pure QCD.
#*************************************************************
   0  = nhel          ! Number of helicities used per event
#*******************                                                 
# Standard Cuts
#*******************                                                 
#                                                                    
#*********************************************************************
# Minimum and maximum pt's (for max, -1 means no cut)                *
#*********************************************************************
 20  = ptj       ! minimum pt for the jets 
  0  = ptb       ! minimum pt for the b 
 10  = pta       ! minimum pt for the photons 
 10  = ptl       ! minimum pt for the charged leptons 
  0  = misset    ! minimum missing Et (sum of neutrino's momenta)
  0  = ptheavy   ! minimum pt for one heavy final state
 1.0 = ptonium   ! minimum pt for the quarkonium states
 -1  = ptjmax    ! maximum pt for the jets
 -1  = ptbmax    ! maximum pt for the b
 -1  = ptamax    ! maximum pt for the photons
 -1  = ptlmax    ! maximum pt for the charged leptons
 -1  = missetmax ! maximum missing Et (sum of neutrino's momenta)
#*********************************************************************
# Minimum and maximum E's (in the center of mass frame)              *
#*********************************************************************
  0  = ej     ! minimum E for the jets 
  0  = eb     ! minimum E for the b 
  0  = ea     ! minimum E for the photons 
  0  = el     ! minimum E for the charged leptons 
 -1   = ejmax ! maximum E for the jets
 -1   = ebmax ! maximum E for the b
 -1   = eamax ! maximum E for the photons
 -1   = elmax ! maximum E for the charged leptons
#*********************************************************************
# Maximum and minimum absolute rapidity (for max, -1 means no cut)   *
#*********************************************************************
   5  = etaj    ! max rap for the jets 
  -1  = etab    ! max rap for the b
 2.5  = etaa    ! max rap for the photons 
 2.5  = etal    ! max rap for the charged leptons 
 0.6  = etaonium ! max rap for the quarkonium states
   0  = etajmin ! min rap for the jets
   0  = etabmin ! min rap for the b
   0  = etaamin ! min rap for the photons
   0  = etalmin ! main rap for the charged leptons
#*********************************************************************
# Minimum and maximum DeltaR distance                                *
#*********************************************************************
 0.4 = drjj    ! min distance between jets 
 0   = drbb    ! min distance between b's 
 0.4 = drll    ! min distance between leptons 
 0.4 = draa    ! min distance between gammas 
 0   = drbj    ! min distance between b and jet 
 0.4 = draj    ! min distance between gamma and jet 
 0.4 = drjl    ! min distance between jet and lepton 
 0   = drab    ! min distance between gamma and b 
 0   = drbl    ! min distance between b and lepton 
 0.4 = dral    ! min distance between gamma and lepton 
 -1  = drjjmax ! max distance between jets
 -1  = drbbmax ! max distance between b's
 -1  = drllmax ! max distance between leptons
 -1  = draamax ! max distance between gammas
 -1  = drbjmax ! max distance between b and jet
 -1  = drajmax ! max distance between gamma and jet
 -1  = drjlmax ! max distance between jet and lepton
 -1  = drabmax ! max distance between gamma and b
 -1  = drblmax ! max distance between b and lepton
 -1  = dralmax ! maxdistance between gamma and lepton
#*********************************************************************
# Minimum and maximum invariant mass for pairs                       *
# WARNING: for four lepton final state mmll cut require to have      *
#          different lepton masses for each flavor!                  *           
#*********************************************************************
 0   = mmjj    ! min invariant mass of a jet pair 
 0   = mmbb    ! min invariant mass of a b pair 
 0   = mmaa    ! min invariant mass of gamma gamma pair
 0   = mmll    ! min invariant mass of l+l- (same flavour) lepton pair
 -1  = mmjjmax ! max invariant mass of a jet pair
 -1  = mmbbmax ! max invariant mass of a b pair
 -1  = mmaamax ! max invariant mass of gamma gamma pair
 -1  = mmllmax ! max invariant mass of l+l- (same flavour) lepton pair
#*********************************************************************
# Minimum and maximum invariant mass for all letpons                 *
#*********************************************************************
 0   = mmnl    ! min invariant mass for all letpons (l+- and vl) 
 -1  = mmnlmax ! max invariant mass for all letpons (l+- and vl) 
#*********************************************************************
# Minimum and maximum pt for 4-momenta sum of leptons                *
#*********************************************************************
 0   = ptllmin  ! Minimum pt for 4-momenta sum of leptons(l and vl)
 -1  = ptllmax  ! Maximum pt for 4-momenta sum of leptons(l and vl)
#*********************************************************************
# Inclusive cuts                                                     *
#*********************************************************************
 0  = xptj ! minimum pt for at least one jet  
 0  = xptb ! minimum pt for at least one b 
 0  = xpta ! minimum pt for at least one photon 
 0  = xptl ! minimum pt for at least one charged lepton 
#*********************************************************************
# Control the pt's of the jets sorted by pt                          *
#*********************************************************************
 0   = ptj1min ! minimum pt for the leading jet in pt
 0   = ptj2min ! minimum pt for the second jet in pt
 0   = ptj3min ! minimum pt for the third jet in pt
 0   = ptj4min ! minimum pt for the fourth jet in pt
 -1  = ptj1max ! maximum pt for the leading jet in pt 
 -1  = ptj2max ! maximum pt for the second jet in pt
 -1  = ptj3max ! maximum pt for the third jet in pt
 -1  = ptj4max ! maximum pt for the fourth jet in pt
 0   = cutuse  ! reject event if fails any (0) / all (1) jet pt cuts
#*********************************************************************
# Control the pt's of leptons sorted by pt                           *
#*********************************************************************
 0   = ptl1min ! minimum pt for the leading lepton in pt
 0   = ptl2min ! minimum pt for the second lepton in pt
 0   = ptl3min ! minimum pt for the third lepton in pt
 0   = ptl4min ! minimum pt for the fourth lepton in pt
 -1  = ptl1max ! maximum pt for the leading lepton in pt 
 -1  = ptl2max ! maximum pt for the second lepton in pt
 -1  = ptl3max ! maximum pt for the third lepton in pt
 -1  = ptl4max ! maximum pt for the fourth lepton in pt
#*********************************************************************
# Control the Ht(k)=Sum of k leading jets                            *
#*********************************************************************
 0   = htjmin ! minimum jet HT=Sum(jet pt)
 -1  = htjmax ! maximum jet HT=Sum(jet pt)
 0   = ihtmin  !inclusive Ht for all partons (including b)
 -1  = ihtmax  !inclusive Ht for all partons (including b)
 0   = ht2min ! minimum Ht for the two leading jets
 0   = ht3min ! minimum Ht for the three leading jets
 0   = ht4min ! minimum Ht for the four leading jets
 -1  = ht2max ! maximum Ht for the two leading jets
 -1  = ht3max ! maximum Ht for the three leading jets
 -1  = ht4max ! maximum Ht for the four leading jets
#***********************************************************************
# Photon-isolation cuts, according to hep-ph/9801442                   *
# When ptgmin=0, all the other parameters are ignored                  *
# When ptgmin>0, pta and draj are not going to be used                 *
#***********************************************************************
   0 = ptgmin ! Min photon transverse momentum
 0.4 = R0gamma ! Radius of isolation code
 1.0 = xn ! n parameter of eq.(3.4) in hep-ph/9801442
 1.0 = epsgamma ! epsilon_gamma parameter of eq.(3.4) in hep-ph/9801442
 .true. = isoEM ! isolate photons from EM energy (photons and leptons)
#*********************************************************************
# WBF cuts                                                           *
#*********************************************************************
 0   = xetamin ! minimum rapidity for two jets in the WBF case  
 0   = deltaeta ! minimum rapidity for two jets in the WBF case 
#*********************************************************************
# KT DURHAM CUT                                                      *
#*********************************************************************
 -1    =  ktdurham        
 0.4  =  dparameter 
#*********************************************************************
# maximal pdg code for quark to be considered as a light jet         *
# (otherwise b cuts are applied)                                     *
#*********************************************************************
 4 = maxjetflavor    ! Maximum jet pdg code
#*********************************************************************
# Jet measure cuts                                                   *
#*********************************************************************
 0   = xqcut   ! minimum kt jet measure between partons
#*********************************************************************
#
#*********************************************************************
# Store info for systematics studies                                 *
# WARNING: If use_syst is T, matched Pythia output is                *
#          meaningful ONLY if plotted taking matchscale              *
#          reweighting into account!                                 *
#*********************************************************************
   F  = use_syst      ! Enable systematics studies
#
#**************************************
# Parameter of the systematics study
#  will be used by SysCalc (if installed)
#**************************************                                  
#
0.5 1 2 = sys_scalefact  # factorization/renormalization scale factor
0.5 1 2 = sys_alpsfact  # \alpha_s emission scale factors
30 50 = sys_matchscale # variation of merging scale
# PDF sets and number of members (0 or none for all members).
CT10nlo.LHgrid = sys_pdf # matching scales
# MSTW2008nlo68cl.LHgrid 1  = sys_pdf
</MGRunCard>
<slha>
######################################################################
## PARAM_CARD AUTOMATICALY GENERATED BY MG5 FOLLOWING UFO MODEL   ####
######################################################################
##                                                                  ##
##  Width set on Auto will be computed following the information    ##
##        present in the decay.py files of the model.               ##
##        See  arXiv:1402.1178 for more details.                    ##
##                                                                  ##
######################################################################

###################################
## INFORMATION FOR CKMBLOCK
###################################
Block ckmblock 
    1 2.277360e-01 # cabi 

###################################
## INFORMATION FOR FRBLOCK
###################################
Block frblock 
    1 1.600000e+00 # gz 

###################################
## INFORMATION FOR MASS
###################################
Block mass 
    1 5.040000e-03 # MD 
    2 2.550000e-03 # MU 
    3 1.010000e-01 # MS 
    4 1.270000e+00 # MC 
    5 4.700000e+00 # MB 
    6 1.720000e+02 # MT 
   11 5.110000e-04 # Me 
   13 1.056600e-01 # MM 
   15 1.777000e+00 # MTA 
   23 9.118760e+01 # MZ 
   25 1.200000e+02 # MH 
  10030 1.100000e+03 # MZph 
  10031 3.000000e+02 # MZpl 
## Dependent parameters, given by model restrictions.
## Those values should be edited following the 
## analytical expression. MG5 ignores those values 
## but they are important for interfacing the output of MG5
## to external program such as Pythia.
  12 0.000000 # ve : 0.0 
  14 0.000000 # vm : 0.0 
  16 0.000000 # vt : 0.0 
  21 0.000000 # g : 0.0 
  22 0.000000 # a : 0.0 
  24 79.824360 # w+ : cmath.sqrt(MZ__exp__2/2. + cmath.sqrt(MZ__exp__4/4. - (aEW*cmath.pi*MZ__exp__2)/(Gf*sqrt__2))) 

###################################
## INFORMATION FOR SMINPUTS
###################################
Block sminputs 
    1 1.279000e+02 # aEWM1 
    2 1.166370e-05 # Gf 
    3 1.184000e-01 # aS 

###################################
## INFORMATION FOR YUKAWA
###################################
Block yukawa 
    1 5.040000e-03 # ymdo 
    2 2.550000e-03 # ymup 
    3 1.010000e-01 # yms 
    4 1.270000e+00 # ymc 
    5 4.700000e+00 # ymb 
    6 1.720000e+02 # ymt 
   11 5.110000e-04 # yme 
   13 1.056600e-01 # ymm 
   15 1.777000e+00 # ymtau 

###################################
## INFORMATION FOR DECAY
###################################
DECAY   6 1.508336e+00 # WT 
DECAY  23 2.495200e+00 # WZ 
DECAY  24 2.085000e+00 # WW 
DECAY  25 5.753088e-03 # WH 
## Dependent parameters, given by model restrictions.
## Those values should be edited following the 
## analytical expression. MG5 ignores those values 
## but they are important for interfacing the output of MG5
## to external program such as Pythia.
DECAY  1 0.000000 # d : 0.0 
DECAY  2 0.000000 # u : 0.0 
DECAY  3 0.000000 # s : 0.0 
DECAY  4 0.000000 # c : 0.0 
DECAY  5 0.000000 # b : 0.0 
DECAY  11 0.000000 # e- : 0.0 
DECAY  12 0.000000 # ve : 0.0 
DECAY  13 0.000000 # mu- : 0.0 
DECAY  14 0.000000 # vm : 0.0 
DECAY  15 0.000000 # ta- : 0.0 
DECAY  16 0.000000 # vt : 0.0 
DECAY  21 0.000000 # g : 0.0 
DECAY  22 0.000000 # a : 0.0 
DECAY  10030 0.308725 # zph : (gz__exp__2*MZph*(5 + cmath.sqrt(1 - (4*MT__exp__2)/MZph__exp__2)))/(144.*cmath.pi) 
DECAY  10031 0.132629 # zpl : (5*gz__exp__2*MZpl)/(144.*cmath.pi) 
#===========================================================
# QUANTUM NUMBERS OF NEW STATE(S) (NON SM PDG CODE)
#===========================================================

Block QNUMBERS 10030  # zph 
        1 0  # 3 times electric charge
        2 3  # number of spin states (2S+1)
        3 1  # colour rep (1: singlet, 3: triplet, 8: octet)
        4 0  # Particle/Antiparticle distinction (0=own anti)
Block QNUMBERS 10031  # zpl 
        1 0  # 3 times electric charge
        2 3  # number of spin states (2S+1)
        3 1  # colour rep (1: singlet, 3: triplet, 8: octet)
        4 0  # Particle/Antiparticle distinction (0=own anti)
</slha>
## END BANNER##
<MGGenerationInfo>
#  Number of Events        :         4101
#  Integrated weight (pb)  :  0.31598E+01
#  Max wgt                 :  0.10280E-02
#  Average wgt             :  0.77050E-03
</MGGenerationInfo>
</header>
<init>
     2212     2212  0.40000000000E+04  0.40000000000E+04 0 0  247000  247000 2   1
  0.31606631345E+01  0.70730315496E-02  0.10280160000E-02   0
</init>
<event>
 5   0  0.1019384E-02  0.5698501E+03  0.7818609E-02  0.9970010E-01
        2   -1    0    0  501    0  0.00000000000E+00  0.00000000000E+00  0.14058716957E+04  0.14058716957E+04  0.25500000920E-02 0.  1.
       -2   -1    0    0    0  501  0.00000000000E+00  0.00000000000E+00 -0.57745158599E+02  0.57745158655E+02  0.25500000920E-02 0. -1.
    10030    2    1    2    0    0  0.00000000000E+00  0.00000000000E+00  0.13481265371E+04  0.14636168543E+04  0.56985009986E+03 0.  0.
        1    1    3    3  502    0  0.23044880179E+03  0.16752157206E+03  0.68301845453E+03  0.74005698200E+03  0.50400001928E-02 0. -1.
       -1    1    3    3    0  502 -0.23044880179E+03 -0.16752157206E+03  0.66510808254E+03  0.72355987232E+03  0.50400001928E-02 0.  1.
</event>
<event>
 5   0  0.3949750E-03  0.1088383E+04  0.7818609E-02  0.9216589E-01
       -3   -1    0    0    0  501  0.00000000000E+00  0.00000000000E+00  0.19233344562E+03  0.19233347214E+03  0.10100000352E+00 0. -1.
        3   -1    0    0  501    0  0.00000000000E+00  0.00000000000E+00 -0.15397446738E+04  0.15397446772E+04  0.10100000352E+00 0.  1.
    10030    2    1    2    0    0  0.00000000000E+00  0.00000000000E+00 -0.13474112282E+04  0.17320781493E+04  0.10883830655E+04 0.  0.
        3    1    3    3  502    0  0.27201983959E+03  0.32368102454E+02  0.74605112968E+02  0.28391622051E+03  0.10100000352E+00 0. -1.
       -3    1    3    3    0  502 -0.27201983959E+03 -0.32368102454E+02 -0.14220163412E+04  0.14481619288E+04  0.10100000352E+00 0.  1.
</event>
<event>
 5   0  0.1019384E-02  0.9780564E+03  0.7818609E-02  0.9332945E-01
       -2   -1    0    0    0  501  0.00000000000E+00  0.00000000000E+00  0.24718279539E+03  0.24718279540E+03  0.25500000920E-02 0. -1.
        2   -1    0    0  501    0  0.00000000000E+00  0.00000000000E+00 -0.96749682498E+03  0.96749682498E+03  0.25500000920E-02 0.  1.
    10030    2    1    2    0    0  0.00000000000E+00  0.00000000000E+00 -0.72031402959E+03  0.12146796204E+04  0.97805637821E+03 0.  0.
        1    1    3    3  502    0  0.14387509998E+03  0.38304054438E+03 -0.69277339203E+03  0.80458379040E+03  0.50400001928E-02 0.  1.
       -1    1    3    3    0  502 -0.14387509998E+03 -0.38304054438E+03 -0.27540637559E+02  0.41009582999E+03  0.50400001928E-02 0. -1.
</event>
<event>
 5   0  0.9719260E-03  0.1142127E+04  0.7818609E-02  0.9165078E-01
       -2   -1    0    0    0  501  0.00000000000E+00  0.00000000000E+00  0.29177228354E+03  0.29177228355E+03  0.25500000920E-02 0.  1.
        2   -1    0    0  501    0  0.00000000000E+00  0.00000000000E+00 -0.11176982141E+04  0.11176982141E+04  0.25500000920E-02 0. -1.
    10030    2    1    2    0    0  0.00000000000E+00  0.00000000000E+00 -0.82592593059E+03  0.14094704977E+04  0.11421267184E+04 0.  0.
        3    1    3    3  502    0 -0.12036041848E+03 -0.54346003790E+03 -0.57041235402E+03  0.79699793409E+03  0.10100000352E+00 0. -1.
       -3    1    3    3    0  502  0.12036041848E+03  0.54346003790E+03 -0.25551357657E+03  0.61247256358E+03  0.10100000352E+00 0.  1.
</event>
<event>
 5   0  0.1019384E-02  0.6221226E+03  0.7818609E-02  0.9860543E-01
        2   -1    0    0  501    0  0.00000000000E+00  0.00000000000E+00  0.72972862425E+03  0.72972862426E+03  0.25500000920E-02 0. -1.
       -2   -1    0    0    0  501  0.00000000000E+00  0.00000000000E+00 -0.13259603718E+03  0.13259603720E+03  0.25500000920E-02 0.  1.
    10030    2    1    2    0    0  0.00000000000E+00  0.00000000000E+00  0.59713258707E+03  0.86232466146E+03  0.62212257251E+03 0.  0.
        1    1    3    3  502    0  0.17776944343E+02 -0.28669068852E+03  0.46403883828E+03  0.54574684066E+03  0.50400001928E-02 0. -1.
       -1    1    3    3    0  502 -0.17776944343E+02  0.28669068852E+03  0.13309374879E+03  0.31657782080E+03  0.50400001928E-02 0.  1.
</event>
<event>
 5   0  0.9719260E-03  0.1114110E+04  0.7818609E-02  0.9191547E-01
        2   -1    0    0  501    0  0.00000000000E+00  0.00000000000E+00  0.12615679116E+04  0.12615679116E+04  0.25500000920E-02 0. -1.
       -2   -1    0    0    0  501  0.00000000000E+00  0.00000000000E+00 -0.24597195217E+03  0.24597195218E+03  0.25500000920E-02 0.  1.
    10030    2    1    2    0    0  0.00000000000E+00  0.00000000000E+00  0.10155959595E+04  0.15075398638E+04  0.11141100880E+04 0.  0.
        3    1    3    3  502    0  0.55512160618E+03  0.26640613863E+02  0.55915634360E+03  0.78836891538E+03  0.10100000352E+00 0.  1.
       -3    1    3    3    0  502 -0.55512160618E+03 -0.26640613863E+02  0.45643961587E+03  0.71917094845E+03  0.10100000352E+00 0. -1.
</event>
<event>
 5   0  0.5789905E-03  0.1078812E+04  0.7818609E-02  0.9226092E-01
       -1   -1    0    0    0  501  0.00000000000E+00  0.00000000000E+00  0.13908170791E+04  0.13908170791E+04  0.50400001928E-02 0.  1.
        1   -1    0    0  501    0  0.00000000000E+00  0.00000000000E+00 -0.20920006245E+03  0.20920006251E+03  0.50400001928E-02 0. -1.
    10030    2    1    2    0    0  0.00000000000E+00  0.00000000000E+00  0.11816170166E+04  0.16000171416E+04  0.10788123467E+04 0.  0.
        1    1    3    3  502    0  0.24915555499E+02 -0.38127080653E+03  0.11555100918E+04  0.12170422281E+04  0.50400001928E-02 0.  1.
       -1    1    3    3    0  502 -0.24915555499E+02  0.38127080653E+03  0.26106924878E+02  0.38297491349E+03  0.50400001928E-02 0. -1.
</event>
<event>
 5   0  0.5998641E-03  0.1043400E+04  0.7818609E-02  0.9262185E-01
        1   -1    0    0  501    0  0.00000000000E+00  0.00000000000E+00  0.85573177028E+03  0.85573177030E+03  0.50400001928E-02 0. -1.
       -1   -1    0    0    0  501  0.00000000000E+00  0.00000000000E+00 -0.31805612635E+03  0.31805612639E+03  0.50400001928E-02 0.  1.
    10030    2    1    2    0    0  0.00000000000E+00  0.00000000000E+00  0.53767564393E+03  0.11737878967E+04  0.10433996973E+04 0.  0.
        3    1    3    3  502    0  0.24408698802E+02  0.17871255361E+03  0.81953853734E+03  0.83915277857E+03  0.10100000352E+00 0. -1.
       -3    1    3    3    0  502 -0.24408698802E+02 -0.17871255361E+03 -0.28186289341E+03  0.33463511812E+03  0.10100000352E+00 0.  1.
</event>
<event>
 5   0  0.1019384E-02  0.1079238E+04  0.7818609E-02  0.9225667E-01
       -2   -1    0    0    0  501  0.00000000000E+00  0.00000000000E+00  0.87763560038E+03  0.87763560038E+03  0.25500000920E-02 0.  1.
        2   -1    0    0  501    0  0.00000000000E+00  0.00000000000E+00 -0.33178772876E+03  0.33178772877E+03  0.25500000920E-02 0. -1.
    10030    2    1    2    0    0  0.00000000000E+00  0.00000000000E+00  0.54584787162E+03  0.12094233291E+04  0.10792381063E+04 0.  0.
        1    1    3    3  502    0 -0.12355287528E+02 -0.24846620057E+03  0.80954001490E+03  0.84690208507E+03  0.50400001928E-02 0.  1.
       -1    1    3    3    0  502  0.12355287528E+02  0.24846620057E+03 -0.26369214328E+03  0.36252124407E+03  0.50400001928E-02 0. -1.
</event>
<event>
 5   0  0.3949750E-03  0.1086948E+04  0.7818609E-02  0.9218008E-01
        4   -1    0    0  501    0  0.00000000000E+00  0.00000000000E+00  0.14296405570E+04  0.14296411211E+04  0.12699999809E+01 0. -1.
       -4   -1    0    0    0  501  0.00000000000E+00  0.00000000000E+00 -0.20659751546E+03  0.20660141891E+03  0.12699999809E+01 0.  1.
    10030    2    1    2    0    0  0.00000000000E+00  0.00000000000E+00  0.12230430415E+04  0.16362425400E+04  0.10869477302E+04 0.  0.
        4    1    3    3  502    0  0.13957676248E+02  0.21796537561E+03 -0.13762306509E+03  0.25815778632E+03  0.12699999809E+01 0.  1.
       -4    1    3    3    0  502 -0.13957676248E+02 -0.21796537561E+03  0.13606661066E+04  0.13780847537E+04  0.12699999809E+01 0. -1.
</event>
<event>
 5   0  0.1019384E-02  0.1111077E+04  0.7818609E-02  0.9194463E-01
       -2   -1    0    0    0  501  0.00000000000E+00  0.00000000000E+00  0.24364140067E+03  0.24364140069E+03  0.25500000920E-02 0. -1.
        2   -1    0    0  501    0  0.00000000000E+00  0.00000000000E+00 -0.12667094311E+04  0.12667094311E+04  0.25500000920E-02 0.  1.
    10030    2    1    2    0    0  0.00000000000E+00  0.00000000000E+00 -0.10230680304E+04  0.15103508318E+04  0.11110767031E+04 0.  0.
        1    1    3    3  502    0  0.10738362320E+03  0.49246287342E+03 -0.82908866580E+03  0.97027776436E+03  0.50400001928E-02 0.  1.
       -1    1    3    3    0  502 -0.10738362320E+03 -0.49246287342E+03 -0.19397936462E+03  0.54007306742E+03  0.50400001928E-02 0. -1.
</event>
<event>
 5   0  0.9692981E-03  0.1113698E+04  0.7818609E-02  0.9191943E-01
        2   -1    0    0  501    0  0.00000000000E+00  0.00000000000E+00  0.31906877108E+03  0.31906877109E+03  0.25500000920E-02 0. -1.
       -2   -1    0    0    0  501  0.00000000000E+00  0.00000000000E+00 -0.97183105354E+03  0.97183105354E+03  0.25500000920E-02 0.  1.
    10030    2    1    2    0    0  0.00000000000E+00  0.00000000000E+00 -0.65276228246E+03  0.12908998246E+04  0.11136982355E+04 0.  0.
        5    1    3    3  502    0 -0.46826767519E+03 -0.28211232346E+03 -0.20372950311E+03  0.58342932658E+03  0.46999998093E+01 0. -1.
       -5    1    3    3    0  502  0.46826767519E+03  0.28211232346E+03 -0.44903277935E+03  0.70747049805E+03  0.46999998093E+01 0.  1.
</event>
<event>
 5   0  0.9692981E-03  0.1117789E+04  0.7818609E-02  0.9188025E-01
       -2   -1    0    0    0  501  0.00000000000E+00  0.00000000000E+00  0.18867021915E+03  0.18867021917E+03  0.25500000920E-02 0.  1.
        2   -1    0    0  501    0  0.00000000000E+00  0.00000000000E+00 -0.16556027837E+04  0.16556027837E+04  0.25500000920E-02 0. -1.
    10030    2    1    2    0    0  0.00000000000E+00  0.00000000000E+00 -0.14669325645E+04  0.18442730029E+04  0.11177887816E+04 0.  0.
        5    1    3    3  502    0 -0.40772897723E+01 -0.24017267228E+03  0.99121234377E+02  0.25989737571E+03  0.46999998093E+01 0.  1.
       -5    1    3    3    0  502  0.40772897723E+01  0.24017267228E+03 -0.15660537989E+04  0.15843756272E+04  0.46999998093E+01 0. -1.
</event>
<event>
 5   0  0.5712664E-03  0.1098146E+04  0.7818609E-02  0.9207001E-01
       -1   -1    0    0    0  501  0.00000000000E+00  0.00000000000E+00  0.25152716455E+03  0.25152716460E+03  0.50400001928E-02 0. -1.
        1   -1    0    0  501    0  0.00000000000E+00  0.00000000000E+00 -0.11986020014E+04  0.11986020014E+04  0.50400001928E-02 0.  1.
    10030    2    1    2    0    0  0.00000000000E+00  0.00000000000E+00 -0.94707483685E+03  0.14501291660E+04  0.10981456422E+04 0.  0.
        5    1    3    3  502    0 -0.14348122931E+03 -0.44786864823E+03 -0.99370144424E+02  0.48069710300E+03  0.46999998093E+01 0. -1.
       -5    1    3    3    0  502  0.14348122931E+03  0.44786864823E+03 -0.84770469243E+03  0.96943206301E+03  0.46999998093E+01 0.  1.
</event>
<event>
 5   0  0.3949750E-03  0.1112238E+04  0.7818609E-02  0.9193346E-01
       -3   -1    0    0    0  501  0.00000000000E+00  0.00000000000E+00  0.18958735350E+04  0.18958735377E+04  0.10100000352E+00 0.  1.
        3   -1    0    0  501    0  0.00000000000E+00  0.00000000000E+00 -0.16312699986E+03  0.16312703113E+03  0.10100000352E+00 0. -1.
    10030    2    1    2    0    0  0.00000000000E+00  0.00000000000E+00  0.17327465352E+04  0.20590005689E+04  0.11122377387E+04 0.  0.
        2    1    3    3  502    0 -0.32090627140E+03  0.16308673389E+02  0.26110741757E+02  0.32237955688E+03  0.25500000920E-02 0. -1.
       -2    1    3    3    0  502  0.32090627140E+03 -0.16308673389E+02  0.17066357934E+04  0.17366210120E+04  0.25500000920E-02 0.  1.
</event>
<event>
 5   0  0.5789905E-03  0.1032070E+04  0.7818609E-02  0.9274054E-01
       -1   -1    0    0    0  501  0.00000000000E+00  0.00000000000E+00  0.62655787960E+03  0.62655787962E+03  0.50400001928E-02 0. -1.
        1   -1    0    0  501    0  0.00000000000E+00  0.00000000000E+00 -0.42500776822E+03  0.42500776825E+03  0.50400001928E-02 0.  1.
    10030    2    1    2    0    0  0.00000000000E+00  0.00000000000E+00  0.20155011138E+03  0.10515656479E+04  0.10320696994E+04 0.  0.
        1    1    3    3  502    0  0.40349824639E+03 -0.39306949520E+02  0.42608052022E+03  0.58813304690E+03  0.50400001928E-02 0. -1.
       -1    1    3    3    0  502 -0.40349824639E+03  0.39306949520E+02 -0.22453040884E+03  0.46343260097E+03  0.50400001928E-02 0.  1.
</event>
<event>
 5   0  0.5998641E-03  0.1120818E+04  0.7818609E-02  0.9185136E-01
        1   -1    0    0  501    0  0.00000000000E+00  0.00000000000E+00  0.62025047246E+03  0.62025047249E+03  0.50400001928E-02 0.  1.
       -1   -1    0    0    0  501  0.00000000000E+00  0.00000000000E+00 -0.50634082687E+03  0.50634082690E+03  0.50400001928E-02 0. -1.
    10030    2    1    2    0    0  0.00000000000E+00  0.00000000000E+00  0.11390964559E+03  0.11265912994E+04  0.11208178034E+04 0.  0.
        3    1    3    3  502    0  0.25411204035E+03  0.47308417807E+03 -0.10410965816E+03  0.54701042012E+03  0.10100000352E+00 0. -1.
       -3    1    3    3    0  502 -0.25411204035E+03 -0.47308417807E+03  0.21801930376E+03  0.57958087926E+03  0.10100000352E+00 0.  1.
</event>
<event>
 5   0  0.5998641E-03  0.1121573E+04  0.7818609E-02  0.9184417E-01
        1   -1    0    0  501    0  0.00000000000E+00  0.00000000000E+00  0.12681862715E+04  0.12681862715E+04  0.50400001928E-02 0. -1.
       -1   -1    0    0    0  501  0.00000000000E+00  0.00000000000E+00 -0.24797717333E+03  0.24797717338E+03  0.50400001928E-02 0.  1.
    10030    2    1    2    0    0  0.00000000000E+00  0.00000000000E+00  0.10202090981E+04  0.15161634449E+04  0.11215725512E+04 0.  0.
        3    1    3    3  502    0  0.15924461740E+03  0.26389613657E+03 -0.12320688621E+03  0.33193367723E+03  0.10100000352E+00 0.  1.
       -3    1    3    3    0  502 -0.15924461740E+03 -0.26389613657E+03  0.11434159843E+04  0.11842297676E+04  0.10100000352E+00 0. -1.
</event>
<event>
 5   0  0.1019384E-02  0.1042355E+04  0.7818609E-02  0.9263272E-01
        2   -1    0    0  501    0  0.00000000000E+00  0.00000000000E+00  0.59742334730E+03  0.59742334731E+03  0.25500000920E-02 0.  1.
       -2   -1    0    0    0  501  0.00000000000E+00  0.00000000000E+00 -0.45466280901E+03  0.45466280901E+03  0.25500000920E-02 0. -1.
    10030    2    1    2    0    0  0.00000000000E+00  0.00000000000E+00  0.14276053830E+03  0.10520861563E+04  0.10423553660E+04 0.  0.
        1    1    3    3  502    0 -0.43944897373E+02 -0.51752796773E+03  0.27851975954E+02  0.52013660127E+03  0.50400001928E-02 0. -1.
       -1    1    3    3    0  502  0.43944897373E+02  0.51752796773E+03  0.11490856234E+03  0.53194955505E+03  0.50400001928E-02 0.  1.
</event>
<event>
 5   0  0.5854579E-03  0.1101602E+04  0.7818609E-02  0.9203632E-01
        1   -1    0    0  501    0  0.00000000000E+00  0.00000000000E+00  0.18210493368E+04  0.18210493368E+04  0.50400001928E-02 0.  1.
       -1   -1    0    0    0  501  0.00000000000E+00  0.00000000000E+00 -0.16659719933E+03  0.16659719941E+03  0.50400001928E-02 0. -1.
    10030    2    1    2    0    0  0.00000000000E+00  0.00000000000E+00  0.16544521375E+04  0.19876465362E+04  0.11016019598E+04 0.  0.
        4    1    3    3  502    0  0.23467707383E+03 -0.21397171682E+03  0.16392176113E+04  0.16696985401E+04  0.12699999809E+01 0.  1.
       -4    1    3    3    0  502 -0.23467707383E+03  0.21397171682E+03  0.15234526172E+02  0.31794799617E+03  0.12699999809E+01 0. -1.
</event>
<event>
 5   0  0.5789905E-03  0.1181927E+04  0.7818609E-02  0.9128825E-01
        1   -1    0    0  501    0  0.00000000000E+00  0.00000000000E+00  0.15596832636E+04  0.15596832636E+04  0.50400001928E-02 0. -1.
       -1   -1    0    0    0  501  0.00000000000E+00  0.00000000000E+00 -0.22391571789E+03  0.22391571794E+03  0.50400001928E-02 0.  1.
    10030    2    1    2    0    0  0.00000000000E+00  0.00000000000E+00  0.13357675457E+04  0.17835989816E+04  0.11819265590E+04 0.  0.
        1    1    3    3  502    0 -0.30505467007E+03 -0.33399815213E+03  0.12417724150E+04  0.13215944340E+04  0.50400001928E-02 0. -1.
       -1    1    3    3    0  502  0.30505467007E+03  0.33399815213E+03  0.93995130779E+02  0.46200454759E+03  0.50400001928E-02 0.  1.
</event>
<event>
 5   0  0.1028016E-02  0.1114210E+04  0.7818609E-02  0.9191451E-01
        2   -1    0    0  501    0  0.00000000000E+00  0.00000000000E+00  0.24685760918E+04  0.24685760918E+04  0.25500000920E-02 0. -1.
       -2   -1    0    0    0  501  0.00000000000E+00  0.00000000000E+00 -0.12572679343E+03  0.12572679346E+03  0.25500000920E-02 0.  1.
    10030    2    1    2    0    0  0.00000000000E+00  0.00000000000E+00  0.23428492984E+04  0.25943028853E+04  0.11142103148E+04 0.  0.
        2    1    3    3  502    0  0.58217484154E+02 -0.55338805347E+03  0.11081482933E+04  0.12400081666E+04  0.25500000920E-02 0. -1.
       -2    1    3    3    0  502 -0.58217484154E+02  0.55338805347E+03  0.12347010050E+04  0.13542947187E+04  0.25500000920E-02 0.  1.
</event>
<event>
 5   0  0.5998641E-03  0.7957708E+03  0.7818609E-02  0.9566159E-01
        1   -1    0    0  501    0  0.00000000000E+00  0.00000000000E+00  0.10534689692E+04  0.10534689692E+04  0.50400001928E-02 0. -1.
       -1   -1    0    0    0  501  0.00000000000E+00  0.00000000000E+00 -0.15027758455E+03  0.15027758464E+03  0.50400001928E-02 0.  1.
    10030    2    1    2    0    0  0.00000000000E+00  0.00000000000E+00  0.90319138463E+03  0.12037465538E+04  0.79577075128E+03 0.  0.
        3    1    3    3  502    0 -0.11309115150E+03  0.25828393516E+03  0.87625906805E+03  0.92050538524E+03  0.10100000352E+00 0. -1.
       -3    1    3    3    0  502  0.11309115150E+03 -0.25828393516E+03  0.26932316586E+02  0.28324116860E+03  0.10100000352E+00 0.  1.
</event>
<event>
 5   0  0.3949750E-03  0.1122622E+04  0.7818609E-02  0.9183419E-01
       -3   -1    0    0    0  501  0.00000000000E+00  0.00000000000E+00  0.12759043962E+03  0.12759047960E+03  0.10100000352E+00 0. -1.
        3   -1    0    0  501    0  0.00000000000E+00  0.00000000000E+00 -0.24693855437E+04  0.24693855457E+04  0.10100000352E+00 0.  1.
    10030    2    1    2    0    0  0.00000000000E+00  0.00000000000E+00 -0.23417951040E+04  0.25969760253E+04  0.11226220053E+04 0.  0.
        4    1    3    3  502    0  0.12629326236E+03  0.22096235162E+02 -0.24350552392E+04  0.24384285642E+04  0.12699999809E+01 0.  1.
       -4    1    3    3    0  502 -0.12629326236E+03 -0.22096235162E+02  0.93260135164E+02  0.15854746115E+03  0.12699999809E+01 0. -1.
</event>
<event>
 5   0  0.9719260E-03  0.1089513E+04  0.7818609E-02  0.9215474E-01
        2   -1    0    0  501    0  0.00000000000E+00  0.00000000000E+00  0.19866716239E+04  0.19866716239E+04  0.25500000920E-02 0.  1.
       -2   -1    0    0    0  501  0.00000000000E+00  0.00000000000E+00 -0.14937525709E+03  0.14937525711E+03  0.25500000920E-02 0. -1.
    10030    2    1    2    0    0  0.00000000000E+00  0.00000000000E+00  0.18372963668E+04  0.21360468810E+04  0.10895128904E+04 0.  0.
        3    1    3    3  502    0  0.40103113202E+03  0.34235699959E+03  0.65036547135E+03  0.83726312504E+03  0.10100000352E+00 0. -1.
       -3    1    3    3    0  502 -0.40103113202E+03 -0.34235699959E+03  0.11869308955E+04  0.12987837560E+04  0.10100000352E+00 0.  1.
</event>
<event>
 5   0  0.5854579E-03  0.1094314E+04  0.7818609E-02  0.9210752E-01
       -1   -1    0    0    0  501  0.00000000000E+00  0.00000000000E+00  0.48604857319E+03  0.48604857321E+03  0.50400001928E-02 0.  1.
        1   -1    0    0  501    0  0.00000000000E+00  0.00000000000E+00 -0.61594787003E+03  0.61594787005E+03  0.50400001928E-02 0. -1.
    10030    2    1    2    0    0  0.00000000000E+00  0.00000000000E+00 -0.12989929684E+03  0.11019964433E+04  0.10943136359E+04 0.  0.
        4    1    3    3  502    0 -0.39334413379E+03 -0.24673145766E+03  0.22653534967E+03  0.51663903969E+03  0.12699999809E+01 0.  1.
       -4    1    3    3    0  502  0.39334413379E+03  0.24673145766E+03 -0.35643464651E+03  0.58535740357E+03  0.12699999809E+01 0. -1.
</event>
<event>
 5   0  0.1028016E-02  0.1063045E+04  0.7818609E-02  0.9241979E-01
        2   -1    0    0  501    0  0.00000000000E+00  0.00000000000E+00  0.12413419758E+04  0.12413419758E+04  0.25500000920E-02 0.  1.
       -2   -1    0    0    0  501  0.00000000000E+00  0.00000000000E+00 -0.22758925029E+03  0.22758925030E+03  0.25500000920E-02 0. -1.
    10030    2    1    2    0    0  0.00000000000E+00  0.00000000000E+00  0.10137527255E+04  0.14689312261E+04  0.10630448525E+04 0.  0.
        2    1    3    3  502    0  0.24563865501E+02  0.19257991133E+03 -0.17684376059E+03  0.26261020811E+03  0.25500000920E-02 0. -1.
       -2    1    3    3    0  502 -0.24563865501E+02 -0.19257991133E+03  0.11905964861E+04  0.12063210180E+04  0.25500000920E-02 0.  1.
</event>
<event>
 5   0  0.5958706E-03  0.6767986E+03  0.7818609E-02  0.9757753E-01
       -1   -1    0    0    0  501  0.00000000000E+00  0.00000000000E+00  0.30923051719E+03  0.30923051723E+03  0.50400001928E-02 0.  1.
        1   -1    0    0  501    0  0.00000000000E+00  0.00000000000E+00 -0.37031950845E+03  0.37031950848E+03  0.50400001928E-02 0. -1.
    10030    2    1    2    0    0  0.00000000000E+00  0.00000000000E+00 -0.61088991254E+02  0.67955002572E+03  0.67679862042E+03 0.  0.
        2    1    3    3  502    0 -0.45240322335E+02  0.29044937609E+03  0.13778718703E+03  0.32464262775E+03  0.25500000920E-02 0.  1.
       -2    1    3    3    0  502  0.45240322335E+02 -0.29044937609E+03 -0.19887617828E+03  0.35490739797E+03  0.25500000920E-02 0. -1.
</event>
<event>
 5   0  0.9719260E-03  0.1100791E+04  0.7818609E-02  0.9204421E-01
       -2   -1    0    0    0  501  0.00000000000E+00  0.00000000000E+00  0.74709499841E+03  0.74709499842E+03  0.25500000920E-02 0.  1.
        2   -1    0    0  501    0  0.00000000000E+00  0.00000000000E+00 -0.40548425235E+03  0.40548425236E+03  0.25500000920E-02 0. -1.
    10030    2    1    2    0    0  0.00000000000E+00  0.00000000000E+00  0.34161074607E+03  0.11525792508E+04  0.11007910917E+04 0.  0.
        3    1    3    3  502    0 -0.12764869614E+03 -0.42800773523E+03 -0.16596358451E+03  0.47647532215E+03  0.10100000352E+00 0. -1.
       -3    1    3    3    0  502  0.12764869614E+03  0.42800773523E+03  0.50757433057E+03  0.67610392862E+03  0.10100000352E+00 0.  1.
</event>
<event>
 5   0  0.9692981E-03  0.1110141E+04  0.7818609E-02  0.9195364E-01
       -2   -1    0    0    0  501  0.00000000000E+00  0.00000000000E+00  0.35484866500E+03  0.35484866501E+03  0.25500000920E-02 0. -1.
        2   -1    0    0  501    0  0.00000000000E+00  0.00000000000E+00 -0.86826684004E+03  0.86826684004E+03  0.25500000920E-02 0.  1.
    10030    2    1    2    0    0  0.00000000000E+00  0.00000000000E+00 -0.51341817504E+03  0.12231155050E+04  0.11101411245E+04 0.  0.
        5    1    3    3  502    0 -0.85593741366E+01 -0.40499209832E+03  0.16136620859E+03  0.43606536879E+03  0.46999998093E+01 0. -1.
       -5    1    3    3    0  502  0.85593741366E+01  0.40499209832E+03 -0.67478438363E+03  0.78705013625E+03  0.46999998093E+01 0.  1.
</event>
<event>
 5   0  0.5958706E-03  0.1094980E+04  0.7818609E-02  0.9210099E-01
        1   -1    0    0  501    0  0.00000000000E+00  0.00000000000E+00  0.62890351430E+03  0.62890351432E+03  0.50400001928E-02 0. -1.
       -1   -1    0    0    0  501  0.00000000000E+00  0.00000000000E+00 -0.47661562319E+03  0.47661562321E+03  0.50400001928E-02 0.  1.
    10030    2    1    2    0    0  0.00000000000E+00  0.00000000000E+00  0.15228789111E+03  0.11055191375E+04  0.10949798910E+04 0.  0.
        2    1    3    3  502    0 -0.31946898107E+03  0.34382812917E+03 -0.20846831672E+03  0.51355355257E+03  0.25500000920E-02 0.  1.
       -2    1    3    3    0  502  0.31946898107E+03 -0.34382812917E+03  0.36075620783E+03  0.59196558496E+03  0.25500000920E-02 0. -1.
</event>
<event>
 5   0  0.9719260E-03  0.1110031E+04  0.7818609E-02  0.9195470E-01
       -2   -1    0    0    0  501  0.00000000000E+00  0.00000000000E+00  0.45144520137E+03  0.45144520138E+03  0.25500000920E-02 0.  1.
        2   -1    0    0  501    0  0.00000000000E+00  0.00000000000E+00 -0.68234688244E+03  0.68234688245E+03  0.25500000920E-02 0. -1.
    10030    2    1    2    0    0  0.00000000000E+00  0.00000000000E+00 -0.23090168107E+03  0.11337920838E+04  0.11100310370E+04 0.  0.
        3    1    3    3  502    0  0.45831065976E+03  0.20083621960E+03  0.12981071011E+03  0.51694746214E+03  0.10100000352E+00 0.  1.
       -3    1    3    3    0  502 -0.45831065976E+03 -0.20083621960E+03 -0.36071239118E+03  0.61684462169E+03  0.10100000352E+00 0. -1.
</event>
<event>
 5   0  0.1019384E-02  0.1076619E+04  0.7818609E-02  0.9228285E-01
       -2   -1    0    0    0  501  0.00000000000E+00  0.00000000000E+00  0.25539628082E+03  0.25539628083E+03  0.25500000920E-02 0. -1.
        2   -1    0    0  501    0  0.00000000000E+00  0.00000000000E+00 -0.11346169801E+04  0.11346169801E+04  0.25500000920E-02 0.  1.
    10030    2    1    2    0    0  0.00000000000E+00  0.00000000000E+00 -0.87922069928E+03  0.13900132609E+04  0.10766187011E+04 0.  0.
        1    1    3    3  502    0  0.19098622956E+03  0.30712884879E+03 -0.95438698656E+03  0.10206166713E+04  0.50400001928E-02 0.  1.
       -1    1    3    3    0  502 -0.19098622956E+03 -0.30712884879E+03  0.75166287283E+02  0.36939658961E+03  0.50400001928E-02 0. -1.
</event>
<event>
 5   0  0.5998641E-03  0.1040466E+04  0.7818609E-02  0.9265243E-01
       -1   -1    0    0    0  501  0.00000000000E+00  0.00000000000E+00  0.58828332509E+03  0.58828332512E+03  0.50400001928E-02 0. -1.
        1   -1    0    0  501    0  0.00000000000E+00  0.00000000000E+00 -0.46005466854E+03  0.46005466856E+03  0.50400001928E-02 0.  1.
    10030    2    1    2    0    0  0.00000000000E+00  0.00000000000E+00  0.12822865656E+03  0.10483379937E+04  0.10404662227E+04 0.  0.
        3    1    3    3  502    0  0.32064542871E+03 -0.20228703617E+03  0.42305234175E+03  0.56807290906E+03  0.10100000352E+00 0. -1.
       -3    1    3    3    0  502 -0.32064542871E+03  0.20228703617E+03 -0.29482368519E+03  0.48026508462E+03  0.10100000352E+00 0.  1.
</event>
<event>
 5   0  0.9719260E-03  0.1157391E+04  0.7818609E-02  0.9150992E-01
       -2   -1    0    0    0  501  0.00000000000E+00  0.00000000000E+00  0.26664354960E+03  0.26664354961E+03  0.25500000920E-02 0.  1.
        2   -1    0    0  501    0  0.00000000000E+00  0.00000000000E+00 -0.12559403325E+04  0.12559403325E+04  0.25500000920E-02 0. -1.
    10030    2    1    2    0    0  0.00000000000E+00  0.00000000000E+00 -0.98929678287E+03  0.15225838821E+04  0.11573908387E+04 0.  0.
        3    1    3    3  502    0 -0.29403768034E+03  0.67834039212E+02  0.15494807843E+03  0.33921752836E+03  0.10100000352E+00 0.  1.
       -3    1    3    3    0  502  0.29403768034E+03 -0.67834039212E+02 -0.11442448613E+04  0.11833663537E+04  0.10100000352E+00 0. -1.
</event>
<event>
 5   0  0.5854579E-03  0.1098878E+04  0.7818609E-02  0.9206286E-01
        1   -1    0    0  501    0  0.00000000000E+00  0.00000000000E+00  0.13101414610E+04  0.13101414610E+04  0.50400001928E-02 0.  1.
       -1   -1    0    0    0  501  0.00000000000E+00  0.00000000000E+00 -0.23042034224E+03  0.23042034230E+03  0.50400001928E-02 0. -1.
    10030    2    1    2    0    0  0.00000000000E+00  0.00000000000E+00  0.10797211187E+04  0.15405618033E+04  0.10988780531E+04 0.  0.
        4    1    3    3  502    0 -0.17268919814E+03 -0.50316943327E+03  0.73249655598E+03  0.90529213802E+03  0.12699999809E+01 0.  1.
       -4    1    3    3    0  502  0.17268919814E+03  0.50316943327E+03  0.34722456275E+03  0.63526966527E+03  0.12699999809E+01 0. -1.
</event>
<event>
 5   0  0.5854579E-03  0.9980391E+03  0.7818609E-02  0.9310698E-01
        1   -1    0    0  501    0  0.00000000000E+00  0.00000000000E+00  0.93249107541E+03  0.93249107542E+03  0.50400001928E-02 0.  1.
       -1   -1    0    0    0  501  0.00000000000E+00  0.00000000000E+00 -0.26704870306E+03  0.26704870311E+03  0.50400001928E-02 0. -1.
    10030    2    1    2    0    0  0.00000000000E+00  0.00000000000E+00  0.66544237235E+03  0.11995397785E+04  0.99803914220E+03 0.  0.
        4    1    3    3  502    0  0.92246384374E+02  0.15155664423E+03 -0.22785771719E+03  0.28878982673E+03  0.12699999809E+01 0. -1.
       -4    1    3    3    0  502 -0.92246384374E+02 -0.15155664423E+03  0.89330008954E+03  0.91074995180E+03  0.12699999809E+01 0.  1.
</event>
<event>
 5   0  0.5998641E-03  0.1096844E+04  0.7818609E-02  0.9208273E-01
       -1   -1    0    0    0  501  0.00000000000E+00  0.00000000000E+00  0.59375115148E+03  0.59375115150E+03  0.50400001928E-02 0. -1.
        1   -1    0    0  501    0  0.00000000000E+00  0.00000000000E+00 -0.50655347499E+03  0.50655347501E+03  0.50400001928E-02 0.  1.
    10030    2    1    2    0    0  0.00000000000E+00  0.00000000000E+00  0.87197676492E+02  0.11003046265E+04  0.10968440347E+04 0.  0.
        3    1    3    3  502    0 -0.39614147205E+03 -0.37923183395E+03  0.48287890711E+02  0.55052391442E+03  0.10100000352E+00 0. -1.
       -3    1    3    3    0  502  0.39614147205E+03  0.37923183395E+03  0.38909785781E+02  0.54978071210E+03  0.10100000352E+00 0.  1.
</event>
<event>
 5   0  0.9925021E-03  0.1108524E+04  0.7818609E-02  0.9196924E-01
       -2   -1    0    0    0  501  0.00000000000E+00  0.00000000000E+00  0.19446356765E+03  0.19446356766E+03  0.25500000920E-02 0.  1.
        2   -1    0    0  501    0  0.00000000000E+00  0.00000000000E+00 -0.15797626875E+04  0.15797626875E+04  0.25500000920E-02 0. -1.
    10030    2    1    2    0    0  0.00000000000E+00  0.00000000000E+00 -0.13852991199E+04  0.17742262552E+04  0.11085238622E+04 0.  0.
        4    1    3    3  502    0 -0.25835797109E+02  0.23971171731E+03 -0.14914337179E+04  0.15107962614E+04  0.12699999809E+01 0. -1.
       -4    1    3    3    0  502  0.25835797109E+02 -0.23971171731E+03  0.10613459799E+03  0.26342999377E+03  0.12699999809E+01 0.  1.
</event>
<event>
 5   0  0.9925021E-03  0.8591011E+03  0.7818609E-02  0.9478203E-01
        2   -1    0    0  501    0  0.00000000000E+00  0.00000000000E+00  0.11527006126E+04  0.11527006126E+04  0.25500000920E-02 0. -1.
       -2   -1    0    0    0  501  0.00000000000E+00  0.00000000000E+00 -0.16007076583E+03  0.16007076585E+03  0.25500000920E-02 0.  1.
    10030    2    1    2    0    0  0.00000000000E+00  0.00000000000E+00  0.99262984675E+03  0.13127713784E+04  0.85910108799E+03 0.  0.
        4    1    3    3  502    0  0.36777987168E+03  0.21984612052E+03  0.54260593471E+03  0.69138785352E+03  0.12699999809E+01 0. -1.
       -4    1    3    3    0  502 -0.36777987168E+03 -0.21984612052E+03  0.45002391204E+03  0.62138352491E+03  0.12699999809E+01 0.  1.
</event>
<event>
 5   0  0.9692981E-03  0.1062376E+04  0.7818609E-02  0.9242659E-01
       -2   -1    0    0    0  501  0.00000000000E+00  0.00000000000E+00  0.59466840065E+03  0.59466840066E+03  0.25500000920E-02 0. -1.
        2   -1    0    0  501    0  0.00000000000E+00  0.00000000000E+00 -0.47448425933E+03  0.47448425934E+03  0.25500000920E-02 0.  1.
    10030    2    1    2    0    0  0.00000000000E+00  0.00000000000E+00  0.12018414132E+03  0.10691526600E+04  0.10623761963E+04 0.  0.
        5    1    3    3  502    0 -0.23868568442E+03 -0.47075154790E+03  0.38753688636E-01  0.52782569784E+03  0.46999998093E+01 0. -1.
       -5    1    3    3    0  502  0.23868568442E+03  0.47075154790E+03  0.12014538763E+03  0.54132696216E+03  0.46999998093E+01 0.  1.
</event>
<event>
 5   0  0.5998641E-03  0.1149399E+04  0.7818609E-02  0.9158338E-01
       -1   -1    0    0    0  501  0.00000000000E+00  0.00000000000E+00  0.92081201946E+03  0.92081201948E+03  0.50400001928E-02 0.  1.
        1   -1    0    0  501    0  0.00000000000E+00  0.00000000000E+00 -0.35868305409E+03  0.35868305413E+03  0.50400001928E-02 0. -1.
    10030    2    1    2    0    0  0.00000000000E+00  0.00000000000E+00  0.56212896537E+03  0.12794950736E+04  0.11493992647E+04 0.  0.
        3    1    3    3  502    0  0.42209066430E+03 -0.26652767336E+03  0.59804332237E+03  0.77900793012E+03  0.10100000352E+00 0.  1.
       -3    1    3    3    0  502 -0.42209066430E+03  0.26652767336E+03 -0.35914356997E+02  0.50048714349E+03  0.10100000352E+00 0. -1.
</event>
<event>
 5   0  0.5712664E-03  0.1152487E+04  0.7818609E-02  0.9155492E-01
        1   -1    0    0  501    0  0.00000000000E+00  0.00000000000E+00  0.84309259622E+03  0.84309259623E+03  0.50400001928E-02 0. -1.
       -1   -1    0    0    0  501  0.00000000000E+00  0.00000000000E+00 -0.39385565508E+03  0.39385565512E+03  0.50400001928E-02 0.  1.
    10030    2    1    2    0    0  0.00000000000E+00  0.00000000000E+00  0.44923694113E+03  0.12369482513E+04  0.11524873740E+04 0.  0.
        5    1    3    3  502    0  0.40988247104E+03 -0.30991093547E+03  0.50446888754E+03  0.72011066961E+03  0.46999998093E+01 0. -1.
       -5    1    3    3    0  502 -0.40988247104E+03  0.30991093547E+03 -0.55231946409E+02  0.51683758174E+03  0.46999998093E+01 0.  1.
</event>
<event>
 5   0  0.1028016E-02  0.1167232E+04  0.7818609E-02  0.9142032E-01
       -2   -1    0    0    0  501  0.00000000000E+00  0.00000000000E+00  0.50050586604E+03  0.50050586604E+03  0.25500000920E-02 0. -1.
        2   -1    0    0  501    0  0.00000000000E+00  0.00000000000E+00 -0.68052680192E+03  0.68052680193E+03  0.25500000920E-02 0.  1.
    10030    2    1    2    0    0  0.00000000000E+00  0.00000000000E+00 -0.18002093589E+03  0.11810326680E+04  0.11672320358E+04 0.  0.
        2    1    3    3  502    0  0.86834369422E+02  0.26401747559E+03  0.42924544432E+03  0.51136785840E+03  0.25500000920E-02 0. -1.
       -2    1    3    3    0  502 -0.86834369422E+02 -0.26401747559E+03 -0.60926638020E+03  0.66966480958E+03  0.25500000920E-02 0.  1.
</event>
<event>
 5   0  0.9719260E-03  0.1171899E+04  0.7818609E-02  0.9137815E-01
       -2   -1    0    0    0  501  0.00000000000E+00  0.00000000000E+00  0.83076380707E+03  0.83076380707E+03  0.25500000920E-02 0.  1.
        2   -1    0    0  501    0  0.00000000000E+00  0.00000000000E+00 -0.41327860385E+03  0.41327860385E+03  0.25500000920E-02 0. -1.
    10030    2    1    2    0    0  0.00000000000E+00  0.00000000000E+00  0.41748520323E+03  0.12440424109E+04  0.11718991532E+04 0.  0.
        3    1    3    3  502    0  0.20134237200E+03 -0.54104587594E+03  0.10222880056E+03  0.58627649492E+03  0.10100000352E+00 0. -1.
       -3    1    3    3    0  502 -0.20134237200E+03  0.54104587594E+03  0.31525640266E+03  0.65776591600E+03  0.10100000352E+00 0.  1.
</event>
<event>
 5   0  0.1019384E-02  0.1098362E+04  0.7818609E-02  0.9206790E-01
       -2   -1    0    0    0  501  0.00000000000E+00  0.00000000000E+00  0.50589148281E+03  0.50589148281E+03  0.25500000920E-02 0.  1.
        2   -1    0    0  501    0  0.00000000000E+00  0.00000000000E+00 -0.59617430835E+03  0.59617430836E+03  0.25500000920E-02 0. -1.
    10030    2    1    2    0    0  0.00000000000E+00  0.00000000000E+00 -0.90282825547E+02  0.11020657912E+04  0.10983615158E+04 0.  0.
        1    1    3    3  502    0  0.48730384287E+03  0.20711498924E+03  0.10108219560E+03  0.53905404584E+03  0.50400001928E-02 0.  1.
       -1    1    3    3    0  502 -0.48730384287E+03 -0.20711498924E+03 -0.19136502114E+03  0.56301174533E+03  0.50400001928E-02 0. -1.
</event>
<event>
 5   0  0.1028016E-02  0.1213112E+04  0.7818609E-02  0.9101456E-01
       -2   -1    0    0    0  501  0.00000000000E+00  0.00000000000E+00  0.14212707978E+03  0.14212707980E+03  0.25500000920E-02 0. -1.
        2   -1    0    0  501    0  0.00000000000E+00  0.00000000000E+00 -0.25886003218E+04  0.25886003218E+04  0.25500000920E-02 0.  1.
    10030    2    1    2    0    0  0.00000000000E+00  0.00000000000E+00 -0.24464732420E+04  0.27307274016E+04  0.12131120385E+04 0.  0.
        2    1    3    3  502    0  0.37061408887E+02  0.50384541716E+03 -0.19788402194E+04  0.20423129942E+04  0.25500000920E-02 0.  1.
       -2    1    3    3    0  502 -0.37061408887E+02 -0.50384541716E+03 -0.46763302258E+03  0.68841440734E+03  0.25500000920E-02 0. -1.
</event>
<event>
 5   0  0.9719260E-03  0.8250727E+03  0.7818609E-02  0.9524418E-01
        2   -1    0    0  501    0  0.00000000000E+00  0.00000000000E+00  0.33791444305E+03  0.33791444306E+03  0.25500000920E-02 0.  1.
       -2   -1    0    0    0  501  0.00000000000E+00  0.00000000000E+00 -0.50363712370E+03  0.50363712370E+03  0.25500000920E-02 0. -1.
    10030    2    1    2    0    0  0.00000000000E+00  0.00000000000E+00 -0.16572268065E+03  0.84155156676E+03  0.82507274385E+03 0.  0.
        3    1    3    3  502    0 -0.75018026036E+01 -0.19510097284E+03  0.28780514158E+03  0.34778222549E+03  0.10100000352E+00 0.  1.
       -3    1    3    3    0  502  0.75018026036E+01  0.19510097284E+03 -0.45352782223E+03  0.49376934127E+03  0.10100000352E+00 0. -1.
</event>
<event>
 5   0  0.5998641E-03  0.9215823E+03  0.7818609E-02  0.9398998E-01
        1   -1    0    0  501    0  0.00000000000E+00  0.00000000000E+00  0.67008045269E+03  0.67008045271E+03  0.50400001928E-02 0. -1.
       -1   -1    0    0    0  501  0.00000000000E+00  0.00000000000E+00 -0.31687010329E+03  0.31687010333E+03  0.50400001928E-02 0.  1.
    10030    2    1    2    0    0  0.00000000000E+00  0.00000000000E+00  0.35321034940E+03  0.98695055604E+03  0.92158225306E+03 0.  0.
        3    1    3    3  502    0  0.20248658664E+03  0.94007371976E+02 -0.25508776347E+03  0.33898079743E+03  0.10100000352E+00 0.  1.
       -3    1    3    3    0  502 -0.20248658664E+03 -0.94007371976E+02  0.60829811287E+03  0.64796975861E+03  0.10100000352E+00 0. -1.
</event>
<event>
 5   0  0.9692981E-03  0.1047957E+04  0.7818609E-02  0.9257456E-01
       -2   -1    0    0    0  501  0.00000000000E+00  0.00000000000E+00  0.44653816769E+03  0.44653816770E+03  0.25500000920E-02 0.  1.
        2   -1    0    0  501    0  0.00000000000E+00  0.00000000000E+00 -0.61484896179E+03  0.61484896180E+03  0.25500000920E-02 0. -1.
    10030    2    1    2    0    0  0.00000000000E+00  0.00000000000E+00 -0.16831079410E+03  0.10613871295E+04  0.10479571152E+04 0.  0.
        5    1    3    3  502    0  0.26200764917E+03 -0.28699793523E+03 -0.44010723541E+03  0.58713907356E+03  0.46999998093E+01 0. -1.
       -5    1    3    3    0  502 -0.26200764917E+03  0.28699793523E+03  0.27179644131E+03  0.47424805593E+03  0.46999998093E+01 0.  1.
</event>
<event>
 5   0  0.5712664E-03  0.1080449E+04  0.7818609E-02  0.9224460E-01
        1   -1    0    0  501    0  0.00000000000E+00  0.00000000000E+00  0.10062384984E+04  0.10062384984E+04  0.50400001928E-02 0. -1.
       -1   -1    0    0    0  501  0.00000000000E+00  0.00000000000E+00 -0.29003315151E+03  0.29003315155E+03  0.50400001928E-02 0.  1.
    10030    2    1    2    0    0  0.00000000000E+00  0.00000000000E+00  0.71620534693E+03  0.12962716500E+04  0.10804490231E+04 0.  0.
        5    1    3    3  502    0  0.71347895414E+02  0.52733927001E+03  0.46964229057E+03  0.70976277655E+03  0.46999998093E+01 0. -1.
       -5    1    3    3    0  502 -0.71347895414E+02 -0.52733927001E+03  0.24656305635E+03  0.58650887345E+03  0.46999998093E+01 0.  1.
</event>
<event>
 5   0  0.5998641E-03  0.1112089E+04  0.7818609E-02  0.9193488E-01
       -1   -1    0    0    0  501  0.00000000000E+00  0.00000000000E+00  0.26528896120E+03  0.26528896125E+03  0.50400001928E-02 0. -1.
        1   -1    0    0  501    0  0.00000000000E+00  0.00000000000E+00 -0.11654677400E+04  0.11654677400E+04  0.50400001928E-02 0.  1.
    10030    2    1    2    0    0  0.00000000000E+00  0.00000000000E+00 -0.90017877882E+03  0.14307567013E+04  0.11120894318E+04 0.  0.
        3    1    3    3  502    0  0.18746632676E+02 -0.10309213365E+03 -0.11526510982E+04  0.11574039868E+04  0.10100000352E+00 0.  1.
       -3    1    3    3    0  502 -0.18746632676E+02  0.10309213365E+03  0.25247231939E+03  0.27335271448E+03  0.10100000352E+00 0. -1.
</event>
<event>
 5   0  0.9719260E-03  0.1125620E+04  0.7818609E-02  0.9180575E-01
        2   -1    0    0  501    0  0.00000000000E+00  0.00000000000E+00  0.79395130548E+03  0.79395130548E+03  0.25500000920E-02 0. -1.
       -2   -1    0    0    0  501  0.00000000000E+00  0.00000000000E+00 -0.39896001650E+03  0.39896001650E+03  0.25500000920E-02 0.  1.
    10030    2    1    2    0    0  0.00000000000E+00  0.00000000000E+00  0.39499128899E+03  0.11929113220E+04  0.11256195200E+04 0.  0.
        3    1    3    3  502    0 -0.26460651906E+03 -0.47178270477E+03  0.32770997368E+02  0.54191279641E+03  0.10100000352E+00 0.  1.
       -3    1    3    3    0  502  0.26460651906E+03  0.47178270477E+03  0.36222029162E+03  0.65099852558E+03  0.10100000352E+00 0. -1.
</event>
<event>
 5   0  0.5789905E-03  0.1076446E+04  0.7818609E-02  0.9228458E-01
       -1   -1    0    0    0  501  0.00000000000E+00  0.00000000000E+00  0.44346325568E+03  0.44346325571E+03  0.50400001928E-02 0. -1.
        1   -1    0    0  501    0  0.00000000000E+00  0.00000000000E+00 -0.65323145417E+03  0.65323145419E+03  0.50400001928E-02 0.  1.
    10030    2    1    2    0    0  0.00000000000E+00  0.00000000000E+00 -0.20976819849E+03  0.10966947099E+04  0.10764462781E+04 0.  0.
        1    1    3    3  502    0  0.17053813922E+03 -0.29838370251E+03  0.31711507773E+03  0.46763026356E+03  0.50400001928E-02 0. -1.
       -1    1    3    3    0  502 -0.17053813922E+03  0.29838370251E+03 -0.52688327622E+03  0.62906444633E+03  0.50400001928E-02 0.  1.
</event>
<event>
 5   0  0.5998641E-03  0.1087094E+04  0.7818609E-02  0.9217863E-01
       -1   -1    0    0    0  501  0.00000000000E+00  0.00000000000E+00  0.10583851792E+04  0.10583851792E+04  0.50400001928E-02 0. -1.
        1   -1    0    0  501    0  0.00000000000E+00  0.00000000000E+00 -0.27914524360E+03  0.27914524365E+03  0.50400001928E-02 0.  1.
    10030    2    1    2    0    0  0.00000000000E+00  0.00000000000E+00  0.77923993556E+03  0.13375304228E+04  0.10870937194E+04 0.  0.
        3    1    3    3  502    0 -0.17535499635E+02  0.13788400708E+03  0.10361497167E+04  0.10454308867E+04  0.10100000352E+00 0. -1.
       -3    1    3    3    0  502  0.17535499635E+02 -0.13788400708E+03 -0.25690978116E+03  0.29209953614E+03  0.10100000352E+00 0.  1.
</event>
<event>
 5   0  0.5958706E-03  0.1105123E+04  0.7818609E-02  0.9200213E-01
        1   -1    0    0  501    0  0.00000000000E+00  0.00000000000E+00  0.17043404813E+04  0.17043404813E+04  0.50400001928E-02 0. -1.
       -1   -1    0    0    0  501  0.00000000000E+00  0.00000000000E+00 -0.17914519777E+03  0.17914519784E+03  0.50400001928E-02 0.  1.
    10030    2    1    2    0    0  0.00000000000E+00  0.00000000000E+00  0.15251952835E+04  0.18834856791E+04  0.11051233645E+04 0.  0.
        2    1    3    3  502    0 -0.54570512553E+03 -0.57454614608E+01  0.91016983653E+03  0.10612427742E+04  0.25500000920E-02 0. -1.
       -2    1    3    3    0  502  0.54570512553E+03  0.57454614608E+01  0.61502544699E+03  0.82224290499E+03  0.25500000920E-02 0.  1.
</event>
<event>
 5   0  0.5712664E-03  0.1088234E+04  0.7818609E-02  0.9216736E-01
       -1   -1    0    0    0  501  0.00000000000E+00  0.00000000000E+00  0.15434465702E+03  0.15434465710E+03  0.50400001928E-02 0. -1.
        1   -1    0    0  501    0  0.00000000000E+00  0.00000000000E+00 -0.19181960556E+04  0.19181960556E+04  0.50400001928E-02 0.  1.
    10030    2    1    2    0    0  0.00000000000E+00  0.00000000000E+00 -0.17638513986E+04  0.20725407127E+04  0.10882340049E+04 0.  0.
        5    1    3    3  502    0 -0.44539711392E+03  0.21169458535E+03 -0.44410609576E+03  0.66366068201E+03  0.46999998093E+01 0. -1.
       -5    1    3    3    0  502  0.44539711392E+03 -0.21169458535E+03 -0.13197453028E+04  0.14088800307E+04  0.46999998093E+01 0.  1.
</event>
<event>
 5   0  0.9925021E-03  0.1207157E+04  0.7818609E-02  0.9106615E-01
        2   -1    0    0  501    0  0.00000000000E+00  0.00000000000E+00  0.44801427511E+03  0.44801427512E+03  0.25500000920E-02 0.  1.
       -2   -1    0    0    0  501  0.00000000000E+00  0.00000000000E+00 -0.81315912621E+03  0.81315912621E+03  0.25500000920E-02 0. -1.
    10030    2    1    2    0    0  0.00000000000E+00  0.00000000000E+00 -0.36514485110E+03  0.12611734013E+04  0.12071568191E+04 0.  0.
        4    1    3    3  502    0  0.25510891161E+03  0.47678855646E+03 -0.46270763728E+03  0.71169365239E+03  0.12699999809E+01 0. -1.
       -4    1    3    3    0  502 -0.25510891161E+03 -0.47678855646E+03  0.97562786182E+02  0.54947974894E+03  0.12699999809E+01 0.  1.
</event>
<event>
 5   0  0.1019384E-02  0.1109592E+04  0.7818609E-02  0.9195893E-01
       -2   -1    0    0    0  501  0.00000000000E+00  0.00000000000E+00  0.33383970560E+03  0.33383970561E+03  0.25500000920E-02 0. -1.
        2   -1    0    0  501    0  0.00000000000E+00  0.00000000000E+00 -0.92199537204E+03  0.92199537204E+03  0.25500000920E-02 0.  1.
    10030    2    1    2    0    0  0.00000000000E+00  0.00000000000E+00 -0.58815566644E+03  0.12558350776E+04  0.11095921117E+04 0.  0.
        1    1    3    3  502    0  0.23469332881E+03  0.10296644418E+03 -0.85098223422E+03  0.88873719974E+03  0.50400001928E-02 0.  1.
       -1    1    3    3    0  502 -0.23469332881E+03 -0.10296644418E+03  0.26282656778E+03  0.36709787791E+03  0.50400001928E-02 0. -1.
</event>
<event>
 5   0  0.5854579E-03  0.1060852E+04  0.7818609E-02  0.9244212E-01
       -1   -1    0    0    0  501  0.00000000000E+00  0.00000000000E+00  0.63802069917E+03  0.63802069919E+03  0.50400001928E-02 0. -1.
        1   -1    0    0  501    0  0.00000000000E+00  0.00000000000E+00 -0.44097549119E+03  0.44097549122E+03  0.50400001928E-02 0.  1.
    10030    2    1    2    0    0  0.00000000000E+00  0.00000000000E+00  0.19704520798E+03  0.10789961904E+04  0.10608515282E+04 0.  0.
        4    1    3    3  502    0  0.14102739866E+03  0.85023671421E+02  0.61136098442E+03  0.63315212868E+03  0.12699999809E+01 0. -1.
       -4    1    3    3    0  502 -0.14102739866E+03 -0.85023671421E+02 -0.41431577644E+03  0.44584406174E+03  0.12699999809E+01 0.  1.
</event>
<event>
 5   0  0.1028016E-02  0.1123535E+04  0.7818609E-02  0.9182552E-01
        2   -1    0    0  501    0  0.00000000000E+00  0.00000000000E+00  0.26747410804E+04  0.26747410804E+04  0.25500000920E-02 0.  1.
       -2   -1    0    0    0  501  0.00000000000E+00  0.00000000000E+00 -0.11798616937E+03  0.11798616940E+03  0.25500000920E-02 0. -1.
    10030    2    1    2    0    0  0.00000000000E+00  0.00000000000E+00  0.25567549111E+04  0.27927272498E+04  0.11235345196E+04 0.  0.
        2    1    3    3  502    0  0.31694049974E+02 -0.44100286002E+03  0.21397747726E+04  0.21849769136E+04  0.25500000920E-02 0.  1.
       -2    1    3    3    0  502 -0.31694049974E+02  0.44100286002E+03  0.41698013841E+03  0.60775033623E+03  0.25500000920E-02 0. -1.
</event>
<event>
 5   0  0.5998641E-03  0.1103464E+04  0.7818609E-02  0.9201822E-01
        1   -1    0    0  501    0  0.00000000000E+00  0.00000000000E+00  0.70487600010E+03  0.70487600011E+03  0.50400001928E-02 0.  1.
       -1   -1    0    0    0  501  0.00000000000E+00  0.00000000000E+00 -0.43186063367E+03  0.43186063370E+03  0.50400001928E-02 0. -1.
    10030    2    1    2    0    0  0.00000000000E+00  0.00000000000E+00  0.27301536643E+03  0.11367366338E+04  0.11034639932E+04 0.  0.
        3    1    3    3  502    0  0.31623869579E+03  0.96974200761E+02  0.59140771158E+03  0.67762378932E+03  0.10100000352E+00 0.  1.
       -3    1    3    3    0  502 -0.31623869579E+03 -0.96974200761E+02 -0.31839234516E+03  0.45911284450E+03  0.10100000352E+00 0. -1.
</event>
<event>
 5   0  0.1028016E-02  0.1093102E+04  0.7818609E-02  0.9211941E-01
        2   -1    0    0  501    0  0.00000000000E+00  0.00000000000E+00  0.14536658222E+04  0.14536658222E+04  0.25500000920E-02 0.  1.
       -2   -1    0    0    0  501  0.00000000000E+00  0.00000000000E+00 -0.20549301495E+03  0.20549301496E+03  0.25500000920E-02 0. -1.
    10030    2    1    2    0    0  0.00000000000E+00  0.00000000000E+00  0.12481728072E+04  0.16591588371E+04  0.10931023237E+04 0.  0.
        2    1    3    3  502    0  0.20184556798E+03  0.16456361966E+03 -0.10526150917E+03  0.28089642851E+03  0.25500000920E-02 0. -1.
       -2    1    3    3    0  502 -0.20184556798E+03 -0.16456361966E+03  0.13534343164E+04  0.13782624086E+04  0.25500000920E-02 0.  1.
</event>
<event>
 5   0  0.5958706E-03  0.1095870E+04  0.7818609E-02  0.9209227E-01
        1   -1    0    0  501    0  0.00000000000E+00  0.00000000000E+00  0.16561656422E+04  0.16561656422E+04  0.50400001928E-02 0.  1.
       -1   -1    0    0    0  501  0.00000000000E+00  0.00000000000E+00 -0.18128168154E+03  0.18128168161E+03  0.50400001928E-02 0. -1.
    10030    2    1    2    0    0  0.00000000000E+00  0.00000000000E+00  0.14748839606E+04  0.18374473238E+04  0.10958695043E+04 0.  0.
        2    1    3    3  502    0 -0.34010188031E+03 -0.40329014765E+03  0.48919789457E+03  0.71946286369E+03  0.25500000920E-02 0.  1.
       -2    1    3    3    0  502  0.34010188031E+03  0.40329014765E+03  0.98568606608E+03  0.11179844601E+04  0.25500000920E-02 0. -1.
</event>
<event>
 5   0  0.5958706E-03  0.1097885E+04  0.7818609E-02  0.9207256E-01
       -1   -1    0    0    0  501  0.00000000000E+00  0.00000000000E+00  0.61560101473E+03  0.61560101475E+03  0.50400001928E-02 0.  1.
        1   -1    0    0  501    0  0.00000000000E+00  0.00000000000E+00 -0.48950205697E+03  0.48950205699E+03  0.50400001928E-02 0. -1.
    10030    2    1    2    0    0  0.00000000000E+00  0.00000000000E+00  0.12609895776E+03  0.11051030717E+04  0.10978851725E+04 0.  0.
        2    1    3    3  502    0 -0.19933529163E+03 -0.21880519423E+03  0.52839577739E+03  0.60565036868E+03  0.25500000920E-02 0.  1.
       -2    1    3    3    0  502  0.19933529163E+03  0.21880519423E+03 -0.40229681962E+03  0.49945270307E+03  0.25500000920E-02 0. -1.
</event>
<event>
 5   0  0.5958706E-03  0.1095174E+04  0.7818609E-02  0.9209908E-01
       -1   -1    0    0    0  501  0.00000000000E+00  0.00000000000E+00  0.25759922067E+03  0.25759922072E+03  0.50400001928E-02 0. -1.
        1   -1    0    0  501    0  0.00000000000E+00  0.00000000000E+00 -0.11640233454E+04  0.11640233454E+04  0.50400001928E-02 0.  1.
    10030    2    1    2    0    0  0.00000000000E+00  0.00000000000E+00 -0.90642412470E+03  0.14216225661E+04  0.10951739709E+04 0.  0.
        2    1    3    3  502    0  0.38376030715E+03  0.12078412318E+03  0.28986764694E+02  0.40336213294E+03  0.25500000920E-02 0. -1.
       -2    1    3    3    0  502 -0.38376030715E+03 -0.12078412318E+03 -0.93541088939E+03  0.10182604332E+04  0.25500000920E-02 0.  1.
</event>
<event>
 5   0  0.1028016E-02  0.1113134E+04  0.7818609E-02  0.9192484E-01
       -2   -1    0    0    0  501  0.00000000000E+00  0.00000000000E+00  0.31696353321E+03  0.31696353322E+03  0.25500000920E-02 0.  1.
        2   -1    0    0  501    0  0.00000000000E+00  0.00000000000E+00 -0.97729510729E+03  0.97729510729E+03  0.25500000920E-02 0. -1.
    10030    2    1    2    0    0  0.00000000000E+00  0.00000000000E+00 -0.66033157408E+03  0.12942586405E+04  0.11131341522E+04 0.  0.
        2    1    3    3  502    0  0.23878064133E+03 -0.35527027556E+03  0.83430612586E+02  0.43611217651E+03  0.25500000920E-02 0.  1.
       -2    1    3    3    0  502 -0.23878064133E+03  0.35527027556E+03 -0.74376218666E+03  0.85814646401E+03  0.25500000920E-02 0. -1.
</event>
<event>
 5   0  0.5712664E-03  0.1175858E+04  0.7818609E-02  0.9134254E-01
        1   -1    0    0  501    0  0.00000000000E+00  0.00000000000E+00  0.44583147198E+03  0.44583147201E+03  0.50400001928E-02 0. -1.
       -1   -1    0    0    0  501  0.00000000000E+00  0.00000000000E+00 -0.77531680040E+03  0.77531680042E+03  0.50400001928E-02 0.  1.
    10030    2    1    2    0    0  0.00000000000E+00  0.00000000000E+00 -0.32948532843E+03  0.12211482724E+04  0.11758582064E+04 0.  0.
        5    1    3    3  502    0 -0.16304122361E+02 -0.20373948288E+03  0.40772678136E+03  0.45611272678E+03  0.46999998093E+01 0. -1.
       -5    1    3    3    0  502  0.16304122361E+02  0.20373948288E+03 -0.73721210979E+03  0.76503554565E+03  0.46999998093E+01 0.  1.
</event>
<event>
 5   0  0.9692981E-03  0.1097455E+04  0.7818609E-02  0.9207676E-01
       -2   -1    0    0    0  501  0.00000000000E+00  0.00000000000E+00  0.66697866099E+03  0.66697866100E+03  0.25500000920E-02 0.  1.
        2   -1    0    0  501    0  0.00000000000E+00  0.00000000000E+00 -0.45144142479E+03  0.45144142480E+03  0.25500000920E-02 0. -1.
    10030    2    1    2    0    0  0.00000000000E+00  0.00000000000E+00  0.21553723620E+03  0.11184200858E+04  0.10974548684E+04 0.  0.
        5    1    3    3  502    0  0.29802335592E+03  0.34005757971E+03  0.42454858802E+03  0.62025855237E+03  0.46999998093E+01 0.  1.
       -5    1    3    3    0  502 -0.29802335592E+03 -0.34005757971E+03 -0.20901135182E+03  0.49816153343E+03  0.46999998093E+01 0. -1.
</event>
<event>
 5   0  0.9692981E-03  0.1097482E+04  0.7818609E-02  0.9207649E-01
        2   -1    0    0  501    0  0.00000000000E+00  0.00000000000E+00  0.91483736253E+03  0.91483736253E+03  0.25500000920E-02 0.  1.
       -2   -1    0    0    0  501  0.00000000000E+00  0.00000000000E+00 -0.32914804311E+03  0.32914804312E+03  0.25500000920E-02 0. -1.
    10030    2    1    2    0    0  0.00000000000E+00  0.00000000000E+00  0.58568931942E+03  0.12439854057E+04  0.10974824420E+04 0.  0.
        5    1    3    3  502    0 -0.32767314176E+03  0.21060598279E+03 -0.14523166922E+03  0.41573897527E+03  0.46999998093E+01 0. -1.
       -5    1    3    3    0  502  0.32767314176E+03 -0.21060598279E+03  0.73092098864E+03  0.82824643038E+03  0.46999998093E+01 0.  1.
</event>
<event>
 5   0  0.9925021E-03  0.1071423E+04  0.7818609E-02  0.9233502E-01
        2   -1    0    0  501    0  0.00000000000E+00  0.00000000000E+00  0.60449170535E+03  0.60449170536E+03  0.25500000920E-02 0.  1.
       -2   -1    0    0    0  501  0.00000000000E+00  0.00000000000E+00 -0.47475703557E+03  0.47475703557E+03  0.25500000920E-02 0. -1.
    10030    2    1    2    0    0  0.00000000000E+00  0.00000000000E+00  0.12973466979E+03  0.10792487409E+04  0.10714227738E+04 0.  0.
        4    1    3    3  502    0 -0.40736493120E+03 -0.22580870316E+02  0.41457604048E+03  0.58166226379E+03  0.12699999809E+01 0.  1.
       -4    1    3    3    0  502  0.40736493120E+03  0.22580870316E+02 -0.28484137069E+03  0.49758647714E+03  0.12699999809E+01 0. -1.
</event>
<event>
 5   0  0.5854579E-03  0.1121994E+04  0.7818609E-02  0.9184017E-01
        1   -1    0    0  501    0  0.00000000000E+00  0.00000000000E+00  0.57774584586E+03  0.57774584588E+03  0.50400001928E-02 0.  1.
       -1   -1    0    0    0  501  0.00000000000E+00  0.00000000000E+00 -0.54473338900E+03  0.54473338903E+03  0.50400001928E-02 0. -1.
    10030    2    1    2    0    0  0.00000000000E+00  0.00000000000E+00  0.33012456856E+02  0.11224792349E+04  0.11219936767E+04 0.  0.
        4    1    3    3  502    0 -0.69815611773E+02  0.55208260938E+03 -0.54562620216E+02  0.55914946093E+03  0.12699999809E+01 0.  1.
       -4    1    3    3    0  502  0.69815611773E+02 -0.55208260938E+03  0.87575077072E+02  0.56332977398E+03  0.12699999809E+01 0. -1.
</event>
<event>
 5   0  0.3949750E-03  0.1099734E+04  0.7818609E-02  0.9205451E-01
        4   -1    0    0  501    0  0.00000000000E+00  0.00000000000E+00  0.19356516248E+04  0.19356520414E+04  0.12699999809E+01 0.  1.
       -4   -1    0    0    0  501  0.00000000000E+00  0.00000000000E+00 -0.15619955734E+03  0.15620472020E+03  0.12699999809E+01 0. -1.
    10030    2    1    2    0    0  0.00000000000E+00  0.00000000000E+00  0.17794520675E+04  0.20918567616E+04  0.10997340819E+04 0.  0.
        3    1    3    3  502    0 -0.84310016932E+02 -0.78541054657E+02 -0.13298027579E+03  0.17595635871E+03  0.10100000352E+00 0. -1.
       -3    1    3    3    0  502  0.84310016932E+02  0.78541054657E+02  0.19124323433E+04  0.19159004029E+04  0.10100000352E+00 0.  1.
</event>
<event>
 5   0  0.3949750E-03  0.1092874E+04  0.7818609E-02  0.9212165E-01
        3   -1    0    0  501    0  0.00000000000E+00  0.00000000000E+00  0.17703379795E+04  0.17703379823E+04  0.10100000352E+00 0.  1.
       -3   -1    0    0    0  501  0.00000000000E+00  0.00000000000E+00 -0.16866471873E+03  0.16866474897E+03  0.10100000352E+00 0. -1.
    10030    2    1    2    0    0  0.00000000000E+00  0.00000000000E+00  0.16016732607E+04  0.19390027313E+04  0.10928743560E+04 0.  0.
        1    1    3    3  502    0 -0.65282155855E+02  0.31325083394E+03  0.15867307600E+04  0.16186730212E+04  0.50400001928E-02 0.  1.
       -1    1    3    3    0  502  0.65282155855E+02 -0.31325083394E+03  0.14942500746E+02  0.32032971012E+03  0.50400001928E-02 0. -1.
</event>
<event>
 5   0  0.1028016E-02  0.1105717E+04  0.7818609E-02  0.9199638E-01
       -2   -1    0    0    0  501  0.00000000000E+00  0.00000000000E+00  0.61271047698E+03  0.61271047699E+03  0.25500000920E-02 0. -1.
        2   -1    0    0  501    0  0.00000000000E+00  0.00000000000E+00 -0.49885271105E+03  0.49885271106E+03  0.25500000920E-02 0.  1.
    10030    2    1    2    0    0  0.00000000000E+00  0.00000000000E+00  0.11385776593E+03  0.11115631880E+04  0.11057165686E+04 0.  0.
        2    1    3    3  502    0 -0.12590164619E+03 -0.55596545539E+02 -0.48135555076E+03  0.50064495068E+03  0.25500000920E-02 0.  1.
       -2    1    3    3    0  502  0.12590164619E+03  0.55596545539E+02  0.59521331669E+03  0.61091823737E+03  0.25500000920E-02 0. -1.
</event>
<event>
 5   0  0.5958706E-03  0.1145387E+04  0.7818609E-02  0.9162049E-01
        1   -1    0    0  501    0  0.00000000000E+00  0.00000000000E+00  0.12835806105E+04  0.12835806105E+04  0.50400001928E-02 0.  1.
       -1   -1    0    0    0  501  0.00000000000E+00  0.00000000000E+00 -0.25551812637E+03  0.25551812642E+03  0.50400001928E-02 0. -1.
    10030    2    1    2    0    0  0.00000000000E+00  0.00000000000E+00  0.10280624842E+04  0.15390987370E+04  0.11453874675E+04 0.  0.
        2    1    3    3  502    0  0.28740962014E+03  0.30426747452E+03  0.10392845627E+04  0.11203996555E+04  0.25500000920E-02 0.  1.
       -2    1    3    3    0  502 -0.28740962014E+03 -0.30426747452E+03 -0.11222078488E+02  0.41869908150E+03  0.25500000920E-02 0. -1.
</event>
<event>
 5   0  0.9719260E-03  0.1119180E+04  0.7818609E-02  0.9186697E-01
        2   -1    0    0  501    0  0.00000000000E+00  0.00000000000E+00  0.90284191357E+03  0.90284191357E+03  0.25500000920E-02 0. -1.
       -2   -1    0    0    0  501  0.00000000000E+00  0.00000000000E+00 -0.34683898653E+03  0.34683898654E+03  0.25500000920E-02 0.  1.
    10030    2    1    2    0    0  0.00000000000E+00  0.00000000000E+00  0.55600292704E+03  0.12496809001E+04  0.11191796537E+04 0.  0.
        3    1    3    3  502    0 -0.34798110198E+03 -0.21775826842E+03 -0.14664782499E+03  0.43590722130E+03  0.10100000352E+00 0. -1.
       -3    1    3    3    0  502  0.34798110198E+03  0.21775826842E+03  0.70265075203E+03  0.81377367881E+03  0.10100000352E+00 0.  1.
</event>
<event>
 5   0  0.9692981E-03  0.1144557E+04  0.7818609E-02  0.9162820E-01
        2   -1    0    0  501    0  0.00000000000E+00  0.00000000000E+00  0.14411889266E+04  0.14411889266E+04  0.25500000920E-02 0.  1.
       -2   -1    0    0    0  501  0.00000000000E+00  0.00000000000E+00 -0.22724464419E+03  0.22724464420E+03  0.25500000920E-02 0. -1.
    10030    2    1    2    0    0  0.00000000000E+00  0.00000000000E+00  0.12139442824E+04  0.16684335708E+04  0.11445566213E+04 0.  0.
        5    1    3    3  502    0 -0.35305624379E+03 -0.43867987158E+03  0.75557034341E+03  0.94233612625E+03  0.46999998093E+01 0.  1.
       -5    1    3    3    0  502  0.35305624379E+03  0.43867987158E+03  0.45837393897E+03  0.72609744451E+03  0.46999998093E+01 0. -1.
</event>
<event>
 5   0  0.5712664E-03  0.1097253E+04  0.7818609E-02  0.9207873E-01
       -1   -1    0    0    0  501  0.00000000000E+00  0.00000000000E+00  0.25331803108E+03  0.25331803113E+03  0.50400001928E-02 0.  1.
        1   -1    0    0  501    0  0.00000000000E+00  0.00000000000E+00 -0.11881951874E+04  0.11881951874E+04  0.50400001928E-02 0. -1.
    10030    2    1    2    0    0  0.00000000000E+00  0.00000000000E+00 -0.93487715633E+03  0.14415132186E+04  0.10972534173E+04 0.  0.
        5    1    3    3  502    0  0.41718408674E+03  0.64269273799E+02 -0.92780530516E+03  0.10193222631E+04  0.46999998093E+01 0. -1.
       -5    1    3    3    0  502 -0.41718408674E+03 -0.64269273799E+02 -0.70718511749E+01  0.42219095545E+03  0.46999998093E+01 0.  1.
</event>
<event>
 5   0  0.5998641E-03  0.1085044E+04  0.7818609E-02  0.9219892E-01
       -1   -1    0    0    0  501  0.00000000000E+00  0.00000000000E+00  0.21812050715E+03  0.21812050721E+03  0.50400001928E-02 0. -1.
        1   -1    0    0  501    0  0.00000000000E+00  0.00000000000E+00 -0.13493932361E+04  0.13493932361E+04  0.50400001928E-02 0.  1.
    10030    2    1    2    0    0  0.00000000000E+00  0.00000000000E+00 -0.11312727289E+04  0.15675137433E+04  0.10850443992E+04 0.  0.
        3    1    3    3  502    0  0.18445211440E+03  0.10005120395E+03 -0.12883930281E+04  0.13053694614E+04  0.10100000352E+00 0.  1.
       -3    1    3    3    0  502 -0.18445211440E+03 -0.10005120395E+03  0.15712029912E+03  0.26214428186E+03  0.10100000352E+00 0. -1.
</event>
<event>
 5   0  0.9719260E-03  0.1098239E+04  0.7818609E-02  0.9206910E-01
        2   -1    0    0  501    0  0.00000000000E+00  0.00000000000E+00  0.71437778905E+03  0.71437778905E+03  0.25500000920E-02 0.  1.
       -2   -1    0    0    0  501  0.00000000000E+00  0.00000000000E+00 -0.42209085892E+03  0.42209085893E+03  0.25500000920E-02 0. -1.
    10030    2    1    2    0    0  0.00000000000E+00  0.00000000000E+00  0.29228693013E+03  0.11364686480E+04  0.10982391990E+04 0.  0.
        3    1    3    3  502    0 -0.37130877048E+03  0.39754931109E+03  0.68590243912E+02  0.54828850941E+03  0.10100000352E+00 0. -1.
       -3    1    3    3    0  502  0.37130877048E+03 -0.39754931109E+03  0.22369668622E+03  0.58818013857E+03  0.10100000352E+00 0.  1.
</event>
<event>
 5   0  0.1019384E-02  0.1065630E+04  0.7818609E-02  0.9239354E-01
       -2   -1    0    0    0  501  0.00000000000E+00  0.00000000000E+00  0.42818155572E+03  0.42818155573E+03  0.25500000920E-02 0.  1.
        2   -1    0    0  501    0  0.00000000000E+00  0.00000000000E+00 -0.66301716939E+03  0.66301716939E+03  0.25500000920E-02 0. -1.
    10030    2    1    2    0    0  0.00000000000E+00  0.00000000000E+00 -0.23483561366E+03  0.10911987251E+04  0.10656298101E+04 0.  0.
        1    1    3    3  502    0 -0.50354947341E+03 -0.46695184196E+02  0.54385136269E+02  0.50862585018E+03  0.50400001928E-02 0.  1.
       -1    1    3    3    0  502  0.50354947341E+03  0.46695184196E+02 -0.28922074993E+03  0.58257287494E+03  0.50400001928E-02 0. -1.
</event>
<event>
 5   0  0.1019384E-02  0.1028996E+04  0.7818609E-02  0.9277302E-01
        2   -1    0    0  501    0  0.00000000000E+00  0.00000000000E+00  0.56743431074E+03  0.56743431075E+03  0.25500000920E-02 0. -1.
       -2   -1    0    0    0  501  0.00000000000E+00  0.00000000000E+00 -0.46650011697E+03  0.46650011698E+03  0.25500000920E-02 0.  1.
    10030    2    1    2    0    0  0.00000000000E+00  0.00000000000E+00  0.10093419377E+03  0.10339344277E+04  0.10289959618E+04 0.  0.
        1    1    3    3  502    0  0.42289474706E+03  0.28854993328E+03 -0.83812909893E+00  0.51195872253E+03  0.50400001928E-02 0.  1.
       -1    1    3    3    0  502 -0.42289474706E+03 -0.28854993328E+03  0.10177232287E+03  0.52197570520E+03  0.50400001928E-02 0. -1.
</event>
<event>
 5   0  0.1028016E-02  0.1047403E+04  0.7818609E-02  0.9258029E-01
       -2   -1    0    0    0  501  0.00000000000E+00  0.00000000000E+00  0.58710177551E+03  0.58710177551E+03  0.25500000920E-02 0.  1.
        2   -1    0    0  501    0  0.00000000000E+00  0.00000000000E+00 -0.46714778905E+03  0.46714778906E+03  0.25500000920E-02 0. -1.
    10030    2    1    2    0    0  0.00000000000E+00  0.00000000000E+00  0.11995398645E+03  0.10542495646E+04  0.10474030674E+04 0.  0.
        2    1    3    3  502    0 -0.52378933554E+02 -0.27047203927E+03 -0.38831573670E+03  0.47611740997E+03  0.25500000920E-02 0. -1.
       -2    1    3    3    0  502  0.52378933554E+02  0.27047203927E+03  0.50826972315E+03  0.57813215460E+03  0.25500000920E-02 0.  1.
</event>
<event>
 5   0  0.5789905E-03  0.1141127E+04  0.7818609E-02  0.9166009E-01
       -1   -1    0    0    0  501  0.00000000000E+00  0.00000000000E+00  0.30730160925E+03  0.30730160929E+03  0.50400001928E-02 0.  1.
        1   -1    0    0  501    0  0.00000000000E+00  0.00000000000E+00 -0.10593582243E+04  0.10593582244E+04  0.50400001928E-02 0. -1.
    10030    2    1    2    0    0  0.00000000000E+00  0.00000000000E+00 -0.75205661510E+03  0.13666598336E+04  0.11411266137E+04 0.  0.
        1    1    3    3  502    0 -0.33252574719E+02 -0.44188868982E+03 -0.80646505523E+03  0.92019412802E+03  0.50400001928E-02 0.  1.
       -1    1    3    3    0  502  0.33252574719E+02  0.44188868982E+03  0.54408440130E+02  0.44646570563E+03  0.50400001928E-02 0. -1.
</event>
<event>
 5   0  0.1019384E-02  0.1160464E+04  0.7818609E-02  0.9148184E-01
       -2   -1    0    0    0  501  0.00000000000E+00  0.00000000000E+00  0.69996471968E+03  0.69996471968E+03  0.25500000920E-02 0. -1.
        2   -1    0    0  501    0  0.00000000000E+00  0.00000000000E+00 -0.48098016790E+03  0.48098016791E+03  0.25500000920E-02 0.  1.
    10030    2    1    2    0    0  0.00000000000E+00  0.00000000000E+00  0.21898455178E+03  0.11809448876E+04  0.11604639562E+04 0.  0.
        1    1    3    3  502    0  0.23264113675E+03  0.35269747729E+03  0.51419391269E+03  0.66551693357E+03  0.50400001928E-02 0. -1.
       -1    1    3    3    0  502 -0.23264113675E+03 -0.35269747729E+03 -0.29520936091E+03  0.51542795403E+03  0.50400001928E-02 0.  1.
</event>
<event>
 5   0  0.9925021E-03  0.1112921E+04  0.7818609E-02  0.9192689E-01
       -2   -1    0    0    0  501  0.00000000000E+00  0.00000000000E+00  0.46684359557E+03  0.46684359557E+03  0.25500000920E-02 0. -1.
        2   -1    0    0  501    0  0.00000000000E+00  0.00000000000E+00 -0.66328085722E+03  0.66328085722E+03  0.25500000920E-02 0.  1.
    10030    2    1    2    0    0  0.00000000000E+00  0.00000000000E+00 -0.19643726165E+03  0.11301244528E+04  0.11129212376E+04 0.  0.
        4    1    3    3  502    0  0.36820128878E+03  0.19820375851E+03  0.27459389792E+03  0.50026027288E+03  0.12699999809E+01 0. -1.
       -4    1    3    3    0  502 -0.36820128878E+03 -0.19820375851E+03 -0.47103115958E+03  0.62986417991E+03  0.12699999809E+01 0.  1.
</event>
<event>
 5   0  0.9719260E-03  0.1105680E+04  0.7818609E-02  0.9199674E-01
       -2   -1    0    0    0  501  0.00000000000E+00  0.00000000000E+00  0.13895370065E+03  0.13895370067E+03  0.25500000920E-02 0.  1.
        2   -1    0    0  501    0  0.00000000000E+00  0.00000000000E+00 -0.21995227486E+04  0.21995227486E+04  0.25500000920E-02 0. -1.
    10030    2    1    2    0    0  0.00000000000E+00  0.00000000000E+00 -0.20605690479E+04  0.23384764492E+04  0.11056795659E+04 0.  0.
        3    1    3    3  502    0 -0.23449210675E+03  0.42187288516E+03 -0.46015054808E+03  0.66685966775E+03  0.10100000352E+00 0.  1.
       -3    1    3    3    0  502  0.23449210675E+03 -0.42187288516E+03 -0.16004184998E+04  0.16716167815E+04  0.10100000352E+00 0. -1.
</event>
<event>
 5   0  0.5998641E-03  0.1071119E+04  0.7818609E-02  0.9233808E-01
        1   -1    0    0  501    0  0.00000000000E+00  0.00000000000E+00  0.67787930987E+03  0.67787930989E+03  0.50400001928E-02 0.  1.
       -1   -1    0    0    0  501  0.00000000000E+00  0.00000000000E+00 -0.42311948430E+03  0.42311948433E+03  0.50400001928E-02 0. -1.
    10030    2    1    2    0    0  0.00000000000E+00  0.00000000000E+00  0.25475982557E+03  0.11009987942E+04  0.10711189365E+04 0.  0.
        3    1    3    3  502    0  0.52261320945E+03  0.73667250484E+02  0.33889382764E+02  0.52886664761E+03  0.10100000352E+00 0. -1.
       -3    1    3    3    0  502 -0.52261320945E+03 -0.73667250484E+02  0.22087044281E+03  0.57213214662E+03  0.10100000352E+00 0.  1.
</event>
<event>
 5   0  0.3949750E-03  0.1084391E+04  0.7818609E-02  0.9220540E-01
       -4   -1    0    0    0  501  0.00000000000E+00  0.00000000000E+00  0.64382668176E+03  0.64382793435E+03  0.12699999809E+01 0.  1.
        4   -1    0    0  501    0  0.00000000000E+00  0.00000000000E+00 -0.45660496275E+03  0.45660672894E+03  0.12699999809E+01 0. -1.
    10030    2    1    2    0    0  0.00000000000E+00  0.00000000000E+00  0.18722171901E+03  0.11004346633E+04  0.10843912929E+04 0.  0.
        2    1    3    3  502    0 -0.49820814407E+03 -0.15930561567E+03  0.23850453075E+03  0.57486871996E+03  0.25500000920E-02 0.  1.
       -2    1    3    3    0  502  0.49820814407E+03  0.15930561567E+03 -0.51282811741E+02  0.52556594333E+03  0.25500000920E-02 0. -1.
</event>
<event>
 5   0  0.1019384E-02  0.1118288E+04  0.7818609E-02  0.9187548E-01
       -2   -1    0    0    0  501  0.00000000000E+00  0.00000000000E+00  0.42293157986E+03  0.42293157987E+03  0.25500000920E-02 0.  1.
        2   -1    0    0  501    0  0.00000000000E+00  0.00000000000E+00 -0.73922616963E+03  0.73922616964E+03  0.25500000920E-02 0. -1.
    10030    2    1    2    0    0  0.00000000000E+00  0.00000000000E+00 -0.31629458978E+03  0.11621577495E+04  0.11182881414E+04 0.  0.
        1    1    3    3  502    0  0.41414200782E+03  0.66895787991E+02 -0.54231570617E+03  0.68563472365E+03  0.50400001928E-02 0. -1.
       -1    1    3    3    0  502 -0.41414200782E+03 -0.66895787991E+02  0.22602111639E+03  0.47652302586E+03  0.50400001928E-02 0.  1.
</event>
<event>
 5   0  0.9925021E-03  0.1073936E+04  0.7818609E-02  0.9230975E-01
       -2   -1    0    0    0  501  0.00000000000E+00  0.00000000000E+00  0.46780186303E+03  0.46780186304E+03  0.25500000920E-02 0. -1.
        2   -1    0    0  501    0  0.00000000000E+00  0.00000000000E+00 -0.61636070785E+03  0.61636070786E+03  0.25500000920E-02 0.  1.
    10030    2    1    2    0    0  0.00000000000E+00  0.00000000000E+00 -0.14855884482E+03  0.10841625709E+04  0.10739361013E+04 0.  0.
        4    1    3    3  502    0 -0.39458978823E+03  0.52851435394E+02  0.28948317828E+03  0.49223622236E+03  0.12699999809E+01 0. -1.
       -4    1    3    3    0  502  0.39458978823E+03 -0.52851435394E+02 -0.43804202310E+03  0.59192634854E+03  0.12699999809E+01 0.  1.
</event>
<event>
 5   0  0.9719260E-03  0.1113853E+04  0.7818609E-02  0.9191794E-01
       -2   -1    0    0    0  501  0.00000000000E+00  0.00000000000E+00  0.57941806679E+03  0.57941806679E+03  0.25500000920E-02 0.  1.
        2   -1    0    0  501    0  0.00000000000E+00  0.00000000000E+00 -0.53530812941E+03  0.53530812941E+03  0.25500000920E-02 0. -1.
    10030    2    1    2    0    0  0.00000000000E+00  0.00000000000E+00  0.44109937379E+02  0.11147261962E+04  0.11138531348E+04 0.  0.
        3    1    3    3  502    0 -0.29429973341E+03 -0.47274905542E+03  0.30010337317E+02  0.55767789362E+03  0.10100000352E+00 0.  1.
       -3    1    3    3    0  502  0.29429973341E+03  0.47274905542E+03  0.14099600062E+02  0.55704830258E+03  0.10100000352E+00 0. -1.
</event>
<event>
 5   0  0.5789905E-03  0.1144139E+04  0.7818609E-02  0.9163208E-01
        1   -1    0    0  501    0  0.00000000000E+00  0.00000000000E+00  0.13312421424E+04  0.13312421424E+04  0.50400001928E-02 0.  1.
       -1   -1    0    0    0  501  0.00000000000E+00  0.00000000000E+00 -0.24583302377E+03  0.24583302382E+03  0.50400001928E-02 0. -1.
    10030    2    1    2    0    0  0.00000000000E+00  0.00000000000E+00  0.10854091186E+04  0.15770751662E+04  0.11441385952E+04 0.  0.
        1    1    3    3  502    0  0.71102537581E+02  0.37893370120E+03  0.11252571052E+04  0.11894746208E+04  0.50400001928E-02 0.  1.
       -1    1    3    3    0  502 -0.71102537581E+02 -0.37893370120E+03 -0.39847986546E+02  0.38760054542E+03  0.50400001928E-02 0. -1.
</event>
<event>
 5   0  0.1028016E-02  0.1095443E+04  0.7818609E-02  0.9209645E-01
        2   -1    0    0  501    0  0.00000000000E+00  0.00000000000E+00  0.16635793671E+04  0.16635793671E+04  0.25500000920E-02 0.  1.
       -2   -1    0    0    0  501  0.00000000000E+00  0.00000000000E+00 -0.18033343285E+03  0.18033343287E+03  0.25500000920E-02 0. -1.
    10030    2    1    2    0    0  0.00000000000E+00  0.00000000000E+00  0.14832459342E+04  0.18439127999E+04  0.10954432493E+04 0.  0.
        2    1    3    3  502    0 -0.60929197249E+02  0.11029189283E+03  0.16388516809E+04  0.16436883831E+04  0.25500000920E-02 0.  1.
       -2    1    3    3    0  502  0.60929197249E+02 -0.11029189283E+03 -0.15560574668E+03  0.20022441686E+03  0.25500000920E-02 0. -1.
</event>
<event>
 5   0  0.5854579E-03  0.1094127E+04  0.7818609E-02  0.9210935E-01
       -1   -1    0    0    0  501  0.00000000000E+00  0.00000000000E+00  0.14871706073E+03  0.14871706082E+03  0.50400001928E-02 0.  1.
        1   -1    0    0  501    0  0.00000000000E+00  0.00000000000E+00 -0.20124023776E+04  0.20124023776E+04  0.50400001928E-02 0. -1.
    10030    2    1    2    0    0  0.00000000000E+00  0.00000000000E+00 -0.18636853169E+04  0.21611194384E+04  0.10941271712E+04 0.  0.
        4    1    3    3  502    0 -0.34977063257E+03  0.41077222173E+03 -0.75294103973E+03  0.92628026847E+03  0.12699999809E+01 0. -1.
       -4    1    3    3    0  502  0.34977063257E+03 -0.41077222173E+03 -0.11107442772E+04  0.12348391700E+04  0.12699999809E+01 0.  1.
</event>
<event>
 5   0  0.5958706E-03  0.1081191E+04  0.7818609E-02  0.9223721E-01
       -1   -1    0    0    0  501  0.00000000000E+00  0.00000000000E+00  0.29679995627E+03  0.29679995631E+03  0.50400001928E-02 0. -1.
        1   -1    0    0  501    0  0.00000000000E+00  0.00000000000E+00 -0.98464795261E+03  0.98464795262E+03  0.50400001928E-02 0.  1.
    10030    2    1    2    0    0  0.00000000000E+00  0.00000000000E+00 -0.68784799634E+03  0.12814479089E+04  0.10811909532E+04 0.  0.
        2    1    3    3  502    0  0.28489275894E+02  0.35716609601E+03 -0.82370230598E+03  0.89825650449E+03  0.25500000920E-02 0.  1.
       -2    1    3    3    0  502 -0.28489275894E+02 -0.35716609601E+03  0.13585430964E+03  0.38319140443E+03  0.25500000920E-02 0. -1.
</event>
<event>
 5   0  0.9692981E-03  0.1088519E+04  0.7818609E-02  0.9216454E-01
        2   -1    0    0  501    0  0.00000000000E+00  0.00000000000E+00  0.19550652963E+04  0.19550652963E+04  0.25500000920E-02 0. -1.
       -2   -1    0    0    0  501  0.00000000000E+00  0.00000000000E+00 -0.15151343164E+03  0.15151343166E+03  0.25500000920E-02 0.  1.
    10030    2    1    2    0    0  0.00000000000E+00  0.00000000000E+00  0.18035518647E+04  0.21065787280E+04  0.10885194572E+04 0.  0.
        5    1    3    3  502    0  0.32628278907E+03  0.39331662688E+03  0.53952293539E+03  0.74314568911E+03  0.46999998093E+01 0.  1.
       -5    1    3    3    0  502 -0.32628278907E+03 -0.39331662688E+03  0.12640289293E+04  0.13634330389E+04  0.46999998093E+01 0. -1.
</event>
<event>
 5   0  0.5789905E-03  0.1096930E+04  0.7818609E-02  0.9208189E-01
        1   -1    0    0  501    0  0.00000000000E+00  0.00000000000E+00  0.10200325741E+04  0.10200325741E+04  0.50400001928E-02 0. -1.
       -1   -1    0    0    0  501  0.00000000000E+00  0.00000000000E+00 -0.29490632097E+03  0.29490632101E+03  0.50400001928E-02 0.  1.
    10030    2    1    2    0    0  0.00000000000E+00  0.00000000000E+00  0.72512625312E+03  0.13149388951E+04  0.10969303601E+04 0.  0.
        1    1    3    3  502    0  0.52172920736E+03  0.51458256928E+02  0.55572369196E+03  0.76398831133E+03  0.50400001928E-02 0.  1.
       -1    1    3    3    0  502 -0.52172920736E+03 -0.51458256928E+02  0.16940256117E+03  0.55095058379E+03  0.50400001928E-02 0. -1.
</event>
<event>
 5   0  0.9925021E-03  0.1054658E+04  0.7818609E-02  0.9250549E-01
       -2   -1    0    0    0  501  0.00000000000E+00  0.00000000000E+00  0.31249955314E+03  0.31249955315E+03  0.25500000920E-02 0.  1.
        2   -1    0    0  501    0  0.00000000000E+00  0.00000000000E+00 -0.88984335569E+03  0.88984335569E+03  0.25500000920E-02 0. -1.
    10030    2    1    2    0    0  0.00000000000E+00  0.00000000000E+00 -0.57734380255E+03  0.12023429088E+04  0.10546575767E+04 0.  0.
        4    1    3    3  502    0  0.23126797007E+03 -0.44442343734E+03 -0.47626502760E+03  0.69125035628E+03  0.12699999809E+01 0. -1.
       -4    1    3    3    0  502 -0.23126797007E+03  0.44442343734E+03 -0.10107877495E+03  0.51109255256E+03  0.12699999809E+01 0.  1.
</event>
<event>
 5   0  0.5712664E-03  0.1090927E+04  0.7818609E-02  0.9214080E-01
        1   -1    0    0  501    0  0.00000000000E+00  0.00000000000E+00  0.62208886736E+03  0.62208886739E+03  0.50400001928E-02 0.  1.
       -1   -1    0    0    0  501  0.00000000000E+00  0.00000000000E+00 -0.47827653293E+03  0.47827653295E+03  0.50400001928E-02 0. -1.
    10030    2    1    2    0    0  0.00000000000E+00  0.00000000000E+00  0.14381233444E+03  0.11003654003E+04  0.10909271409E+04 0.  0.
        5    1    3    3  502    0  0.11188737643E+03 -0.82273213579E+02  0.60393594193E+03  0.61971636950E+03  0.46999998093E+01 0.  1.
       -5    1    3    3    0  502 -0.11188737643E+03  0.82273213579E+02 -0.46012360749E+03  0.48064903084E+03  0.46999998093E+01 0. -1.
</event>
<event>
 5   0  0.9719260E-03  0.1098171E+04  0.7818609E-02  0.9206976E-01
       -2   -1    0    0    0  501  0.00000000000E+00  0.00000000000E+00  0.47833741093E+03  0.47833741093E+03  0.25500000920E-02 0.  1.
        2   -1    0    0  501    0  0.00000000000E+00  0.00000000000E+00 -0.63029740902E+03  0.63029740902E+03  0.25500000920E-02 0. -1.
    10030    2    1    2    0    0  0.00000000000E+00  0.00000000000E+00 -0.15195999809E+03  0.11086348200E+04  0.10981708988E+04 0.  0.
        3    1    3    3  502    0  0.38657009598E+03 -0.34356935366E+03  0.11021844202E+03  0.52879528652E+03  0.10100000352E+00 0. -1.
       -3    1    3    3    0  502 -0.38657009598E+03  0.34356935366E+03 -0.26217844011E+03  0.57983953344E+03  0.10100000352E+00 0.  1.
</event>
<event>
 5   0  0.9719260E-03  0.1068729E+04  0.7818609E-02  0.9236219E-01
       -2   -1    0    0    0  501  0.00000000000E+00  0.00000000000E+00  0.31488803358E+03  0.31488803359E+03  0.25500000920E-02 0. -1.
        2   -1    0    0  501    0  0.00000000000E+00  0.00000000000E+00 -0.90681514998E+03  0.90681514998E+03  0.25500000920E-02 0.  1.
    10030    2    1    2    0    0  0.00000000000E+00  0.00000000000E+00 -0.59192711640E+03  0.12217031836E+04  0.10687286642E+04 0.  0.
        3    1    3    3  502    0  0.10383226627E+03  0.36675177183E+03 -0.72407898039E+03  0.81827769229E+03  0.10100000352E+00 0.  1.
       -3    1    3    3    0  502 -0.10383226627E+03 -0.36675177183E+03  0.13215186398E+03  0.40342549128E+03  0.10100000352E+00 0. -1.
</event>
<event>
 5   0  0.5998641E-03  0.1101351E+04  0.7818609E-02  0.9203876E-01
       -1   -1    0    0    0  501  0.00000000000E+00  0.00000000000E+00  0.49601774179E+03  0.49601774181E+03  0.50400001928E-02 0. -1.
        1   -1    0    0  501    0  0.00000000000E+00  0.00000000000E+00 -0.61135659674E+03  0.61135659676E+03  0.50400001928E-02 0.  1.
    10030    2    1    2    0    0  0.00000000000E+00  0.00000000000E+00 -0.11533885495E+03  0.11073743386E+04  0.11013513855E+04 0.  0.
        3    1    3    3  502    0  0.16722818000E+03 -0.29546723310E+03  0.37826538806E+03  0.50828226807E+03  0.10100000352E+00 0. -1.
       -3    1    3    3    0  502 -0.16722818000E+03  0.29546723310E+03 -0.49360424301E+03  0.59909207051E+03  0.10100000352E+00 0.  1.
</event>
<event>
 5   0  0.1028016E-02  0.1111672E+04  0.7818609E-02  0.9193890E-01
       -2   -1    0    0    0  501  0.00000000000E+00  0.00000000000E+00  0.60483441768E+03  0.60483441769E+03  0.25500000920E-02 0. -1.
        2   -1    0    0  501    0  0.00000000000E+00  0.00000000000E+00 -0.51080714305E+03  0.51080714306E+03  0.25500000920E-02 0.  1.
    10030    2    1    2    0    0  0.00000000000E+00  0.00000000000E+00  0.94027274629E+02  0.11156415607E+04  0.11116721476E+04 0.  0.
        2    1    3    3  502    0 -0.14166687814E+03  0.34568652173E+03  0.46004736574E+03  0.59263163466E+03  0.25500000920E-02 0. -1.
       -2    1    3    3    0  502  0.14166687814E+03 -0.34568652173E+03 -0.36602009111E+03  0.52300992608E+03  0.25500000920E-02 0.  1.
</event>
<event>
 5   0  0.9925021E-03  0.1067132E+04  0.7818609E-02  0.9237833E-01
        2   -1    0    0  501    0  0.00000000000E+00  0.00000000000E+00  0.61588344583E+03  0.61588344583E+03  0.25500000920E-02 0.  1.
       -2   -1    0    0    0  501  0.00000000000E+00  0.00000000000E+00 -0.46225106658E+03  0.46225106659E+03  0.25500000920E-02 0. -1.
    10030    2    1    2    0    0  0.00000000000E+00  0.00000000000E+00  0.15363237924E+03  0.10781345124E+04  0.10671321937E+04 0.  0.
        4    1    3    3  502    0 -0.23704098692E+03 -0.45181971762E+03  0.23450771153E+03  0.56153803645E+03  0.12699999809E+01 0.  1.
       -4    1    3    3    0  502  0.23704098692E+03  0.45181971762E+03 -0.80875332289E+02  0.51659647597E+03  0.12699999809E+01 0. -1.
</event>
<event>
 5   0  0.9925021E-03  0.1129648E+04  0.7818609E-02  0.9176767E-01
       -2   -1    0    0    0  501  0.00000000000E+00  0.00000000000E+00  0.46308702821E+03  0.46308702821E+03  0.25500000920E-02 0.  1.
        2   -1    0    0  501    0  0.00000000000E+00  0.00000000000E+00 -0.68891230674E+03  0.68891230674E+03  0.25500000920E-02 0. -1.
    10030    2    1    2    0    0  0.00000000000E+00  0.00000000000E+00 -0.22582527853E+03  0.11519993350E+04  0.11296483574E+04 0.  0.
        4    1    3    3  502    0  0.47718974677E+03 -0.15829315662E+03  0.14958656438E+03  0.52454221088E+03  0.12699999809E+01 0.  1.
       -4    1    3    3    0  502 -0.47718974677E+03  0.15829315662E+03 -0.37541184291E+03  0.62745712407E+03  0.12699999809E+01 0. -1.
</event>
<event>
 5   0  0.5958706E-03  0.1104487E+04  0.7818609E-02  0.9200829E-01
       -1   -1    0    0    0  501  0.00000000000E+00  0.00000000000E+00  0.69187810065E+03  0.69187810066E+03  0.50400001928E-02 0. -1.
        1   -1    0    0  501    0  0.00000000000E+00  0.00000000000E+00 -0.44079025823E+03  0.44079025826E+03  0.50400001928E-02 0.  1.
    10030    2    1    2    0    0  0.00000000000E+00  0.00000000000E+00  0.25108784242E+03  0.11326683589E+04  0.11044874407E+04 0.  0.
        2    1    3    3  502    0  0.27522950593E+03 -0.26756281507E+02 -0.36467575711E+03  0.45766318113E+03  0.25500000920E-02 0.  1.
       -2    1    3    3    0  502 -0.27522950593E+03  0.26756281507E+02  0.61576359953E+03  0.67500517779E+03  0.25500000920E-02 0. -1.
</event>
<event>
 5   0  0.5998641E-03  0.1044362E+04  0.7818609E-02  0.9261184E-01
        1   -1    0    0  501    0  0.00000000000E+00  0.00000000000E+00  0.61517443184E+03  0.61517443186E+03  0.50400001928E-02 0. -1.
       -1   -1    0    0    0  501  0.00000000000E+00  0.00000000000E+00 -0.44324513354E+03  0.44324513357E+03  0.50400001928E-02 0.  1.
    10030    2    1    2    0    0  0.00000000000E+00  0.00000000000E+00  0.17192929830E+03  0.10584195654E+04  0.10443621464E+04 0.  0.
        3    1    3    3  502    0  0.26402466138E+03 -0.42904664967E+03  0.22522977960E+03  0.55183196104E+03  0.10100000352E+00 0.  1.
       -3    1    3    3    0  502 -0.26402466138E+03  0.42904664967E+03 -0.53300481301E+02  0.50658760439E+03  0.10100000352E+00 0. -1.
</event>
<event>
 5   0  0.5789905E-03  0.1112941E+04  0.7818609E-02  0.9192669E-01
        1   -1    0    0  501    0  0.00000000000E+00  0.00000000000E+00  0.25665372897E+03  0.25665372902E+03  0.50400001928E-02 0.  1.
       -1   -1    0    0    0  501  0.00000000000E+00  0.00000000000E+00 -0.12065265804E+04  0.12065265804E+04  0.50400001928E-02 0. -1.
    10030    2    1    2    0    0  0.00000000000E+00  0.00000000000E+00 -0.94987285141E+03  0.14631803094E+04  0.11129412311E+04 0.  0.
        1    1    3    3  502    0 -0.28824952983E+03 -0.19851846548E+03 -0.10437037731E+04  0.11008246630E+04  0.50400001928E-02 0. -1.
       -1    1    3    3    0  502  0.28824952983E+03  0.19851846548E+03  0.93830921727E+02  0.36235564640E+03  0.50400001928E-02 0.  1.
</event>
<event>
 5   0  0.5958706E-03  0.1100484E+04  0.7818609E-02  0.9204720E-01
        1   -1    0    0  501    0  0.00000000000E+00  0.00000000000E+00  0.11943083412E+04  0.11943083412E+04  0.50400001928E-02 0. -1.
       -1   -1    0    0    0  501  0.00000000000E+00  0.00000000000E+00 -0.25350760338E+03  0.25350760343E+03  0.50400001928E-02 0.  1.
    10030    2    1    2    0    0  0.00000000000E+00  0.00000000000E+00  0.94080073781E+03  0.14478159446E+04  0.11004839759E+04 0.  0.
        2    1    3    3  502    0 -0.34216753349E+03 -0.72948741727E+02  0.10291369369E+04  0.10869788291E+04  0.25500000920E-02 0. -1.
       -2    1    3    3    0  502  0.34216753349E+03  0.72948741727E+02 -0.88336199103E+02  0.36083711557E+03  0.25500000920E-02 0.  1.
</event>
<event>
 5   0  0.5789905E-03  0.1087290E+04  0.7818609E-02  0.9217669E-01
        1   -1    0    0  501    0  0.00000000000E+00  0.00000000000E+00  0.38001470779E+03  0.38001470782E+03  0.50400001928E-02 0. -1.
       -1   -1    0    0    0  501  0.00000000000E+00  0.00000000000E+00 -0.77773281419E+03  0.77773281420E+03  0.50400001928E-02 0.  1.
    10030    2    1    2    0    0  0.00000000000E+00  0.00000000000E+00 -0.39771810640E+03  0.11577475220E+04  0.10872900407E+04 0.  0.
        1    1    3    3  502    0  0.26236122655E+03  0.29787368720E+03  0.19667942167E+03  0.44299541946E+03  0.50400001928E-02 0. -1.
       -1    1    3    3    0  502 -0.26236122655E+03 -0.29787368720E+03 -0.59439752807E+03  0.71475210257E+03  0.50400001928E-02 0.  1.
</event>
<event>
 5   0  0.1028016E-02  0.1092811E+04  0.7818609E-02  0.9212227E-01
       -2   -1    0    0    0  501  0.00000000000E+00  0.00000000000E+00  0.13789478372E+04  0.13789478372E+04  0.25500000920E-02 0.  1.
        2   -1    0    0  501    0  0.00000000000E+00  0.00000000000E+00 -0.21651223906E+03  0.21651223908E+03  0.25500000920E-02 0. -1.
    10030    2    1    2    0    0  0.00000000000E+00  0.00000000000E+00  0.11624355981E+04  0.15954600763E+04  0.10928112075E+04 0.  0.
        2    1    3    3  502    0 -0.15754489524E+03 -0.23350615095E+03 -0.10233885536E+03  0.29969777756E+03  0.25500000920E-02 0. -1.
       -2    1    3    3    0  502  0.15754489524E+03  0.23350615095E+03  0.12647744535E+04  0.12957622987E+04  0.25500000920E-02 0.  1.
</event>
<event>
 5   0  0.5854579E-03  0.1087116E+04  0.7818609E-02  0.9217841E-01
       -1   -1    0    0    0  501  0.00000000000E+00  0.00000000000E+00  0.16991111019E+04  0.16991111019E+04  0.50400001928E-02 0.  1.
        1   -1    0    0  501    0  0.00000000000E+00  0.00000000000E+00 -0.17388807462E+03  0.17388807470E+03  0.50400001928E-02 0. -1.
    10030    2    1    2    0    0  0.00000000000E+00  0.00000000000E+00  0.15252230273E+04  0.18729991766E+04  0.10871157402E+04 0.  0.
        4    1    3    3  502    0  0.25694470277E+03 -0.45294799556E+03  0.49419678803E+03  0.71792377392E+03  0.12699999809E+01 0. -1.
       -4    1    3    3    0  502 -0.25694470277E+03  0.45294799556E+03  0.10310262392E+04  0.11550754027E+04  0.12699999809E+01 0.  1.
</event>
<event>
 5   0  0.1028016E-02  0.1109144E+04  0.7818609E-02  0.9196325E-01
       -2   -1    0    0    0  501  0.00000000000E+00  0.00000000000E+00  0.22564252574E+03  0.22564252575E+03  0.25500000920E-02 0.  1.
        2   -1    0    0  501    0  0.00000000000E+00  0.00000000000E+00 -0.13629965883E+04  0.13629965883E+04  0.25500000920E-02 0. -1.
    10030    2    1    2    0    0  0.00000000000E+00  0.00000000000E+00 -0.11373540626E+04  0.15886391141E+04  0.11091438009E+04 0.  0.
        2    1    3    3  502    0  0.27785519382E+03 -0.21208782966E+03 -0.11853452118E+04  0.12358106761E+04  0.25500000920E-02 0. -1.
       -2    1    3    3    0  502 -0.27785519382E+03  0.21208782966E+03  0.47991149160E+02  0.35282843795E+03  0.25500000920E-02 0.  1.
</event>
<event>
 5   0  0.5854579E-03  0.1109014E+04  0.7818609E-02  0.9196450E-01
        1   -1    0    0  501    0  0.00000000000E+00  0.00000000000E+00  0.12147097344E+04  0.12147097344E+04  0.50400001928E-02 0.  1.
       -1   -1    0    0    0  501  0.00000000000E+00  0.00000000000E+00 -0.25312902177E+03  0.25312902182E+03  0.50400001928E-02 0. -1.
    10030    2    1    2    0    0  0.00000000000E+00  0.00000000000E+00  0.96158071259E+03  0.14678387562E+04  0.11090144937E+04 0.  0.
        4    1    3    3  502    0  0.39373509249E+03  0.56392127109E+02 -0.30569163909E+02  0.39892791547E+03  0.12699999809E+01 0. -1.
       -4    1    3    3    0  502 -0.39373509249E+03 -0.56392127109E+02  0.99214987650E+03  0.10689108407E+04  0.12699999809E+01 0.  1.
</event>
<event>
 5   0  0.5998641E-03  0.1043637E+04  0.7818609E-02  0.9261939E-01
        1   -1    0    0  501    0  0.00000000000E+00  0.00000000000E+00  0.52048334486E+03  0.52048334489E+03  0.50400001928E-02 0. -1.
       -1   -1    0    0    0  501  0.00000000000E+00  0.00000000000E+00 -0.52315664794E+03  0.52315664796E+03  0.50400001928E-02 0.  1.
    10030    2    1    2    0    0  0.00000000000E+00  0.00000000000E+00 -0.26733030713E+01  0.10436399928E+04  0.10436365690E+04 0.  0.
        3    1    3    3  502    0  0.20182771293E+03 -0.17969314440E+03  0.44506178873E+03  0.52067653859E+03  0.10100000352E+00 0. -1.
       -3    1    3    3    0  502 -0.20182771293E+03  0.17969314440E+03 -0.44773509180E+03  0.52296345425E+03  0.10100000352E+00 0.  1.
</event>
<event>
 5   0  0.1028016E-02  0.9063981E+03  0.7818609E-02  0.9417619E-01
        2   -1    0    0  501    0  0.00000000000E+00  0.00000000000E+00  0.96736486669E+03  0.96736486669E+03  0.25500000920E-02 0.  1.
       -2   -1    0    0    0  501  0.00000000000E+00  0.00000000000E+00 -0.21231840826E+03  0.21231840828E+03  0.25500000920E-02 0. -1.
    10030    2    1    2    0    0  0.00000000000E+00  0.00000000000E+00  0.75504645843E+03  0.11796832750E+04  0.90639807748E+03 0.  0.
        2    1    3    3  502    0  0.26539720845E+03 -0.85347657857E+02  0.84256286568E+03  0.88748638501E+03  0.25500000920E-02 0.  1.
       -2    1    3    3    0  502 -0.26539720845E+03  0.85347657857E+02 -0.87516407250E+02  0.29219688996E+03  0.25500000920E-02 0. -1.
</event>
<event>
 5   0  0.1019384E-02  0.1002057E+04  0.7818609E-02  0.9306292E-01
        2   -1    0    0  501    0  0.00000000000E+00  0.00000000000E+00  0.10936284299E+04  0.10936284299E+04  0.25500000920E-02 0. -1.
       -2   -1    0    0    0  501  0.00000000000E+00  0.00000000000E+00 -0.22953817875E+03  0.22953817876E+03  0.25500000920E-02 0.  1.
    10030    2    1    2    0    0  0.00000000000E+00  0.00000000000E+00  0.86409025120E+03  0.13231666087E+04  0.10020568408E+04 0.  0.
        1    1    3    3  502    0  0.30745821482E+03  0.93966541378E+02  0.93946462893E+03  0.99295219109E+03  0.50400001928E-02 0. -1.
       -1    1    3    3    0  502 -0.30745821482E+03 -0.93966541378E+02 -0.75374377737E+02  0.33021441762E+03  0.50400001928E-02 0.  1.
</event>
<event>
 5   0  0.9692981E-03  0.1087654E+04  0.7818609E-02  0.9217309E-01
        2   -1    0    0  501    0  0.00000000000E+00  0.00000000000E+00  0.98134967257E+03  0.98134967257E+03  0.25500000920E-02 0.  1.
       -2   -1    0    0    0  501  0.00000000000E+00  0.00000000000E+00 -0.30136841281E+03  0.30136841282E+03  0.25500000920E-02 0. -1.
    10030    2    1    2    0    0  0.00000000000E+00  0.00000000000E+00  0.67998125976E+03  0.12827180854E+04  0.10876539767E+04 0.  0.
        5    1    3    3  502    0 -0.25505491593E+03 -0.19087486562E+03 -0.17977698682E+03  0.36582520342E+03  0.46999998093E+01 0. -1.
       -5    1    3    3    0  502  0.25505491593E+03  0.19087486562E+03  0.85975824658E+03  0.91689288198E+03  0.46999998093E+01 0.  1.
</event>
<event>
 5   0  0.5854579E-03  0.1096710E+04  0.7818609E-02  0.9208404E-01
        1   -1    0    0  501    0  0.00000000000E+00  0.00000000000E+00  0.47528977236E+03  0.47528977238E+03  0.50400001928E-02 0.  1.
       -1   -1    0    0    0  501  0.00000000000E+00  0.00000000000E+00 -0.63265236804E+03  0.63265236806E+03  0.50400001928E-02 0. -1.
    10030    2    1    2    0    0  0.00000000000E+00  0.00000000000E+00 -0.15736259568E+03  0.11079421404E+04  0.10967099890E+04 0.  0.
        4    1    3    3  502    0  0.42596234939E+03 -0.32880701287E+03 -0.18527789201E+03  0.56911113588E+03  0.12699999809E+01 0.  1.
       -4    1    3    3    0  502 -0.42596234939E+03  0.32880701287E+03  0.27915296331E+02  0.53883100456E+03  0.12699999809E+01 0. -1.
</event>
<event>
 5   0  0.5789905E-03  0.1173691E+04  0.7818609E-02  0.9136202E-01
        1   -1    0    0  501    0  0.00000000000E+00  0.00000000000E+00  0.80548484434E+03  0.80548484435E+03  0.50400001928E-02 0. -1.
       -1   -1    0    0    0  501  0.00000000000E+00  0.00000000000E+00 -0.42755307563E+03  0.42755307566E+03  0.50400001928E-02 0.  1.
    10030    2    1    2    0    0  0.00000000000E+00  0.00000000000E+00  0.37793176870E+03  0.12330379200E+04  0.11736907985E+04 0.  0.
        1    1    3    3  502    0 -0.28352384616E+03  0.51155509685E+03  0.23949284096E+03  0.63200570358E+03  0.50400001928E-02 0.  1.
       -1    1    3    3    0  502  0.28352384616E+03 -0.51155509685E+03  0.13843892774E+03  0.60103221644E+03  0.50400001928E-02 0. -1.
</event>
<event>
 5   0  0.5998641E-03  0.1115962E+04  0.7818609E-02  0.9189772E-01
        1   -1    0    0  501    0  0.00000000000E+00  0.00000000000E+00  0.51894760050E+03  0.51894760052E+03  0.50400001928E-02 0.  1.
       -1   -1    0    0    0  501  0.00000000000E+00  0.00000000000E+00 -0.59995033210E+03  0.59995033212E+03  0.50400001928E-02 0. -1.
    10030    2    1    2    0    0  0.00000000000E+00  0.00000000000E+00 -0.81002731600E+02  0.11188979326E+04  0.11159619801E+04 0.  0.
        3    1    3    3  502    0  0.41826988901E+03  0.31956295359E+03 -0.22611700230E+03  0.57288662953E+03  0.10100000352E+00 0. -1.
       -3    1    3    3    0  502 -0.41826988901E+03 -0.31956295359E+03  0.14511427070E+03  0.54601130311E+03  0.10100000352E+00 0.  1.
</event>
<event>
 5   0  0.9719260E-03  0.1110353E+04  0.7818609E-02  0.9195160E-01
       -2   -1    0    0    0  501  0.00000000000E+00  0.00000000000E+00  0.26998589894E+03  0.26998589895E+03  0.25500000920E-02 0. -1.
        2   -1    0    0  501    0  0.00000000000E+00  0.00000000000E+00 -0.11416183424E+04  0.11416183424E+04  0.25500000920E-02 0.  1.
    10030    2    1    2    0    0  0.00000000000E+00  0.00000000000E+00 -0.87163244350E+03  0.14116042414E+04  0.11103528348E+04 0.  0.
        3    1    3    3  502    0  0.16698026701E+03  0.43367541339E+03 -0.49655360586E+02  0.46735686449E+03  0.10100000352E+00 0. -1.
       -3    1    3    3    0  502 -0.16698026701E+03 -0.43367541339E+03 -0.82197708291E+03  0.94424737690E+03  0.10100000352E+00 0.  1.
</event>
<event>
 5   0  0.1028016E-02  0.1075519E+04  0.7818609E-02  0.9229387E-01
        2   -1    0    0  501    0  0.00000000000E+00  0.00000000000E+00  0.13886924594E+04  0.13886924594E+04  0.25500000920E-02 0. -1.
       -2   -1    0    0    0  501  0.00000000000E+00  0.00000000000E+00 -0.20824266372E+03  0.20824266374E+03  0.25500000920E-02 0.  1.
    10030    2    1    2    0    0  0.00000000000E+00  0.00000000000E+00  0.11804497956E+04  0.15969351231E+04  0.10755185109E+04 0.  0.
        2    1    3    3  502    0 -0.44099154773E+03 -0.16809206456E+03  0.97299517996E+03  0.10814102402E+04  0.25500000920E-02 0. -1.
       -2    1    3    3    0  502  0.44099154773E+03  0.16809206456E+03  0.20745461568E+03  0.51552488292E+03  0.25500000920E-02 0.  1.
</event>
<event>
 5   0  0.3949750E-03  0.1102141E+04  0.7818609E-02  0.9203107E-01
        4   -1    0    0  501    0  0.00000000000E+00  0.00000000000E+00  0.61542325537E+03  0.61542456577E+03  0.12699999809E+01 0.  1.
       -4   -1    0    0    0  501  0.00000000000E+00  0.00000000000E+00 -0.49344457084E+03  0.49344620517E+03  0.12699999809E+01 0. -1.
    10030    2    1    2    0    0  0.00000000000E+00  0.00000000000E+00  0.12197868453E+03  0.11088707709E+04  0.11021413644E+04 0.  0.
        2    1    3    3  502    0 -0.31028157752E+03  0.24414952674E+03  0.44777812363E+03  0.59698316288E+03  0.25500000920E-02 0.  1.
       -2    1    3    3    0  502  0.31028157752E+03 -0.24414952674E+03 -0.32579943910E+03  0.51188760805E+03  0.25500000920E-02 0. -1.
</event>
<event>
 5   0  0.3949750E-03  0.1029774E+04  0.7818609E-02  0.9276479E-01
       -4   -1    0    0    0  501  0.00000000000E+00  0.00000000000E+00  0.68620927146E+03  0.68621044669E+03  0.12699999809E+01 0. -1.
        4   -1    0    0  501    0  0.00000000000E+00  0.00000000000E+00 -0.38633507447E+03  0.38633716190E+03  0.12699999809E+01 0.  1.
    10030    2    1    2    0    0  0.00000000000E+00  0.00000000000E+00  0.29987419700E+03  0.10725476086E+04  0.10297736832E+04 0.  0.
        5    1    3    3  502    0  0.22633938105E+03  0.27376373117E+03  0.53812498020E+03  0.64480747532E+03  0.46999998093E+01 0. -1.
       -5    1    3    3    0  502 -0.22633938105E+03 -0.27376373117E+03 -0.23825078320E+03  0.42774013327E+03  0.46999998093E+01 0.  1.
</event>
<event>
 5   0  0.9925021E-03  0.1062194E+04  0.7818609E-02  0.9242845E-01
        2   -1    0    0  501    0  0.00000000000E+00  0.00000000000E+00  0.16479055564E+04  0.16479055564E+04  0.25500000920E-02 0. -1.
       -2   -1    0    0    0  501  0.00000000000E+00  0.00000000000E+00 -0.17116504501E+03  0.17116504503E+03  0.25500000920E-02 0.  1.
    10030    2    1    2    0    0  0.00000000000E+00  0.00000000000E+00  0.14767405114E+04  0.18190706014E+04  0.10621936335E+04 0.  0.
        4    1    3    3  502    0  0.18584558841E+02 -0.10652543470E+03  0.16288508066E+04  0.16324367115E+04  0.12699999809E+01 0. -1.
       -4    1    3    3    0  502 -0.18584558841E+02  0.10652543470E+03 -0.15211029519E+03  0.18663388992E+03  0.12699999809E+01 0.  1.
</event>
<event>
 5   0  0.5998641E-03  0.1101557E+04  0.7818609E-02  0.9203675E-01
        1   -1    0    0  501    0  0.00000000000E+00  0.00000000000E+00  0.17238855347E+04  0.17238855347E+04  0.50400001928E-02 0.  1.
       -1   -1    0    0    0  501  0.00000000000E+00  0.00000000000E+00 -0.17597295208E+03  0.17597295215E+03  0.50400001928E-02 0. -1.
    10030    2    1    2    0    0  0.00000000000E+00  0.00000000000E+00  0.15479125827E+04  0.18998584869E+04  0.11015574913E+04 0.  0.
        3    1    3    3  502    0  0.14914885986E+03 -0.10578626808E+03 -0.12209424090E+03  0.21987071377E+03  0.10100000352E+00 0. -1.
       -3    1    3    3    0  502 -0.14914885986E+03  0.10578626808E+03  0.16700068236E+04  0.16799877731E+04  0.10100000352E+00 0.  1.
</event>
<event>
 5   0  0.1019384E-02  0.9261876E+03  0.7818609E-02  0.9393425E-01
       -2   -1    0    0    0  501  0.00000000000E+00  0.00000000000E+00  0.44079622675E+03  0.44079622676E+03  0.25500000920E-02 0.  1.
        2   -1    0    0  501    0  0.00000000000E+00  0.00000000000E+00 -0.48651925209E+03  0.48651925210E+03  0.25500000920E-02 0. -1.
    10030    2    1    2    0    0  0.00000000000E+00  0.00000000000E+00 -0.45723025339E+02  0.92731547886E+03  0.92618756323E+03 0.  0.
        1    1    3    3  502    0 -0.70358093856E+02  0.15762707577E+03  0.40738182075E+03  0.44244378659E+03  0.50400001928E-02 0.  1.
       -1    1    3    3    0  502  0.70358093856E+02 -0.15762707577E+03 -0.45310484609E+03  0.48487169227E+03  0.50400001928E-02 0. -1.
</event>
<event>
 5   0  0.3949750E-03  0.1071638E+04  0.7818609E-02  0.9233285E-01
        4   -1    0    0  501    0  0.00000000000E+00  0.00000000000E+00  0.66876652636E+03  0.66876773224E+03  0.12699999809E+01 0. -1.
       -4   -1    0    0    0  501  0.00000000000E+00  0.00000000000E+00 -0.42929822363E+03  0.42930010216E+03  0.12699999809E+01 0.  1.
    10030    2    1    2    0    0  0.00000000000E+00  0.00000000000E+00  0.23946830273E+03  0.10980678344E+04  0.10716379524E+04 0.  0.
        4    1    3    3  502    0  0.45562780724E+03 -0.76317450670E+02 -0.15839970674E+03  0.48837806257E+03  0.12699999809E+01 0.  1.
       -4    1    3    3    0  502 -0.45562780724E+03  0.76317450670E+02  0.39786800947E+03  0.60968977182E+03  0.12699999809E+01 0. -1.
</event>
<event>
 5   0  0.5958706E-03  0.1054479E+04  0.7818609E-02  0.9250732E-01
        1   -1    0    0  501    0  0.00000000000E+00  0.00000000000E+00  0.93247400569E+03  0.93247400570E+03  0.50400001928E-02 0. -1.
       -1   -1    0    0    0  501  0.00000000000E+00  0.00000000000E+00 -0.29811168072E+03  0.29811168076E+03  0.50400001928E-02 0.  1.
    10030    2    1    2    0    0  0.00000000000E+00  0.00000000000E+00  0.63436232496E+03  0.12305856865E+04  0.10544788155E+04 0.  0.
        2    1    3    3  502    0  0.73339066550E+02  0.19918914478E+03  0.88040809310E+03  0.90563422224E+03  0.25500000920E-02 0. -1.
       -2    1    3    3    0  502 -0.73339066550E+02 -0.19918914478E+03 -0.24604576814E+03  0.32495146423E+03  0.25500000920E-02 0.  1.
</event>
<event>
 5   0  0.9925021E-03  0.1079120E+04  0.7818609E-02  0.9225785E-01
       -2   -1    0    0    0  501  0.00000000000E+00  0.00000000000E+00  0.21180410660E+03  0.21180410661E+03  0.25500000920E-02 0. -1.
        2   -1    0    0  501    0  0.00000000000E+00  0.00000000000E+00 -0.13745009883E+04  0.13745009883E+04  0.25500000920E-02 0.  1.
    10030    2    1    2    0    0  0.00000000000E+00  0.00000000000E+00 -0.11626968817E+04  0.15863050949E+04  0.10791199263E+04 0.  0.
        4    1    3    3  502    0  0.15320275292E+03  0.23559869979E+03 -0.12584189993E+04  0.12894176288E+04  0.12699999809E+01 0.  1.
       -4    1    3    3    0  502 -0.15320275292E+03 -0.23559869979E+03  0.95722117561E+02  0.29688746612E+03  0.12699999809E+01 0. -1.
</event>
<event>
 5   0  0.1028016E-02  0.1001595E+04  0.7818609E-02  0.9306798E-01
       -2   -1    0    0    0  501  0.00000000000E+00  0.00000000000E+00  0.16445504443E+03  0.16445504445E+03  0.25500000920E-02 0.  1.
        2   -1    0    0  501    0  0.00000000000E+00  0.00000000000E+00 -0.15250245005E+04  0.15250245005E+04  0.25500000920E-02 0. -1.
    10030    2    1    2    0    0  0.00000000000E+00  0.00000000000E+00 -0.13605694560E+04  0.16894795449E+04  0.10015946725E+04 0.  0.
        2    1    3    3  502    0  0.12419407399E+03  0.23093702271E+03 -0.13999766145E+04  0.14243211006E+04  0.25500000920E-02 0. -1.
       -2    1    3    3    0  502 -0.12419407399E+03 -0.23093702271E+03  0.39407158425E+02  0.26515844436E+03  0.25500000920E-02 0.  1.
</event>
<event>
 5   0  0.5712664E-03  0.1104264E+04  0.7818609E-02  0.9201046E-01
        1   -1    0    0  501    0  0.00000000000E+00  0.00000000000E+00  0.53171636867E+03  0.53171636870E+03  0.50400001928E-02 0. -1.
       -1   -1    0    0    0  501  0.00000000000E+00  0.00000000000E+00 -0.57333117542E+03  0.57333117544E+03  0.50400001928E-02 0.  1.
    10030    2    1    2    0    0  0.00000000000E+00  0.00000000000E+00 -0.41614806747E+02  0.11050475441E+04  0.11042636835E+04 0.  0.
        5    1    3    3  502    0 -0.37394620889E+03  0.29027936525E+03 -0.30513864681E+03  0.56323135638E+03  0.46999998093E+01 0.  1.
       -5    1    3    3    0  502  0.37394620889E+03 -0.29027936525E+03  0.26352384007E+03  0.54181618776E+03  0.46999998093E+01 0. -1.
</event>
<event>
 5   0  0.9692981E-03  0.1107301E+04  0.7818609E-02  0.9198105E-01
        2   -1    0    0  501    0  0.00000000000E+00  0.00000000000E+00  0.83151175828E+03  0.83151175829E+03  0.25500000920E-02 0.  1.
       -2   -1    0    0    0  501  0.00000000000E+00  0.00000000000E+00 -0.36864038859E+03  0.36864038860E+03  0.25500000920E-02 0. -1.
    10030    2    1    2    0    0  0.00000000000E+00  0.00000000000E+00  0.46287136969E+03  0.12001521469E+04  0.11073008944E+04 0.  0.
        5    1    3    3  502    0 -0.49935407527E+03  0.42865286562E+02  0.48634830582E+03  0.69839006998E+03  0.46999998093E+01 0.  1.
       -5    1    3    3    0  502  0.49935407527E+03 -0.42865286562E+02 -0.23476936122E+02  0.50176207690E+03  0.46999998093E+01 0. -1.
</event>
<event>
 5   0  0.1028016E-02  0.1069298E+04  0.7818609E-02  0.9235644E-01
       -2   -1    0    0    0  501  0.00000000000E+00  0.00000000000E+00  0.18041619607E+03  0.18041619608E+03  0.25500000920E-02 0. -1.
        2   -1    0    0  501    0  0.00000000000E+00  0.00000000000E+00 -0.15843887646E+04  0.15843887646E+04  0.25500000920E-02 0.  1.
    10030    2    1    2    0    0  0.00000000000E+00  0.00000000000E+00 -0.14039725686E+04  0.17648049607E+04  0.10692977023E+04 0.  0.
        2    1    3    3  502    0  0.49648971898E+03 -0.84254771176E+02 -0.99836891648E+03  0.11181866575E+04  0.25500000920E-02 0. -1.
       -2    1    3    3    0  502 -0.49648971898E+03  0.84254771176E+02 -0.40560365208E+03  0.64661830325E+03  0.25500000920E-02 0.  1.
</event>
<event>
 5   0  0.9692981E-03  0.1101506E+04  0.7818609E-02  0.9203725E-01
        2   -1    0    0  501    0  0.00000000000E+00  0.00000000000E+00  0.11036874130E+04  0.11036874130E+04  0.25500000920E-02 0.  1.
       -2   -1    0    0    0  501  0.00000000000E+00  0.00000000000E+00 -0.27483225740E+03  0.27483225741E+03  0.25500000920E-02 0. -1.
    10030    2    1    2    0    0  0.00000000000E+00  0.00000000000E+00  0.82885515560E+03  0.13785196704E+04  0.11015060657E+04 0.  0.
        5    1    3    3  502    0  0.20066453748E+03 -0.47209032840E+02 -0.22470322065E+03  0.30497307545E+03  0.46999998093E+01 0. -1.
       -5    1    3    3    0  502 -0.20066453748E+03  0.47209032840E+02  0.10535583762E+04  0.10735465950E+04  0.46999998093E+01 0.  1.
</event>
<event>
 5   0  0.5998641E-03  0.1084632E+04  0.7818609E-02  0.9220301E-01
        1   -1    0    0  501    0  0.00000000000E+00  0.00000000000E+00  0.92089160670E+03  0.92089160671E+03  0.50400001928E-02 0.  1.
       -1   -1    0    0    0  501  0.00000000000E+00  0.00000000000E+00 -0.31937167926E+03  0.31937167930E+03  0.50400001928E-02 0. -1.
    10030    2    1    2    0    0  0.00000000000E+00  0.00000000000E+00  0.60151992744E+03  0.12402632860E+04  0.10846321015E+04 0.  0.
        3    1    3    3  502    0 -0.12391129837E+03 -0.44740915566E+03 -0.19779246812E+02  0.46467213305E+03  0.10100000352E+00 0. -1.
       -3    1    3    3    0  502  0.12391129837E+03  0.44740915566E+03  0.62129917425E+03  0.77559115296E+03  0.10100000352E+00 0.  1.
</event>
<event>
 5   0  0.1019384E-02  0.1089728E+04  0.7818609E-02  0.9215262E-01
       -2   -1    0    0    0  501  0.00000000000E+00  0.00000000000E+00  0.30790563349E+03  0.30790563350E+03  0.25500000920E-02 0.  1.
        2   -1    0    0  501    0  0.00000000000E+00  0.00000000000E+00 -0.96418050236E+03  0.96418050237E+03  0.25500000920E-02 0. -1.
    10030    2    1    2    0    0  0.00000000000E+00  0.00000000000E+00 -0.65627486887E+03  0.12720861359E+04  0.10897276878E+04 0.  0.
        1    1    3    3  502    0  0.43579341511E+03  0.12787254230E+03  0.23248983575E+02  0.45476125933E+03  0.50400001928E-02 0.  1.
       -1    1    3    3    0  502 -0.43579341511E+03 -0.12787254230E+03 -0.67952385245E+03  0.81732487653E+03  0.50400001928E-02 0. -1.
</event>
<event>
 5   0  0.5998641E-03  0.1151007E+04  0.7818609E-02  0.9156855E-01
        1   -1    0    0  501    0  0.00000000000E+00  0.00000000000E+00  0.10116152147E+04  0.10116152147E+04  0.50400001928E-02 0.  1.
       -1   -1    0    0    0  501  0.00000000000E+00  0.00000000000E+00 -0.32740139250E+03  0.32740139253E+03  0.50400001928E-02 0. -1.
    10030    2    1    2    0    0  0.00000000000E+00  0.00000000000E+00  0.68421382223E+03  0.13390166073E+04  0.11510069157E+04 0.  0.
        3    1    3    3  502    0 -0.95378578492E+02  0.42497843192E+03  0.77971665684E+03  0.89311914994E+03  0.10100000352E+00 0.  1.
       -3    1    3    3    0  502  0.95378578492E+02 -0.42497843192E+03 -0.95502834616E+02  0.44589745733E+03  0.10100000352E+00 0. -1.
</event>
<event>
 5   0  0.1028016E-02  0.1101272E+04  0.7818609E-02  0.9203953E-01
       -2   -1    0    0    0  501  0.00000000000E+00  0.00000000000E+00  0.49870716730E+03  0.49870716731E+03  0.25500000920E-02 0.  1.
        2   -1    0    0  501    0  0.00000000000E+00  0.00000000000E+00 -0.60797243760E+03  0.60797243761E+03  0.25500000920E-02 0. -1.
    10030    2    1    2    0    0  0.00000000000E+00  0.00000000000E+00 -0.10926527030E+03  0.11066796049E+04  0.11012723771E+04 0.  0.
        2    1    3    3  502    0  0.29204472065E+03  0.41628345802E+03 -0.26689992048E+03  0.57429748723E+03  0.25500000920E-02 0. -1.
       -2    1    3    3    0  502 -0.29204472065E+03 -0.41628345802E+03  0.15763465018E+03  0.53238211768E+03  0.25500000920E-02 0.  1.
</event>
<event>
 5   0  0.9719260E-03  0.1158132E+04  0.7818609E-02  0.9150314E-01
        2   -1    0    0  501    0  0.00000000000E+00  0.00000000000E+00  0.17314037249E+04  0.17314037249E+04  0.25500000920E-02 0.  1.
       -2   -1    0    0    0  501  0.00000000000E+00  0.00000000000E+00 -0.19366796207E+03  0.19366796209E+03  0.25500000920E-02 0. -1.
    10030    2    1    2    0    0  0.00000000000E+00  0.00000000000E+00  0.15377357628E+04  0.19250716870E+04  0.11581319976E+04 0.  0.
        3    1    3    3  502    0  0.38512012226E+03 -0.29630804063E+03  0.24533028853E+03  0.54433714202E+03  0.10100000352E+00 0. -1.
       -3    1    3    3    0  502 -0.38512012226E+03  0.29630804063E+03  0.12924054743E+04  0.13807345450E+04  0.10100000352E+00 0.  1.
</event>
<event>
 5   0  0.1019384E-02  0.1092508E+04  0.7818609E-02  0.9212525E-01
        2   -1    0    0  501    0  0.00000000000E+00  0.00000000000E+00  0.20514334331E+04  0.20514334331E+04  0.25500000920E-02 0. -1.
       -2   -1    0    0    0  501  0.00000000000E+00  0.00000000000E+00 -0.14545603630E+03  0.14545603632E+03  0.25500000920E-02 0.  1.
    10030    2    1    2    0    0  0.00000000000E+00  0.00000000000E+00  0.19059773968E+04  0.21968894694E+04  0.10925078964E+04 0.  0.
        1    1    3    3  502    0  0.40942536329E+03 -0.13929942280E+03  0.28194921431E+03  0.51626428966E+03  0.50400001928E-02 0.  1.
       -1    1    3    3    0  502 -0.40942536329E+03  0.13929942280E+03  0.16240281825E+04  0.16806251798E+04  0.50400001928E-02 0. -1.
</event>
<event>
 5   0  0.9692981E-03  0.1054083E+04  0.7818609E-02  0.9251139E-01
       -2   -1    0    0    0  501  0.00000000000E+00  0.00000000000E+00  0.18196546455E+03  0.18196546456E+03  0.25500000920E-02 0. -1.
        2   -1    0    0  501    0  0.00000000000E+00  0.00000000000E+00 -0.15265121447E+04  0.15265121447E+04  0.25500000920E-02 0.  1.
    10030    2    1    2    0    0  0.00000000000E+00  0.00000000000E+00 -0.13445466802E+04  0.17084776093E+04  0.10540825235E+04 0.  0.
        5    1    3    3  502    0  0.25856503407E+03  0.49320005232E+02 -0.14123014097E+04  0.14366299808E+04  0.46999998093E+01 0.  1.
       -5    1    3    3    0  502 -0.25856503407E+03 -0.49320005232E+02  0.67754729532E+02  0.27184762852E+03  0.46999998093E+01 0. -1.
</event>
<event>
 5   0  0.5854579E-03  0.1115470E+04  0.7818609E-02  0.9190243E-01
       -1   -1    0    0    0  501  0.00000000000E+00  0.00000000000E+00  0.21251474123E+03  0.21251474129E+03  0.50400001928E-02 0. -1.
        1   -1    0    0  501    0  0.00000000000E+00  0.00000000000E+00 -0.14637501990E+04  0.14637501991E+04  0.50400001928E-02 0.  1.
    10030    2    1    2    0    0  0.00000000000E+00  0.00000000000E+00 -0.12512354578E+04  0.16762649403E+04  0.11154702951E+04 0.  0.
        4    1    3    3  502    0 -0.82061911015E+02  0.62555443458E+02  0.19804372357E+03  0.22331652445E+03  0.12699999809E+01 0. -1.
       -4    1    3    3    0  502  0.82061911015E+02 -0.62555443458E+02 -0.14492791814E+04  0.14529484159E+04  0.12699999809E+01 0.  1.
</event>
<event>
 5   0  0.5998641E-03  0.1073605E+04  0.7818609E-02  0.9231307E-01
       -1   -1    0    0    0  501  0.00000000000E+00  0.00000000000E+00  0.29212547021E+03  0.29212547025E+03  0.50400001928E-02 0. -1.
        1   -1    0    0  501    0  0.00000000000E+00  0.00000000000E+00 -0.98641450511E+03  0.98641450512E+03  0.50400001928E-02 0.  1.
    10030    2    1    2    0    0  0.00000000000E+00  0.00000000000E+00 -0.69428903490E+03  0.12785399754E+04  0.10736047712E+04 0.  0.
        3    1    3    3  502    0 -0.45083320990E+03  0.29127312091E+03 -0.35683226774E+03  0.64453075304E+03  0.10100000352E+00 0.  1.
       -3    1    3    3    0  502  0.45083320990E+03 -0.29127312091E+03 -0.33745676716E+03  0.63400922234E+03  0.10100000352E+00 0. -1.
</event>
<event>
 5   0  0.3949750E-03  0.1090651E+04  0.7818609E-02  0.9214352E-01
       -3   -1    0    0    0  501  0.00000000000E+00  0.00000000000E+00  0.70920055531E+03  0.70920056250E+03  0.10100000352E+00 0. -1.
        3   -1    0    0  501    0  0.00000000000E+00  0.00000000000E+00 -0.41931708748E+03  0.41931709964E+03  0.10100000352E+00 0.  1.
    10030    2    1    2    0    0  0.00000000000E+00  0.00000000000E+00  0.28988346784E+03  0.11285176621E+04  0.10906510390E+04 0.  0.
        4    1    3    3  502    0  0.34197990120E+03  0.40709698165E+03  0.27039522377E+03  0.59648419529E+03  0.12699999809E+01 0. -1.
       -4    1    3    3    0  502 -0.34197990120E+03 -0.40709698165E+03  0.19488244063E+02  0.53203346685E+03  0.12699999809E+01 0.  1.
</event>
<event>
 5   0  0.9925021E-03  0.1095846E+04  0.7818609E-02  0.9209250E-01
       -2   -1    0    0    0  501  0.00000000000E+00  0.00000000000E+00  0.14229365467E+04  0.14229365468E+04  0.25500000920E-02 0.  1.
        2   -1    0    0  501    0  0.00000000000E+00  0.00000000000E+00 -0.21098584978E+03  0.21098584979E+03  0.25500000920E-02 0. -1.
    10030    2    1    2    0    0  0.00000000000E+00  0.00000000000E+00  0.12119506970E+04  0.16339223965E+04  0.10958457492E+04 0.  0.
        4    1    3    3  502    0  0.13431674968E+03  0.21080318129E+03  0.13329715080E+04  0.13562055982E+04  0.12699999809E+01 0.  1.
       -4    1    3    3    0  502 -0.13431674968E+03 -0.21080318129E+03 -0.12102081103E+03  0.27771679836E+03  0.12699999809E+01 0. -1.
</event>
<event>
 5   0  0.5854579E-03  0.1146485E+04  0.7818609E-02  0.9161033E-01
        1   -1    0    0  501    0  0.00000000000E+00  0.00000000000E+00  0.45963622889E+03  0.45963622891E+03  0.50400001928E-02 0. -1.
       -1   -1    0    0    0  501  0.00000000000E+00  0.00000000000E+00 -0.71492809689E+03  0.71492809691E+03  0.50400001928E-02 0.  1.
    10030    2    1    2    0    0  0.00000000000E+00  0.00000000000E+00 -0.25529186800E+03  0.11745643258E+04  0.11464848092E+04 0.  0.
        4    1    3    3  502    0 -0.37912947055E+03 -0.17136940828E+03 -0.53163699886E+03  0.67508972810E+03  0.12699999809E+01 0.  1.
       -4    1    3    3    0  502  0.37912947055E+03  0.17136940828E+03  0.27634513085E+03  0.49947459773E+03  0.12699999809E+01 0. -1.
</event>
<event>
 5   0  0.3949750E-03  0.1084247E+04  0.7818609E-02  0.9220683E-01
       -3   -1    0    0    0  501  0.00000000000E+00  0.00000000000E+00  0.60280138147E+03  0.60280138993E+03  0.10100000352E+00 0. -1.
        3   -1    0    0  501    0  0.00000000000E+00  0.00000000000E+00 -0.48755380001E+03  0.48755381048E+03  0.10100000352E+00 0.  1.
    10030    2    1    2    0    0  0.00000000000E+00  0.00000000000E+00  0.11524758145E+03  0.10903552004E+04  0.10842474155E+04 0.  0.
        4    1    3    3  502    0 -0.11160280263E+03 -0.40711861406E+03 -0.28443307093E+03  0.50902311952E+03  0.12699999809E+01 0.  1.
       -4    1    3    3    0  502  0.11160280263E+03  0.40711861406E+03  0.39968065238E+03  0.58133208088E+03  0.12699999809E+01 0. -1.
</event>
<event>
 5   0  0.5789905E-03  0.9273438E+03  0.7818609E-02  0.9392031E-01
       -1   -1    0    0    0  501  0.00000000000E+00  0.00000000000E+00  0.23456381037E+03  0.23456381042E+03  0.50400001928E-02 0. -1.
        1   -1    0    0  501    0  0.00000000000E+00  0.00000000000E+00 -0.91655926798E+03  0.91655926800E+03  0.50400001928E-02 0.  1.
    10030    2    1    2    0    0  0.00000000000E+00  0.00000000000E+00 -0.68199545761E+03  0.11511230784E+04  0.92734380758E+03 0.  0.
        1    1    3    3  502    0  0.82503015605E+02  0.12944883702E+03  0.20210700181E+03  0.25379320163E+03  0.50400001928E-02 0. -1.
       -1    1    3    3    0  502 -0.82503015605E+02 -0.12944883702E+03 -0.88410245942E+03  0.89732987679E+03  0.50400001928E-02 0.  1.
</event>
<event>
 5   0  0.1019384E-02  0.1137739E+04  0.7818609E-02  0.9169170E-01
        2   -1    0    0  501    0  0.00000000000E+00  0.00000000000E+00  0.27753433118E+03  0.27753433120E+03  0.25500000920E-02 0.  1.
       -2   -1    0    0    0  501  0.00000000000E+00  0.00000000000E+00 -0.11660268505E+04  0.11660268505E+04  0.25500000920E-02 0. -1.
    10030    2    1    2    0    0  0.00000000000E+00  0.00000000000E+00 -0.88849251936E+03  0.14435611817E+04  0.11377389545E+04 0.  0.
        1    1    3    3  502    0 -0.24736068659E+02 -0.32387006179E+03  0.14830940395E+03  0.35707053833E+03  0.50400001928E-02 0.  1.
       -1    1    3    3    0  502  0.24736068659E+02  0.32387006179E+03 -0.10368019233E+04  0.10864906434E+04  0.50400001928E-02 0. -1.
</event>
<event>
 5   0  0.5712664E-03  0.9898201E+03  0.7818609E-02  0.9319781E-01
       -1   -1    0    0    0  501  0.00000000000E+00  0.00000000000E+00  0.18987686813E+03  0.18987686819E+03  0.50400001928E-02 0.  1.
        1   -1    0    0  501    0  0.00000000000E+00  0.00000000000E+00 -0.12899724830E+04  0.12899724831E+04  0.50400001928E-02 0. -1.
    10030    2    1    2    0    0  0.00000000000E+00  0.00000000000E+00 -0.11000956149E+04  0.14798493512E+04  0.98982005457E+03 0.  0.
        5    1    3    3  502    0 -0.22547497791E+03 -0.33351610263E+02 -0.12067943151E+04  0.12281392041E+04  0.46999998093E+01 0. -1.
       -5    1    3    3    0  502  0.22547497791E+03  0.33351610263E+02  0.10669870020E+03  0.25171014718E+03  0.46999998093E+01 0.  1.
</event>
<event>
 5   0  0.9925021E-03  0.1103127E+04  0.7818609E-02  0.9202150E-01
        2   -1    0    0  501    0  0.00000000000E+00  0.00000000000E+00  0.23396822176E+04  0.23396822176E+04  0.25500000920E-02 0. -1.
       -2   -1    0    0    0  501  0.00000000000E+00  0.00000000000E+00 -0.13002714193E+03  0.13002714196E+03  0.25500000920E-02 0.  1.
    10030    2    1    2    0    0  0.00000000000E+00  0.00000000000E+00  0.22096550757E+04  0.24697093595E+04  0.11031268138E+04 0.  0.
        4    1    3    3  502    0  0.27822580221E+03 -0.85926130997E+02  0.56091688201E+02  0.29654811986E+03  0.12699999809E+01 0.  1.
       -4    1    3    3    0  502 -0.27822580221E+03  0.85926130997E+02  0.21535633875E+04  0.21731612397E+04  0.12699999809E+01 0. -1.
</event>
<event>
 5   0  0.1019384E-02  0.1083949E+04  0.7818609E-02  0.9220979E-01
       -2   -1    0    0    0  501  0.00000000000E+00  0.00000000000E+00  0.24588239973E+03  0.24588239974E+03  0.25500000920E-02 0. -1.
        2   -1    0    0  501    0  0.00000000000E+00  0.00000000000E+00 -0.11946223930E+04  0.11946223930E+04  0.25500000920E-02 0.  1.
    10030    2    1    2    0    0  0.00000000000E+00  0.00000000000E+00 -0.94873999330E+03  0.14405047928E+04  0.10839494836E+04 0.  0.
        1    1    3    3  502    0 -0.19530812974E+02  0.16109657434E+02 -0.11938361189E+04  0.11941045401E+04  0.50400001928E-02 0.  1.
       -1    1    3    3    0  502  0.19530812974E+02 -0.16109657434E+02  0.24509612562E+03  0.24640025271E+03  0.50400001928E-02 0. -1.
</event>
<event>
 5   0  0.9719260E-03  0.1099906E+04  0.7818609E-02  0.9205283E-01
       -2   -1    0    0    0  501  0.00000000000E+00  0.00000000000E+00  0.26701300801E+03  0.26701300802E+03  0.25500000920E-02 0. -1.
        2   -1    0    0  501    0  0.00000000000E+00  0.00000000000E+00 -0.11327109958E+04  0.11327109958E+04  0.25500000920E-02 0.  1.
    10030    2    1    2    0    0  0.00000000000E+00  0.00000000000E+00 -0.86569798780E+03  0.13997240038E+04  0.10999064873E+04 0.  0.
        3    1    3    3  502    0 -0.16457634929E+03  0.50259185016E+03 -0.24084209879E+03  0.58111003205E+03  0.10100000352E+00 0.  1.
       -3    1    3    3    0  502  0.16457634929E+03 -0.50259185016E+03 -0.62485588901E+03  0.81861397180E+03  0.10100000352E+00 0. -1.
</event>
<event>
 5   0  0.1028016E-02  0.1100305E+04  0.7818609E-02  0.9204895E-01
        2   -1    0    0  501    0  0.00000000000E+00  0.00000000000E+00  0.81792957228E+03  0.81792957228E+03  0.25500000920E-02 0.  1.
       -2   -1    0    0    0  501  0.00000000000E+00  0.00000000000E+00 -0.37004123711E+03  0.37004123712E+03  0.25500000920E-02 0. -1.
    10030    2    1    2    0    0  0.00000000000E+00  0.00000000000E+00  0.44788833517E+03  0.11879708094E+04  0.11003048138E+04 0.  0.
        2    1    3    3  502    0 -0.65908648740E+02 -0.43701303724E+03  0.57768099826E+03  0.72735113972E+03  0.25500000920E-02 0.  1.
       -2    1    3    3    0  502  0.65908648740E+02  0.43701303724E+03 -0.12979266309E+03  0.46061966968E+03  0.25500000920E-02 0. -1.
</event>
<event>
 5   0  0.1019384E-02  0.1169310E+04  0.7818609E-02  0.9140152E-01
       -2   -1    0    0    0  501  0.00000000000E+00  0.00000000000E+00  0.68438249320E+03  0.68438249320E+03  0.25500000920E-02 0.  1.
        2   -1    0    0  501    0  0.00000000000E+00  0.00000000000E+00 -0.49945971882E+03  0.49945971882E+03  0.25500000920E-02 0. -1.
    10030    2    1    2    0    0  0.00000000000E+00  0.00000000000E+00  0.18492277438E+03  0.11838422120E+04  0.11693100318E+04 0.  0.
        1    1    3    3  502    0 -0.34433516604E+03  0.24728451536E+03  0.50008801991E+03  0.65559466577E+03  0.50400001928E-02 0.  1.
       -1    1    3    3    0  502  0.34433516604E+03 -0.24728451536E+03 -0.31516524553E+03  0.52824754625E+03  0.50400001928E-02 0. -1.
</event>
<event>
 5   0  0.9719260E-03  0.1096082E+04  0.7818609E-02  0.9209019E-01
        2   -1    0    0  501    0  0.00000000000E+00  0.00000000000E+00  0.66936347731E+03  0.66936347731E+03  0.25500000920E-02 0. -1.
       -2   -1    0    0    0  501  0.00000000000E+00  0.00000000000E+00 -0.44870822747E+03  0.44870822747E+03  0.25500000920E-02 0.  1.
    10030    2    1    2    0    0  0.00000000000E+00  0.00000000000E+00  0.22065524984E+03  0.11180717048E+04  0.10960819302E+04 0.  0.
        3    1    3    3  502    0 -0.23708849214E+03  0.33717447778E+03  0.47875412222E+03  0.63174607345E+03  0.10100000352E+00 0. -1.
       -3    1    3    3    0  502  0.23708849214E+03 -0.33717447778E+03 -0.25809887238E+03  0.48632563134E+03  0.10100000352E+00 0.  1.
</event>
<event>
 5   0  0.1028016E-02  0.1111512E+04  0.7818609E-02  0.9194044E-01
        2   -1    0    0  501    0  0.00000000000E+00  0.00000000000E+00  0.10399165687E+04  0.10399165687E+04  0.25500000920E-02 0. -1.
       -2   -1    0    0    0  501  0.00000000000E+00  0.00000000000E+00 -0.29700895823E+03  0.29700895824E+03  0.25500000920E-02 0.  1.
    10030    2    1    2    0    0  0.00000000000E+00  0.00000000000E+00  0.74290761048E+03  0.13369255270E+04  0.11115116495E+04 0.  0.
        2    1    3    3  502    0 -0.29159171799E+03  0.46646659959E+03  0.46652608611E+03  0.72129287225E+03  0.25500000920E-02 0.  1.
       -2    1    3    3    0  502  0.29159171799E+03 -0.46646659959E+03  0.27638152437E+03  0.61563265471E+03  0.25500000920E-02 0. -1.
</event>
<event>
 5   0  0.5998641E-03  0.1106996E+04  0.7818609E-02  0.9198400E-01
        1   -1    0    0  501    0  0.00000000000E+00  0.00000000000E+00  0.40779964445E+03  0.40779964448E+03  0.50400001928E-02 0. -1.
       -1   -1    0    0    0  501  0.00000000000E+00  0.00000000000E+00 -0.75125124836E+03  0.75125124837E+03  0.50400001928E-02 0.  1.
    10030    2    1    2    0    0  0.00000000000E+00  0.00000000000E+00 -0.34345160390E+03  0.11590508929E+04  0.11069959205E+04 0.  0.
        3    1    3    3  502    0  0.21085258110E+03  0.36720486216E+03  0.20149334755E+03  0.46893261889E+03  0.10100000352E+00 0. -1.
       -3    1    3    3    0  502 -0.21085258110E+03 -0.36720486216E+03 -0.54494495146E+03  0.69011827397E+03  0.10100000352E+00 0.  1.
</event>
<event>
 5   0  0.5789905E-03  0.1119338E+04  0.7818609E-02  0.9186546E-01
       -1   -1    0    0    0  501  0.00000000000E+00  0.00000000000E+00  0.26787812652E+03  0.26787812656E+03  0.50400001928E-02 0.  1.
        1   -1    0    0  501    0  0.00000000000E+00  0.00000000000E+00 -0.11692975716E+04  0.11692975716E+04  0.50400001928E-02 0. -1.
    10030    2    1    2    0    0  0.00000000000E+00  0.00000000000E+00 -0.90141944508E+03  0.14371756982E+04  0.11193377379E+04 0.  0.
        1    1    3    3  502    0  0.39935271885E+03  0.34666484766E+03 -0.21546209921E+03  0.57103679993E+03  0.50400001928E-02 0.  1.
       -1    1    3    3    0  502 -0.39935271885E+03 -0.34666484766E+03 -0.68595734587E+03  0.86613889823E+03  0.50400001928E-02 0. -1.
</event>
<event>
 5   0  0.1028016E-02  0.1101930E+04  0.7818609E-02  0.9203313E-01
       -2   -1    0    0    0  501  0.00000000000E+00  0.00000000000E+00  0.26115086370E+03  0.26115086372E+03  0.25500000920E-02 0. -1.
        2   -1    0    0  501    0  0.00000000000E+00  0.00000000000E+00 -0.11624031853E+04  0.11624031853E+04  0.25500000920E-02 0.  1.
    10030    2    1    2    0    0  0.00000000000E+00  0.00000000000E+00 -0.90125232159E+03  0.14235540490E+04  0.11019302987E+04 0.  0.
        2    1    3    3  502    0  0.30020155651E+03 -0.33955316960E+03 -0.85534601988E+03  0.96800523927E+03  0.25500000920E-02 0.  1.
       -2    1    3    3    0  502 -0.30020155651E+03  0.33955316960E+03 -0.45906301710E+02  0.45554880974E+03  0.25500000920E-02 0. -1.
</event>
<event>
 5   0  0.9692981E-03  0.1098028E+04  0.7818609E-02  0.9207116E-01
       -2   -1    0    0    0  501  0.00000000000E+00  0.00000000000E+00  0.41422675449E+03  0.41422675449E+03  0.25500000920E-02 0.  1.
        2   -1    0    0  501    0  0.00000000000E+00  0.00000000000E+00 -0.72765982171E+03  0.72765982171E+03  0.25500000920E-02 0. -1.
    10030    2    1    2    0    0  0.00000000000E+00  0.00000000000E+00 -0.31343306722E+03  0.11418865762E+04  0.10980276250E+04 0.  0.
        5    1    3    3  502    0 -0.53408997603E+03 -0.67296750738E+02 -0.44647873476E+02  0.54018189322E+03  0.46999998093E+01 0.  1.
       -5    1    3    3    0  502  0.53408997603E+03  0.67296750738E+02 -0.26878519375E+03  0.60170468299E+03  0.46999998093E+01 0. -1.
</event>
<event>
 5   0  0.9692981E-03  0.8873307E+03  0.7818609E-02  0.9441559E-01
       -2   -1    0    0    0  501  0.00000000000E+00  0.00000000000E+00  0.14131739180E+03  0.14131739182E+03  0.25500000920E-02 0.  1.
        2   -1    0    0  501    0  0.00000000000E+00  0.00000000000E+00 -0.13928855091E+04  0.13928855091E+04  0.25500000920E-02 0. -1.
    10030    2    1    2    0    0  0.00000000000E+00  0.00000000000E+00 -0.12515681173E+04  0.15342029009E+04  0.88733071002E+03 0.  0.
        5    1    3    3  502    0  0.53813588135E+02  0.34857676291E+03 -0.16050646326E+03  0.38753848410E+03  0.46999998093E+01 0.  1.
       -5    1    3    3    0  502 -0.53813588135E+02 -0.34857676291E+03 -0.10910616540E+04  0.11466644168E+04  0.46999998093E+01 0. -1.
</event>
<event>
 5   0  0.5854579E-03  0.1079792E+04  0.7818609E-02  0.9225115E-01
        1   -1    0    0  501    0  0.00000000000E+00  0.00000000000E+00  0.41678161657E+03  0.41678161660E+03  0.50400001928E-02 0. -1.
       -1   -1    0    0    0  501  0.00000000000E+00  0.00000000000E+00 -0.69937791551E+03  0.69937791553E+03  0.50400001928E-02 0.  1.
    10030    2    1    2    0    0  0.00000000000E+00  0.00000000000E+00 -0.28259629895E+03  0.11161595321E+04  0.10797923101E+04 0.  0.
        4    1    3    3  502    0 -0.15580210908E+03  0.23638443808E+03 -0.61649229777E+03  0.67839241289E+03  0.12699999809E+01 0.  1.
       -4    1    3    3    0  502  0.15580210908E+03 -0.23638443808E+03  0.33389599882E+03  0.43776711924E+03  0.12699999809E+01 0. -1.
</event>
<event>
 5   0  0.5712664E-03  0.1122707E+04  0.7818609E-02  0.9183338E-01
       -1   -1    0    0    0  501  0.00000000000E+00  0.00000000000E+00  0.24314988738E+03  0.24314988743E+03  0.50400001928E-02 0.  1.
        1   -1    0    0  501    0  0.00000000000E+00  0.00000000000E+00 -0.12959819488E+04  0.12959819488E+04  0.50400001928E-02 0. -1.
    10030    2    1    2    0    0  0.00000000000E+00  0.00000000000E+00 -0.10528320615E+04  0.15391318363E+04  0.11227072013E+04 0.  0.
        5    1    3    3  502    0  0.34248701959E+03 -0.16900143976E+03 -0.10903871728E+04  0.11553463212E+04  0.46999998093E+01 0. -1.
       -5    1    3    3    0  502 -0.34248701959E+03  0.16900143976E+03  0.37555111333E+02  0.38378551512E+03  0.46999998093E+01 0.  1.
</event>
<event>
 5   0  0.1019384E-02  0.1095486E+04  0.7818609E-02  0.9209603E-01
        2   -1    0    0  501    0  0.00000000000E+00  0.00000000000E+00  0.94342759614E+03  0.94342759614E+03  0.25500000920E-02 0.  1.
       -2   -1    0    0    0  501  0.00000000000E+00  0.00000000000E+00 -0.31801317329E+03  0.31801317330E+03  0.25500000920E-02 0. -1.
    10030    2    1    2    0    0  0.00000000000E+00  0.00000000000E+00  0.62541442285E+03  0.12614407694E+04  0.10954860175E+04 0.  0.
        1    1    3    3  502    0 -0.28708447768E+03 -0.19452623908E+03 -0.17550869835E+03  0.38866599831E+03  0.50400001928E-02 0. -1.
       -1    1    3    3    0  502  0.28708447768E+03  0.19452623908E+03  0.80092312120E+03  0.87277477113E+03  0.50400001928E-02 0.  1.
</event>
<event>
 5   0  0.9925021E-03  0.1100654E+04  0.7818609E-02  0.9204555E-01
        2   -1    0    0  501    0  0.00000000000E+00  0.00000000000E+00  0.48578050764E+03  0.48578050765E+03  0.25500000920E-02 0. -1.
       -2   -1    0    0    0  501  0.00000000000E+00  0.00000000000E+00 -0.62344950769E+03  0.62344950770E+03  0.25500000920E-02 0.  1.
    10030    2    1    2    0    0  0.00000000000E+00  0.00000000000E+00 -0.13766900005E+03  0.11092300153E+04  0.11006536573E+04 0.  0.
        4    1    3    3  502    0  0.66162748428E+02 -0.29554413538E+03 -0.53190827282E+03  0.61208812178E+03  0.12699999809E+01 0.  1.
       -4    1    3    3    0  502 -0.66162748428E+02  0.29554413538E+03  0.39423927277E+03  0.49714189356E+03  0.12699999809E+01 0. -1.
</event>
<event>
 5   0  0.1028016E-02  0.1096026E+04  0.7818609E-02  0.9209074E-01
        2   -1    0    0  501    0  0.00000000000E+00  0.00000000000E+00  0.85403546774E+03  0.85403546775E+03  0.25500000920E-02 0. -1.
       -2   -1    0    0    0  501  0.00000000000E+00  0.00000000000E+00 -0.35164600677E+03  0.35164600678E+03  0.25500000920E-02 0.  1.
    10030    2    1    2    0    0  0.00000000000E+00  0.00000000000E+00  0.50238946098E+03  0.12056814745E+04  0.10960258425E+04 0.  0.
        2    1    3    3  502    0 -0.20378115152E+03 -0.41713435088E+03 -0.69125947937E+02  0.46936789524E+03  0.25500000920E-02 0.  1.
       -2    1    3    3    0  502  0.20378115152E+03  0.41713435088E+03  0.57151540891E+03  0.73631357928E+03  0.25500000920E-02 0. -1.
</event>
<event>
 5   0  0.1028016E-02  0.1115152E+04  0.7818609E-02  0.9190548E-01
       -2   -1    0    0    0  501  0.00000000000E+00  0.00000000000E+00  0.49395956069E+03  0.49395956069E+03  0.25500000920E-02 0.  1.
        2   -1    0    0  501    0  0.00000000000E+00  0.00000000000E+00 -0.62938598779E+03  0.62938598780E+03  0.25500000920E-02 0. -1.
    10030    2    1    2    0    0  0.00000000000E+00  0.00000000000E+00 -0.13542642711E+03  0.11233455485E+04  0.11151524130E+04 0.  0.
        2    1    3    3  502    0  0.29130089759E+03  0.46054569560E+03  0.51190768465E+02  0.54733814544E+03  0.25500000920E-02 0.  1.
       -2    1    3    3    0  502 -0.29130089759E+03 -0.46054569560E+03 -0.18661719557E+03  0.57600740305E+03  0.25500000920E-02 0. -1.
</event>
<event>
 5   0  0.9692981E-03  0.1113222E+04  0.7818609E-02  0.9192400E-01
       -2   -1    0    0    0  501  0.00000000000E+00  0.00000000000E+00  0.35842235519E+03  0.35842235520E+03  0.25500000920E-02 0. -1.
        2   -1    0    0  501    0  0.00000000000E+00  0.00000000000E+00 -0.86438744902E+03  0.86438744903E+03  0.25500000920E-02 0.  1.
    10030    2    1    2    0    0  0.00000000000E+00  0.00000000000E+00 -0.50596509383E+03  0.12228098042E+04  0.11132219640E+04 0.  0.
        5    1    3    3  502    0  0.25130839145E+03 -0.49483472020E+03 -0.29927881480E+03  0.63056102553E+03  0.46999998093E+01 0.  1.
       -5    1    3    3    0  502 -0.25130839145E+03  0.49483472020E+03 -0.20668627904E+03  0.59224877870E+03  0.46999998093E+01 0. -1.
</event>
<event>
 5   0  0.5789905E-03  0.1116940E+04  0.7818609E-02  0.9188836E-01
       -1   -1    0    0    0  501  0.00000000000E+00  0.00000000000E+00  0.28994314834E+03  0.28994314839E+03  0.50400001928E-02 0. -1.
        1   -1    0    0  501    0  0.00000000000E+00  0.00000000000E+00 -0.10756895695E+04  0.10756895695E+04  0.50400001928E-02 0.  1.
    10030    2    1    2    0    0  0.00000000000E+00  0.00000000000E+00 -0.78574642113E+03  0.13656327179E+04  0.11169401424E+04 0.  0.
        1    1    3    3  502    0  0.31815903898E+03  0.26276792642E+03  0.67236280647E+02  0.41808237789E+03  0.50400001928E-02 0. -1.
       -1    1    3    3    0  502 -0.31815903898E+03 -0.26276792642E+03 -0.85298270177E+03  0.94755033998E+03  0.50400001928E-02 0.  1.
</event>
<event>
 5   0  0.9692981E-03  0.1141469E+04  0.7818609E-02  0.9165690E-01
       -2   -1    0    0    0  501  0.00000000000E+00  0.00000000000E+00  0.37424863487E+03  0.37424863487E+03  0.25500000920E-02 0. -1.
        2   -1    0    0  501    0  0.00000000000E+00  0.00000000000E+00 -0.87037869268E+03  0.87037869269E+03  0.25500000920E-02 0.  1.
    10030    2    1    2    0    0  0.00000000000E+00  0.00000000000E+00 -0.49613005782E+03  0.12446273276E+04  0.11414692945E+04 0.  0.
        5    1    3    3  502    0  0.16448479175E+03 -0.48364817020E+03 -0.52551118605E+03  0.73290851811E+03  0.46999998093E+01 0.  1.
       -5    1    3    3    0  502 -0.16448479175E+03  0.48364817020E+03  0.29381128231E+02  0.51171880945E+03  0.46999998093E+01 0. -1.
</event>
<event>
 5   0  0.1019384E-02  0.1109042E+04  0.7818609E-02  0.9196423E-01
        2   -1    0    0  501    0  0.00000000000E+00  0.00000000000E+00  0.18977730108E+04  0.18977730108E+04  0.25500000920E-02 0.  1.
       -2   -1    0    0    0  501  0.00000000000E+00  0.00000000000E+00 -0.16202872862E+03  0.16202872864E+03  0.25500000920E-02 0. -1.
    10030    2    1    2    0    0  0.00000000000E+00  0.00000000000E+00  0.17357442822E+04  0.20598017395E+04  0.11090423764E+04 0.  0.
        1    1    3    3  502    0  0.49822887048E+03 -0.56533352702E+02  0.13076425311E+04  0.14004845649E+04  0.50400001928E-02 0.  1.
       -1    1    3    3    0  502 -0.49822887048E+03  0.56533352702E+02  0.42810175112E+03  0.65931717458E+03  0.50400001928E-02 0. -1.
</event>
<event>
 5   0  0.5854579E-03  0.1169617E+04  0.7818609E-02  0.9139874E-01
       -1   -1    0    0    0  501  0.00000000000E+00  0.00000000000E+00  0.80624985781E+03  0.80624985783E+03  0.50400001928E-02 0. -1.
        1   -1    0    0  501    0  0.00000000000E+00  0.00000000000E+00 -0.42418767931E+03  0.42418767934E+03  0.50400001928E-02 0.  1.
    10030    2    1    2    0    0  0.00000000000E+00  0.00000000000E+00  0.38206217850E+03  0.12304375372E+04  0.11696174694E+04 0.  0.
        4    1    3    3  502    0 -0.29726883137E+03 -0.20701217800E+03 -0.29194671584E+03  0.46524971546E+03  0.12699999809E+01 0.  1.
       -4    1    3    3    0  502  0.29726883137E+03  0.20701217800E+03  0.67400889434E+03  0.76518782171E+03  0.12699999809E+01 0. -1.
</event>
<event>
 5   0  0.5998641E-03  0.1108235E+04  0.7818609E-02  0.9197202E-01
        1   -1    0    0  501    0  0.00000000000E+00  0.00000000000E+00  0.27991755123E+03  0.27991755128E+03  0.50400001928E-02 0. -1.
       -1   -1    0    0    0  501  0.00000000000E+00  0.00000000000E+00 -0.10969172685E+04  0.10969172685E+04  0.50400001928E-02 0.  1.
    10030    2    1    2    0    0  0.00000000000E+00  0.00000000000E+00 -0.81699971728E+03  0.13768348198E+04  0.11082353464E+04 0.  0.
        3    1    3    3  502    0  0.75664845223E+02  0.46214672668E+03 -0.77650396675E+03  0.90678728838E+03  0.10100000352E+00 0.  1.
       -3    1    3    3    0  502 -0.75664845223E+02 -0.46214672668E+03 -0.40495750524E+02  0.47004753142E+03  0.10100000352E+00 0. -1.
</event>
<event>
 5   0  0.9692981E-03  0.1087578E+04  0.7818609E-02  0.9217384E-01
        2   -1    0    0  501    0  0.00000000000E+00  0.00000000000E+00  0.78098783510E+03  0.78098783510E+03  0.25500000920E-02 0.  1.
       -2   -1    0    0    0  501  0.00000000000E+00  0.00000000000E+00 -0.37863153070E+03  0.37863153071E+03  0.25500000920E-02 0. -1.
    10030    2    1    2    0    0  0.00000000000E+00  0.00000000000E+00  0.40235630440E+03  0.11596193658E+04  0.10875782629E+04 0.  0.
        5    1    3    3  502    0  0.51694460044E+03 -0.34174234359E+02  0.25055031281E+02  0.51869976172E+03  0.46999998093E+01 0. -1.
       -5    1    3    3    0  502 -0.51694460044E+03  0.34174234359E+02  0.37730127312E+03  0.64091960409E+03  0.46999998093E+01 0.  1.
</event>
<event>
 5   0  0.9692981E-03  0.1119270E+04  0.7818609E-02  0.9186611E-01
       -2   -1    0    0    0  501  0.00000000000E+00  0.00000000000E+00  0.44039489351E+03  0.44039489352E+03  0.25500000920E-02 0. -1.
        2   -1    0    0  501    0  0.00000000000E+00  0.00000000000E+00 -0.71115960559E+03  0.71115960559E+03  0.25500000920E-02 0.  1.
    10030    2    1    2    0    0  0.00000000000E+00  0.00000000000E+00 -0.27076471208E+03  0.11515544991E+04  0.11192695096E+04 0.  0.
        5    1    3    3  502    0  0.35228223115E+03 -0.29776234347E+03 -0.46138781041E+03  0.65243082788E+03  0.46999998093E+01 0.  1.
       -5    1    3    3    0  502 -0.35228223115E+03  0.29776234347E+03  0.19062309833E+03  0.49912367124E+03  0.46999998093E+01 0. -1.
</event>
<event>
 5   0  0.1028016E-02  0.1067863E+04  0.7818609E-02  0.9237094E-01
       -2   -1    0    0    0  501  0.00000000000E+00  0.00000000000E+00  0.22698621467E+03  0.22698621468E+03  0.25500000920E-02 0.  1.
        2   -1    0    0  501    0  0.00000000000E+00  0.00000000000E+00 -0.12559474335E+04  0.12559474335E+04  0.25500000920E-02 0. -1.
    10030    2    1    2    0    0  0.00000000000E+00  0.00000000000E+00 -0.10289612188E+04  0.14829336481E+04  0.10678628259E+04 0.  0.
        2    1    3    3  502    0  0.43444572698E+03  0.13876654589E+03 -0.90003618836E+03  0.10089917662E+04  0.25500000920E-02 0. -1.
       -2    1    3    3    0  502 -0.43444572698E+03 -0.13876654589E+03 -0.12892503043E+03  0.47394188191E+03  0.25500000920E-02 0.  1.
</event>
<event>
 5   0  0.9925021E-03  0.1101007E+04  0.7818609E-02  0.9204211E-01
        2   -1    0    0  501    0  0.00000000000E+00  0.00000000000E+00  0.12496237014E+04  0.12496237014E+04  0.25500000920E-02 0.  1.
       -2   -1    0    0    0  501  0.00000000000E+00  0.00000000000E+00 -0.24251638491E+03  0.24251638493E+03  0.25500000920E-02 0. -1.
    10030    2    1    2    0    0  0.00000000000E+00  0.00000000000E+00  0.10071073165E+04  0.14921400863E+04  0.11010072163E+04 0.  0.
        4    1    3    3  502    0 -0.30372632015E+02 -0.41419030241E+03  0.13829019431E+02  0.41553454497E+03  0.12699999809E+01 0. -1.
       -4    1    3    3    0  502  0.30372632015E+02  0.41419030241E+03  0.99327829705E+03  0.10766055414E+04  0.12699999809E+01 0.  1.
</event>
<event>
 5   0  0.5789905E-03  0.1069421E+04  0.7818609E-02  0.9235520E-01
        1   -1    0    0  501    0  0.00000000000E+00  0.00000000000E+00  0.43491961919E+03  0.43491961922E+03  0.50400001928E-02 0. -1.
       -1   -1    0    0    0  501  0.00000000000E+00  0.00000000000E+00 -0.65739795104E+03  0.65739795106E+03  0.50400001928E-02 0.  1.
    10030    2    1    2    0    0  0.00000000000E+00  0.00000000000E+00 -0.22247833185E+03  0.10923175703E+04  0.10694209023E+04 0.  0.
        1    1    3    3  502    0  0.10417603938E+03 -0.15635558318E+03  0.40009434899E+03  0.44201267368E+03  0.50400001928E-02 0. -1.
       -1    1    3    3    0  502 -0.10417603938E+03  0.15635558318E+03 -0.62257268084E+03  0.65030489659E+03  0.50400001928E-02 0.  1.
</event>
<event>
 5   0  0.5789905E-03  0.1169020E+04  0.7818609E-02  0.9140414E-01
       -1   -1    0    0    0  501  0.00000000000E+00  0.00000000000E+00  0.12581111903E+04  0.12581111904E+04  0.50400001928E-02 0. -1.
        1   -1    0    0  501    0  0.00000000000E+00  0.00000000000E+00 -0.27155926660E+03  0.27155926664E+03  0.50400001928E-02 0.  1.
    10030    2    1    2    0    0  0.00000000000E+00  0.00000000000E+00  0.98655192375E+03  0.15296704570E+04  0.11690196785E+04 0.  0.
        1    1    3    3  502    0 -0.43505838934E+02  0.56969975807E+03  0.65460580262E+03  0.86888395613E+03  0.50400001928E-02 0.  1.
       -1    1    3    3    0  502  0.43505838934E+02 -0.56969975807E+03  0.33194612113E+03  0.66078650087E+03  0.50400001928E-02 0. -1.
</event>
<event>
 5   0  0.5998641E-03  0.1094577E+04  0.7818609E-02  0.9210494E-01
        1   -1    0    0  501    0  0.00000000000E+00  0.00000000000E+00  0.59650439597E+03  0.59650439599E+03  0.50400001928E-02 0. -1.
       -1   -1    0    0    0  501  0.00000000000E+00  0.00000000000E+00 -0.50213289201E+03  0.50213289204E+03  0.50400001928E-02 0.  1.
    10030    2    1    2    0    0  0.00000000000E+00  0.00000000000E+00  0.94371503959E+02  0.10986372880E+04  0.10945765893E+04 0.  0.
        3    1    3    3  502    0  0.12074156645E+03 -0.37572712431E+03  0.42776926690E+03  0.58201026943E+03  0.10100000352E+00 0. -1.
       -3    1    3    3    0  502 -0.12074156645E+03  0.37572712431E+03 -0.33339776294E+03  0.51662701860E+03  0.10100000352E+00 0.  1.
</event>
<event>
 5   0  0.1019384E-02  0.1071032E+04  0.7818609E-02  0.9233896E-01
        2   -1    0    0  501    0  0.00000000000E+00  0.00000000000E+00  0.13862752675E+04  0.13862752675E+04  0.25500000920E-02 0. -1.
       -2   -1    0    0    0  501  0.00000000000E+00  0.00000000000E+00 -0.20686882818E+03  0.20686882820E+03  0.25500000920E-02 0.  1.
    10030    2    1    2    0    0  0.00000000000E+00  0.00000000000E+00  0.11794064393E+04  0.15931440957E+04  0.10710315404E+04 0.  0.
        1    1    3    3  502    0 -0.50880451296E+03 -0.41510862115E+02  0.83034492084E+03  0.97471938098E+03  0.50400001928E-02 0. -1.
       -1    1    3    3    0  502  0.50880451296E+03  0.41510862115E+02  0.34906151850E+03  0.61842471474E+03  0.50400001928E-02 0.  1.
</event>
<event>
 5   0  0.5712664E-03  0.1066402E+04  0.7818609E-02  0.9238572E-01
       -1   -1    0    0    0  501  0.00000000000E+00  0.00000000000E+00  0.30703029756E+03  0.30703029760E+03  0.50400001928E-02 0. -1.
        1   -1    0    0  501    0  0.00000000000E+00  0.00000000000E+00 -0.92597836664E+03  0.92597836665E+03  0.50400001928E-02 0.  1.
    10030    2    1    2    0    0  0.00000000000E+00  0.00000000000E+00 -0.61894806908E+03  0.12330086643E+04  0.10664022008E+04 0.  0.
        5    1    3    3  502    0  0.87362203176E+02 -0.51726210679E+03 -0.19924269070E+03  0.56117018939E+03  0.46999998093E+01 0. -1.
       -5    1    3    3    0  502 -0.87362203176E+02  0.51726210679E+03 -0.41970537838E+03  0.67183847486E+03  0.46999998093E+01 0.  1.
</event>
<event>
 5   0  0.9925021E-03  0.1096922E+04  0.7818609E-02  0.9208197E-01
        2   -1    0    0  501    0  0.00000000000E+00  0.00000000000E+00  0.34990106728E+03  0.34990106729E+03  0.25500000920E-02 0. -1.
       -2   -1    0    0    0  501  0.00000000000E+00  0.00000000000E+00 -0.85969919852E+03  0.85969919853E+03  0.25500000920E-02 0.  1.
    10030    2    1    2    0    0  0.00000000000E+00  0.00000000000E+00 -0.50979813124E+03  0.12096002658E+04  0.10969223621E+04 0.  0.
        4    1    3    3  502    0  0.54211092017E+03 -0.79715710404E+02 -0.22859019374E+03  0.59371199569E+03  0.12699999809E+01 0.  1.
       -4    1    3    3    0  502 -0.54211092017E+03  0.79715710404E+02 -0.28120793750E+03  0.61588827012E+03  0.12699999809E+01 0. -1.
</event>
<event>
 5   0  0.5854579E-03  0.1088494E+04  0.7818609E-02  0.9216480E-01
        1   -1    0    0  501    0  0.00000000000E+00  0.00000000000E+00  0.81041584460E+03  0.81041584462E+03  0.50400001928E-02 0. -1.
       -1   -1    0    0    0  501  0.00000000000E+00  0.00000000000E+00 -0.36549727969E+03  0.36549727972E+03  0.50400001928E-02 0.  1.
    10030    2    1    2    0    0  0.00000000000E+00  0.00000000000E+00  0.44491856491E+03  0.11759131243E+04  0.10884939810E+04 0.  0.
        4    1    3    3  502    0  0.12137150865E+03 -0.24493464910E+03 -0.28595252490E+03  0.39559383823E+03  0.12699999809E+01 0.  1.
       -4    1    3    3    0  502 -0.12137150865E+03  0.24493464910E+03  0.73087108982E+03  0.78031928611E+03  0.12699999809E+01 0. -1.
</event>
<event>
 5   0  0.5712664E-03  0.7603841E+03  0.7818609E-02  0.9619199E-01
        1   -1    0    0  501    0  0.00000000000E+00  0.00000000000E+00  0.43851434354E+03  0.43851434357E+03  0.50400001928E-02 0.  1.
       -1   -1    0    0    0  501  0.00000000000E+00  0.00000000000E+00 -0.32962664660E+03  0.32962664663E+03  0.50400001928E-02 0. -1.
    10030    2    1    2    0    0  0.00000000000E+00  0.00000000000E+00  0.10888769695E+03  0.76814099021E+03  0.76038414653E+03 0.  0.
        5    1    3    3  502    0 -0.33921293327E+03  0.10551247475E+02  0.22750160635E+03  0.40860226848E+03  0.46999998093E+01 0.  1.
       -5    1    3    3    0  502  0.33921293327E+03 -0.10551247475E+02 -0.11861390940E+03  0.35953872173E+03  0.46999998093E+01 0. -1.
</event>
<event>
 5   0  0.1019384E-02  0.1084815E+04  0.7818609E-02  0.9220120E-01
        2   -1    0    0  501    0  0.00000000000E+00  0.00000000000E+00  0.61057966649E+03  0.61057966649E+03  0.25500000920E-02 0. -1.
       -2   -1    0    0    0  501  0.00000000000E+00  0.00000000000E+00 -0.48184710596E+03  0.48184710596E+03  0.25500000920E-02 0.  1.
    10030    2    1    2    0    0  0.00000000000E+00  0.00000000000E+00  0.12873256053E+03  0.10924267725E+04  0.10848152751E+04 0.  0.
        1    1    3    3  502    0 -0.10251907206E+03  0.52676725605E+03 -0.15003881822E+02  0.53686033442E+03  0.50400001928E-02 0. -1.
       -1    1    3    3    0  502  0.10251907206E+03 -0.52676725605E+03  0.14373644235E+03  0.55556643803E+03  0.50400001928E-02 0.  1.
</event>
<event>
 5   0  0.5998641E-03  0.1026806E+04  0.7818609E-02  0.9279624E-01
       -1   -1    0    0    0  501  0.00000000000E+00  0.00000000000E+00  0.81112904437E+03  0.81112904439E+03  0.50400001928E-02 0. -1.
        1   -1    0    0  501    0  0.00000000000E+00  0.00000000000E+00 -0.32495739992E+03  0.32495739996E+03  0.50400001928E-02 0.  1.
    10030    2    1    2    0    0  0.00000000000E+00  0.00000000000E+00  0.48617164445E+03  0.11360864443E+04  0.10268055031E+04 0.  0.
        3    1    3    3  502    0  0.62741652400E+02 -0.23444818196E+03 -0.25747954558E+03  0.35383356478E+03  0.10100000352E+00 0.  1.
       -3    1    3    3    0  502 -0.62741652400E+02  0.23444818196E+03  0.74365119002E+03  0.78225287957E+03  0.10100000352E+00 0. -1.
</event>
<event>
 5   0  0.1028016E-02  0.1084669E+04  0.7818609E-02  0.9220264E-01
        2   -1    0    0  501    0  0.00000000000E+00  0.00000000000E+00  0.15826105087E+04  0.15826105087E+04  0.25500000920E-02 0.  1.
       -2   -1    0    0    0  501  0.00000000000E+00  0.00000000000E+00 -0.18584920487E+03  0.18584920489E+03  0.25500000920E-02 0. -1.
    10030    2    1    2    0    0  0.00000000000E+00  0.00000000000E+00  0.13967613038E+04  0.17684597135E+04  0.10846693592E+04 0.  0.
        2    1    3    3  502    0  0.32732761157E+03  0.15278146060E+03  0.38835784229E+02  0.36330945231E+03  0.25500000920E-02 0. -1.
       -2    1    3    3    0  502 -0.32732761157E+03 -0.15278146060E+03  0.13579255196E+04  0.14051502612E+04  0.25500000920E-02 0.  1.
</event>
<event>
 5   0  0.1028016E-02  0.1107326E+04  0.7818609E-02  0.9198081E-01
        2   -1    0    0  501    0  0.00000000000E+00  0.00000000000E+00  0.94654268474E+03  0.94654268475E+03  0.25500000920E-02 0.  1.
       -2   -1    0    0    0  501  0.00000000000E+00  0.00000000000E+00 -0.32385525464E+03  0.32385525465E+03  0.25500000920E-02 0. -1.
    10030    2    1    2    0    0  0.00000000000E+00  0.00000000000E+00  0.62268743010E+03  0.12703979394E+04  0.11073261890E+04 0.  0.
        2    1    3    3  502    0  0.20424056696E+03  0.35317339681E+03 -0.11807293781E+03  0.42471976179E+03  0.25500000920E-02 0. -1.
       -2    1    3    3    0  502 -0.20424056696E+03 -0.35317339681E+03  0.74076036791E+03  0.84567817761E+03  0.25500000920E-02 0.  1.
</event>
<event>
 5   0  0.9925021E-03  0.5451698E+03  0.7818609E-02  0.1002618E+00
       -2   -1    0    0    0  501  0.00000000000E+00  0.00000000000E+00  0.22273281435E+03  0.22273281436E+03  0.25500000920E-02 0.  1.
        2   -1    0    0  501    0  0.00000000000E+00  0.00000000000E+00 -0.33359485138E+03  0.33359485139E+03  0.25500000920E-02 0. -1.
    10030    2    1    2    0    0  0.00000000000E+00  0.00000000000E+00 -0.11086203703E+03  0.55632766575E+03  0.54516977212E+03 0.  0.
        4    1    3    3  502    0  0.75811158853E+02  0.10334625953E+03 -0.30092302797E+03  0.32708418309E+03  0.12699999809E+01 0. -1.
       -4    1    3    3    0  502 -0.75811158853E+02 -0.10334625953E+03  0.19006099094E+03  0.22924348266E+03  0.12699999809E+01 0.  1.
</event>
<event>
 5   0  0.9719260E-03  0.9820957E+03  0.7818609E-02  0.9328403E-01
       -2   -1    0    0    0  501  0.00000000000E+00  0.00000000000E+00  0.20066037528E+03  0.20066037530E+03  0.25500000920E-02 0.  1.
        2   -1    0    0  501    0  0.00000000000E+00  0.00000000000E+00 -0.12016722273E+04  0.12016722273E+04  0.25500000920E-02 0. -1.
    10030    2    1    2    0    0  0.00000000000E+00  0.00000000000E+00 -0.10010118520E+04  0.14023326026E+04  0.98209571856E+03 0.  0.
        3    1    3    3  502    0  0.25512871143E+02  0.44811095995E+03 -0.78491817522E+03  0.90418520836E+03  0.10100000352E+00 0. -1.
       -3    1    3    3    0  502 -0.25512871143E+02 -0.44811095995E+03 -0.21609367677E+03  0.49814739422E+03  0.10100000352E+00 0.  1.
</event>
<event>
 5   0  0.1019384E-02  0.1112344E+04  0.7818609E-02  0.9193243E-01
        2   -1    0    0  501    0  0.00000000000E+00  0.00000000000E+00  0.12416015932E+04  0.12416015932E+04  0.25500000920E-02 0.  1.
       -2   -1    0    0    0  501  0.00000000000E+00  0.00000000000E+00 -0.24913575064E+03  0.24913575065E+03  0.25500000920E-02 0. -1.
    10030    2    1    2    0    0  0.00000000000E+00  0.00000000000E+00  0.99246584256E+03  0.14907373438E+04  0.11123440923E+04 0.  0.
        1    1    3    3  502    0  0.13014186106E+03  0.14635205487E+03 -0.20139491246E+03  0.28091945244E+03  0.50400001928E-02 0. -1.
       -1    1    3    3    0  502 -0.13014186106E+03 -0.14635205487E+03  0.11938607550E+04  0.12098178914E+04  0.50400001928E-02 0.  1.
</event>
<event>
 5   0  0.9692981E-03  0.1094731E+04  0.7818609E-02  0.9210343E-01
       -2   -1    0    0    0  501  0.00000000000E+00  0.00000000000E+00  0.18171679701E+03  0.18171679703E+03  0.25500000920E-02 0. -1.
        2   -1    0    0  501    0  0.00000000000E+00  0.00000000000E+00 -0.16487680936E+04  0.16487680936E+04  0.25500000920E-02 0.  1.
    10030    2    1    2    0    0  0.00000000000E+00  0.00000000000E+00 -0.14670512966E+04  0.18304848906E+04  0.10947307559E+04 0.  0.
        5    1    3    3  502    0 -0.37948397482E+03  0.39105832041E+03 -0.81963519653E+03  0.98425537463E+03  0.46999998093E+01 0.  1.
       -5    1    3    3    0  502  0.37948397482E+03 -0.39105832041E+03 -0.64741610002E+03  0.84622951595E+03  0.46999998093E+01 0. -1.
</event>
<event>
 5   0  0.5854579E-03  0.1139561E+04  0.7818609E-02  0.9167469E-01
        1   -1    0    0  501    0  0.00000000000E+00  0.00000000000E+00  0.20378645853E+04  0.20378645853E+04  0.50400001928E-02 0. -1.
       -1   -1    0    0    0  501  0.00000000000E+00  0.00000000000E+00 -0.15930875743E+03  0.15930875751E+03  0.50400001928E-02 0.  1.
    10030    2    1    2    0    0  0.00000000000E+00  0.00000000000E+00  0.18785558279E+04  0.21971733428E+04  0.11395607487E+04 0.  0.
        4    1    3    3  502    0 -0.40704113050E+03 -0.20132170756E+03  0.16028179729E+04  0.16659051531E+04  0.12699999809E+01 0. -1.
       -4    1    3    3    0  502  0.40704113050E+03  0.20132170756E+03  0.27573785494E+03  0.53126818971E+03  0.12699999809E+01 0.  1.
</event>
<event>
 5   0  0.5998641E-03  0.7543356E+03  0.7818609E-02  0.9628573E-01
       -1   -1    0    0    0  501  0.00000000000E+00  0.00000000000E+00  0.10758628750E+03  0.10758628762E+03  0.50400001928E-02 0.  1.
        1   -1    0    0  501    0  0.00000000000E+00  0.00000000000E+00 -0.13222461082E+04  0.13222461083E+04  0.50400001928E-02 0. -1.
    10030    2    1    2    0    0  0.00000000000E+00  0.00000000000E+00 -0.12146598207E+04  0.14298323959E+04  0.75433560182E+03 0.  0.
        3    1    3    3  502    0  0.31703141000E+03  0.14904370277E+03 -0.34241856945E+03  0.48987082703E+03  0.10100000352E+00 0.  1.
       -3    1    3    3    0  502 -0.31703141000E+03 -0.14904370277E+03 -0.87224125129E+03  0.93996156885E+03  0.10100000352E+00 0. -1.
</event>
<event>
 5   0  0.9925021E-03  0.1087999E+04  0.7818609E-02  0.9216968E-01
        2   -1    0    0  501    0  0.00000000000E+00  0.00000000000E+00  0.77732141604E+03  0.77732141604E+03  0.25500000920E-02 0.  1.
       -2   -1    0    0    0  501  0.00000000000E+00  0.00000000000E+00 -0.38071180557E+03  0.38071180558E+03  0.25500000920E-02 0. -1.
    10030    2    1    2    0    0  0.00000000000E+00  0.00000000000E+00  0.39660961047E+03  0.11580332216E+04  0.10879989702E+04 0.  0.
        4    1    3    3  502    0  0.22490282272E+03  0.15662136564E+03 -0.30186099641E+03  0.40771706598E+03  0.12699999809E+01 0. -1.
       -4    1    3    3    0  502 -0.22490282272E+03 -0.15662136564E+03  0.69847060688E+03  0.75031615564E+03  0.12699999809E+01 0.  1.
</event>
<event>
 5   0  0.1028016E-02  0.1108210E+04  0.7818609E-02  0.9197226E-01
       -2   -1    0    0    0  501  0.00000000000E+00  0.00000000000E+00  0.34450688846E+03  0.34450688847E+03  0.25500000920E-02 0. -1.
        2   -1    0    0  501    0  0.00000000000E+00  0.00000000000E+00 -0.89122310642E+03  0.89122310643E+03  0.25500000920E-02 0.  1.
    10030    2    1    2    0    0  0.00000000000E+00  0.00000000000E+00 -0.54671621797E+03  0.12357299949E+04  0.11082102676E+04 0.  0.
        2    1    3    3  502    0  0.10000991930E+03 -0.28464327699E+03 -0.79160542404E+03  0.84714988430E+03  0.25500000920E-02 0.  1.
       -2    1    3    3    0  502 -0.10000991930E+03  0.28464327699E+03  0.24488920607E+03  0.38858011060E+03  0.25500000920E-02 0. -1.
</event>
<event>
 5   0  0.5712664E-03  0.1090833E+04  0.7818609E-02  0.9214173E-01
        1   -1    0    0  501    0  0.00000000000E+00  0.00000000000E+00  0.76298282633E+03  0.76298282635E+03  0.50400001928E-02 0.  1.
       -1   -1    0    0    0  501  0.00000000000E+00  0.00000000000E+00 -0.38988984689E+03  0.38988984692E+03  0.50400001928E-02 0. -1.
    10030    2    1    2    0    0  0.00000000000E+00  0.00000000000E+00  0.37309297944E+03  0.11528726733E+04  0.10908331813E+04 0.  0.
        5    1    3    3  502    0  0.23165748083E+03 -0.15191433781E+03 -0.30997489586E+03  0.41575194589E+03  0.46999998093E+01 0. -1.
       -5    1    3    3    0  502 -0.23165748083E+03  0.15191433781E+03  0.68306787530E+03  0.73712072737E+03  0.46999998093E+01 0.  1.
</event>
<event>
 5   0  0.5958706E-03  0.1119965E+04  0.7818609E-02  0.9185948E-01
       -1   -1    0    0    0  501  0.00000000000E+00  0.00000000000E+00  0.29473162675E+03  0.29473162680E+03  0.50400001928E-02 0. -1.
        1   -1    0    0  501    0  0.00000000000E+00  0.00000000000E+00 -0.10639521069E+04  0.10639521069E+04  0.50400001928E-02 0.  1.
    10030    2    1    2    0    0  0.00000000000E+00  0.00000000000E+00 -0.76922048017E+03  0.13586837337E+04  0.11199648839E+04 0.  0.
        2    1    3    3  502    0 -0.49279856851E+03  0.59426245196E+02 -0.70129881811E+02  0.50129842218E+03  0.25500000920E-02 0. -1.
       -2    1    3    3    0  502  0.49279856851E+03 -0.59426245196E+02 -0.69909059836E+03  0.85738531155E+03  0.25500000920E-02 0.  1.
</event>
<event>
 5   0  0.9692981E-03  0.1120948E+04  0.7818609E-02  0.9185012E-01
       -2   -1    0    0    0  501  0.00000000000E+00  0.00000000000E+00  0.14197312811E+04  0.14197312811E+04  0.25500000920E-02 0.  1.
        2   -1    0    0  501    0  0.00000000000E+00  0.00000000000E+00 -0.22126092468E+03  0.22126092469E+03  0.25500000920E-02 0. -1.
    10030    2    1    2    0    0  0.00000000000E+00  0.00000000000E+00  0.11984703564E+04  0.16409922058E+04  0.11209479133E+04 0.  0.
        5    1    3    3  502    0 -0.36738496981E+03 -0.28177156760E+03  0.10615738223E+04  0.11581571580E+04  0.46999998093E+01 0.  1.
       -5    1    3    3    0  502  0.36738496981E+03  0.28177156760E+03  0.13689653410E+03  0.48283504782E+03  0.46999998093E+01 0. -1.
</event>
<event>
 5   0  0.5958706E-03  0.1143564E+04  0.7818609E-02  0.9163742E-01
        1   -1    0    0  501    0  0.00000000000E+00  0.00000000000E+00  0.11842669355E+04  0.11842669355E+04  0.50400001928E-02 0.  1.
       -1   -1    0    0    0  501  0.00000000000E+00  0.00000000000E+00 -0.27606495460E+03  0.27606495465E+03  0.50400001928E-02 0. -1.
    10030    2    1    2    0    0  0.00000000000E+00  0.00000000000E+00  0.90820198089E+03  0.14603318901E+04  0.11435638991E+04 0.  0.
        2    1    3    3  502    0 -0.53596860224E+03  0.19818757034E+03  0.42875510986E+03  0.71440296742E+03  0.25500000920E-02 0.  1.
       -2    1    3    3    0  502  0.53596860224E+03 -0.19818757034E+03  0.47944687103E+03  0.74592892273E+03  0.25500000920E-02 0. -1.
</event>
<event>
 5   0  0.5789905E-03  0.1081719E+04  0.7818609E-02  0.9223195E-01
        1   -1    0    0  501    0  0.00000000000E+00  0.00000000000E+00  0.63464173153E+03  0.63464173155E+03  0.50400001928E-02 0.  1.
       -1   -1    0    0    0  501  0.00000000000E+00  0.00000000000E+00 -0.46093544462E+03  0.46093544465E+03  0.50400001928E-02 0. -1.
    10030    2    1    2    0    0  0.00000000000E+00  0.00000000000E+00  0.17370628691E+03  0.10955771762E+04  0.10817187596E+04 0.  0.
        1    1    3    3  502    0  0.90114604564E+02 -0.81136378744E+02  0.62069714340E+03  0.63243078496E+03  0.50400001928E-02 0.  1.
       -1    1    3    3    0  502 -0.90114604564E+02  0.81136378744E+02 -0.44699085649E+03  0.46314639124E+03  0.50400001928E-02 0. -1.
</event>
<event>
 5   0  0.5789905E-03  0.1111866E+04  0.7818609E-02  0.9193703E-01
       -1   -1    0    0    0  501  0.00000000000E+00  0.00000000000E+00  0.46507982178E+03  0.46507982181E+03  0.50400001928E-02 0. -1.
        1   -1    0    0  501    0  0.00000000000E+00  0.00000000000E+00 -0.66453469883E+03  0.66453469885E+03  0.50400001928E-02 0.  1.
    10030    2    1    2    0    0  0.00000000000E+00  0.00000000000E+00 -0.19945487705E+03  0.11296145207E+04  0.11118663217E+04 0.  0.
        1    1    3    3  502    0 -0.16128655847E+03 -0.47509768082E+03  0.14353251951E+03  0.52185509910E+03  0.50400001928E-02 0. -1.
       -1    1    3    3    0  502  0.16128655847E+03  0.47509768082E+03 -0.34298739657E+03  0.60775942156E+03  0.50400001928E-02 0.  1.
</event>
<event>
 5   0  0.1019384E-02  0.1278579E+04  0.7818609E-02  0.9046727E-01
        2   -1    0    0  501    0  0.00000000000E+00  0.00000000000E+00  0.97456013921E+03  0.97456013922E+03  0.25500000920E-02 0. -1.
       -2   -1    0    0    0  501  0.00000000000E+00  0.00000000000E+00 -0.41935921209E+03  0.41935921209E+03  0.25500000920E-02 0.  1.
    10030    2    1    2    0    0  0.00000000000E+00  0.00000000000E+00  0.55520092713E+03  0.13939193513E+04  0.12785785422E+04 0.  0.
        1    1    3    3  502    0  0.39192684637E+03  0.42259714579E+03  0.57912936846E+03  0.81705925487E+03  0.50400001928E-02 0. -1.
       -1    1    3    3    0  502 -0.39192684637E+03 -0.42259714579E+03 -0.23928441336E+02  0.57686009644E+03  0.50400001928E-02 0.  1.
</event>
<event>
 5   0  0.3949750E-03  0.1085818E+04  0.7818609E-02  0.9219126E-01
        3   -1    0    0  501    0  0.00000000000E+00  0.00000000000E+00  0.13910918886E+04  0.13910918923E+04  0.10100000352E+00 0.  1.
       -3   -1    0    0    0  501  0.00000000000E+00  0.00000000000E+00 -0.21188386449E+03  0.21188388856E+03  0.10100000352E+00 0. -1.
    10030    2    1    2    0    0  0.00000000000E+00  0.00000000000E+00  0.11792080241E+04  0.16029757809E+04  0.10858175675E+04 0.  0.
        2    1    3    3  502    0 -0.45394092729E+02  0.51957535067E+03  0.36702856492E+03  0.63775319375E+03  0.25500000920E-02 0. -1.
       -2    1    3    3    0  502  0.45394092729E+02 -0.51957535067E+03  0.81217945923E+03  0.96522258712E+03  0.25500000920E-02 0.  1.
</event>
<event>
 5   0  0.9719260E-03  0.1115653E+04  0.7818609E-02  0.9190068E-01
        2   -1    0    0  501    0  0.00000000000E+00  0.00000000000E+00  0.10273608640E+04  0.10273608640E+04  0.25500000920E-02 0. -1.
       -2   -1    0    0    0  501  0.00000000000E+00  0.00000000000E+00 -0.30288346702E+03  0.30288346703E+03  0.25500000920E-02 0.  1.
    10030    2    1    2    0    0  0.00000000000E+00  0.00000000000E+00  0.72447739698E+03  0.13302443310E+04  0.11156533877E+04 0.  0.
        3    1    3    3  502    0 -0.19778722776E+03 -0.52080031192E+03  0.32813974642E+03  0.64655120118E+03  0.10100000352E+00 0.  1.
       -3    1    3    3    0  502  0.19778722776E+03  0.52080031192E+03  0.39633765056E+03  0.68369312986E+03  0.10100000352E+00 0. -1.
</event>
<event>
 5   0  0.9692981E-03  0.1104425E+04  0.7818609E-02  0.9200889E-01
        2   -1    0    0  501    0  0.00000000000E+00  0.00000000000E+00  0.16515876068E+04  0.16515876068E+04  0.25500000920E-02 0.  1.
       -2   -1    0    0    0  501  0.00000000000E+00  0.00000000000E+00 -0.18463374753E+03  0.18463374755E+03  0.25500000920E-02 0. -1.
    10030    2    1    2    0    0  0.00000000000E+00  0.00000000000E+00  0.14669538593E+04  0.18362213544E+04  0.11044252971E+04 0.  0.
        5    1    3    3  502    0  0.28493821259E+03 -0.44007480065E+03  0.10217414228E+04  0.11484046500E+04  0.46999998093E+01 0.  1.
       -5    1    3    3    0  502 -0.28493821259E+03  0.44007480065E+03  0.44521243650E+03  0.68781670434E+03  0.46999998093E+01 0. -1.
</event>
<event>
 5   0  0.9925021E-03  0.1107184E+04  0.7818609E-02  0.9198218E-01
       -2   -1    0    0    0  501  0.00000000000E+00  0.00000000000E+00  0.25137929442E+03  0.25137929444E+03  0.25500000920E-02 0.  1.
        2   -1    0    0  501    0  0.00000000000E+00  0.00000000000E+00 -0.12191311260E+04  0.12191311260E+04  0.25500000920E-02 0. -1.
    10030    2    1    2    0    0  0.00000000000E+00  0.00000000000E+00 -0.96775183153E+03  0.14705104204E+04  0.11071843970E+04 0.  0.
        4    1    3    3  502    0 -0.30060979049E+03  0.33331015009E+03 -0.53503460195E+02  0.45202448545E+03  0.12699999809E+01 0.  1.
       -4    1    3    3    0  502  0.30060979049E+03 -0.33331015009E+03 -0.91424837133E+03  0.10184859349E+04  0.12699999809E+01 0. -1.
</event>
<event>
 5   0  0.1019384E-02  0.1088254E+04  0.7818609E-02  0.9216717E-01
        2   -1    0    0  501    0  0.00000000000E+00  0.00000000000E+00  0.13275525551E+04  0.13275525551E+04  0.25500000920E-02 0.  1.
       -2   -1    0    0    0  501  0.00000000000E+00  0.00000000000E+00 -0.22302257999E+03  0.22302258000E+03  0.25500000920E-02 0. -1.
    10030    2    1    2    0    0  0.00000000000E+00  0.00000000000E+00  0.11045299751E+04  0.15505751351E+04  0.10882540070E+04 0.  0.
        1    1    3    3  502    0 -0.16389757640E+03  0.40165009976E+03  0.10202706196E+04  0.11086646723E+04  0.50400001928E-02 0.  1.
       -1    1    3    3    0  502  0.16389757640E+03 -0.40165009976E+03  0.84259355495E+02  0.44191046287E+03  0.50400001928E-02 0. -1.
</event>
<event>
 5   0  0.5958706E-03  0.7628536E+03  0.7818609E-02  0.9615398E-01
       -1   -1    0    0    0  501  0.00000000000E+00  0.00000000000E+00  0.12125710492E+03  0.12125710503E+03  0.50400001928E-02 0. -1.
        1   -1    0    0  501    0  0.00000000000E+00  0.00000000000E+00 -0.11998174177E+04  0.11998174177E+04  0.50400001928E-02 0.  1.
    10030    2    1    2    0    0  0.00000000000E+00  0.00000000000E+00 -0.10785603128E+04  0.13210745228E+04  0.76285355497E+03 0.  0.
        2    1    3    3  502    0 -0.28308711039E+03  0.19495770118E+03 -0.25294018539E+03  0.42676170718E+03  0.25500000920E-02 0. -1.
       -2    1    3    3    0  502  0.28308711039E+03 -0.19495770118E+03 -0.82562012742E+03  0.89431281559E+03  0.25500000920E-02 0.  1.
</event>
<event>
 5   0  0.5998641E-03  0.1195663E+04  0.7818609E-02  0.9116662E-01
        1   -1    0    0  501    0  0.00000000000E+00  0.00000000000E+00  0.52743753653E+03  0.52743753655E+03  0.50400001928E-02 0. -1.
       -1   -1    0    0    0  501  0.00000000000E+00  0.00000000000E+00 -0.67762007054E+03  0.67762007056E+03  0.50400001928E-02 0.  1.
    10030    2    1    2    0    0  0.00000000000E+00  0.00000000000E+00 -0.15018253401E+03  0.12050576071E+04  0.11956625958E+04 0.  0.
        3    1    3    3  502    0 -0.39606349671E+03  0.33111212047E+03 -0.37895777062E+03  0.64039872881E+03  0.10100000352E+00 0.  1.
       -3    1    3    3    0  502  0.39606349671E+03 -0.33111212047E+03  0.22877523661E+03  0.56465887830E+03  0.10100000352E+00 0. -1.
</event>
<event>
 5   0  0.3949750E-03  0.1071807E+04  0.7818609E-02  0.9233115E-01
       -3   -1    0    0    0  501  0.00000000000E+00  0.00000000000E+00  0.45154022597E+03  0.45154023727E+03  0.10100000352E+00 0.  1.
        3   -1    0    0  501    0  0.00000000000E+00  0.00000000000E+00 -0.63602846345E+03  0.63602847147E+03  0.10100000352E+00 0. -1.
    10030    2    1    2    0    0  0.00000000000E+00  0.00000000000E+00 -0.18448823748E+03  0.10875687087E+04  0.10718067860E+04 0.  0.
        1    1    3    3  502    0 -0.46253077997E+03  0.21506140167E+03 -0.25899682363E+03  0.57207122247E+03  0.50400001928E-02 0. -1.
       -1    1    3    3    0  502  0.46253077997E+03 -0.21506140167E+03  0.74508586152E+02  0.51549748626E+03  0.50400001928E-02 0.  1.
</event>
<event>
 5   0  0.9719260E-03  0.1191907E+04  0.7818609E-02  0.9119970E-01
       -2   -1    0    0    0  501  0.00000000000E+00  0.00000000000E+00  0.71271610919E+03  0.71271610920E+03  0.25500000920E-02 0. -1.
        2   -1    0    0  501    0  0.00000000000E+00  0.00000000000E+00 -0.49831977988E+03  0.49831977988E+03  0.25500000920E-02 0.  1.
    10030    2    1    2    0    0  0.00000000000E+00  0.00000000000E+00  0.21439632932E+03  0.12110358891E+04  0.11919069337E+04 0.  0.
        3    1    3    3  502    0  0.53232690807E+03 -0.16589652958E+03 -0.10657557950E+03  0.56767240547E+03  0.10100000352E+00 0.  1.
       -3    1    3    3    0  502 -0.53232690807E+03  0.16589652958E+03  0.32097190882E+03  0.64336348361E+03  0.10100000352E+00 0. -1.
</event>
<event>
 5   0  0.9719260E-03  0.1094367E+04  0.7818609E-02  0.9210700E-01
        2   -1    0    0  501    0  0.00000000000E+00  0.00000000000E+00  0.76519836900E+03  0.76519836900E+03  0.25500000920E-02 0.  1.
       -2   -1    0    0    0  501  0.00000000000E+00  0.00000000000E+00 -0.39128384468E+03  0.39128384469E+03  0.25500000920E-02 0. -1.
    10030    2    1    2    0    0  0.00000000000E+00  0.00000000000E+00  0.37391452432E+03  0.11564822137E+04  0.10943669581E+04 0.  0.
        3    1    3    3  502    0 -0.25548001059E+03  0.47721918727E+03  0.10240622640E+03  0.55090401515E+03  0.10100000352E+00 0. -1.
       -3    1    3    3    0  502  0.25548001059E+03 -0.47721918727E+03  0.27150829792E+03  0.60557819854E+03  0.10100000352E+00 0.  1.
</event>
<event>
 5   0  0.5958706E-03  0.1073597E+04  0.7818609E-02  0.9231315E-01
       -1   -1    0    0    0  501  0.00000000000E+00  0.00000000000E+00  0.23313545174E+03  0.23313545179E+03  0.50400001928E-02 0. -1.
        1   -1    0    0  501    0  0.00000000000E+00  0.00000000000E+00 -0.12359885050E+04  0.12359885050E+04  0.50400001928E-02 0.  1.
    10030    2    1    2    0    0  0.00000000000E+00  0.00000000000E+00 -0.10028530533E+04  0.14691239568E+04  0.10735972029E+04 0.  0.
        2    1    3    3  502    0 -0.21214924283E+03  0.95791820458E+01  0.17320738327E+03  0.27404353594E+03  0.25500000920E-02 0. -1.
       -2    1    3    3    0  502  0.21214924283E+03 -0.95791820458E+01 -0.11760604365E+04  0.11950804209E+04  0.25500000920E-02 0.  1.
</event>
<event>
 5   0  0.5789905E-03  0.1073676E+04  0.7818609E-02  0.9231236E-01
        1   -1    0    0  501    0  0.00000000000E+00  0.00000000000E+00  0.55490416785E+03  0.55490416787E+03  0.50400001928E-02 0. -1.
       -1   -1    0    0    0  501  0.00000000000E+00  0.00000000000E+00 -0.51936001694E+03  0.51936001696E+03  0.50400001928E-02 0.  1.
    10030    2    1    2    0    0  0.00000000000E+00  0.00000000000E+00  0.35544150909E+02  0.10742641848E+04  0.10736759996E+04 0.  0.
        1    1    3    3  502    0  0.43706892260E+03  0.27215314312E+03  0.16983711514E+03  0.54216346439E+03  0.50400001928E-02 0. -1.
       -1    1    3    3    0  502 -0.43706892260E+03 -0.27215314312E+03 -0.13429296423E+03  0.53210072043E+03  0.50400001928E-02 0.  1.
</event>
<event>
 5   0  0.9692981E-03  0.1084679E+04  0.7818609E-02  0.9220254E-01
       -2   -1    0    0    0  501  0.00000000000E+00  0.00000000000E+00  0.45757779551E+03  0.45757779552E+03  0.25500000920E-02 0. -1.
        2   -1    0    0  501    0  0.00000000000E+00  0.00000000000E+00 -0.64280279050E+03  0.64280279051E+03  0.25500000920E-02 0.  1.
    10030    2    1    2    0    0  0.00000000000E+00  0.00000000000E+00 -0.18522499499E+03  0.11003805860E+04  0.10846792776E+04 0.  0.
        5    1    3    3  502    0 -0.33668258755E+03 -0.11203010473E+03 -0.50867646257E+03  0.62022555793E+03  0.46999998093E+01 0.  1.
       -5    1    3    3    0  502  0.33668258755E+03  0.11203010473E+03  0.32345146758E+03  0.48015502810E+03  0.46999998093E+01 0. -1.
</event>
<event>
 5   0  0.5854579E-03  0.1041800E+04  0.7818609E-02  0.9263851E-01
       -1   -1    0    0    0  501  0.00000000000E+00  0.00000000000E+00  0.99750900087E+03  0.99750900088E+03  0.50400001928E-02 0.  1.
        1   -1    0    0  501    0  0.00000000000E+00  0.00000000000E+00 -0.27201464464E+03  0.27201464469E+03  0.50400001928E-02 0. -1.
    10030    2    1    2    0    0  0.00000000000E+00  0.00000000000E+00  0.72549435622E+03  0.12695236456E+04  0.10418004731E+04 0.  0.
        4    1    3    3  502    0  0.60298627223E+02 -0.36192625707E+03  0.81330926429E+03  0.89224442407E+03  0.12699999809E+01 0.  1.
       -4    1    3    3    0  502 -0.60298627223E+02  0.36192625707E+03 -0.87814908066E+02  0.37727922150E+03  0.12699999809E+01 0. -1.
</event>
<event>
 5   0  0.5854579E-03  0.1071809E+04  0.7818609E-02  0.9233112E-01
       -1   -1    0    0    0  501  0.00000000000E+00  0.00000000000E+00  0.28534300217E+03  0.28534300221E+03  0.50400001928E-02 0.  1.
        1   -1    0    0  501    0  0.00000000000E+00  0.00000000000E+00 -0.10064863671E+04  0.10064863671E+04  0.50400001928E-02 0. -1.
    10030    2    1    2    0    0  0.00000000000E+00  0.00000000000E+00 -0.72114336492E+03  0.12918293693E+04  0.10718093891E+04 0.  0.
        4    1    3    3  502    0 -0.31269702223E+02  0.44760783034E+03 -0.71374448277E+03  0.84306782861E+03  0.12699999809E+01 0. -1.
       -4    1    3    3    0  502  0.31269702223E+02 -0.44760783034E+03 -0.73988821495E+01  0.44876154070E+03  0.12699999809E+01 0.  1.
</event>
<event>
 5   0  0.9925021E-03  0.1106503E+04  0.7818609E-02  0.9198877E-01
        2   -1    0    0  501    0  0.00000000000E+00  0.00000000000E+00  0.33523574150E+03  0.33523574151E+03  0.25500000920E-02 0. -1.
       -2   -1    0    0    0  501  0.00000000000E+00  0.00000000000E+00 -0.91305085528E+03  0.91305085528E+03  0.25500000920E-02 0.  1.
    10030    2    1    2    0    0  0.00000000000E+00  0.00000000000E+00 -0.57781511378E+03  0.12482865968E+04  0.11065031053E+04 0.  0.
        4    1    3    3  502    0  0.42067251943E+03  0.23657530611E+03 -0.59403131849E+03  0.76538099291E+03  0.12699999809E+01 0.  1.
       -4    1    3    3    0  502 -0.42067251943E+03 -0.23657530611E+03  0.16216204712E+02  0.48290560388E+03  0.12699999809E+01 0. -1.
</event>
<event>
 5   0  0.5789905E-03  0.1027380E+04  0.7818609E-02  0.9279015E-01
       -1   -1    0    0    0  501  0.00000000000E+00  0.00000000000E+00  0.27185322759E+03  0.27185322764E+03  0.50400001928E-02 0.  1.
        1   -1    0    0  501    0  0.00000000000E+00  0.00000000000E+00 -0.97066084474E+03  0.97066084475E+03  0.50400001928E-02 0. -1.
    10030    2    1    2    0    0  0.00000000000E+00  0.00000000000E+00 -0.69880761715E+03  0.12425140724E+04  0.10273797420E+04 0.  0.
        1    1    3    3  502    0 -0.48156051330E+03  0.39527417634E+02 -0.56031979969E+03  0.73987919465E+03  0.50400001928E-02 0. -1.
       -1    1    3    3    0  502  0.48156051330E+03 -0.39527417634E+02 -0.13848781745E+03  0.50263487774E+03  0.50400001928E-02 0.  1.
</event>
<event>
 5   0  0.5789905E-03  0.1178226E+04  0.7818609E-02  0.9132132E-01
        1   -1    0    0  501    0  0.00000000000E+00  0.00000000000E+00  0.18195793661E+04  0.18195793661E+04  0.50400001928E-02 0. -1.
       -1   -1    0    0    0  501  0.00000000000E+00  0.00000000000E+00 -0.19073315228E+03  0.19073315234E+03  0.50400001928E-02 0.  1.
    10030    2    1    2    0    0  0.00000000000E+00  0.00000000000E+00  0.16288462138E+04  0.20103125184E+04  0.11782259688E+04 0.  0.
        1    1    3    3  502    0  0.55784148879E+03  0.14736910435E+03  0.10173795795E+04  0.11696007816E+04  0.50400001928E-02 0. -1.
       -1    1    3    3    0  502 -0.55784148879E+03 -0.14736910435E+03  0.61146663427E+03  0.84071173679E+03  0.50400001928E-02 0.  1.
</event>
<event>
 5   0  0.5789905E-03  0.1104247E+04  0.7818609E-02  0.9201063E-01
       -1   -1    0    0    0  501  0.00000000000E+00  0.00000000000E+00  0.24206144624E+03  0.24206144629E+03  0.50400001928E-02 0. -1.
        1   -1    0    0  501    0  0.00000000000E+00  0.00000000000E+00 -0.12593500538E+04  0.12593500538E+04  0.50400001928E-02 0.  1.
    10030    2    1    2    0    0  0.00000000000E+00  0.00000000000E+00 -0.10172886075E+04  0.15014115001E+04  0.11042465221E+04 0.  0.
        1    1    3    3  502    0  0.42643279506E+03  0.20747852493E+03 -0.12419681040E+03  0.49022149560E+03  0.50400001928E-02 0. -1.
       -1    1    3    3    0  502 -0.42643279506E+03 -0.20747852493E+03 -0.89309179712E+03  0.10111900045E+04  0.50400001928E-02 0.  1.
</event>
<event>
 5   0  0.5712664E-03  0.1197686E+04  0.7818609E-02  0.9114885E-01
       -1   -1    0    0    0  501  0.00000000000E+00  0.00000000000E+00  0.55776984388E+03  0.55776984390E+03  0.50400001928E-02 0. -1.
        1   -1    0    0  501    0  0.00000000000E+00  0.00000000000E+00 -0.64294032910E+03  0.64294032912E+03  0.50400001928E-02 0.  1.
    10030    2    1    2    0    0  0.00000000000E+00  0.00000000000E+00 -0.85170485224E+02  0.12007101730E+04  0.11976856466E+04 0.  0.
        5    1    3    3  502    0 -0.27285440926E+03  0.17486019176E+02 -0.57669263025E+03  0.63824115293E+03  0.46999998093E+01 0.  1.
       -5    1    3    3    0  502  0.27285440926E+03 -0.17486019176E+02  0.49152214502E+03  0.56246902009E+03  0.46999998093E+01 0. -1.
</event>
<event>
 5   0  0.5998641E-03  0.1083729E+04  0.7818609E-02  0.9221197E-01
        1   -1    0    0  501    0  0.00000000000E+00  0.00000000000E+00  0.55156092214E+03  0.55156092217E+03  0.50400001928E-02 0. -1.
       -1   -1    0    0    0  501  0.00000000000E+00  0.00000000000E+00 -0.53233888500E+03  0.53233888503E+03  0.50400001928E-02 0.  1.
    10030    2    1    2    0    0  0.00000000000E+00  0.00000000000E+00  0.19222037143E+02  0.10838998072E+04  0.10837293506E+04 0.  0.
        3    1    3    3  502    0  0.75111863172E+02  0.38345395146E+03  0.38508795577E+03  0.54860866632E+03  0.10100000352E+00 0. -1.
       -3    1    3    3    0  502 -0.75111863172E+02 -0.38345395146E+03 -0.36586591863E+03  0.53529114087E+03  0.10100000352E+00 0.  1.
</event>
<event>
 5   0  0.5958706E-03  0.1060875E+04  0.7818609E-02  0.9244188E-01
        1   -1    0    0  501    0  0.00000000000E+00  0.00000000000E+00  0.26510833546E+03  0.26510833551E+03  0.50400001928E-02 0. -1.
       -1   -1    0    0    0  501  0.00000000000E+00  0.00000000000E+00 -0.10613170990E+04  0.10613170990E+04  0.50400001928E-02 0.  1.
    10030    2    1    2    0    0  0.00000000000E+00  0.00000000000E+00 -0.79620876355E+03  0.13264254345E+04  0.10608751285E+04 0.  0.
        2    1    3    3  502    0 -0.42712439868E+03 -0.33515055847E+02 -0.70832674943E+01  0.42849583848E+03  0.25500000920E-02 0. -1.
       -2    1    3    3    0  502  0.42712439868E+03  0.33515055847E+02 -0.78912549605E+03  0.89792959604E+03  0.25500000920E-02 0.  1.
</event>
<event>
 5   0  0.5958706E-03  0.1101698E+04  0.7818609E-02  0.9203539E-01
        1   -1    0    0  501    0  0.00000000000E+00  0.00000000000E+00  0.48376029082E+03  0.48376029085E+03  0.50400001928E-02 0. -1.
       -1   -1    0    0    0  501  0.00000000000E+00  0.00000000000E+00 -0.62724148136E+03  0.62724148138E+03  0.50400001928E-02 0.  1.
    10030    2    1    2    0    0  0.00000000000E+00  0.00000000000E+00 -0.14348119054E+03  0.11110017722E+04  0.11016978197E+04 0.  0.
        2    1    3    3  502    0 -0.77252713520E+02 -0.67979258329E+02  0.47398137131E+03  0.48502319704E+03  0.25500000920E-02 0. -1.
       -2    1    3    3    0  502  0.77252713520E+02  0.67979258329E+02 -0.61746256185E+03  0.62597857519E+03  0.25500000920E-02 0.  1.
</event>
<event>
 5   0  0.5958706E-03  0.1097729E+04  0.7818609E-02  0.9207408E-01
        1   -1    0    0  501    0  0.00000000000E+00  0.00000000000E+00  0.22900531811E+04  0.22900531811E+04  0.50400001928E-02 0. -1.
       -1   -1    0    0    0  501  0.00000000000E+00  0.00000000000E+00 -0.13154807062E+03  0.13154807072E+03  0.50400001928E-02 0.  1.
    10030    2    1    2    0    0  0.00000000000E+00  0.00000000000E+00  0.21585051105E+04  0.24216012518E+04  0.10977287055E+04 0.  0.
        2    1    3    3  502    0  0.52618467688E+03  0.39813821185E+02  0.14123281957E+04  0.15076890883E+04  0.25500000920E-02 0.  1.
       -2    1    3    3    0  502 -0.52618467688E+03 -0.39813821185E+02  0.74617691481E+03  0.91391216358E+03  0.25500000920E-02 0. -1.
</event>
<event>
 5   0  0.9719260E-03  0.1135847E+04  0.7818609E-02  0.9170940E-01
       -2   -1    0    0    0  501  0.00000000000E+00  0.00000000000E+00  0.41081690078E+03  0.41081690079E+03  0.25500000920E-02 0. -1.
        2   -1    0    0  501    0  0.00000000000E+00  0.00000000000E+00 -0.78511165812E+03  0.78511165812E+03  0.25500000920E-02 0.  1.
    10030    2    1    2    0    0  0.00000000000E+00  0.00000000000E+00 -0.37429475733E+03  0.11959285589E+04  0.11358470639E+04 0.  0.
        3    1    3    3  502    0  0.69111301542E+02 -0.18752665998E+03  0.37256799497E+03  0.42278782064E+03  0.10100000352E+00 0. -1.
       -3    1    3    3    0  502 -0.69111301542E+02  0.18752665998E+03 -0.74686275230E+03  0.77314073828E+03  0.10100000352E+00 0.  1.
</event>
<event>
 5   0  0.5789905E-03  0.1115672E+04  0.7818609E-02  0.9190051E-01
       -1   -1    0    0    0  501  0.00000000000E+00  0.00000000000E+00  0.67087102650E+03  0.67087102652E+03  0.50400001928E-02 0. -1.
        1   -1    0    0  501    0  0.00000000000E+00  0.00000000000E+00 -0.46384587815E+03  0.46384587817E+03  0.50400001928E-02 0.  1.
    10030    2    1    2    0    0  0.00000000000E+00  0.00000000000E+00  0.20702514835E+03  0.11347169047E+04  0.11156715654E+04 0.  0.
        1    1    3    3  502    0 -0.32758942517E+03  0.31416757390E+03  0.43333947999E+03  0.62753422291E+03  0.50400001928E-02 0. -1.
       -1    1    3    3    0  502  0.32758942517E+03 -0.31416757390E+03 -0.22631433163E+03  0.50718268179E+03  0.50400001928E-02 0.  1.
</event>
<event>
 5   0  0.5712664E-03  0.1110404E+04  0.7818609E-02  0.9195111E-01
       -1   -1    0    0    0  501  0.00000000000E+00  0.00000000000E+00  0.72742491034E+03  0.72742491036E+03  0.50400001928E-02 0. -1.
        1   -1    0    0  501    0  0.00000000000E+00  0.00000000000E+00 -0.42375376407E+03  0.42375376410E+03  0.50400001928E-02 0.  1.
    10030    2    1    2    0    0  0.00000000000E+00  0.00000000000E+00  0.30367114627E+03  0.11511786745E+04  0.11104036093E+04 0.  0.
        5    1    3    3  502    0 -0.19770907419E+03  0.23509873918E+03 -0.32760348680E+03  0.44911738972E+03  0.46999998093E+01 0.  1.
       -5    1    3    3    0  502  0.19770907419E+03 -0.23509873918E+03  0.63127463307E+03  0.70206128474E+03  0.46999998093E+01 0. -1.
</event>
<event>
 5   0  0.9719260E-03  0.1131049E+04  0.7818609E-02  0.9175447E-01
        2   -1    0    0  501    0  0.00000000000E+00  0.00000000000E+00  0.12047286592E+04  0.12047286592E+04  0.25500000920E-02 0. -1.
       -2   -1    0    0    0  501  0.00000000000E+00  0.00000000000E+00 -0.26546888157E+03  0.26546888159E+03  0.25500000920E-02 0.  1.
    10030    2    1    2    0    0  0.00000000000E+00  0.00000000000E+00  0.93925977761E+03  0.14701975408E+04  0.11310490171E+04 0.  0.
        3    1    3    3  502    0  0.49487527019E+03  0.79856887064E+02  0.80993158251E+03  0.95250608082E+03  0.10100000352E+00 0. -1.
       -3    1    3    3    0  502 -0.49487527019E+03 -0.79856887064E+02  0.12932819510E+03  0.51769145995E+03  0.10100000352E+00 0.  1.
</event>
<event>
 5   0  0.5854579E-03  0.1116886E+04  0.7818609E-02  0.9188888E-01
       -1   -1    0    0    0  501  0.00000000000E+00  0.00000000000E+00  0.30820883389E+03  0.30820883393E+03  0.50400001928E-02 0. -1.
        1   -1    0    0  501    0  0.00000000000E+00  0.00000000000E+00 -0.10118412062E+04  0.10118412062E+04  0.50400001928E-02 0.  1.
    10030    2    1    2    0    0  0.00000000000E+00  0.00000000000E+00 -0.70363237228E+03  0.13200500401E+04  0.11168856670E+04 0.  0.
        4    1    3    3  502    0  0.49571832616E+03  0.84468847229E+02 -0.63886316841E+03  0.81303099935E+03  0.12699999809E+01 0.  1.
       -4    1    3    3    0  502 -0.49571832616E+03 -0.84468847229E+02 -0.64769203869E+02  0.50701904078E+03  0.12699999809E+01 0. -1.
</event>
<event>
 5   0  0.9925021E-03  0.1115581E+04  0.7818609E-02  0.9190138E-01
       -2   -1    0    0    0  501  0.00000000000E+00  0.00000000000E+00  0.26675814024E+03  0.26675814025E+03  0.25500000920E-02 0.  1.
        2   -1    0    0  501    0  0.00000000000E+00  0.00000000000E+00 -0.11663376798E+04  0.11663376798E+04  0.25500000920E-02 0. -1.
    10030    2    1    2    0    0  0.00000000000E+00  0.00000000000E+00 -0.89957953954E+03  0.14330958200E+04  0.11155806925E+04 0.  0.
        4    1    3    3  502    0  0.11143231018E+03 -0.53478699252E+03 -0.59463968746E+03  0.80747275987E+03  0.12699999809E+01 0. -1.
       -4    1    3    3    0  502 -0.11143231018E+03  0.53478699252E+03 -0.30493985208E+03  0.62562306016E+03  0.12699999809E+01 0.  1.
</event>
<event>
 5   0  0.1019384E-02  0.1044669E+04  0.7818609E-02  0.9260865E-01
        2   -1    0    0  501    0  0.00000000000E+00  0.00000000000E+00  0.26135010898E+04  0.26135010898E+04  0.25500000920E-02 0.  1.
       -2   -1    0    0    0  501  0.00000000000E+00  0.00000000000E+00 -0.10439382267E+03  0.10439382270E+03  0.25500000920E-02 0. -1.
    10030    2    1    2    0    0  0.00000000000E+00  0.00000000000E+00  0.25091072671E+04  0.27178949125E+04  0.10446690756E+04 0.  0.
        1    1    3    3  502    0 -0.46834918951E+03 -0.18984056700E+03  0.91094499136E+03  0.10417346982E+04  0.50400001928E-02 0. -1.
       -1    1    3    3    0  502  0.46834918951E+03  0.18984056700E+03  0.15981622757E+04  0.16761602142E+04  0.50400001928E-02 0.  1.
</event>
<event>
 5   0  0.5998641E-03  0.1126712E+04  0.7818609E-02  0.9179541E-01
        1   -1    0    0  501    0  0.00000000000E+00  0.00000000000E+00  0.18235880003E+04  0.18235880003E+04  0.50400001928E-02 0.  1.
       -1   -1    0    0    0  501  0.00000000000E+00  0.00000000000E+00 -0.17403602410E+03  0.17403602417E+03  0.50400001928E-02 0. -1.
    10030    2    1    2    0    0  0.00000000000E+00  0.00000000000E+00  0.16495519762E+04  0.19976240245E+04  0.11267120400E+04 0.  0.
        3    1    3    3  502    0  0.42686649013E+03 -0.17820705193E+03  0.25467040637E+03  0.52804335034E+03  0.10100000352E+00 0. -1.
       -3    1    3    3    0  502 -0.42686649013E+03  0.17820705193E+03  0.13948815699E+04  0.14695806742E+04  0.10100000352E+00 0.  1.
</event>
<event>
 5   0  0.9719260E-03  0.1103329E+04  0.7818609E-02  0.9201953E-01
       -2   -1    0    0    0  501  0.00000000000E+00  0.00000000000E+00  0.56834365647E+03  0.56834365648E+03  0.25500000920E-02 0. -1.
        2   -1    0    0  501    0  0.00000000000E+00  0.00000000000E+00 -0.53547475768E+03  0.53547475769E+03  0.25500000920E-02 0.  1.
    10030    2    1    2    0    0  0.00000000000E+00  0.00000000000E+00  0.32868898790E+02  0.11038184142E+04  0.11033289296E+04 0.  0.
        3    1    3    3  502    0 -0.43876606821E+03  0.23616040043E+03 -0.22041152235E+03  0.54485653775E+03  0.10100000352E+00 0.  1.
       -3    1    3    3    0  502  0.43876606821E+03 -0.23616040043E+03  0.25328042114E+03  0.55896187641E+03  0.10100000352E+00 0. -1.
</event>
<event>
 5   0  0.5854579E-03  0.8790453E+03  0.7818609E-02  0.9452162E-01
        1   -1    0    0  501    0  0.00000000000E+00  0.00000000000E+00  0.13810212671E+04  0.13810212671E+04  0.50400001928E-02 0.  1.
       -1   -1    0    0    0  501  0.00000000000E+00  0.00000000000E+00 -0.13988209875E+03  0.13988209884E+03  0.50400001928E-02 0. -1.
    10030    2    1    2    0    0  0.00000000000E+00  0.00000000000E+00  0.12411391683E+04  0.15209033659E+04  0.87904528513E+03 0.  0.
        4    1    3    3  502    0 -0.38574968351E+03 -0.14530261164E+03  0.35668012175E+03  0.54510365017E+03  0.12699999809E+01 0. -1.
       -4    1    3    3    0  502  0.38574968351E+03  0.14530261164E+03  0.88445904656E+03  0.97579971573E+03  0.12699999809E+01 0.  1.
</event>
<event>
 5   0  0.1028016E-02  0.7645613E+03  0.7818609E-02  0.9612779E-01
        2   -1    0    0  501    0  0.00000000000E+00  0.00000000000E+00  0.55771967221E+03  0.55771967222E+03  0.25500000920E-02 0.  1.
       -2   -1    0    0    0  501  0.00000000000E+00  0.00000000000E+00 -0.26202861592E+03  0.26202861594E+03  0.25500000920E-02 0. -1.
    10030    2    1    2    0    0  0.00000000000E+00  0.00000000000E+00  0.29569105629E+03  0.81974828815E+03  0.76456134820E+03 0.  0.
        2    1    3    3  502    0  0.84882973645E+02  0.83743698579E+02  0.53727080631E+03  0.55034357050E+03  0.25500000920E-02 0.  1.
       -2    1    3    3    0  502 -0.84882973645E+02 -0.83743698579E+02 -0.24157975002E+03  0.26940471766E+03  0.25500000920E-02 0. -1.
</event>
<event>
 5   0  0.5854579E-03  0.1104667E+04  0.7818609E-02  0.9200655E-01
        1   -1    0    0  501    0  0.00000000000E+00  0.00000000000E+00  0.41065846033E+03  0.41065846036E+03  0.50400001928E-02 0. -1.
       -1   -1    0    0    0  501  0.00000000000E+00  0.00000000000E+00 -0.74288602868E+03  0.74288602870E+03  0.50400001928E-02 0.  1.
    10030    2    1    2    0    0  0.00000000000E+00  0.00000000000E+00 -0.33222756835E+03  0.11535444891E+04  0.11046672490E+04 0.  0.
        4    1    3    3  502    0 -0.19132368650E+03  0.76128878192E+02 -0.70130439824E+03  0.73091027562E+03  0.12699999809E+01 0.  1.
       -4    1    3    3    0  502  0.19132368650E+03 -0.76128878192E+02  0.36907682989E+03  0.42263421345E+03  0.12699999809E+01 0. -1.
</event>
<event>
 5   0  0.5854579E-03  0.1114425E+04  0.7818609E-02  0.9191245E-01
        1   -1    0    0  501    0  0.00000000000E+00  0.00000000000E+00  0.11256847094E+04  0.11256847094E+04  0.50400001928E-02 0. -1.
       -1   -1    0    0    0  501  0.00000000000E+00  0.00000000000E+00 -0.27581942528E+03  0.27581942532E+03  0.50400001928E-02 0.  1.
    10030    2    1    2    0    0  0.00000000000E+00  0.00000000000E+00  0.84986528408E+03  0.14015041347E+04  0.11144248914E+04 0.  0.
        4    1    3    3  502    0 -0.45211887772E+03  0.29438514851E+03  0.60014162300E+03  0.80699794040E+03  0.12699999809E+01 0.  1.
       -4    1    3    3    0  502  0.45211887772E+03 -0.29438514851E+03  0.24972366108E+03  0.59450619429E+03  0.12699999809E+01 0. -1.
</event>
<event>
 5   0  0.5958706E-03  0.1074567E+04  0.7818609E-02  0.9230341E-01
        1   -1    0    0  501    0  0.00000000000E+00  0.00000000000E+00  0.82483959966E+03  0.82483959968E+03  0.50400001928E-02 0.  1.
       -1   -1    0    0    0  501  0.00000000000E+00  0.00000000000E+00 -0.34997528320E+03  0.34997528324E+03  0.50400001928E-02 0. -1.
    10030    2    1    2    0    0  0.00000000000E+00  0.00000000000E+00  0.47486431646E+03  0.11748148829E+04  0.10745668383E+04 0.  0.
        2    1    3    3  502    0  0.99624506071E+02 -0.43849769701E+03  0.55891974968E+03  0.71735385905E+03  0.25500000920E-02 0.  1.
       -2    1    3    3    0  502 -0.99624506071E+02  0.43849769701E+03 -0.84055433223E+02  0.45746102387E+03  0.25500000920E-02 0. -1.
</event>
<event>
 5   0  0.1028016E-02  0.1127538E+04  0.7818609E-02  0.9178760E-01
       -2   -1    0    0    0  501  0.00000000000E+00  0.00000000000E+00  0.35501716123E+03  0.35501716124E+03  0.25500000920E-02 0.  1.
        2   -1    0    0  501    0  0.00000000000E+00  0.00000000000E+00 -0.89526760970E+03  0.89526760970E+03  0.25500000920E-02 0. -1.
    10030    2    1    2    0    0  0.00000000000E+00  0.00000000000E+00 -0.54025044847E+03  0.12502847709E+04  0.11275377871E+04 0.  0.
        2    1    3    3  502    0  0.29744949700E+03  0.17408462744E+03 -0.76484921168E+03  0.83891356968E+03  0.25500000920E-02 0. -1.
       -2    1    3    3    0  502 -0.29744949700E+03 -0.17408462744E+03  0.22459876322E+03  0.41137120126E+03  0.25500000920E-02 0.  1.
</event>
<event>
 5   0  0.1019384E-02  0.1246573E+04  0.7818609E-02  0.9073041E-01
        2   -1    0    0  501    0  0.00000000000E+00  0.00000000000E+00  0.18555700218E+04  0.18555700218E+04  0.25500000920E-02 0.  1.
       -2   -1    0    0    0  501  0.00000000000E+00  0.00000000000E+00 -0.20936204107E+03  0.20936204108E+03  0.25500000920E-02 0. -1.
    10030    2    1    2    0    0  0.00000000000E+00  0.00000000000E+00  0.16462079808E+04  0.20649320629E+04  0.12465727851E+04 0.  0.
        1    1    3    3  502    0 -0.41594142701E+03  0.46416750236E+03  0.83174097307E+03  0.10393516187E+04  0.50400001928E-02 0.  1.
       -1    1    3    3    0  502  0.41594142701E+03 -0.46416750236E+03  0.81446700770E+03  0.10255804442E+04  0.50400001928E-02 0. -1.
</event>
<event>
 5   0  0.9692981E-03  0.1104471E+04  0.7818609E-02  0.9200845E-01
       -2   -1    0    0    0  501  0.00000000000E+00  0.00000000000E+00  0.29203609086E+03  0.29203609087E+03  0.25500000920E-02 0. -1.
        2   -1    0    0  501    0  0.00000000000E+00  0.00000000000E+00 -0.10442689378E+04  0.10442689378E+04  0.25500000920E-02 0.  1.
    10030    2    1    2    0    0  0.00000000000E+00  0.00000000000E+00 -0.75223284690E+03  0.13363050286E+04  0.11044713095E+04 0.  0.
        5    1    3    3  502    0 -0.54188328746E+03  0.93074846253E+01 -0.50426356362E+03  0.74028910440E+03  0.46999998093E+01 0. -1.
       -5    1    3    3    0  502  0.54188328746E+03 -0.93074846253E+01 -0.24796928328E+03  0.59601592424E+03  0.46999998093E+01 0.  1.
</event>
<event>
 5   0  0.1019384E-02  0.1094608E+04  0.7818609E-02  0.9210463E-01
        2   -1    0    0  501    0  0.00000000000E+00  0.00000000000E+00  0.47973559187E+03  0.47973559187E+03  0.25500000920E-02 0. -1.
       -2   -1    0    0    0  501  0.00000000000E+00  0.00000000000E+00 -0.62438890732E+03  0.62438890732E+03  0.25500000920E-02 0.  1.
    10030    2    1    2    0    0  0.00000000000E+00  0.00000000000E+00 -0.14465331545E+03  0.11041244992E+04  0.10946078421E+04 0.  0.
        1    1    3    3  502    0  0.14981072016E+03  0.52606958357E+03 -0.91173949094E+02  0.55453146678E+03  0.50400001928E-02 0. -1.
       -1    1    3    3    0  502 -0.14981072016E+03 -0.52606958357E+03 -0.53479366358E+02  0.54959303242E+03  0.50400001928E-02 0.  1.
</event>
<event>
 5   0  0.5789905E-03  0.1099407E+04  0.7818609E-02  0.9205770E-01
       -1   -1    0    0    0  501  0.00000000000E+00  0.00000000000E+00  0.62219230857E+03  0.62219230859E+03  0.50400001928E-02 0. -1.
        1   -1    0    0  501    0  0.00000000000E+00  0.00000000000E+00 -0.48566009778E+03  0.48566009780E+03  0.50400001928E-02 0.  1.
    10030    2    1    2    0    0  0.00000000000E+00  0.00000000000E+00  0.13653221080E+03  0.11078524064E+04  0.10994070719E+04 0.  0.
        1    1    3    3  502    0  0.22035970192E+03 -0.12272727684E+03  0.56043749230E+03  0.61458161827E+03  0.50400001928E-02 0. -1.
       -1    1    3    3    0  502 -0.22035970192E+03  0.12272727684E+03 -0.42390528150E+03  0.49327078813E+03  0.50400001928E-02 0.  1.
</event>
<event>
 5   0  0.9692981E-03  0.1078564E+04  0.7818609E-02  0.9226340E-01
       -2   -1    0    0    0  501  0.00000000000E+00  0.00000000000E+00  0.23260007973E+03  0.23260007974E+03  0.25500000920E-02 0.  1.
        2   -1    0    0  501    0  0.00000000000E+00  0.00000000000E+00 -0.12503224667E+04  0.12503224667E+04  0.25500000920E-02 0. -1.
    10030    2    1    2    0    0  0.00000000000E+00  0.00000000000E+00 -0.10177223869E+04  0.14829225464E+04  0.10785640555E+04 0.  0.
        5    1    3    3  502    0 -0.46159106714E+03  0.60059793790E+02 -0.88320282539E+03  0.99837007811E+03  0.46999998093E+01 0. -1.
       -5    1    3    3    0  502  0.46159106714E+03 -0.60059793790E+02 -0.13451956154E+03  0.48455246829E+03  0.46999998093E+01 0.  1.
</event>
<event>
 5   0  0.5712664E-03  0.1159642E+04  0.7818609E-02  0.9148935E-01
        1   -1    0    0  501    0  0.00000000000E+00  0.00000000000E+00  0.12404346179E+04  0.12404346179E+04  0.50400001928E-02 0.  1.
       -1   -1    0    0    0  501  0.00000000000E+00  0.00000000000E+00 -0.27102768255E+03  0.27102768260E+03  0.50400001928E-02 0. -1.
    10030    2    1    2    0    0  0.00000000000E+00  0.00000000000E+00  0.96940693536E+03  0.15114623005E+04  0.11596415306E+04 0.  0.
        5    1    3    3  502    0 -0.54176784233E+03  0.19569841868E+03  0.39864273458E+03  0.70053435739E+03  0.46999998093E+01 0. -1.
       -5    1    3    3    0  502  0.54176784233E+03 -0.19569841868E+03  0.57076420079E+03  0.81092794313E+03  0.46999998093E+01 0.  1.
</event>
<event>
 5   0  0.9925021E-03  0.1045694E+04  0.7818609E-02  0.9259801E-01
       -2   -1    0    0    0  501  0.00000000000E+00  0.00000000000E+00  0.30830219784E+03  0.30830219785E+03  0.25500000920E-02 0.  1.
        2   -1    0    0  501    0  0.00000000000E+00  0.00000000000E+00 -0.88669243094E+03  0.88669243094E+03  0.25500000920E-02 0. -1.
    10030    2    1    2    0    0  0.00000000000E+00  0.00000000000E+00 -0.57839023309E+03  0.11949946288E+04  0.10456944588E+04 0.  0.
        4    1    3    3  502    0  0.23882531398E+02  0.26686834304E+03  0.22388274694E+03  0.34916211865E+03  0.12699999809E+01 0.  1.
       -4    1    3    3    0  502 -0.23882531398E+02 -0.26686834304E+03 -0.80227298003E+03  0.84583251014E+03  0.12699999809E+01 0. -1.
</event>
<event>
 5   0  0.9925021E-03  0.1048763E+04  0.7818609E-02  0.9256622E-01
        2   -1    0    0  501    0  0.00000000000E+00  0.00000000000E+00  0.14040050858E+04  0.14040050858E+04  0.25500000920E-02 0.  1.
       -2   -1    0    0    0  501  0.00000000000E+00  0.00000000000E+00 -0.19585119519E+03  0.19585119520E+03  0.25500000920E-02 0. -1.
    10030    2    1    2    0    0  0.00000000000E+00  0.00000000000E+00  0.12081538906E+04  0.15998562810E+04  0.10487632223E+04 0.  0.
        4    1    3    3  502    0  0.31791615074E+01  0.51562609933E+03  0.74955011537E+03  0.90978424350E+03  0.12699999809E+01 0.  1.
       -4    1    3    3    0  502 -0.31791615074E+01 -0.51562609933E+03  0.45860377526E+03  0.69007203752E+03  0.12699999809E+01 0. -1.
</event>
<event>
 5   0  0.3949750E-03  0.1041115E+04  0.7818609E-02  0.9264565E-01
       -4   -1    0    0    0  501  0.00000000000E+00  0.00000000000E+00  0.60916033200E+03  0.60916165587E+03  0.12699999809E+01 0.  1.
        4   -1    0    0  501    0  0.00000000000E+00  0.00000000000E+00 -0.44483956555E+03  0.44484137844E+03  0.12699999809E+01 0. -1.
    10030    2    1    2    0    0  0.00000000000E+00  0.00000000000E+00  0.16432076646E+03  0.10540030343E+04  0.10411153068E+04 0.  0.
        1    1    3    3  502    0 -0.31072228752E+03  0.41473482185E+03  0.32286387219E+02  0.51922608105E+03  0.50400001928E-02 0. -1.
       -1    1    3    3    0  502  0.31072228752E+03 -0.41473482185E+03  0.13203437924E+03  0.53477695327E+03  0.50400001928E-02 0.  1.
</event>
<event>
 5   0  0.3949750E-03  0.1101601E+04  0.7818609E-02  0.9203633E-01
       -3   -1    0    0    0  501  0.00000000000E+00  0.00000000000E+00  0.10976709837E+04  0.10976709883E+04  0.10100000352E+00 0. -1.
        3   -1    0    0  501    0  0.00000000000E+00  0.00000000000E+00 -0.27638614153E+03  0.27638615999E+03  0.10100000352E+00 0.  1.
    10030    2    1    2    0    0  0.00000000000E+00  0.00000000000E+00  0.82128484213E+03  0.13740571483E+04  0.11016007693E+04 0.  0.
        5    1    3    3  502    0 -0.24878806936E+03  0.43754466218E+03  0.13168088278E+03  0.52029105292E+03  0.46999998093E+01 0.  1.
       -5    1    3    3    0  502  0.24878806936E+03 -0.43754466218E+03  0.68960395935E+03  0.85376609537E+03  0.46999998093E+01 0. -1.
</event>
<event>
 5   0  0.5789905E-03  0.1109394E+04  0.7818609E-02  0.9196083E-01
       -1   -1    0    0    0  501  0.00000000000E+00  0.00000000000E+00  0.27064806613E+03  0.27064806617E+03  0.50400001928E-02 0.  1.
        1   -1    0    0  501    0  0.00000000000E+00  0.00000000000E+00 -0.11368602266E+04  0.11368602266E+04  0.50400001928E-02 0. -1.
    10030    2    1    2    0    0  0.00000000000E+00  0.00000000000E+00 -0.86621216050E+03  0.14075082928E+04  0.11093944688E+04 0.  0.
        1    1    3    3  502    0 -0.40904905694E+03 -0.17354530729E+03 -0.11842318100E+02  0.44449898221E+03  0.50400001928E-02 0.  1.
       -1    1    3    3    0  502  0.40904905694E+03  0.17354530729E+03 -0.85436984240E+03  0.96300931059E+03  0.50400001928E-02 0. -1.
</event>
<event>
 5   0  0.5712664E-03  0.1080249E+04  0.7818609E-02  0.9224659E-01
        1   -1    0    0  501    0  0.00000000000E+00  0.00000000000E+00  0.66848480391E+03  0.66848480393E+03  0.50400001928E-02 0.  1.
       -1   -1    0    0    0  501  0.00000000000E+00  0.00000000000E+00 -0.43641136330E+03  0.43641136333E+03  0.50400001928E-02 0. -1.
    10030    2    1    2    0    0  0.00000000000E+00  0.00000000000E+00  0.23207344061E+03  0.11048961673E+04  0.10802487948E+04 0.  0.
        5    1    3    3  502    0 -0.84146745269E+02  0.56325840147E+01  0.66168781181E+03  0.66705715725E+03  0.46999998093E+01 0.  1.
       -5    1    3    3    0  502  0.84146745269E+02 -0.56325840147E+01 -0.42961437121E+03  0.43783901001E+03  0.46999998093E+01 0. -1.
</event>
<event>
 5   0  0.9925021E-03  0.1105059E+04  0.7818609E-02  0.9200275E-01
        2   -1    0    0  501    0  0.00000000000E+00  0.00000000000E+00  0.37306881847E+03  0.37306881848E+03  0.25500000920E-02 0. -1.
       -2   -1    0    0    0  501  0.00000000000E+00  0.00000000000E+00 -0.81831814964E+03  0.81831814964E+03  0.25500000920E-02 0.  1.
    10030    2    1    2    0    0  0.00000000000E+00  0.00000000000E+00 -0.44524933117E+03  0.11913869681E+04  0.11050592477E+04 0.  0.
        4    1    3    3  502    0 -0.31687609476E+03 -0.77748329114E+02  0.25811564847E+03  0.41602952178E+03  0.12699999809E+01 0. -1.
       -4    1    3    3    0  502  0.31687609476E+03  0.77748329114E+02 -0.70336497963E+03  0.77535744634E+03  0.12699999809E+01 0.  1.
</event>
<event>
 5   0  0.9692981E-03  0.9218270E+03  0.7818609E-02  0.9398701E-01
        2   -1    0    0  501    0  0.00000000000E+00  0.00000000000E+00  0.10302885446E+04  0.10302885447E+04  0.25500000920E-02 0. -1.
       -2   -1    0    0    0  501  0.00000000000E+00  0.00000000000E+00 -0.20619587975E+03  0.20619587976E+03  0.25500000920E-02 0.  1.
    10030    2    1    2    0    0  0.00000000000E+00  0.00000000000E+00  0.82409266490E+03  0.12364844244E+04  0.92182699650E+03 0.  0.
        5    1    3    3  502    0 -0.25586692735E+03 -0.37860683862E+03  0.49261773506E+03  0.67194147488E+03  0.46999998093E+01 0. -1.
       -5    1    3    3    0  502  0.25586692735E+03  0.37860683862E+03  0.33147492984E+03  0.56454294954E+03  0.46999998093E+01 0.  1.
</event>
<event>
 5   0  0.1019384E-02  0.1110333E+04  0.7818609E-02  0.9195179E-01
        2   -1    0    0  501    0  0.00000000000E+00  0.00000000000E+00  0.15756513014E+04  0.15756513014E+04  0.25500000920E-02 0.  1.
       -2   -1    0    0    0  501  0.00000000000E+00  0.00000000000E+00 -0.19560798074E+03  0.19560798076E+03  0.25500000920E-02 0. -1.
    10030    2    1    2    0    0  0.00000000000E+00  0.00000000000E+00  0.13800433207E+04  0.17712592822E+04  0.11103332283E+04 0.  0.
        1    1    3    3  502    0 -0.14104248179E+03  0.30435891601E+03 -0.15653693206E+02  0.33581597573E+03  0.50400001928E-02 0. -1.
       -1    1    3    3    0  502  0.14104248179E+03 -0.30435891601E+03  0.13956970139E+04  0.14354433065E+04  0.50400001928E-02 0.  1.
</event>
<event>
 5   0  0.1019384E-02  0.1369480E+04  0.7818609E-02  0.8976211E-01
        2   -1    0    0  501    0  0.00000000000E+00  0.00000000000E+00  0.91852000136E+03  0.91852000136E+03  0.25500000920E-02 0. -1.
       -2   -1    0    0    0  501  0.00000000000E+00  0.00000000000E+00 -0.51046157999E+03  0.51046158000E+03  0.25500000920E-02 0.  1.
    10030    2    1    2    0    0  0.00000000000E+00  0.00000000000E+00  0.40805842137E+03  0.14289815814E+04  0.13694804433E+04 0.  0.
        1    1    3    3  502    0 -0.60699231948E+03  0.26382908936E+03  0.38722404735E+03  0.76680370837E+03  0.50400001928E-02 0. -1.
       -1    1    3    3    0  502  0.60699231948E+03 -0.26382908936E+03  0.20834374023E+02  0.66217787299E+03  0.50400001928E-02 0.  1.
</event>
<event>
 5   0  0.5712664E-03  0.1092956E+04  0.7818609E-02  0.9212085E-01
        1   -1    0    0  501    0  0.00000000000E+00  0.00000000000E+00  0.28066426927E+03  0.28066426932E+03  0.50400001928E-02 0. -1.
       -1   -1    0    0    0  501  0.00000000000E+00  0.00000000000E+00 -0.10640404664E+04  0.10640404664E+04  0.50400001928E-02 0.  1.
    10030    2    1    2    0    0  0.00000000000E+00  0.00000000000E+00 -0.78337619714E+03  0.13447047357E+04  0.10929558820E+04 0.  0.
        5    1    3    3  502    0 -0.54150306490E+03 -0.73169089645E+02 -0.39914815096E+03  0.67669832377E+03  0.46999998093E+01 0.  1.
       -5    1    3    3    0  502  0.54150306490E+03  0.73169089645E+02 -0.38422804618E+03  0.66800641198E+03  0.46999998093E+01 0. -1.
</event>
<event>
 5   0  0.5712664E-03  0.1128211E+04  0.7818609E-02  0.9178123E-01
       -1   -1    0    0    0  501  0.00000000000E+00  0.00000000000E+00  0.17589098348E+03  0.17589098355E+03  0.50400001928E-02 0.  1.
        1   -1    0    0  501    0  0.00000000000E+00  0.00000000000E+00 -0.18091612412E+04  0.18091612412E+04  0.50400001928E-02 0. -1.
    10030    2    1    2    0    0  0.00000000000E+00  0.00000000000E+00 -0.16332702577E+04  0.19850522247E+04  0.11282112392E+04 0.  0.
        5    1    3    3  502    0  0.28131853732E+03 -0.19031682546E+03 -0.16090456439E+04  0.16445092239E+04  0.46999998093E+01 0. -1.
       -5    1    3    3    0  502 -0.28131853732E+03  0.19031682546E+03 -0.24224613824E+02  0.34054300082E+03  0.46999998093E+01 0.  1.
</event>
<event>
 5   0  0.9925021E-03  0.9988747E+03  0.7818609E-02  0.9309780E-01
       -2   -1    0    0    0  501  0.00000000000E+00  0.00000000000E+00  0.40507033111E+03  0.40507033112E+03  0.25500000920E-02 0. -1.
        2   -1    0    0  501    0  0.00000000000E+00  0.00000000000E+00 -0.61578852866E+03  0.61578852866E+03  0.25500000920E-02 0.  1.
    10030    2    1    2    0    0  0.00000000000E+00  0.00000000000E+00 -0.21071819755E+03  0.10208588598E+04  0.99887469325E+03 0.  0.
        4    1    3    3  502    0  0.39191640909E+03 -0.30757403847E+03 -0.69431604128E+02  0.50301353999E+03  0.12699999809E+01 0.  1.
       -4    1    3    3    0  502 -0.39191640909E+03  0.30757403847E+03 -0.14128659342E+03  0.51784531980E+03  0.12699999809E+01 0. -1.
</event>
<event>
 5   0  0.5854579E-03  0.1088835E+04  0.7818609E-02  0.9216142E-01
       -1   -1    0    0    0  501  0.00000000000E+00  0.00000000000E+00  0.20639530355E+03  0.20639530361E+03  0.50400001928E-02 0. -1.
        1   -1    0    0  501    0  0.00000000000E+00  0.00000000000E+00 -0.14360336964E+04  0.14360336964E+04  0.50400001928E-02 0.  1.
    10030    2    1    2    0    0  0.00000000000E+00  0.00000000000E+00 -0.12296383928E+04  0.16424290000E+04  0.10888353608E+04 0.  0.
        4    1    3    3  502    0  0.38422336645E+02 -0.49414832811E+03 -0.95456763434E+03  0.10755741851E+04  0.12699999809E+01 0.  1.
       -4    1    3    3    0  502 -0.38422336645E+02  0.49414832811E+03 -0.27507075847E+03  0.56685481492E+03  0.12699999809E+01 0. -1.
</event>
<event>
 5   0  0.9925021E-03  0.1082053E+04  0.7818609E-02  0.9222863E-01
        2   -1    0    0  501    0  0.00000000000E+00  0.00000000000E+00  0.16484542479E+04  0.16484542479E+04  0.25500000920E-02 0. -1.
       -2   -1    0    0    0  501  0.00000000000E+00  0.00000000000E+00 -0.17756607431E+03  0.17756607433E+03  0.25500000920E-02 0.  1.
    10030    2    1    2    0    0  0.00000000000E+00  0.00000000000E+00  0.14708881736E+04  0.18260203223E+04  0.10820527704E+04 0.  0.
        4    1    3    3  502    0 -0.15956951954E+03  0.29383778862E+03  0.14532090935E+04  0.14911811962E+04  0.12699999809E+01 0. -1.
       -4    1    3    3    0  502  0.15956951954E+03 -0.29383778862E+03  0.17679080157E+02  0.33483912609E+03  0.12699999809E+01 0.  1.
</event>
<event>
 5   0  0.5998641E-03  0.9654545E+03  0.7818609E-02  0.9347267E-01
       -1   -1    0    0    0  501  0.00000000000E+00  0.00000000000E+00  0.32740954332E+03  0.32740954336E+03  0.50400001928E-02 0.  1.
        1   -1    0    0  501    0  0.00000000000E+00  0.00000000000E+00 -0.71172512581E+03  0.71172512583E+03  0.50400001928E-02 0. -1.
    10030    2    1    2    0    0  0.00000000000E+00  0.00000000000E+00 -0.38431558249E+03  0.10391346692E+04  0.96545450113E+03 0.  0.
        3    1    3    3  502    0  0.81223443429E+01  0.75490903414E+02 -0.70525804630E+03  0.70933332859E+03  0.10100000352E+00 0. -1.
       -3    1    3    3    0  502 -0.81223443429E+01 -0.75490903414E+02  0.32094246381E+03  0.32980134059E+03  0.10100000352E+00 0.  1.
</event>
<event>
 5   0  0.5854579E-03  0.1131824E+04  0.7818609E-02  0.9174717E-01
        1   -1    0    0  501    0  0.00000000000E+00  0.00000000000E+00  0.21071420520E+04  0.21071420521E+04  0.50400001928E-02 0. -1.
       -1   -1    0    0    0  501  0.00000000000E+00  0.00000000000E+00 -0.15198624089E+03  0.15198624097E+03  0.50400001928E-02 0.  1.
    10030    2    1    2    0    0  0.00000000000E+00  0.00000000000E+00  0.19551558112E+04  0.22591282930E+04  0.11318243673E+04 0.  0.
        4    1    3    3  502    0  0.18834284873E+03  0.30018110507E+03  0.18582515675E+04  0.18917405281E+04  0.12699999809E+01 0. -1.
       -4    1    3    3    0  502 -0.18834284873E+03 -0.30018110507E+03  0.96904243664E+02  0.36738776497E+03  0.12699999809E+01 0.  1.
</event>
<event>
 5   0  0.5958706E-03  0.1107186E+04  0.7818609E-02  0.9198216E-01
        1   -1    0    0  501    0  0.00000000000E+00  0.00000000000E+00  0.69225015695E+03  0.69225015697E+03  0.50400001928E-02 0.  1.
       -1   -1    0    0    0  501  0.00000000000E+00  0.00000000000E+00 -0.44270875587E+03  0.44270875589E+03  0.50400001928E-02 0. -1.
    10030    2    1    2    0    0  0.00000000000E+00  0.00000000000E+00  0.24954140109E+03  0.11349589129E+04  0.11071859930E+04 0.  0.
        2    1    3    3  502    0 -0.26095892061E+03  0.17773085734E+03 -0.34136362104E+03  0.46499133075E+03  0.25500000920E-02 0. -1.
       -2    1    3    3    0  502  0.26095892061E+03 -0.17773085734E+03  0.59090502213E+03  0.66996758211E+03  0.25500000920E-02 0.  1.
</event>
<event>
 5   0  0.1019384E-02  0.1132724E+04  0.7818609E-02  0.9173871E-01
        2   -1    0    0  501    0  0.00000000000E+00  0.00000000000E+00  0.73049435817E+03  0.73049435818E+03  0.25500000920E-02 0.  1.
       -2   -1    0    0    0  501  0.00000000000E+00  0.00000000000E+00 -0.43910766680E+03  0.43910766681E+03  0.25500000920E-02 0. -1.
    10030    2    1    2    0    0  0.00000000000E+00  0.00000000000E+00  0.29138669137E+03  0.11696020250E+04  0.11327235731E+04 0.  0.
        1    1    3    3  502    0 -0.21005575187E+03 -0.47712967395E+03 -0.82848538154E+02  0.52786364239E+03  0.50400001928E-02 0. -1.
       -1    1    3    3    0  502  0.21005575187E+03  0.47712967395E+03  0.37423522952E+03  0.64173838260E+03  0.50400001928E-02 0.  1.
</event>
<event>
 5   0  0.5789905E-03  0.1104510E+04  0.7818609E-02  0.9200807E-01
        1   -1    0    0  501    0  0.00000000000E+00  0.00000000000E+00  0.65612861656E+03  0.65612861658E+03  0.50400001928E-02 0.  1.
       -1   -1    0    0    0  501  0.00000000000E+00  0.00000000000E+00 -0.46482621608E+03  0.46482621611E+03  0.50400001928E-02 0. -1.
    10030    2    1    2    0    0  0.00000000000E+00  0.00000000000E+00  0.19130240048E+03  0.11209548327E+04  0.11045103569E+04 0.  0.
        1    1    3    3  502    0 -0.40648379747E+03  0.44824287904E+02 -0.28101804729E+03  0.49619495898E+03  0.50400001928E-02 0. -1.
       -1    1    3    3    0  502  0.40648379747E+03 -0.44824287904E+02  0.47232044777E+03  0.62475987371E+03  0.50400001928E-02 0.  1.
</event>
<event>
 5   0  0.1019384E-02  0.1105159E+04  0.7818609E-02  0.9200179E-01
        2   -1    0    0  501    0  0.00000000000E+00  0.00000000000E+00  0.10281836002E+04  0.10281836002E+04  0.25500000920E-02 0. -1.
       -2   -1    0    0    0  501  0.00000000000E+00  0.00000000000E+00 -0.29697405544E+03  0.29697405545E+03  0.25500000920E-02 0.  1.
    10030    2    1    2    0    0  0.00000000000E+00  0.00000000000E+00  0.73120954478E+03  0.13251576557E+04  0.11051585470E+04 0.  0.
        1    1    3    3  502    0 -0.19800684371E+03  0.49233009012E+03  0.18082324744E+03  0.56061811836E+03  0.50400001928E-02 0.  1.
       -1    1    3    3    0  502  0.19800684371E+03 -0.49233009012E+03  0.55038629734E+03  0.76453953731E+03  0.50400001928E-02 0. -1.
</event>
<event>
 5   0  0.1028016E-02  0.1067293E+04  0.7818609E-02  0.9237670E-01
       -2   -1    0    0    0  501  0.00000000000E+00  0.00000000000E+00  0.16315977584E+03  0.16315977586E+03  0.25500000920E-02 0. -1.
        2   -1    0    0  501    0  0.00000000000E+00  0.00000000000E+00 -0.17453956519E+04  0.17453956519E+04  0.25500000920E-02 0.  1.
    10030    2    1    2    0    0  0.00000000000E+00  0.00000000000E+00 -0.15822358761E+04  0.19085554278E+04  0.10672925809E+04 0.  0.
        2    1    3    3  502    0  0.36549685181E+03  0.21250203624E+03 -0.20882379210E+03  0.47154261763E+03  0.25500000920E-02 0. -1.
       -2    1    3    3    0  502 -0.36549685181E+03 -0.21250203624E+03 -0.13734120840E+04  0.14370128101E+04  0.25500000920E-02 0.  1.
</event>
<event>
 5   0  0.9925021E-03  0.1102500E+04  0.7818609E-02  0.9202758E-01
       -2   -1    0    0    0  501  0.00000000000E+00  0.00000000000E+00  0.23754098053E+03  0.23754098054E+03  0.25500000920E-02 0. -1.
        2   -1    0    0  501    0  0.00000000000E+00  0.00000000000E+00 -0.12792601224E+04  0.12792601224E+04  0.25500000920E-02 0.  1.
    10030    2    1    2    0    0  0.00000000000E+00  0.00000000000E+00 -0.10417191419E+04  0.15168011029E+04  0.11025002564E+04 0.  0.
        4    1    3    3  502    0  0.15958115534E+02 -0.25774849201E+03  0.14917096294E+03  0.29823235182E+03  0.12699999809E+01 0. -1.
       -4    1    3    3    0  502 -0.15958115534E+02  0.25774849201E+03 -0.11908901048E+04  0.12185687511E+04  0.12699999809E+01 0.  1.
</event>
<event>
 5   0  0.5958706E-03  0.1087963E+04  0.7818609E-02  0.9217004E-01
       -1   -1    0    0    0  501  0.00000000000E+00  0.00000000000E+00  0.45203575959E+03  0.45203575962E+03  0.50400001928E-02 0.  1.
        1   -1    0    0  501    0  0.00000000000E+00  0.00000000000E+00 -0.65462918097E+03  0.65462918098E+03  0.50400001928E-02 0. -1.
    10030    2    1    2    0    0  0.00000000000E+00  0.00000000000E+00 -0.20259342137E+03  0.11066649406E+04  0.10879628653E+04 0.  0.
        2    1    3    3  502    0  0.49663691645E+03  0.52175274357E+02 -0.32074897047E+03  0.59350685598E+03  0.25500000920E-02 0. -1.
       -2    1    3    3    0  502 -0.49663691645E+03 -0.52175274357E+02  0.11815554909E+03  0.51315808463E+03  0.25500000920E-02 0.  1.
</event>
<event>
 5   0  0.5789905E-03  0.1118328E+04  0.7818609E-02  0.9187510E-01
        1   -1    0    0  501    0  0.00000000000E+00  0.00000000000E+00  0.14881904282E+04  0.14881904282E+04  0.50400001928E-02 0.  1.
       -1   -1    0    0    0  501  0.00000000000E+00  0.00000000000E+00 -0.21009691933E+03  0.21009691939E+03  0.50400001928E-02 0. -1.
    10030    2    1    2    0    0  0.00000000000E+00  0.00000000000E+00  0.12780935089E+04  0.16982873476E+04  0.11183277237E+04 0.  0.
        1    1    3    3  502    0 -0.10713488599E+03  0.43133586889E+03  0.12376222680E+03  0.46135193118E+03  0.50400001928E-02 0. -1.
       -1    1    3    3    0  502  0.10713488599E+03 -0.43133586889E+03  0.11543312821E+04  0.12369354164E+04  0.50400001928E-02 0.  1.
</event>
<event>
 5   0  0.9925021E-03  0.8807305E+03  0.7818609E-02  0.9449995E-01
       -2   -1    0    0    0  501  0.00000000000E+00  0.00000000000E+00  0.22189051016E+03  0.22189051018E+03  0.25500000920E-02 0. -1.
        2   -1    0    0  501    0  0.00000000000E+00  0.00000000000E+00 -0.87395144867E+03  0.87395144867E+03  0.25500000920E-02 0.  1.
    10030    2    1    2    0    0  0.00000000000E+00  0.00000000000E+00 -0.65206093851E+03  0.10958419588E+04  0.88073045323E+03 0.  0.
        4    1    3    3  502    0  0.22537071444E+03 -0.97370315919E+02  0.12883659392E+03  0.27726056009E+03  0.12699999809E+01 0. -1.
       -4    1    3    3    0  502 -0.22537071444E+03  0.97370315919E+02 -0.78089753242E+03  0.81858139876E+03  0.12699999809E+01 0.  1.
</event>
<event>
 5   0  0.9719260E-03  0.1102847E+04  0.7818609E-02  0.9202421E-01
        2   -1    0    0  501    0  0.00000000000E+00  0.00000000000E+00  0.12225228182E+04  0.12225228182E+04  0.25500000920E-02 0.  1.
       -2   -1    0    0    0  501  0.00000000000E+00  0.00000000000E+00 -0.24872160801E+03  0.24872160802E+03  0.25500000920E-02 0. -1.
    10030    2    1    2    0    0  0.00000000000E+00  0.00000000000E+00  0.97380121017E+03  0.14712444262E+04  0.11028469362E+04 0.  0.
        3    1    3    3  502    0  0.43416939054E+03  0.12128181144E+03  0.63238744737E+02  0.45520488410E+03  0.10100000352E+00 0.  1.
       -3    1    3    3    0  502 -0.43416939054E+03 -0.12128181144E+03  0.91056246544E+03  0.10160395421E+04  0.10100000352E+00 0. -1.
</event>
<event>
 5   0  0.3949750E-03  0.1087431E+04  0.7818609E-02  0.9217530E-01
       -4   -1    0    0    0  501  0.00000000000E+00  0.00000000000E+00  0.46536722112E+03  0.46536895405E+03  0.12699999809E+01 0.  1.
        4   -1    0    0  501    0  0.00000000000E+00  0.00000000000E+00 -0.63525034872E+03  0.63525161822E+03  0.12699999809E+01 0. -1.
    10030    2    1    2    0    0  0.00000000000E+00  0.00000000000E+00 -0.16988312760E+03  0.11006205723E+04  0.10874306263E+04 0.  0.
        1    1    3    3  502    0 -0.17951795694E+02 -0.41905906121E+03 -0.43510556056E+03  0.60435884423E+03  0.50400001928E-02 0. -1.
       -1    1    3    3    0  502  0.17951795694E+02  0.41905906121E+03  0.26522243296E+03  0.49626172804E+03  0.50400001928E-02 0.  1.
</event>
<event>
 5   0  0.3949750E-03  0.1095660E+04  0.7818609E-02  0.9209432E-01
        3   -1    0    0  501    0  0.00000000000E+00  0.00000000000E+00  0.86786389996E+03  0.86786390584E+03  0.10100000352E+00 0. -1.
       -3   -1    0    0    0  501  0.00000000000E+00  0.00000000000E+00 -0.34581190633E+03  0.34581192108E+03  0.10100000352E+00 0.  1.
    10030    2    1    2    0    0  0.00000000000E+00  0.00000000000E+00  0.52205199363E+03  0.12136758269E+04  0.10956599513E+04 0.  0.
        2    1    3    3  502    0  0.32627898561E+03  0.33760619775E+02  0.74705787826E+03  0.81590025700E+03  0.25500000920E-02 0. -1.
       -2    1    3    3    0  502 -0.32627898561E+03 -0.33760619775E+02 -0.22500588463E+03  0.39777556991E+03  0.25500000920E-02 0.  1.
</event>
<event>
 5   0  0.5998641E-03  0.1077555E+04  0.7818609E-02  0.9227348E-01
        1   -1    0    0  501    0  0.00000000000E+00  0.00000000000E+00  0.25666335922E+03  0.25666335927E+03  0.50400001928E-02 0.  1.
       -1   -1    0    0    0  501  0.00000000000E+00  0.00000000000E+00 -0.11309812564E+04  0.11309812564E+04  0.50400001928E-02 0. -1.
    10030    2    1    2    0    0  0.00000000000E+00  0.00000000000E+00 -0.87431789715E+03  0.13876446156E+04  0.10775554714E+04 0.  0.
        3    1    3    3  502    0 -0.92653268735E+02 -0.51051423530E+03 -0.62409443898E+03  0.81160537924E+03  0.10100000352E+00 0.  1.
       -3    1    3    3    0  502  0.92653268735E+02  0.51051423530E+03 -0.25022345816E+03  0.57603923640E+03  0.10100000352E+00 0. -1.
</event>
<event>
 5   0  0.1028016E-02  0.1113798E+04  0.7818609E-02  0.9191847E-01
        2   -1    0    0  501    0  0.00000000000E+00  0.00000000000E+00  0.69148983773E+03  0.69148983773E+03  0.25500000920E-02 0.  1.
       -2   -1    0    0    0  501  0.00000000000E+00  0.00000000000E+00 -0.44850452021E+03  0.44850452022E+03  0.25500000920E-02 0. -1.
    10030    2    1    2    0    0  0.00000000000E+00  0.00000000000E+00  0.24298531751E+03  0.11399943580E+04  0.11137976798E+04 0.  0.
        2    1    3    3  502    0 -0.41064630515E+03  0.21505362755E+03  0.43739061774E+03  0.63732958754E+03  0.25500000920E-02 0.  1.
       -2    1    3    3    0  502  0.41064630515E+03 -0.21505362755E+03 -0.19440530023E+03  0.50266477042E+03  0.25500000920E-02 0. -1.
</event>
<event>
 5   0  0.9925021E-03  0.1087066E+04  0.7818609E-02  0.9217890E-01
        2   -1    0    0  501    0  0.00000000000E+00  0.00000000000E+00  0.15934196835E+04  0.15934196835E+04  0.25500000920E-02 0. -1.
       -2   -1    0    0    0  501  0.00000000000E+00  0.00000000000E+00 -0.18540525045E+03  0.18540525047E+03  0.25500000920E-02 0.  1.
    10030    2    1    2    0    0  0.00000000000E+00  0.00000000000E+00  0.14080144330E+04  0.17788249340E+04  0.10870664662E+04 0.  0.
        4    1    3    3  502    0  0.33877371986E+03 -0.38832742549E+03  0.42124013683E+03  0.66559048102E+03  0.12699999809E+01 0.  1.
       -4    1    3    3    0  502 -0.33877371986E+03  0.38832742549E+03  0.98677429620E+03  0.11132344529E+04  0.12699999809E+01 0. -1.
</event>
<event>
 5   0  0.5789905E-03  0.1095761E+04  0.7818609E-02  0.9209334E-01
       -1   -1    0    0    0  501  0.00000000000E+00  0.00000000000E+00  0.25309601406E+03  0.25309601411E+03  0.50400001928E-02 0.  1.
        1   -1    0    0  501    0  0.00000000000E+00  0.00000000000E+00 -0.11860042074E+04  0.11860042074E+04  0.50400001928E-02 0. -1.
    10030    2    1    2    0    0  0.00000000000E+00  0.00000000000E+00 -0.93290819334E+03  0.14391002215E+04  0.10957608089E+04 0.  0.
        1    1    3    3  502    0  0.33898755099E+03 -0.37378311268E+03 -0.74674117684E+03  0.90124844536E+03  0.50400001928E-02 0. -1.
       -1    1    3    3    0  502 -0.33898755099E+03  0.37378311268E+03 -0.18616701650E+03  0.53785177615E+03  0.50400001928E-02 0.  1.
</event>
<event>
 5   0  0.5789905E-03  0.1084182E+04  0.7818609E-02  0.9220747E-01
       -1   -1    0    0    0  501  0.00000000000E+00  0.00000000000E+00  0.94470574416E+03  0.94470574417E+03  0.50400001928E-02 0. -1.
        1   -1    0    0  501    0  0.00000000000E+00  0.00000000000E+00 -0.31106280363E+03  0.31106280367E+03  0.50400001928E-02 0.  1.
    10030    2    1    2    0    0  0.00000000000E+00  0.00000000000E+00  0.63364294053E+03  0.12557685478E+04  0.10841823046E+04 0.  0.
        1    1    3    3  502    0  0.41778942236E+03  0.34988608039E+02 -0.81207768243E+02  0.42704438385E+03  0.50400001928E-02 0.  1.
       -1    1    3    3    0  502 -0.41778942236E+03 -0.34988608039E+02  0.71485070877E+03  0.82872416400E+03  0.50400001928E-02 0. -1.
</event>
<event>
 5   0  0.9719260E-03  0.1159098E+04  0.7818609E-02  0.9149431E-01
        2   -1    0    0  501    0  0.00000000000E+00  0.00000000000E+00  0.17197190266E+03  0.17197190268E+03  0.25500000920E-02 0. -1.
       -2   -1    0    0    0  501  0.00000000000E+00  0.00000000000E+00 -0.19530922955E+04  0.19530922955E+04  0.25500000920E-02 0.  1.
    10030    2    1    2    0    0  0.00000000000E+00  0.00000000000E+00 -0.17811203929E+04  0.21250641982E+04  0.11590979219E+04 0.  0.
        3    1    3    3  502    0  0.28340463143E+03  0.20273349585E+03 -0.17395900963E+04  0.17741456447E+04  0.10100000352E+00 0.  1.
       -3    1    3    3    0  502 -0.28340463143E+03 -0.20273349585E+03 -0.41530296618E+02  0.35091855350E+03  0.10100000352E+00 0. -1.
</event>
<event>
 5   0  0.5854579E-03  0.1138535E+04  0.7818609E-02  0.9168426E-01
        1   -1    0    0  501    0  0.00000000000E+00  0.00000000000E+00  0.37347497307E+03  0.37347497311E+03  0.50400001928E-02 0. -1.
       -1   -1    0    0    0  501  0.00000000000E+00  0.00000000000E+00 -0.86770375542E+03  0.86770375543E+03  0.50400001928E-02 0.  1.
    10030    2    1    2    0    0  0.00000000000E+00  0.00000000000E+00 -0.49422878234E+03  0.12411787285E+04  0.11385352638E+04 0.  0.
        4    1    3    3  502    0  0.40243855940E+03  0.79305479190E+02  0.18321050248E+03  0.44923696891E+03  0.12699999809E+01 0. -1.
       -4    1    3    3    0  502 -0.40243855940E+03 -0.79305479190E+02 -0.67743928482E+03  0.79194175963E+03  0.12699999809E+01 0.  1.
</event>
<event>
 5   0  0.5789905E-03  0.1107135E+04  0.7818609E-02  0.9198265E-01
       -1   -1    0    0    0  501  0.00000000000E+00  0.00000000000E+00  0.37600159902E+03  0.37600159905E+03  0.50400001928E-02 0.  1.
        1   -1    0    0  501    0  0.00000000000E+00  0.00000000000E+00 -0.81498875774E+03  0.81498875776E+03  0.50400001928E-02 0. -1.
    10030    2    1    2    0    0  0.00000000000E+00  0.00000000000E+00 -0.43898715872E+03  0.11909903568E+04  0.11071351790E+04 0.  0.
        1    1    3    3  502    0 -0.23157600626E+02 -0.12791940729E+00 -0.81446744607E+03  0.81479660748E+03  0.50400001928E-02 0. -1.
       -1    1    3    3    0  502  0.23157600626E+02  0.12791940729E+00  0.37548028734E+03  0.37619374933E+03  0.50400001928E-02 0.  1.
</event>
<event>
 5   0  0.3949750E-03  0.1135564E+04  0.7818609E-02  0.9171206E-01
        3   -1    0    0  501    0  0.00000000000E+00  0.00000000000E+00  0.48452984158E+03  0.48452985211E+03  0.10100000352E+00 0.  1.
       -3   -1    0    0    0  501  0.00000000000E+00  0.00000000000E+00 -0.66533858094E+03  0.66533858860E+03  0.10100000352E+00 0. -1.
    10030    2    1    2    0    0  0.00000000000E+00  0.00000000000E+00 -0.18080873936E+03  0.11498684407E+04  0.11355640144E+04 0.  0.
        4    1    3    3  502    0  0.33990014451E+02 -0.47424053015E+03  0.22385221346E+03  0.52551957898E+03  0.12699999809E+01 0.  1.
       -4    1    3    3    0  502 -0.33990014451E+02  0.47424053015E+03 -0.40466095281E+03  0.62434886173E+03  0.12699999809E+01 0. -1.
</event>
<event>
 5   0  0.5789905E-03  0.1116405E+04  0.7818609E-02  0.9189348E-01
       -1   -1    0    0    0  501  0.00000000000E+00  0.00000000000E+00  0.20599661699E+03  0.20599661705E+03  0.50400001928E-02 0. -1.
        1   -1    0    0  501    0  0.00000000000E+00  0.00000000000E+00 -0.15125982957E+04  0.15125982957E+04  0.50400001928E-02 0.  1.
    10030    2    1    2    0    0  0.00000000000E+00  0.00000000000E+00 -0.13066016787E+04  0.17185949128E+04  0.11164051807E+04 0.  0.
        1    1    3    3  502    0  0.77128968072E+00 -0.54587183827E+03 -0.83291316984E+03  0.99585190025E+03  0.50400001928E-02 0.  1.
       -1    1    3    3    0  502 -0.77128968072E+00  0.54587183827E+03 -0.47368850891E+03  0.72274301255E+03  0.50400001928E-02 0. -1.
</event>
<event>
 5   0  0.5998641E-03  0.1101103E+04  0.7818609E-02  0.9204118E-01
        1   -1    0    0  501    0  0.00000000000E+00  0.00000000000E+00  0.54604733282E+03  0.54604733284E+03  0.50400001928E-02 0.  1.
       -1   -1    0    0    0  501  0.00000000000E+00  0.00000000000E+00 -0.55509264370E+03  0.55509264373E+03  0.50400001928E-02 0. -1.
    10030    2    1    2    0    0  0.00000000000E+00  0.00000000000E+00 -0.90453108811E+01  0.11011399766E+04  0.11011028246E+04 0.  0.
        3    1    3    3  502    0  0.40219691470E+03 -0.28067047155E+03  0.24562289794E+03  0.54851516842E+03  0.10100000352E+00 0.  1.
       -3    1    3    3    0  502 -0.40219691470E+03  0.28067047155E+03 -0.25466820882E+03  0.55262480815E+03  0.10100000352E+00 0. -1.
</event>
<event>
 5   0  0.9692981E-03  0.8135970E+03  0.7818609E-02  0.9540542E-01
       -2   -1    0    0    0  501  0.00000000000E+00  0.00000000000E+00  0.10072037031E+03  0.10072037034E+03  0.25500000920E-02 0.  1.
        2   -1    0    0  501    0  0.00000000000E+00  0.00000000000E+00 -0.16430143561E+04  0.16430143561E+04  0.25500000920E-02 0. -1.
    10030    2    1    2    0    0  0.00000000000E+00  0.00000000000E+00 -0.15422939858E+04  0.17437347265E+04  0.81359698722E+03 0.  0.
        5    1    3    3  502    0  0.87405582480E+02 -0.58231808197E+02 -0.16133951656E+04  0.16168168510E+04  0.46999998093E+01 0. -1.
       -5    1    3    3    0  502 -0.87405582480E+02  0.58231808197E+02  0.71101179816E+02  0.12691787543E+03  0.46999998093E+01 0.  1.
</event>
<event>
 5   0  0.5854579E-03  0.1108613E+04  0.7818609E-02  0.9196838E-01
        1   -1    0    0  501    0  0.00000000000E+00  0.00000000000E+00  0.23044975353E+04  0.23044975353E+04  0.50400001928E-02 0.  1.
       -1   -1    0    0    0  501  0.00000000000E+00  0.00000000000E+00 -0.13332866929E+03  0.13332866939E+03  0.50400001928E-02 0. -1.
    10030    2    1    2    0    0  0.00000000000E+00  0.00000000000E+00  0.21711688660E+04  0.24378262047E+04  0.11086128087E+04 0.  0.
        4    1    3    3  502    0  0.30964392834E+03  0.45328494796E+03  0.12545973732E+04  0.13694388588E+04  0.12699999809E+01 0. -1.
       -4    1    3    3    0  502 -0.30964392834E+03 -0.45328494796E+03  0.91657149281E+03  0.10683873458E+04  0.12699999809E+01 0.  1.
</event>
<event>
 5   0  0.5789905E-03  0.6162255E+03  0.7818609E-02  0.9872304E-01
        1   -1    0    0  501    0  0.00000000000E+00  0.00000000000E+00  0.12946935104E+03  0.12946935113E+03  0.50400001928E-02 0. -1.
       -1   -1    0    0    0  501  0.00000000000E+00  0.00000000000E+00 -0.73325052011E+03  0.73325052013E+03  0.50400001928E-02 0.  1.
    10030    2    1    2    0    0  0.00000000000E+00  0.00000000000E+00 -0.60378116907E+03  0.86271987126E+03  0.61622550754E+03 0.  0.
        1    1    3    3  502    0 -0.49665907117E+02  0.90357758605E+02  0.10459925342E+03  0.14687488115E+03  0.50400001928E-02 0. -1.
       -1    1    3    3    0  502  0.49665907117E+02 -0.90357758605E+02 -0.70838042250E+03  0.71584499012E+03  0.50400001928E-02 0.  1.
</event>
<event>
 5   0  0.5789905E-03  0.9335063E+03  0.7818609E-02  0.9384640E-01
        1   -1    0    0  501    0  0.00000000000E+00  0.00000000000E+00  0.73895150237E+03  0.73895150239E+03  0.50400001928E-02 0. -1.
       -1   -1    0    0    0  501  0.00000000000E+00  0.00000000000E+00 -0.29482114153E+03  0.29482114158E+03  0.50400001928E-02 0.  1.
    10030    2    1    2    0    0  0.00000000000E+00  0.00000000000E+00  0.44413036084E+03  0.10337726440E+04  0.93350634813E+03 0.  0.
        1    1    3    3  502    0 -0.25101880968E+03 -0.26541010589E+03 -0.99666097115E+02  0.37866383252E+03  0.50400001928E-02 0.  1.
       -1    1    3    3    0  502  0.25101880968E+03  0.26541010589E+03  0.54379645795E+03  0.65510881144E+03  0.50400001928E-02 0. -1.
</event>
<event>
 5   0  0.9692981E-03  0.1083836E+04  0.7818609E-02  0.9221091E-01
        2   -1    0    0  501    0  0.00000000000E+00  0.00000000000E+00  0.10379254353E+04  0.10379254353E+04  0.25500000920E-02 0.  1.
       -2   -1    0    0    0  501  0.00000000000E+00  0.00000000000E+00 -0.28294457628E+03  0.28294457629E+03  0.25500000920E-02 0. -1.
    10030    2    1    2    0    0  0.00000000000E+00  0.00000000000E+00  0.75498085904E+03  0.13208700116E+04  0.10838364683E+04 0.  0.
        5    1    3    3  502    0  0.18145090162E+03 -0.44979147556E+01 -0.24477262599E+03  0.30476284119E+03  0.46999998093E+01 0. -1.
       -5    1    3    3    0  502 -0.18145090162E+03  0.44979147556E+01  0.99975348503E+03  0.10161071704E+04  0.46999998093E+01 0.  1.
</event>
<event>
 5   0  0.9925021E-03  0.1131925E+04  0.7818609E-02  0.9174623E-01
        2   -1    0    0  501    0  0.00000000000E+00  0.00000000000E+00  0.38226358369E+03  0.38226358370E+03  0.25500000920E-02 0.  1.
       -2   -1    0    0    0  501  0.00000000000E+00  0.00000000000E+00 -0.83793850941E+03  0.83793850942E+03  0.25500000920E-02 0. -1.
    10030    2    1    2    0    0  0.00000000000E+00  0.00000000000E+00 -0.45567492572E+03  0.12202020931E+04  0.11319246928E+04 0.  0.
        4    1    3    3  502    0  0.16880928095E+02 -0.78600813360E+02 -0.83175050147E+03  0.83562764626E+03  0.12699999809E+01 0. -1.
       -4    1    3    3    0  502 -0.16880928095E+02  0.78600813360E+02  0.37607557576E+03  0.38457444686E+03  0.12699999809E+01 0.  1.
</event>
<event>
 5   0  0.5712664E-03  0.1094048E+04  0.7818609E-02  0.9211013E-01
       -1   -1    0    0    0  501  0.00000000000E+00  0.00000000000E+00  0.12046846967E+03  0.12046846978E+03  0.50400001928E-02 0. -1.
        1   -1    0    0  501    0  0.00000000000E+00  0.00000000000E+00 -0.24839294279E+04  0.24839294280E+04  0.50400001928E-02 0.  1.
    10030    2    1    2    0    0  0.00000000000E+00  0.00000000000E+00 -0.23634609583E+04  0.26043978977E+04  0.10940478547E+04 0.  0.
        5    1    3    3  502    0  0.53675174092E+03  0.72794012052E+02 -0.10002532475E+04  0.11375104610E+04  0.46999998093E+01 0.  1.
       -5    1    3    3    0  502 -0.53675174092E+03 -0.72794012052E+02 -0.13632077107E+04  0.14668874368E+04  0.46999998093E+01 0. -1.
</event>
<event>
 5   0  0.9925021E-03  0.1142120E+04  0.7818609E-02  0.9165084E-01
        2   -1    0    0  501    0  0.00000000000E+00  0.00000000000E+00  0.75600153899E+03  0.75600153899E+03  0.25500000920E-02 0.  1.
       -2   -1    0    0    0  501  0.00000000000E+00  0.00000000000E+00 -0.43136062506E+03  0.43136062506E+03  0.25500000920E-02 0. -1.
    10030    2    1    2    0    0  0.00000000000E+00  0.00000000000E+00  0.32464091393E+03  0.11873621641E+04  0.11421196022E+04 0.  0.
        4    1    3    3  502    0  0.37778683292E+03 -0.42823411103E+03  0.16292534353E+03  0.59384646622E+03  0.12699999809E+01 0. -1.
       -4    1    3    3    0  502 -0.37778683292E+03  0.42823411103E+03  0.16171557040E+03  0.59351569784E+03  0.12699999809E+01 0.  1.
</event>
<event>
 5   0  0.5998641E-03  0.1076800E+04  0.7818609E-02  0.9228104E-01
       -1   -1    0    0    0  501  0.00000000000E+00  0.00000000000E+00  0.43911399087E+03  0.43911399090E+03  0.50400001928E-02 0. -1.
        1   -1    0    0  501    0  0.00000000000E+00  0.00000000000E+00 -0.66013498122E+03  0.66013498124E+03  0.50400001928E-02 0.  1.
    10030    2    1    2    0    0  0.00000000000E+00  0.00000000000E+00 -0.22102099035E+03  0.10992489721E+04  0.10767999000E+04 0.  0.
        3    1    3    3  502    0  0.10796615658E+03 -0.24612246227E+03  0.36573617845E+03  0.45386773385E+03  0.10100000352E+00 0. -1.
       -3    1    3    3    0  502 -0.10796615658E+03  0.24612246227E+03 -0.58675716880E+03  0.64538123829E+03  0.10100000352E+00 0.  1.
</event>
<event>
 5   0  0.1028016E-02  0.1109151E+04  0.7818609E-02  0.9196318E-01
       -2   -1    0    0    0  501  0.00000000000E+00  0.00000000000E+00  0.27660645747E+03  0.27660645748E+03  0.25500000920E-02 0. -1.
        2   -1    0    0  501    0  0.00000000000E+00  0.00000000000E+00 -0.11118829823E+04  0.11118829823E+04  0.25500000920E-02 0.  1.
    10030    2    1    2    0    0  0.00000000000E+00  0.00000000000E+00 -0.83527652483E+03  0.13884894398E+04  0.11091510499E+04 0.  0.
        2    1    3    3  502    0 -0.50036042413E+03  0.12538536408E+03 -0.16270340813E+03  0.54088302117E+03  0.25500000920E-02 0. -1.
       -2    1    3    3    0  502  0.50036042413E+03 -0.12538536408E+03 -0.67257311670E+03  0.84760641861E+03  0.25500000920E-02 0.  1.
</event>
<event>
 5   0  0.1019384E-02  0.1037605E+04  0.7818609E-02  0.9268235E-01
       -2   -1    0    0    0  501  0.00000000000E+00  0.00000000000E+00  0.65211826393E+03  0.65211826393E+03  0.25500000920E-02 0.  1.
        2   -1    0    0  501    0  0.00000000000E+00  0.00000000000E+00 -0.41274150612E+03  0.41274150613E+03  0.25500000920E-02 0. -1.
    10030    2    1    2    0    0  0.00000000000E+00  0.00000000000E+00  0.23937675781E+03  0.10648597701E+04  0.10376054634E+04 0.  0.
        1    1    3    3  502    0  0.22446703209E+03  0.33572104322E+03  0.45391458573E+03  0.60756276920E+03  0.50400001928E-02 0.  1.
       -1    1    3    3    0  502 -0.22446703209E+03 -0.33572104322E+03 -0.21453782792E+03  0.45729700086E+03  0.50400001928E-02 0. -1.
</event>
<event>
 5   0  0.3949750E-03  0.1147449E+04  0.7818609E-02  0.9160140E-01
       -3   -1    0    0    0  501  0.00000000000E+00  0.00000000000E+00  0.58267535213E+03  0.58267536089E+03  0.10100000352E+00 0.  1.
        3   -1    0    0  501    0  0.00000000000E+00  0.00000000000E+00 -0.56491112701E+03  0.56491113604E+03  0.10100000352E+00 0. -1.
    10030    2    1    2    0    0  0.00000000000E+00  0.00000000000E+00  0.17764225121E+02  0.11475864969E+04  0.11474489968E+04 0.  0.
        5    1    3    3  502    0  0.38235054711E+03  0.37807454242E+03 -0.19115537873E+03  0.57069674024E+03  0.46999998093E+01 0. -1.
       -5    1    3    3    0  502 -0.38235054711E+03 -0.37807454242E+03  0.20891960385E+03  0.57688975669E+03  0.46999998093E+01 0.  1.
</event>
<event>
 5   0  0.5854579E-03  0.1047393E+04  0.7818609E-02  0.9258040E-01
        1   -1    0    0  501    0  0.00000000000E+00  0.00000000000E+00  0.38621385767E+03  0.38621385770E+03  0.50400001928E-02 0. -1.
       -1   -1    0    0    0  501  0.00000000000E+00  0.00000000000E+00 -0.71011903540E+03  0.71011903541E+03  0.50400001928E-02 0.  1.
    10030    2    1    2    0    0  0.00000000000E+00  0.00000000000E+00 -0.32390517773E+03  0.10963328931E+04  0.10473925951E+04 0.  0.
        4    1    3    3  502    0 -0.44423883356E+03 -0.13958126673E+03 -0.41278516056E+03  0.62227347119E+03  0.12699999809E+01 0. -1.
       -4    1    3    3    0  502  0.44423883356E+03  0.13958126673E+03  0.88879982832E+02  0.47405942192E+03  0.12699999809E+01 0.  1.
</event>
<event>
 5   0  0.1019384E-02  0.1105390E+04  0.7818609E-02  0.9199955E-01
       -2   -1    0    0    0  501  0.00000000000E+00  0.00000000000E+00  0.63778431598E+03  0.63778431598E+03  0.25500000920E-02 0. -1.
        2   -1    0    0  501    0  0.00000000000E+00  0.00000000000E+00 -0.47895742828E+03  0.47895742829E+03  0.25500000920E-02 0.  1.
    10030    2    1    2    0    0  0.00000000000E+00  0.00000000000E+00  0.15882688770E+03  0.11167417443E+04  0.11053895889E+04 0.  0.
        1    1    3    3  502    0 -0.43547249747E+03  0.93103145030E+02 -0.25131230366E+03  0.51133390819E+03  0.50400001928E-02 0.  1.
       -1    1    3    3    0  502  0.43547249747E+03 -0.93103145030E+02  0.41013919136E+03  0.60540783608E+03  0.50400001928E-02 0. -1.
</event>
<event>
 5   0  0.3949750E-03  0.1084727E+04  0.7818609E-02  0.9220207E-01
       -4   -1    0    0    0  501  0.00000000000E+00  0.00000000000E+00  0.71224566144E+03  0.71224679371E+03  0.12699999809E+01 0.  1.
        4   -1    0    0  501    0  0.00000000000E+00  0.00000000000E+00 -0.41299860644E+03  0.41300055910E+03  0.12699999809E+01 0. -1.
    10030    2    1    2    0    0  0.00000000000E+00  0.00000000000E+00  0.29924705501E+03  0.11252473528E+04  0.10847270648E+04 0.  0.
        2    1    3    3  502    0 -0.40328492620E+03  0.36074892210E+03  0.11109189068E+03  0.55237661489E+03  0.25500000920E-02 0.  1.
       -2    1    3    3    0  502  0.40328492620E+03 -0.36074892210E+03  0.18815516432E+03  0.57287073792E+03  0.25500000920E-02 0. -1.
</event>
<event>
 5   0  0.9925021E-03  0.1174760E+04  0.7818609E-02  0.9135240E-01
       -2   -1    0    0    0  501  0.00000000000E+00  0.00000000000E+00  0.22478154691E+03  0.22478154692E+03  0.25500000920E-02 0.  1.
        2   -1    0    0  501    0  0.00000000000E+00  0.00000000000E+00 -0.15348917079E+04  0.15348917079E+04  0.25500000920E-02 0. -1.
    10030    2    1    2    0    0  0.00000000000E+00  0.00000000000E+00 -0.13101101610E+04  0.17596732548E+04  0.11747601158E+04 0.  0.
        4    1    3    3  502    0  0.37444898927E+03  0.15563536914E+03 -0.18528081471E+02  0.40593018661E+03  0.12699999809E+01 0.  1.
       -4    1    3    3    0  502 -0.37444898927E+03 -0.15563536914E+03 -0.12915820795E+04  0.13537430682E+04  0.12699999809E+01 0. -1.
</event>
<event>
 5   0  0.9719260E-03  0.1062191E+04  0.7818609E-02  0.9242847E-01
       -2   -1    0    0    0  501  0.00000000000E+00  0.00000000000E+00  0.48615155221E+03  0.48615155221E+03  0.25500000920E-02 0. -1.
        2   -1    0    0  501    0  0.00000000000E+00  0.00000000000E+00 -0.58019447188E+03  0.58019447189E+03  0.25500000920E-02 0.  1.
    10030    2    1    2    0    0  0.00000000000E+00  0.00000000000E+00 -0.94042919675E+02  0.10663460241E+04  0.10621910244E+04 0.  0.
        3    1    3    3  502    0 -0.21061137789E+03  0.28236536903E+03  0.35199408662E+03  0.49798313359E+03  0.10100000352E+00 0. -1.
       -3    1    3    3    0  502  0.21061137789E+03 -0.28236536903E+03 -0.44603700629E+03  0.56836289051E+03  0.10100000352E+00 0.  1.
</event>
<event>
 5   0  0.5958706E-03  0.1132303E+04  0.7818609E-02  0.9174267E-01
       -1   -1    0    0    0  501  0.00000000000E+00  0.00000000000E+00  0.34245963185E+03  0.34245963189E+03  0.50400001928E-02 0. -1.
        1   -1    0    0  501    0  0.00000000000E+00  0.00000000000E+00 -0.93595656938E+03  0.93595656939E+03  0.50400001928E-02 0.  1.
    10030    2    1    2    0    0  0.00000000000E+00  0.00000000000E+00 -0.59349693753E+03  0.12784162013E+04  0.11323026843E+04 0.  0.
        2    1    3    3  502    0 -0.11844083280E+03 -0.53806133969E+03 -0.14958670215E+03  0.57088914652E+03  0.25500000920E-02 0. -1.
       -2    1    3    3    0  502  0.11844083280E+03  0.53806133969E+03 -0.44391023538E+03  0.70752705476E+03  0.25500000920E-02 0.  1.
</event>
<event>
 5   0  0.5854579E-03  0.1034036E+04  0.7818609E-02  0.9271982E-01
       -1   -1    0    0    0  501  0.00000000000E+00  0.00000000000E+00  0.16224598011E+03  0.16224598019E+03  0.50400001928E-02 0. -1.
        1   -1    0    0  501    0  0.00000000000E+00  0.00000000000E+00 -0.16475465995E+04  0.16475465995E+04  0.50400001928E-02 0.  1.
    10030    2    1    2    0    0  0.00000000000E+00  0.00000000000E+00 -0.14853006194E+04  0.18097925797E+04  0.10340363879E+04 0.  0.
        4    1    3    3  502    0  0.22678227447E+03  0.35651263705E+03 -0.12641303433E+04  0.13328760626E+04  0.12699999809E+01 0.  1.
       -4    1    3    3    0  502 -0.22678227447E+03 -0.35651263705E+03 -0.22117027608E+03  0.47691651713E+03  0.12699999809E+01 0. -1.
</event>
<event>
 5   0  0.5998641E-03  0.1096367E+04  0.7818609E-02  0.9208740E-01
        1   -1    0    0  501    0  0.00000000000E+00  0.00000000000E+00  0.13850240006E+04  0.13850240006E+04  0.50400001928E-02 0. -1.
       -1   -1    0    0    0  501  0.00000000000E+00  0.00000000000E+00 -0.21696740254E+03  0.21696740260E+03  0.50400001928E-02 0.  1.
    10030    2    1    2    0    0  0.00000000000E+00  0.00000000000E+00  0.11680565981E+04  0.16019914032E+04  0.10963668363E+04 0.  0.
        3    1    3    3  502    0 -0.54583137768E+03  0.29143857475E+02  0.52336210118E+03  0.75676228529E+03  0.10100000352E+00 0.  1.
       -3    1    3    3    0  502  0.54583137768E+03 -0.29143857475E+02  0.64469449692E+03  0.84522911796E+03  0.10100000352E+00 0. -1.
</event>
<event>
 5   0  0.5998641E-03  0.1088937E+04  0.7818609E-02  0.9216042E-01
       -1   -1    0    0    0  501  0.00000000000E+00  0.00000000000E+00  0.33920764506E+03  0.33920764509E+03  0.50400001928E-02 0. -1.
        1   -1    0    0  501    0  0.00000000000E+00  0.00000000000E+00 -0.87393703755E+03  0.87393703757E+03  0.50400001928E-02 0.  1.
    10030    2    1    2    0    0  0.00000000000E+00  0.00000000000E+00 -0.53472939250E+03  0.12131446827E+04  0.10889373250E+04 0.  0.
        3    1    3    3  502    0 -0.20161060355E+03 -0.33226409298E+03 -0.69217172712E+03  0.79381860206E+03  0.10100000352E+00 0.  1.
       -3    1    3    3    0  502  0.20161060355E+03  0.33226409298E+03  0.15744233462E+03  0.41932608061E+03  0.10100000352E+00 0. -1.
</event>
<event>
 5   0  0.1019384E-02  0.6192155E+03  0.7818609E-02  0.9866323E-01
        2   -1    0    0  501    0  0.00000000000E+00  0.00000000000E+00  0.21993838855E+03  0.21993838857E+03  0.25500000920E-02 0.  1.
       -2   -1    0    0    0  501  0.00000000000E+00  0.00000000000E+00 -0.43583555426E+03  0.43583555427E+03  0.25500000920E-02 0. -1.
    10030    2    1    2    0    0  0.00000000000E+00  0.00000000000E+00 -0.21589716571E+03  0.65577394284E+03  0.61921553432E+03 0.  0.
        1    1    3    3  502    0  0.13949691940E+03  0.57041104309E+02  0.17847010040E+03  0.23359078506E+03  0.50400001928E-02 0.  1.
       -1    1    3    3    0  502 -0.13949691940E+03 -0.57041104309E+02 -0.39436726611E+03  0.42218315778E+03  0.50400001928E-02 0. -1.
</event>
<event>
 5   0  0.9719260E-03  0.1123605E+04  0.7818609E-02  0.9182486E-01
        2   -1    0    0  501    0  0.00000000000E+00  0.00000000000E+00  0.19021946858E+04  0.19021946858E+04  0.25500000920E-02 0. -1.
       -2   -1    0    0    0  501  0.00000000000E+00  0.00000000000E+00 -0.16592514172E+03  0.16592514174E+03  0.25500000920E-02 0.  1.
    10030    2    1    2    0    0  0.00000000000E+00  0.00000000000E+00  0.17362695441E+04  0.20681198276E+04  0.11236047754E+04 0.  0.
        3    1    3    3  502    0 -0.23103855025E+03  0.33471860355E+03  0.15814911824E+04  0.16329512318E+04  0.10100000352E+00 0. -1.
       -3    1    3    3    0  502  0.23103855025E+03 -0.33471860355E+03  0.15477836166E+03  0.43516859572E+03  0.10100000352E+00 0.  1.
</event>
<event>
 5   0  0.1028016E-02  0.1107125E+04  0.7818609E-02  0.9198275E-01
        2   -1    0    0  501    0  0.00000000000E+00  0.00000000000E+00  0.35263593853E+03  0.35263593854E+03  0.25500000920E-02 0.  1.
       -2   -1    0    0    0  501  0.00000000000E+00  0.00000000000E+00 -0.86897447958E+03  0.86897447958E+03  0.25500000920E-02 0. -1.
    10030    2    1    2    0    0  0.00000000000E+00  0.00000000000E+00 -0.51633854105E+03  0.12216104181E+04  0.11071253428E+04 0.  0.
        2    1    3    3  502    0 -0.26573405226E+03 -0.56549561254E+02  0.27401092269E+03  0.38586840395E+03  0.25500000920E-02 0.  1.
       -2    1    3    3    0  502  0.26573405226E+03  0.56549561254E+02 -0.79034946374E+03  0.83574201417E+03  0.25500000920E-02 0. -1.
</event>
<event>
 5   0  0.5789905E-03  0.1090942E+04  0.7818609E-02  0.9214066E-01
        1   -1    0    0  501    0  0.00000000000E+00  0.00000000000E+00  0.73219827349E+03  0.73219827350E+03  0.50400001928E-02 0.  1.
       -1   -1    0    0    0  501  0.00000000000E+00  0.00000000000E+00 -0.40636320083E+03  0.40636320086E+03  0.50400001928E-02 0. -1.
    10030    2    1    2    0    0  0.00000000000E+00  0.00000000000E+00  0.32583507266E+03  0.11385614744E+04  0.10909416741E+04 0.  0.
        1    1    3    3  502    0  0.90356658923E+02  0.44990140207E+01 -0.39847883056E+03  0.40861956068E+03  0.50400001928E-02 0. -1.
       -1    1    3    3    0  502 -0.90356658923E+02 -0.44990140207E+01  0.72431390322E+03  0.72994191369E+03  0.50400001928E-02 0.  1.
</event>
<event>
 5   0  0.1028016E-02  0.1220040E+04  0.7818609E-02  0.9095494E-01
       -2   -1    0    0    0  501  0.00000000000E+00  0.00000000000E+00  0.52077218480E+03  0.52077218481E+03  0.25500000920E-02 0.  1.
        2   -1    0    0  501    0  0.00000000000E+00  0.00000000000E+00 -0.71456307808E+03  0.71456307809E+03  0.25500000920E-02 0. -1.
    10030    2    1    2    0    0  0.00000000000E+00  0.00000000000E+00 -0.19379089328E+03  0.12353352629E+04  0.12200402868E+04 0.  0.
        2    1    3    3  502    0 -0.81134997952E+02 -0.40173312082E+03 -0.55439185126E+03  0.68943651848E+03  0.25500000920E-02 0. -1.
       -2    1    3    3    0  502  0.81134997952E+02  0.40173312082E+03  0.36060095798E+03  0.54589874442E+03  0.25500000920E-02 0.  1.
</event>
<event>
 5   0  0.5789905E-03  0.1115960E+04  0.7818609E-02  0.9189775E-01
       -1   -1    0    0    0  501  0.00000000000E+00  0.00000000000E+00  0.39033558111E+03  0.39033558114E+03  0.50400001928E-02 0. -1.
        1   -1    0    0  501    0  0.00000000000E+00  0.00000000000E+00 -0.79762520084E+03  0.79762520085E+03  0.50400001928E-02 0.  1.
    10030    2    1    2    0    0  0.00000000000E+00  0.00000000000E+00 -0.40728961973E+03  0.11879607820E+04  0.11159596701E+04 0.  0.
        1    1    3    3  502    0 -0.27436642315E+03 -0.45170138104E+03 -0.13127276111E+02  0.52866189307E+03  0.50400001928E-02 0. -1.
       -1    1    3    3    0  502  0.27436642315E+03  0.45170138104E+03 -0.39416234362E+03  0.65929888892E+03  0.50400001928E-02 0.  1.
</event>
<event>
 5   0  0.5712664E-03  0.1216548E+04  0.7818609E-02  0.9098494E-01
       -1   -1    0    0    0  501  0.00000000000E+00  0.00000000000E+00  0.30994800090E+03  0.30994800094E+03  0.50400001928E-02 0. -1.
        1   -1    0    0  501    0  0.00000000000E+00  0.00000000000E+00 -0.11937403751E+04  0.11937403751E+04  0.50400001928E-02 0.  1.
    10030    2    1    2    0    0  0.00000000000E+00  0.00000000000E+00 -0.88379237418E+03  0.15036883760E+04  0.12165483022E+04 0.  0.
        5    1    3    3  502    0 -0.41774219203E+03  0.44086160932E+03 -0.40075564527E+03  0.72766384738E+03  0.46999998093E+01 0. -1.
       -5    1    3    3    0  502  0.41774219203E+03 -0.44086160932E+03 -0.48303672891E+03  0.77602452864E+03  0.46999998093E+01 0.  1.
</event>
<event>
 5   0  0.9925021E-03  0.1104267E+04  0.7818609E-02  0.9201043E-01
       -2   -1    0    0    0  501  0.00000000000E+00  0.00000000000E+00  0.30967883727E+03  0.30967883728E+03  0.25500000920E-02 0. -1.
        2   -1    0    0  501    0  0.00000000000E+00  0.00000000000E+00 -0.98441124874E+03  0.98441124874E+03  0.25500000920E-02 0.  1.
    10030    2    1    2    0    0  0.00000000000E+00  0.00000000000E+00 -0.67473241146E+03  0.12940900860E+04  0.11042668716E+04 0.  0.
        4    1    3    3  502    0  0.41780553438E+03  0.45583484812E+02  0.82249846169E+02  0.42825923077E+03  0.12699999809E+01 0.  1.
       -4    1    3    3    0  502 -0.41780553438E+03 -0.45583484812E+02 -0.75698225763E+03  0.86583085526E+03  0.12699999809E+01 0. -1.
</event>
<event>
 5   0  0.5789905E-03  0.1113013E+04  0.7818609E-02  0.9192600E-01
       -1   -1    0    0    0  501  0.00000000000E+00  0.00000000000E+00  0.33992524308E+03  0.33992524312E+03  0.50400001928E-02 0.  1.
        1   -1    0    0  501    0  0.00000000000E+00  0.00000000000E+00 -0.91108179628E+03  0.91108179630E+03  0.50400001928E-02 0. -1.
    10030    2    1    2    0    0  0.00000000000E+00  0.00000000000E+00 -0.57115655320E+03  0.12510070394E+04  0.11130133891E+04 0.  0.
        1    1    3    3  502    0 -0.50408543763E+03 -0.11331699030E+03 -0.53164361716E+02  0.51939322108E+03  0.50400001928E-02 0.  1.
       -1    1    3    3    0  502  0.50408543763E+03  0.11331699030E+03 -0.51799219148E+03  0.73161381834E+03  0.50400001928E-02 0. -1.
</event>
<event>
 5   0  0.5712664E-03  0.1098925E+04  0.7818609E-02  0.9206240E-01
        1   -1    0    0  501    0  0.00000000000E+00  0.00000000000E+00  0.78253700880E+03  0.78253700881E+03  0.50400001928E-02 0.  1.
       -1   -1    0    0    0  501  0.00000000000E+00  0.00000000000E+00 -0.38580815340E+03  0.38580815343E+03  0.50400001928E-02 0. -1.
    10030    2    1    2    0    0  0.00000000000E+00  0.00000000000E+00  0.39672885540E+03  0.11683451622E+04  0.10989252174E+04 0.  0.
        5    1    3    3  502    0 -0.23208013440E+03  0.36877103926E+02  0.72639325674E+03  0.76347256860E+03  0.46999998093E+01 0.  1.
       -5    1    3    3    0  502  0.23208013440E+03 -0.36877103926E+02 -0.32966440134E+03  0.40487259365E+03  0.46999998093E+01 0. -1.
</event>
<event>
 5   0  0.5789905E-03  0.1107513E+04  0.7818609E-02  0.9197900E-01
       -1   -1    0    0    0  501  0.00000000000E+00  0.00000000000E+00  0.33569870413E+03  0.33569870416E+03  0.50400001928E-02 0. -1.
        1   -1    0    0  501    0  0.00000000000E+00  0.00000000000E+00 -0.91345646890E+03  0.91345646891E+03  0.50400001928E-02 0.  1.
    10030    2    1    2    0    0  0.00000000000E+00  0.00000000000E+00 -0.57775776477E+03  0.12491551731E+04  0.11075128043E+04 0.  0.
        1    1    3    3  502    0  0.40117350618E+03  0.24737596106E+03  0.39008363825E+02  0.47292356744E+03  0.50400001928E-02 0. -1.
       -1    1    3    3    0  502 -0.40117350618E+03 -0.24737596106E+03 -0.61676612860E+03  0.77623160563E+03  0.50400001928E-02 0.  1.
</event>
<event>
 5   0  0.5958706E-03  0.9850682E+03  0.7818609E-02  0.9325075E-01
       -1   -1    0    0    0  501  0.00000000000E+00  0.00000000000E+00  0.33735523132E+03  0.33735523135E+03  0.50400001928E-02 0.  1.
        1   -1    0    0  501    0  0.00000000000E+00  0.00000000000E+00 -0.71909314076E+03  0.71909314077E+03  0.50400001928E-02 0. -1.
    10030    2    1    2    0    0  0.00000000000E+00  0.00000000000E+00 -0.38173790944E+03  0.10564483721E+04  0.98506818620E+03 0.  0.
        2    1    3    3  502    0  0.12278920259E+03 -0.21950301118E+03 -0.64502987167E+03  0.69233105920E+03  0.25500000920E-02 0. -1.
       -2    1    3    3    0  502 -0.12278920259E+03  0.21950301118E+03  0.26329196222E+03  0.36411731292E+03  0.25500000920E-02 0.  1.
</event>
<event>
 5   0  0.5958706E-03  0.1106683E+04  0.7818609E-02  0.9198702E-01
        1   -1    0    0  501    0  0.00000000000E+00  0.00000000000E+00  0.38890005905E+03  0.38890005908E+03  0.50400001928E-02 0. -1.
       -1   -1    0    0    0  501  0.00000000000E+00  0.00000000000E+00 -0.78731527450E+03  0.78731527452E+03  0.50400001928E-02 0.  1.
    10030    2    1    2    0    0  0.00000000000E+00  0.00000000000E+00 -0.39841521545E+03  0.11762153336E+04  0.11066832551E+04 0.  0.
        2    1    3    3  502    0 -0.41374348343E+03 -0.12959764238E+03  0.16620745966E+03  0.46433192723E+03  0.25500000920E-02 0. -1.
       -2    1    3    3    0  502  0.41374348343E+03  0.12959764238E+03 -0.56462267512E+03  0.71188340636E+03  0.25500000920E-02 0.  1.
</event>
<event>
 5   0  0.5712664E-03  0.1111505E+04  0.7818609E-02  0.9194050E-01
        1   -1    0    0  501    0  0.00000000000E+00  0.00000000000E+00  0.68984256657E+03  0.68984256659E+03  0.50400001928E-02 0.  1.
       -1   -1    0    0    0  501  0.00000000000E+00  0.00000000000E+00 -0.44772646027E+03  0.44772646030E+03  0.50400001928E-02 0. -1.
    10030    2    1    2    0    0  0.00000000000E+00  0.00000000000E+00  0.24211610630E+03  0.11375690269E+04  0.11115048727E+04 0.  0.
        5    1    3    3  502    0  0.44109192022E+03 -0.15883920089E+03  0.42646247371E+03  0.63378569351E+03  0.46999998093E+01 0.  1.
       -5    1    3    3    0  502 -0.44109192022E+03  0.15883920089E+03 -0.18434636741E+03  0.50378333338E+03  0.46999998093E+01 0. -1.
</event>
<event>
 5   0  0.1019384E-02  0.1136030E+04  0.7818609E-02  0.9170769E-01
        2   -1    0    0  501    0  0.00000000000E+00  0.00000000000E+00  0.99091989937E+03  0.99091989937E+03  0.25500000920E-02 0. -1.
       -2   -1    0    0    0  501  0.00000000000E+00  0.00000000000E+00 -0.32559777947E+03  0.32559777948E+03  0.25500000920E-02 0.  1.
    10030    2    1    2    0    0  0.00000000000E+00  0.00000000000E+00  0.66532211989E+03  0.13165176789E+04  0.11360304906E+04 0.  0.
        1    1    3    3  502    0 -0.23022550235E+03 -0.50740673510E+03  0.20478536860E+03  0.59363492483E+03  0.50400001928E-02 0.  1.
       -1    1    3    3    0  502  0.23022550235E+03  0.50740673510E+03  0.46053675129E+03  0.72288275403E+03  0.50400001928E-02 0. -1.
</event>
<event>
 5   0  0.5958706E-03  0.1101268E+04  0.7818609E-02  0.9203956E-01
       -1   -1    0    0    0  501  0.00000000000E+00  0.00000000000E+00  0.15108640478E+03  0.15108640486E+03  0.50400001928E-02 0. -1.
        1   -1    0    0  501    0  0.00000000000E+00  0.00000000000E+00 -0.20067857697E+04  0.20067857697E+04  0.50400001928E-02 0.  1.
    10030    2    1    2    0    0  0.00000000000E+00  0.00000000000E+00 -0.18556993650E+04  0.21578721746E+04  0.11012684454E+04 0.  0.
        2    1    3    3  502    0  0.20468180474E+03 -0.18845443960E+03 -0.18589216800E+04  0.18796274975E+04  0.25500000920E-02 0.  1.
       -2    1    3    3    0  502 -0.20468180474E+03  0.18845443960E+03  0.32223150716E+01  0.27824467707E+03  0.25500000920E-02 0. -1.
</event>
<event>
 5   0  0.9719260E-03  0.1072253E+04  0.7818609E-02  0.9232666E-01
        2   -1    0    0  501    0  0.00000000000E+00  0.00000000000E+00  0.71973364374E+03  0.71973364374E+03  0.25500000920E-02 0. -1.
       -2   -1    0    0    0  501  0.00000000000E+00  0.00000000000E+00 -0.39935802693E+03  0.39935802694E+03  0.25500000920E-02 0.  1.
    10030    2    1    2    0    0  0.00000000000E+00  0.00000000000E+00  0.32037561681E+03  0.11190916707E+04  0.10722525969E+04 0.  0.
        3    1    3    3  502    0 -0.16639250511E+03 -0.45512420154E+03  0.39956892224E+03  0.62807629983E+03  0.10100000352E+00 0. -1.
       -3    1    3    3    0  502  0.16639250511E+03  0.45512420154E+03 -0.79193305436E+02  0.49101537085E+03  0.10100000352E+00 0.  1.
</event>
<event>
 5   0  0.5854579E-03  0.1064865E+04  0.7818609E-02  0.9240130E-01
        1   -1    0    0  501    0  0.00000000000E+00  0.00000000000E+00  0.14017822089E+04  0.14017822089E+04  0.50400001928E-02 0. -1.
       -1   -1    0    0    0  501  0.00000000000E+00  0.00000000000E+00 -0.20223146907E+03  0.20223146913E+03  0.50400001928E-02 0.  1.
    10030    2    1    2    0    0  0.00000000000E+00  0.00000000000E+00  0.11995507398E+04  0.16040136780E+04  0.10648652036E+04 0.  0.
        4    1    3    3  502    0  0.28402607251E+03  0.36868626374E+02 -0.76307666525E+02  0.29640273000E+03  0.12699999809E+01 0.  1.
       -4    1    3    3    0  502 -0.28402607251E+03 -0.36868626374E+02  0.12758584064E+04  0.13076109480E+04  0.12699999809E+01 0. -1.
</event>
<event>
 5   0  0.1019384E-02  0.8414963E+03  0.7818609E-02  0.9501822E-01
        2   -1    0    0  501    0  0.00000000000E+00  0.00000000000E+00  0.92525963692E+03  0.92525963692E+03  0.25500000920E-02 0. -1.
       -2   -1    0    0    0  501  0.00000000000E+00  0.00000000000E+00 -0.19132899654E+03  0.19132899655E+03  0.25500000920E-02 0.  1.
    10030    2    1    2    0    0  0.00000000000E+00  0.00000000000E+00  0.73393064038E+03  0.11165886335E+04  0.84149628134E+03 0.  0.
        1    1    3    3  502    0  0.11756228552E+03 -0.22895205883E+03  0.80862671882E+03  0.84859714037E+03  0.50400001928E-02 0. -1.
       -1    1    3    3    0  502 -0.11756228552E+03  0.22895205883E+03 -0.74696078444E+02  0.26799149311E+03  0.50400001928E-02 0.  1.
</event>
<event>
 5   0  0.5789905E-03  0.1067568E+04  0.7818609E-02  0.9237392E-01
        1   -1    0    0  501    0  0.00000000000E+00  0.00000000000E+00  0.18531805168E+04  0.18531805168E+04  0.50400001928E-02 0.  1.
       -1   -1    0    0    0  501  0.00000000000E+00  0.00000000000E+00 -0.15374942491E+03  0.15374942499E+03  0.50400001928E-02 0. -1.
    10030    2    1    2    0    0  0.00000000000E+00  0.00000000000E+00  0.16994310919E+04  0.20069299418E+04  0.10675681501E+04 0.  0.
        1    1    3    3  502    0 -0.15541521451E+03  0.69734520869E+02  0.18007124074E+04  0.18087514939E+04  0.50400001928E-02 0.  1.
       -1    1    3    3    0  502  0.15541521451E+03 -0.69734520869E+02 -0.10128131556E+03  0.19817844789E+03  0.50400001928E-02 0. -1.
</event>
<event>
 5   0  0.9925021E-03  0.1075758E+04  0.7818609E-02  0.9229148E-01
       -2   -1    0    0    0  501  0.00000000000E+00  0.00000000000E+00  0.53614028102E+03  0.53614028103E+03  0.25500000920E-02 0.  1.
        2   -1    0    0  501    0  0.00000000000E+00  0.00000000000E+00 -0.53962306774E+03  0.53962306775E+03  0.25500000920E-02 0. -1.
    10030    2    1    2    0    0  0.00000000000E+00  0.00000000000E+00 -0.34827867248E+01  0.10757633488E+04  0.10757577110E+04 0.  0.
        4    1    3    3  502    0  0.35787919488E+03  0.37324492710E+03 -0.14980552252E+03  0.53836103240E+03  0.12699999809E+01 0. -1.
       -4    1    3    3    0  502 -0.35787919488E+03 -0.37324492710E+03  0.14632273579E+03  0.53740231637E+03  0.12699999809E+01 0.  1.
</event>
<event>
 5   0  0.3949750E-03  0.1086225E+04  0.7818609E-02  0.9218723E-01
        3   -1    0    0  501    0  0.00000000000E+00  0.00000000000E+00  0.40193901266E+03  0.40193902535E+03  0.10100000352E+00 0. -1.
       -3   -1    0    0    0  501  0.00000000000E+00  0.00000000000E+00 -0.73387080374E+03  0.73387081069E+03  0.10100000352E+00 0.  1.
    10030    2    1    2    0    0  0.00000000000E+00  0.00000000000E+00 -0.33193179108E+03  0.11358098360E+04  0.10862252389E+04 0.  0.
        2    1    3    3  502    0  0.44718461481E+03  0.94381897511E+02  0.14083760585E+03  0.47824392681E+03  0.25500000920E-02 0. -1.
       -2    1    3    3    0  502 -0.44718461481E+03 -0.94381897511E+02 -0.47276939693E+03  0.65756590923E+03  0.25500000920E-02 0.  1.
</event>
<event>
 5   0  0.9925021E-03  0.1024276E+04  0.7818609E-02  0.9282313E-01
        2   -1    0    0  501    0  0.00000000000E+00  0.00000000000E+00  0.13675489797E+04  0.13675489797E+04  0.25500000920E-02 0. -1.
       -2   -1    0    0    0  501  0.00000000000E+00  0.00000000000E+00 -0.19179228288E+03  0.19179228290E+03  0.25500000920E-02 0.  1.
    10030    2    1    2    0    0  0.00000000000E+00  0.00000000000E+00  0.11757566969E+04  0.15593412626E+04  0.10242760190E+04 0.  0.
        4    1    3    3  502    0  0.96960533592E+02 -0.91795670169E+02  0.13405827603E+04  0.13472162188E+04  0.12699999809E+01 0. -1.
       -4    1    3    3    0  502 -0.96960533592E+02  0.91795670169E+02 -0.16482606343E+03  0.21212504383E+03  0.12699999809E+01 0.  1.
</event>
<event>
 5   0  0.9692981E-03  0.1082646E+04  0.7818609E-02  0.9222274E-01
        2   -1    0    0  501    0  0.00000000000E+00  0.00000000000E+00  0.87960475701E+03  0.87960475702E+03  0.25500000920E-02 0.  1.
       -2   -1    0    0    0  501  0.00000000000E+00  0.00000000000E+00 -0.33313870063E+03  0.33313870064E+03  0.25500000920E-02 0. -1.
    10030    2    1    2    0    0  0.00000000000E+00  0.00000000000E+00  0.54646605639E+03  0.12127434577E+04  0.10826456222E+04 0.  0.
        5    1    3    3  502    0  0.42502159261E+03  0.31428185921E+03  0.14263940337E+03  0.54752582643E+03  0.46999998093E+01 0.  1.
       -5    1    3    3    0  502 -0.42502159261E+03 -0.31428185921E+03  0.40382665301E+03  0.66521763123E+03  0.46999998093E+01 0. -1.
</event>
<event>
 5   0  0.1028016E-02  0.1070872E+04  0.7818609E-02  0.9234057E-01
        2   -1    0    0  501    0  0.00000000000E+00  0.00000000000E+00  0.36717872913E+03  0.36717872914E+03  0.25500000920E-02 0. -1.
       -2   -1    0    0    0  501  0.00000000000E+00  0.00000000000E+00 -0.78079583997E+03  0.78079583997E+03  0.25500000920E-02 0.  1.
    10030    2    1    2    0    0  0.00000000000E+00  0.00000000000E+00 -0.41361711084E+03  0.11479745691E+04  0.10708718396E+04 0.  0.
        2    1    3    3  502    0  0.16359583043E+03  0.13645688525E+02 -0.75315196899E+03  0.77083570814E+03  0.25500000920E-02 0.  1.
       -2    1    3    3    0  502 -0.16359583043E+03 -0.13645688525E+02  0.33953485815E+03  0.37713886097E+03  0.25500000920E-02 0. -1.
</event>
<event>
 5   0  0.9719260E-03  0.1156539E+04  0.7818609E-02  0.9151772E-01
       -2   -1    0    0    0  501  0.00000000000E+00  0.00000000000E+00  0.44383861676E+03  0.44383861677E+03  0.25500000920E-02 0.  1.
        2   -1    0    0  501    0  0.00000000000E+00  0.00000000000E+00 -0.75341752196E+03  0.75341752196E+03  0.25500000920E-02 0. -1.
    10030    2    1    2    0    0  0.00000000000E+00  0.00000000000E+00 -0.30957890520E+03  0.11972561387E+04  0.11565393046E+04 0.  0.
        3    1    3    3  502    0 -0.52272645314E+03  0.19389936182E+03  0.40931262634E+01  0.55754521898E+03  0.10100000352E+00 0. -1.
       -3    1    3    3    0  502  0.52272645314E+03 -0.19389936182E+03 -0.31367203146E+03  0.63971091975E+03  0.10100000352E+00 0.  1.
</event>
<event>
 5   0  0.9719260E-03  0.1102040E+04  0.7818609E-02  0.9203206E-01
        2   -1    0    0  501    0  0.00000000000E+00  0.00000000000E+00  0.55976725179E+03  0.55976725180E+03  0.25500000920E-02 0. -1.
       -2   -1    0    0    0  501  0.00000000000E+00  0.00000000000E+00 -0.54240934529E+03  0.54240934530E+03  0.25500000920E-02 0.  1.
    10030    2    1    2    0    0  0.00000000000E+00  0.00000000000E+00  0.17357906504E+02  0.11021765971E+04  0.11020399059E+04 0.  0.
        3    1    3    3  502    0  0.33797062983E+03  0.16618792478E+03  0.41094819225E+03  0.55742353726E+03  0.10100000352E+00 0. -1.
       -3    1    3    3    0  502 -0.33797062983E+03 -0.16618792478E+03 -0.39359028574E+03  0.54475305984E+03  0.10100000352E+00 0.  1.
</event>
<event>
 5   0  0.1028016E-02  0.1118539E+04  0.7818609E-02  0.9187309E-01
        2   -1    0    0  501    0  0.00000000000E+00  0.00000000000E+00  0.64071319098E+03  0.64071319098E+03  0.25500000920E-02 0. -1.
       -2   -1    0    0    0  501  0.00000000000E+00  0.00000000000E+00 -0.48817803555E+03  0.48817803555E+03  0.25500000920E-02 0.  1.
    10030    2    1    2    0    0  0.00000000000E+00  0.00000000000E+00  0.15253515543E+03  0.11288912265E+04  0.11185385231E+04 0.  0.
        2    1    3    3  502    0 -0.19159078343E+03 -0.17895970800E+03  0.57485259601E+03  0.63181414398E+03  0.25500000920E-02 0. -1.
       -2    1    3    3    0  502  0.19159078343E+03  0.17895970800E+03 -0.42231744058E+03  0.49707708256E+03  0.25500000920E-02 0.  1.
</event>
<event>
 5   0  0.5712664E-03  0.1107534E+04  0.7818609E-02  0.9197880E-01
       -1   -1    0    0    0  501  0.00000000000E+00  0.00000000000E+00  0.25127526752E+03  0.25127526757E+03  0.50400001928E-02 0. -1.
        1   -1    0    0  501    0  0.00000000000E+00  0.00000000000E+00 -0.12204055984E+04  0.12204055984E+04  0.50400001928E-02 0.  1.
    10030    2    1    2    0    0  0.00000000000E+00  0.00000000000E+00 -0.96913033085E+03  0.14716808659E+04  0.11075337345E+04 0.  0.
        5    1    3    3  502    0 -0.15710492864E+03  0.49919870234E+03 -0.72505192712E+03  0.89420561956E+03  0.46999998093E+01 0. -1.
       -5    1    3    3    0  502  0.15710492864E+03 -0.49919870234E+03 -0.24407840373E+03  0.57747524639E+03  0.46999998093E+01 0.  1.
</event>
<event>
 5   0  0.9692981E-03  0.1078663E+04  0.7818609E-02  0.9226241E-01
        2   -1    0    0  501    0  0.00000000000E+00  0.00000000000E+00  0.41365456960E+03  0.41365456960E+03  0.25500000920E-02 0. -1.
       -2   -1    0    0    0  501  0.00000000000E+00  0.00000000000E+00 -0.70319181301E+03  0.70319181302E+03  0.25500000920E-02 0.  1.
    10030    2    1    2    0    0  0.00000000000E+00  0.00000000000E+00 -0.28953724342E+03  0.11168463826E+04  0.10786630739E+04 0.  0.
        5    1    3    3  502    0  0.22075285132E+02 -0.85355399483E+02 -0.69565869933E+03  0.70123888824E+03  0.46999998093E+01 0.  1.
       -5    1    3    3    0  502 -0.22075285132E+02  0.85355399483E+02  0.40612145591E+03  0.41560749438E+03  0.46999998093E+01 0. -1.
</event>
<event>
 5   0  0.9719260E-03  0.1042606E+04  0.7818609E-02  0.9263012E-01
        2   -1    0    0  501    0  0.00000000000E+00  0.00000000000E+00  0.10531105629E+04  0.10531105629E+04  0.25500000920E-02 0.  1.
       -2   -1    0    0    0  501  0.00000000000E+00  0.00000000000E+00 -0.25805131368E+03  0.25805131370E+03  0.25500000920E-02 0. -1.
    10030    2    1    2    0    0  0.00000000000E+00  0.00000000000E+00  0.79505924920E+03  0.13111618766E+04  0.10426055135E+04 0.  0.
        3    1    3    3  502    0  0.17555657255E+03 -0.38360361363E+03  0.12404085524E+02  0.42204942139E+03  0.10100000352E+00 0. -1.
       -3    1    3    3    0  502 -0.17555657255E+03  0.38360361363E+03  0.78265516367E+03  0.88911245519E+03  0.10100000352E+00 0.  1.
</event>
<event>
 5   0  0.5854579E-03  0.1083824E+04  0.7818609E-02  0.9221104E-01
        1   -1    0    0  501    0  0.00000000000E+00  0.00000000000E+00  0.13988546493E+04  0.13988546493E+04  0.50400001928E-02 0.  1.
       -1   -1    0    0    0  501  0.00000000000E+00  0.00000000000E+00 -0.20993487433E+03  0.20993487439E+03  0.50400001928E-02 0. -1.
    10030    2    1    2    0    0  0.00000000000E+00  0.00000000000E+00  0.11889197749E+04  0.16087895237E+04  0.10838235559E+04 0.  0.
        4    1    3    3  502    0 -0.14449759348E+03  0.11230986652E+01 -0.18080772230E+03  0.23146028000E+03  0.12699999809E+01 0. -1.
       -4    1    3    3    0  502  0.14449759348E+03 -0.11230986652E+01  0.13697274972E+04  0.13773292437E+04  0.12699999809E+01 0.  1.
</event>
<event>
 5   0  0.1019384E-02  0.1078496E+04  0.7818609E-02  0.9226408E-01
        2   -1    0    0  501    0  0.00000000000E+00  0.00000000000E+00  0.43284947748E+03  0.43284947749E+03  0.25500000920E-02 0.  1.
       -2   -1    0    0    0  501  0.00000000000E+00  0.00000000000E+00 -0.67180015476E+03  0.67180015477E+03  0.25500000920E-02 0. -1.
    10030    2    1    2    0    0  0.00000000000E+00  0.00000000000E+00 -0.23895067728E+03  0.11046496323E+04  0.10784958896E+04 0.  0.
        1    1    3    3  502    0 -0.35200591618E+03 -0.99699162709E+02  0.28628840524E+03  0.46455262250E+03  0.50400001928E-02 0.  1.
       -1    1    3    3    0  502  0.35200591618E+03  0.99699162709E+02 -0.52523908252E+03  0.64009700976E+03  0.50400001928E-02 0. -1.
</event>
<event>
 5   0  0.1028016E-02  0.1164923E+04  0.7818609E-02  0.9144126E-01
       -2   -1    0    0    0  501  0.00000000000E+00  0.00000000000E+00  0.31007024888E+03  0.31007024889E+03  0.25500000920E-02 0.  1.
        2   -1    0    0  501    0  0.00000000000E+00  0.00000000000E+00 -0.10941430998E+04  0.10941430999E+04  0.25500000920E-02 0. -1.
    10030    2    1    2    0    0  0.00000000000E+00  0.00000000000E+00 -0.78407285096E+03  0.14042133487E+04  0.11649226984E+04 0.  0.
        2    1    3    3  502    0 -0.34164170353E+03  0.26766103014E+03  0.76216219517E+02  0.44064769689E+03  0.25500000920E-02 0.  1.
       -2    1    3    3    0  502  0.34164170353E+03 -0.26766103014E+03 -0.86028907048E+03  0.96356565186E+03  0.25500000920E-02 0. -1.
</event>
<event>
 5   0  0.5958706E-03  0.1119266E+04  0.7818609E-02  0.9186614E-01
        1   -1    0    0  501    0  0.00000000000E+00  0.00000000000E+00  0.65702391101E+03  0.65702391103E+03  0.50400001928E-02 0. -1.
       -1   -1    0    0    0  501  0.00000000000E+00  0.00000000000E+00 -0.47667877595E+03  0.47667877597E+03  0.50400001928E-02 0.  1.
    10030    2    1    2    0    0  0.00000000000E+00  0.00000000000E+00  0.18034513507E+03  0.11337026870E+04  0.11192664628E+04 0.  0.
        2    1    3    3  502    0 -0.52119798959E+03 -0.20293232767E+03  0.10940375515E+03  0.56991056808E+03  0.25500000920E-02 0. -1.
       -2    1    3    3    0  502  0.52119798959E+03  0.20293232767E+03  0.70941379918E+02  0.56379211892E+03  0.25500000920E-02 0.  1.
</event>
<event>
 5   0  0.9692981E-03  0.9970419E+03  0.7818609E-02  0.9311795E-01
       -2   -1    0    0    0  501  0.00000000000E+00  0.00000000000E+00  0.35778984957E+03  0.35778984958E+03  0.25500000920E-02 0. -1.
        2   -1    0    0  501    0  0.00000000000E+00  0.00000000000E+00 -0.69460649328E+03  0.69460649328E+03  0.25500000920E-02 0.  1.
    10030    2    1    2    0    0  0.00000000000E+00  0.00000000000E+00 -0.33681664371E+03  0.10523963429E+04  0.99704193040E+03 0.  0.
        5    1    3    3  502    0  0.36048173865E+03  0.26579245769E+03  0.62623342299E+02  0.45225710328E+03  0.46999998093E+01 0. -1.
       -5    1    3    3    0  502 -0.36048173865E+03 -0.26579245769E+03 -0.39943998601E+03  0.60013923958E+03  0.46999998093E+01 0.  1.
</event>
<event>
 5   0  0.5998641E-03  0.1034331E+04  0.7818609E-02  0.9271672E-01
        1   -1    0    0  501    0  0.00000000000E+00  0.00000000000E+00  0.46734824346E+03  0.46734824349E+03  0.50400001928E-02 0. -1.
       -1   -1    0    0    0  501  0.00000000000E+00  0.00000000000E+00 -0.57229314252E+03  0.57229314254E+03  0.50400001928E-02 0.  1.
    10030    2    1    2    0    0  0.00000000000E+00  0.00000000000E+00 -0.10494489905E+03  0.10396413860E+04  0.10343310784E+04 0.  0.
        3    1    3    3  502    0 -0.31726845339E+03 -0.40208170943E+03  0.19527794943E+02  0.51255274612E+03  0.10100000352E+00 0.  1.
       -3    1    3    3    0  502  0.31726845339E+03  0.40208170943E+03 -0.12447269400E+03  0.52708863992E+03  0.10100000352E+00 0. -1.
</event>
<event>
 5   0  0.5998641E-03  0.1093915E+04  0.7818609E-02  0.9211143E-01
        1   -1    0    0  501    0  0.00000000000E+00  0.00000000000E+00  0.96838199904E+03  0.96838199905E+03  0.50400001928E-02 0.  1.
       -1   -1    0    0    0  501  0.00000000000E+00  0.00000000000E+00 -0.30893030729E+03  0.30893030733E+03  0.50400001928E-02 0. -1.
    10030    2    1    2    0    0  0.00000000000E+00  0.00000000000E+00  0.65945169174E+03  0.12773123064E+04  0.10939150764E+04 0.  0.
        3    1    3    3  502    0  0.43432478909E+03  0.29577461185E+03  0.15248142055E+03  0.54714827720E+03  0.10100000352E+00 0. -1.
       -3    1    3    3    0  502 -0.43432478909E+03 -0.29577461185E+03  0.50697027120E+03  0.73016402918E+03  0.10100000352E+00 0.  1.
</event>
<event>
 5   0  0.5854579E-03  0.1095148E+04  0.7818609E-02  0.9209934E-01
       -1   -1    0    0    0  501  0.00000000000E+00  0.00000000000E+00  0.23597845570E+03  0.23597845576E+03  0.50400001928E-02 0. -1.
        1   -1    0    0  501    0  0.00000000000E+00  0.00000000000E+00 -0.12706126013E+04  0.12706126013E+04  0.50400001928E-02 0.  1.
    10030    2    1    2    0    0  0.00000000000E+00  0.00000000000E+00 -0.10346341456E+04  0.15065910570E+04  0.10951478430E+04 0.  0.
        4    1    3    3  502    0 -0.11143121946E+03 -0.52026459259E+03 -0.33930692297E+03  0.63104909781E+03  0.12699999809E+01 0. -1.
       -4    1    3    3    0  502  0.11143121946E+03  0.52026459259E+03 -0.69532722259E+03  0.87554195921E+03  0.12699999809E+01 0.  1.
</event>
<event>
 5   0  0.9925021E-03  0.1084874E+04  0.7818609E-02  0.9220061E-01
       -2   -1    0    0    0  501  0.00000000000E+00  0.00000000000E+00  0.10956734817E+03  0.10956734820E+03  0.25500000920E-02 0.  1.
        2   -1    0    0  501    0  0.00000000000E+00  0.00000000000E+00 -0.26854520095E+04  0.26854520095E+04  0.25500000920E-02 0. -1.
    10030    2    1    2    0    0  0.00000000000E+00  0.00000000000E+00 -0.25758846613E+04  0.27950193577E+04  0.10848739196E+04 0.  0.
        4    1    3    3  502    0  0.29406692923E+03 -0.27717459453E+03 -0.35568965325E+03  0.53834733867E+03  0.12699999809E+01 0.  1.
       -4    1    3    3    0  502 -0.29406692923E+03  0.27717459453E+03 -0.22201950081E+04  0.22566720190E+04  0.12699999809E+01 0. -1.
</event>
<event>
 5   0  0.1028016E-02  0.1092908E+04  0.7818609E-02  0.9212132E-01
        2   -1    0    0  501    0  0.00000000000E+00  0.00000000000E+00  0.10887415675E+04  0.10887415675E+04  0.25500000920E-02 0. -1.
       -2   -1    0    0    0  501  0.00000000000E+00  0.00000000000E+00 -0.27427246046E+03  0.27427246047E+03  0.25500000920E-02 0.  1.
    10030    2    1    2    0    0  0.00000000000E+00  0.00000000000E+00  0.81446910700E+03  0.13630140279E+04  0.10929077336E+04 0.  0.
        2    1    3    3  502    0  0.19513204454E+03 -0.15352890682E+03 -0.19986258417E+03  0.31873608612E+03  0.25500000920E-02 0.  1.
       -2    1    3    3    0  502 -0.19513204454E+03  0.15352890682E+03  0.10143316912E+04  0.10442779418E+04  0.25500000920E-02 0. -1.
</event>
<event>
 5   0  0.9925021E-03  0.1082249E+04  0.7818609E-02  0.9222668E-01
       -2   -1    0    0    0  501  0.00000000000E+00  0.00000000000E+00  0.40585184279E+03  0.40585184279E+03  0.25500000920E-02 0.  1.
        2   -1    0    0  501    0  0.00000000000E+00  0.00000000000E+00 -0.72148429033E+03  0.72148429033E+03  0.25500000920E-02 0. -1.
    10030    2    1    2    0    0  0.00000000000E+00  0.00000000000E+00 -0.31563244754E+03  0.11273361331E+04  0.10822490079E+04 0.  0.
        4    1    3    3  502    0  0.46471232659E+03  0.15907790415E+03  0.78690718077E+02  0.49745066900E+03  0.12699999809E+01 0.  1.
       -4    1    3    3    0  502 -0.46471232659E+03 -0.15907790415E+03 -0.39432316562E+03  0.62988546413E+03  0.12699999809E+01 0. -1.
</event>
<event>
 5   0  0.1019384E-02  0.1109003E+04  0.7818609E-02  0.9196461E-01
       -2   -1    0    0    0  501  0.00000000000E+00  0.00000000000E+00  0.55455589380E+03  0.55455589380E+03  0.25500000920E-02 0. -1.
        2   -1    0    0  501    0  0.00000000000E+00  0.00000000000E+00 -0.55444760968E+03  0.55444760968E+03  0.25500000920E-02 0.  1.
    10030    2    1    2    0    0  0.00000000000E+00  0.00000000000E+00  0.10828411906E+00  0.11090035035E+04  0.11090034982E+04 0.  0.
        1    1    3    3  502    0  0.37573630568E+03  0.17797076103E+03 -0.36685296856E+03  0.55446592660E+03  0.50400001928E-02 0.  1.
       -1    1    3    3    0  502 -0.37573630568E+03 -0.17797076103E+03  0.36696125268E+03  0.55453757689E+03  0.50400001928E-02 0. -1.
</event>
<event>
 5   0  0.9719260E-03  0.8653638E+03  0.7818609E-02  0.9469945E-01
        2   -1    0    0  501    0  0.00000000000E+00  0.00000000000E+00  0.31630648168E+04  0.31630648168E+04  0.25500000920E-02 0.  1.
       -2   -1    0    0    0  501  0.00000000000E+00  0.00000000000E+00 -0.59187417601E+02  0.59187417656E+02  0.25500000920E-02 0. -1.
    10030    2    1    2    0    0  0.00000000000E+00  0.00000000000E+00  0.31038773992E+04  0.32222522345E+04  0.86536382708E+03 0.  0.
        3    1    3    3  502    0 -0.91181081209E+02  0.64309321975E+02 -0.46960518087E+01  0.11167695182E+03  0.10100000352E+00 0. -1.
       -3    1    3    3    0  502  0.91181081209E+02 -0.64309321975E+02  0.31085734511E+04  0.31105752827E+04  0.10100000352E+00 0.  1.
</event>
<event>
 5   0  0.5789905E-03  0.1097384E+04  0.7818609E-02  0.9207745E-01
        1   -1    0    0  501    0  0.00000000000E+00  0.00000000000E+00  0.88038396428E+03  0.88038396429E+03  0.50400001928E-02 0. -1.
       -1   -1    0    0    0  501  0.00000000000E+00  0.00000000000E+00 -0.34196773798E+03  0.34196773802E+03  0.50400001928E-02 0.  1.
    10030    2    1    2    0    0  0.00000000000E+00  0.00000000000E+00  0.53841622630E+03  0.12223517023E+04  0.10973840036E+04 0.  0.
        1    1    3    3  502    0 -0.22469065221E+03  0.65139111705E+02  0.82204837652E+03  0.85468855522E+03  0.50400001928E-02 0. -1.
       -1    1    3    3    0  502  0.22469065221E+03 -0.65139111705E+02 -0.28363215022E+03  0.36766314709E+03  0.50400001928E-02 0.  1.
</event>
<event>
 5   0  0.1028016E-02  0.1065210E+04  0.7818609E-02  0.9239780E-01
       -2   -1    0    0    0  501  0.00000000000E+00  0.00000000000E+00  0.60871543478E+03  0.60871543479E+03  0.25500000920E-02 0. -1.
        2   -1    0    0  501    0  0.00000000000E+00  0.00000000000E+00 -0.46601092392E+03  0.46601092393E+03  0.25500000920E-02 0.  1.
    10030    2    1    2    0    0  0.00000000000E+00  0.00000000000E+00  0.14270451086E+03  0.10747263587E+04  0.10652099177E+04 0.  0.
        2    1    3    3  502    0 -0.44672040707E+03 -0.20645957472E+03  0.27684650969E+03  0.56464915481E+03  0.25500000920E-02 0. -1.
       -2    1    3    3    0  502  0.44672040707E+03  0.20645957472E+03 -0.13414199883E+03  0.51007720391E+03  0.25500000920E-02 0.  1.
</event>
<event>
 5   0  0.5958706E-03  0.1120558E+04  0.7818609E-02  0.9185383E-01
        1   -1    0    0  501    0  0.00000000000E+00  0.00000000000E+00  0.59438571183E+03  0.59438571186E+03  0.50400001928E-02 0. -1.
       -1   -1    0    0    0  501  0.00000000000E+00  0.00000000000E+00 -0.52812902481E+03  0.52812902483E+03  0.50400001928E-02 0.  1.
    10030    2    1    2    0    0  0.00000000000E+00  0.00000000000E+00  0.66256687026E+02  0.11225147367E+04  0.11205576226E+04 0.  0.
        2    1    3    3  502    0  0.12135122858E+02  0.54780979287E+03  0.15024925022E+03  0.56817045644E+03  0.25500000920E-02 0. -1.
       -2    1    3    3    0  502 -0.12135122858E+02 -0.54780979287E+03 -0.83992563192E+02  0.55434428025E+03  0.25500000920E-02 0.  1.
</event>
<event>
 5   0  0.1028016E-02  0.1116433E+04  0.7818609E-02  0.9189321E-01
       -2   -1    0    0    0  501  0.00000000000E+00  0.00000000000E+00  0.50675160425E+03  0.50675160426E+03  0.25500000920E-02 0.  1.
        2   -1    0    0  501    0  0.00000000000E+00  0.00000000000E+00 -0.61490836527E+03  0.61490836527E+03  0.25500000920E-02 0. -1.
    10030    2    1    2    0    0  0.00000000000E+00  0.00000000000E+00 -0.10815676102E+03  0.11216599695E+04  0.11164332503E+04 0.  0.
        2    1    3    3  502    0  0.32986437992E+03 -0.38514459205E+03  0.18037852518E+03  0.53822233164E+03  0.25500000920E-02 0. -1.
       -2    1    3    3    0  502 -0.32986437992E+03  0.38514459205E+03 -0.28853528620E+03  0.58343763789E+03  0.25500000920E-02 0.  1.
</event>
<event>
 5   0  0.9925021E-03  0.1105038E+04  0.7818609E-02  0.9200295E-01
        2   -1    0    0  501    0  0.00000000000E+00  0.00000000000E+00  0.66150574328E+03  0.66150574329E+03  0.25500000920E-02 0.  1.
       -2   -1    0    0    0  501  0.00000000000E+00  0.00000000000E+00 -0.46148881748E+03  0.46148881749E+03  0.25500000920E-02 0. -1.
    10030    2    1    2    0    0  0.00000000000E+00  0.00000000000E+00  0.20001692580E+03  0.11229945608E+04  0.11050384667E+04 0.  0.
        4    1    3    3  502    0  0.52606837062E+03  0.97060169165E+02  0.24048368528E+03  0.58651736785E+03  0.12699999809E+01 0.  1.
       -4    1    3    3    0  502 -0.52606837062E+03 -0.97060169165E+02 -0.40466759473E+02  0.53647719292E+03  0.12699999809E+01 0. -1.
</event>
<event>
 5   0  0.5854579E-03  0.1094428E+04  0.7818609E-02  0.9210640E-01
       -1   -1    0    0    0  501  0.00000000000E+00  0.00000000000E+00  0.96815447604E+03  0.96815447605E+03  0.50400001928E-02 0. -1.
        1   -1    0    0  501    0  0.00000000000E+00  0.00000000000E+00 -0.30929284953E+03  0.30929284957E+03  0.50400001928E-02 0.  1.
    10030    2    1    2    0    0  0.00000000000E+00  0.00000000000E+00  0.65886162651E+03  0.12774473256E+04  0.10944281734E+04 0.  0.
        4    1    3    3  502    0  0.42837034232E+03 -0.33738784149E+03  0.27581528515E+03  0.61107069165E+03  0.12699999809E+01 0.  1.
       -4    1    3    3    0  502 -0.42837034232E+03  0.33738784149E+03  0.38304634136E+03  0.66637663397E+03  0.12699999809E+01 0. -1.
</event>
<event>
 5   0  0.5998641E-03  0.1108249E+04  0.7818609E-02  0.9197189E-01
       -1   -1    0    0    0  501  0.00000000000E+00  0.00000000000E+00  0.25930493746E+03  0.25930493751E+03  0.50400001928E-02 0.  1.
        1   -1    0    0  501    0  0.00000000000E+00  0.00000000000E+00 -0.11841428271E+04  0.11841428272E+04  0.50400001928E-02 0. -1.
    10030    2    1    2    0    0  0.00000000000E+00  0.00000000000E+00 -0.92483788968E+03  0.14434477647E+04  0.11082492171E+04 0.  0.
        3    1    3    3  502    0  0.92551130958E+02 -0.67624355374E+01 -0.11739503407E+04  0.11776123535E+04  0.10100000352E+00 0. -1.
       -3    1    3    3    0  502 -0.92551130958E+02  0.67624355374E+01  0.24911245104E+03  0.26583541119E+03  0.10100000352E+00 0.  1.
</event>
<event>
 5   0  0.9719260E-03  0.1160834E+04  0.7818609E-02  0.9147847E-01
       -2   -1    0    0    0  501  0.00000000000E+00  0.00000000000E+00  0.51458371959E+03  0.51458371960E+03  0.25500000920E-02 0. -1.
        2   -1    0    0  501    0  0.00000000000E+00  0.00000000000E+00 -0.65467249962E+03  0.65467249963E+03  0.25500000920E-02 0.  1.
    10030    2    1    2    0    0  0.00000000000E+00  0.00000000000E+00 -0.14008878003E+03  0.11692562192E+04  0.11608338554E+04 0.  0.
        3    1    3    3  502    0  0.34603653755E+02 -0.57938428406E+03 -0.70536101229E+02  0.58468702162E+03  0.10100000352E+00 0.  1.
       -3    1    3    3    0  502 -0.34603653755E+02  0.57938428406E+03 -0.69552678804E+02  0.58456919761E+03  0.10100000352E+00 0. -1.
</event>
<event>
 5   0  0.5712664E-03  0.1068448E+04  0.7818609E-02  0.9236502E-01
       -1   -1    0    0    0  501  0.00000000000E+00  0.00000000000E+00  0.29576208919E+03  0.29576208923E+03  0.50400001928E-02 0. -1.
        1   -1    0    0  501    0  0.00000000000E+00  0.00000000000E+00 -0.96494830303E+03  0.96494830304E+03  0.50400001928E-02 0.  1.
    10030    2    1    2    0    0  0.00000000000E+00  0.00000000000E+00 -0.66918621384E+03  0.12607103923E+04  0.10684477078E+04 0.  0.
        5    1    3    3  502    0  0.52484492471E+03 -0.38748031681E+02 -0.22638859496E+03  0.57292014355E+03  0.46999998093E+01 0.  1.
       -5    1    3    3    0  502 -0.52484492471E+03  0.38748031681E+02 -0.44279761888E+03  0.68779024872E+03  0.46999998093E+01 0. -1.
</event>
<event>
 5   0  0.5854579E-03  0.1065258E+04  0.7818609E-02  0.9239731E-01
       -1   -1    0    0    0  501  0.00000000000E+00  0.00000000000E+00  0.87443670217E+03  0.87443670219E+03  0.50400001928E-02 0.  1.
        1   -1    0    0  501    0  0.00000000000E+00  0.00000000000E+00 -0.32443020130E+03  0.32443020133E+03  0.50400001928E-02 0. -1.
    10030    2    1    2    0    0  0.00000000000E+00  0.00000000000E+00  0.55000650088E+03  0.11988669035E+04  0.10652580445E+04 0.  0.
        4    1    3    3  502    0  0.52903588838E+03 -0.43671164725E+01  0.34432442780E+03  0.63123606311E+03  0.12699999809E+01 0. -1.
       -4    1    3    3    0  502 -0.52903588838E+03  0.43671164725E+01  0.20568207307E+03  0.56763084041E+03  0.12699999809E+01 0.  1.
</event>
<event>
 5   0  0.9925021E-03  0.1095118E+04  0.7818609E-02  0.9209964E-01
       -2   -1    0    0    0  501  0.00000000000E+00  0.00000000000E+00  0.30737279173E+03  0.30737279174E+03  0.25500000920E-02 0.  1.
        2   -1    0    0  501    0  0.00000000000E+00  0.00000000000E+00 -0.97542995460E+03  0.97542995460E+03  0.25500000920E-02 0. -1.
    10030    2    1    2    0    0  0.00000000000E+00  0.00000000000E+00 -0.66805716287E+03  0.12828027463E+04  0.10951175796E+04 0.  0.
        4    1    3    3  502    0 -0.13582655516E+03 -0.17133535584E+03 -0.92207522139E+03  0.94764391205E+03  0.12699999809E+01 0. -1.
       -4    1    3    3    0  502  0.13582655516E+03  0.17133535584E+03  0.25401805852E+03  0.33515883429E+03  0.12699999809E+01 0.  1.
</event>
<event>
 5   0  0.1019384E-02  0.1082344E+04  0.7818609E-02  0.9222573E-01
        2   -1    0    0  501    0  0.00000000000E+00  0.00000000000E+00  0.55138195869E+03  0.55138195870E+03  0.25500000920E-02 0. -1.
       -2   -1    0    0    0  501  0.00000000000E+00  0.00000000000E+00 -0.53115110681E+03  0.53115110681E+03  0.25500000920E-02 0.  1.
    10030    2    1    2    0    0  0.00000000000E+00  0.00000000000E+00  0.20230851886E+02  0.10825330655E+04  0.10823440075E+04 0.  0.
        1    1    3    3  502    0 -0.37958062403E+03  0.29949202233E+03 -0.23301182665E+03  0.53672286421E+03  0.50400001928E-02 0. -1.
       -1    1    3    3    0  502  0.37958062403E+03 -0.29949202233E+03  0.25324267854E+03  0.54581020130E+03  0.50400001928E-02 0.  1.
</event>
<event>
 5   0  0.5958706E-03  0.1100152E+04  0.7818609E-02  0.9205044E-01
       -1   -1    0    0    0  501  0.00000000000E+00  0.00000000000E+00  0.25537142201E+03  0.25537142206E+03  0.50400001928E-02 0.  1.
        1   -1    0    0  501    0  0.00000000000E+00  0.00000000000E+00 -0.11848765666E+04  0.11848765666E+04  0.50400001928E-02 0. -1.
    10030    2    1    2    0    0  0.00000000000E+00  0.00000000000E+00 -0.92950514454E+03  0.14402479886E+04  0.11001520145E+04 0.  0.
        2    1    3    3  502    0  0.41967688814E+03  0.12780697371E+03 -0.89918103707E+03  0.10004948028E+04  0.25500000920E-02 0. -1.
       -2    1    3    3    0  502 -0.41967688814E+03 -0.12780697371E+03 -0.30324107474E+02  0.43975318585E+03  0.25500000920E-02 0.  1.
</event>
<event>
 5   0  0.1028016E-02  0.1109511E+04  0.7818609E-02  0.9195971E-01
       -2   -1    0    0    0  501  0.00000000000E+00  0.00000000000E+00  0.15749694016E+03  0.15749694018E+03  0.25500000920E-02 0.  1.
        2   -1    0    0  501    0  0.00000000000E+00  0.00000000000E+00 -0.19540310499E+04  0.19540310499E+04  0.25500000920E-02 0. -1.
    10030    2    1    2    0    0  0.00000000000E+00  0.00000000000E+00 -0.17965341097E+04  0.21115279901E+04  0.11095114445E+04 0.  0.
        2    1    3    3  502    0  0.52975886615E+02 -0.18768094375E+03  0.90113773914E+02  0.21482800904E+03  0.25500000920E-02 0.  1.
       -2    1    3    3    0  502 -0.52975886615E+02  0.18768094375E+03 -0.18866478836E+04  0.18966999810E+04  0.25500000920E-02 0. -1.
</event>
<event>
 5   0  0.3949750E-03  0.1097876E+04  0.7818609E-02  0.9207265E-01
        3   -1    0    0  501    0  0.00000000000E+00  0.00000000000E+00  0.20735800442E+04  0.20735800467E+04  0.10100000352E+00 0. -1.
       -3   -1    0    0    0  501  0.00000000000E+00  0.00000000000E+00 -0.14532008587E+03  0.14532012097E+03  0.10100000352E+00 0.  1.
    10030    2    1    2    0    0  0.00000000000E+00  0.00000000000E+00  0.19282599583E+04  0.22189001676E+04  0.10978758978E+04 0.  0.
        1    1    3    3  502    0 -0.76949722917E+02  0.23121989498E+03  0.19582673567E+04  0.19733714653E+04  0.50400001928E-02 0. -1.
       -1    1    3    3    0  502  0.76949722917E+02 -0.23121989498E+03 -0.30007398362E+02  0.24552870234E+03  0.50400001928E-02 0.  1.
</event>
<event>
 5   0  0.1019384E-02  0.1076886E+04  0.7818609E-02  0.9228018E-01
       -2   -1    0    0    0  501  0.00000000000E+00  0.00000000000E+00  0.47911506173E+03  0.47911506173E+03  0.25500000920E-02 0. -1.
        2   -1    0    0  501    0  0.00000000000E+00  0.00000000000E+00 -0.60511725133E+03  0.60511725134E+03  0.25500000920E-02 0.  1.
    10030    2    1    2    0    0  0.00000000000E+00  0.00000000000E+00 -0.12600218961E+03  0.10842323131E+04  0.10768858607E+04 0.  0.
        1    1    3    3  502    0  0.17620046269E+03 -0.27568461299E+03 -0.49355396918E+03  0.59215211678E+03  0.50400001928E-02 0.  1.
       -1    1    3    3    0  502 -0.17620046269E+03  0.27568461299E+03  0.36755177957E+03  0.49208019629E+03  0.50400001928E-02 0. -1.
</event>
<event>
 5   0  0.9719260E-03  0.5808416E+03  0.7818609E-02  0.9945971E-01
       -2   -1    0    0    0  501  0.00000000000E+00  0.00000000000E+00  0.74429825369E+02  0.74429825412E+02  0.25500000920E-02 0. -1.
        2   -1    0    0  501    0  0.00000000000E+00  0.00000000000E+00 -0.11332050044E+04  0.11332050044E+04  0.25500000920E-02 0.  1.
    10030    2    1    2    0    0  0.00000000000E+00  0.00000000000E+00 -0.10587751791E+04  0.12076348299E+04  0.58084163286E+03 0.  0.
        3    1    3    3  502    0  0.69554055381E+02  0.57712701963E+02 -0.11032214486E+04  0.11069173851E+04  0.10100000352E+00 0.  1.
       -3    1    3    3    0  502 -0.69554055381E+02 -0.57712701963E+02  0.44446269577E+02  0.10071744471E+03  0.10100000352E+00 0. -1.
</event>
<event>
 5   0  0.1028016E-02  0.1096335E+04  0.7818609E-02  0.9208771E-01
       -2   -1    0    0    0  501  0.00000000000E+00  0.00000000000E+00  0.37492686425E+03  0.37492686426E+03  0.25500000920E-02 0. -1.
        2   -1    0    0  501    0  0.00000000000E+00  0.00000000000E+00 -0.80145657991E+03  0.80145657991E+03  0.25500000920E-02 0.  1.
    10030    2    1    2    0    0  0.00000000000E+00  0.00000000000E+00 -0.42652971566E+03  0.11763834442E+04  0.10963349896E+04 0.  0.
        2    1    3    3  502    0 -0.75442610996E+02 -0.16938328152E+03 -0.76678369660E+03  0.78888498590E+03  0.25500000920E-02 0.  1.
       -2    1    3    3    0  502  0.75442610996E+02  0.16938328152E+03  0.34025398093E+03  0.38749845827E+03  0.25500000920E-02 0. -1.
</event>
<event>
 5   0  0.5712664E-03  0.1067784E+04  0.7818609E-02  0.9237173E-01
        1   -1    0    0  501    0  0.00000000000E+00  0.00000000000E+00  0.44277833644E+03  0.44277833647E+03  0.50400001928E-02 0. -1.
       -1   -1    0    0    0  501  0.00000000000E+00  0.00000000000E+00 -0.64375473288E+03  0.64375473290E+03  0.50400001928E-02 0.  1.
    10030    2    1    2    0    0  0.00000000000E+00  0.00000000000E+00 -0.20097639645E+03  0.10865330694E+04  0.10677839664E+04 0.  0.
        5    1    3    3  502    0 -0.20916141938E+02 -0.52140792393E+03 -0.21522829226E+03  0.56449004944E+03  0.46999998093E+01 0. -1.
       -5    1    3    3    0  502  0.20916141938E+02  0.52140792393E+03  0.14251895816E+02  0.52204301993E+03  0.46999998093E+01 0.  1.
</event>
<event>
 5   0  0.9925021E-03  0.1211567E+04  0.7818609E-02  0.9102791E-01
        2   -1    0    0  501    0  0.00000000000E+00  0.00000000000E+00  0.70229514839E+03  0.70229514839E+03  0.25500000920E-02 0.  1.
       -2   -1    0    0    0  501  0.00000000000E+00  0.00000000000E+00 -0.52253521672E+03  0.52253521672E+03  0.25500000920E-02 0. -1.
    10030    2    1    2    0    0  0.00000000000E+00  0.00000000000E+00  0.17975993167E+03  0.12248303651E+04  0.12115674931E+04 0.  0.
        4    1    3    3  502    0  0.47127521144E+03 -0.16411477476E+02 -0.29454934476E+03  0.55599513569E+03  0.12699999809E+01 0. -1.
       -4    1    3    3    0  502 -0.47127521144E+03  0.16411477476E+02  0.47430927643E+03  0.66883522942E+03  0.12699999809E+01 0.  1.
</event>
<event>
 5   0  0.5998641E-03  0.1098845E+04  0.7818609E-02  0.9206318E-01
        1   -1    0    0  501    0  0.00000000000E+00  0.00000000000E+00  0.33920915809E+03  0.33920915813E+03  0.50400001928E-02 0.  1.
       -1   -1    0    0    0  501  0.00000000000E+00  0.00000000000E+00 -0.88990838704E+03  0.88990838705E+03  0.50400001928E-02 0. -1.
    10030    2    1    2    0    0  0.00000000000E+00  0.00000000000E+00 -0.55069922894E+03  0.12291175452E+04  0.10988449841E+04 0.  0.
        3    1    3    3  502    0  0.30184895280E+03 -0.26180656370E+03 -0.69716405320E+03  0.80355036829E+03  0.10100000352E+00 0. -1.
       -3    1    3    3    0  502 -0.30184895280E+03  0.26180656370E+03  0.14646482426E+03  0.42556717689E+03  0.10100000352E+00 0.  1.
</event>
<event>
 5   0  0.5789905E-03  0.1142251E+04  0.7818609E-02  0.9164962E-01
        1   -1    0    0  501    0  0.00000000000E+00  0.00000000000E+00  0.22179822233E+03  0.22179822239E+03  0.50400001928E-02 0. -1.
       -1   -1    0    0    0  501  0.00000000000E+00  0.00000000000E+00 -0.14706356832E+04  0.14706356832E+04  0.50400001928E-02 0.  1.
    10030    2    1    2    0    0  0.00000000000E+00  0.00000000000E+00 -0.12488374608E+04  0.16924339056E+04  0.11422510762E+04 0.  0.
        1    1    3    3  502    0  0.27451246272E+03  0.31847940095E+03 -0.51724557077E+02  0.42362914305E+03  0.50400001928E-02 0.  1.
       -1    1    3    3    0  502 -0.27451246272E+03 -0.31847940095E+03 -0.11971129037E+04  0.12688047625E+04  0.50400001928E-02 0. -1.
</event>
<event>
 5   0  0.9719260E-03  0.1112132E+04  0.7818609E-02  0.9193448E-01
       -2   -1    0    0    0  501  0.00000000000E+00  0.00000000000E+00  0.16397312960E+03  0.16397312962E+03  0.25500000920E-02 0. -1.
        2   -1    0    0  501    0  0.00000000000E+00  0.00000000000E+00 -0.18857304812E+04  0.18857304812E+04  0.25500000920E-02 0.  1.
    10030    2    1    2    0    0  0.00000000000E+00  0.00000000000E+00 -0.17217573516E+04  0.20497036109E+04  0.11121315185E+04 0.  0.
        3    1    3    3  502    0  0.56895958632E+02  0.12204856373E+03  0.13346886273E+03  0.18959680783E+03  0.10100000352E+00 0. -1.
       -3    1    3    3    0  502 -0.56895958632E+02 -0.12204856373E+03 -0.18552262144E+04  0.18601068030E+04  0.10100000352E+00 0.  1.
</event>
<event>
 5   0  0.5712664E-03  0.1128354E+04  0.7818609E-02  0.9177988E-01
        1   -1    0    0  501    0  0.00000000000E+00  0.00000000000E+00  0.31401658772E+03  0.31401658776E+03  0.50400001928E-02 0. -1.
       -1   -1    0    0    0  501  0.00000000000E+00  0.00000000000E+00 -0.10136275226E+04  0.10136275226E+04  0.50400001928E-02 0.  1.
    10030    2    1    2    0    0  0.00000000000E+00  0.00000000000E+00 -0.69961093489E+03  0.13276441104E+04  0.11283542988E+04 0.  0.
        5    1    3    3  502    0 -0.17397696471E+03  0.18047157926E+03  0.24486594316E+03  0.35045598195E+03  0.46999998093E+01 0. -1.
       -5    1    3    3    0  502  0.17397696471E+03 -0.18047157926E+03 -0.94447687805E+03  0.97718812843E+03  0.46999998093E+01 0.  1.
</event>
<event>
 5   0  0.5998641E-03  0.1090680E+04  0.7818609E-02  0.9214323E-01
       -1   -1    0    0    0  501  0.00000000000E+00  0.00000000000E+00  0.93022494383E+02  0.93022494520E+02  0.50400001928E-02 0.  1.
        1   -1    0    0  501    0  0.00000000000E+00  0.00000000000E+00 -0.31970327391E+04  0.31970327391E+04  0.50400001928E-02 0. -1.
    10030    2    1    2    0    0  0.00000000000E+00  0.00000000000E+00 -0.31040102448E+04  0.32900552337E+04  0.10906804486E+04 0.  0.
        3    1    3    3  502    0  0.15600051016E+03 -0.23478190808E+03 -0.29602279844E+04  0.29736187438E+04  0.10100000352E+00 0. -1.
       -3    1    3    3    0  502 -0.15600051016E+03  0.23478190808E+03 -0.14378226035E+03  0.31643648988E+03  0.10100000352E+00 0.  1.
</event>
<event>
 5   0  0.5854579E-03  0.1075240E+04  0.7818609E-02  0.9229666E-01
        1   -1    0    0  501    0  0.00000000000E+00  0.00000000000E+00  0.15260260194E+04  0.15260260194E+04  0.50400001928E-02 0.  1.
       -1   -1    0    0    0  501  0.00000000000E+00  0.00000000000E+00 -0.18940392202E+03  0.18940392208E+03  0.50400001928E-02 0. -1.
    10030    2    1    2    0    0  0.00000000000E+00  0.00000000000E+00  0.13366220974E+04  0.17154299415E+04  0.10752400909E+04 0.  0.
        4    1    3    3  502    0  0.29716374858E+03  0.25390707335E+03  0.79400265730E+02  0.39884973419E+03  0.12699999809E+01 0.  1.
       -4    1    3    3    0  502 -0.29716374858E+03 -0.25390707335E+03  0.12572218317E+04  0.13165802073E+04  0.12699999809E+01 0. -1.
</event>
<event>
 5   0  0.5712664E-03  0.1129591E+04  0.7818609E-02  0.9176821E-01
       -1   -1    0    0    0  501  0.00000000000E+00  0.00000000000E+00  0.53438620932E+03  0.53438620934E+03  0.50400001928E-02 0.  1.
        1   -1    0    0  501    0  0.00000000000E+00  0.00000000000E+00 -0.59693549210E+03  0.59693549212E+03  0.50400001928E-02 0. -1.
    10030    2    1    2    0    0  0.00000000000E+00  0.00000000000E+00 -0.62549282787E+02  0.11313217015E+04  0.11295912444E+04 0.  0.
        5    1    3    3  502    0 -0.43231356183E+03 -0.89800610500E+02  0.32141940307E+03  0.54616086280E+03  0.46999998093E+01 0.  1.
       -5    1    3    3    0  502  0.43231356183E+03  0.89800610500E+02 -0.38396868586E+03  0.58516083866E+03  0.46999998093E+01 0. -1.
</event>
<event>
 5   0  0.5854579E-03  0.1168109E+04  0.7818609E-02  0.9141238E-01
       -1   -1    0    0    0  501  0.00000000000E+00  0.00000000000E+00  0.52236112745E+03  0.52236112748E+03  0.50400001928E-02 0.  1.
        1   -1    0    0  501    0  0.00000000000E+00  0.00000000000E+00 -0.65303372661E+03  0.65303372663E+03  0.50400001928E-02 0. -1.
    10030    2    1    2    0    0  0.00000000000E+00  0.00000000000E+00 -0.13067259916E+03  0.11753948541E+04  0.11681086143E+04 0.  0.
        4    1    3    3  502    0 -0.46029552571E+03  0.31342734067E+03 -0.24252886784E+03  0.60739652082E+03  0.12699999809E+01 0. -1.
       -4    1    3    3    0  502  0.46029552571E+03 -0.31342734067E+03  0.11185626868E+03  0.56799833328E+03  0.12699999809E+01 0.  1.
</event>
<event>
 5   0  0.9719260E-03  0.1060349E+04  0.7818609E-02  0.9244724E-01
        2   -1    0    0  501    0  0.00000000000E+00  0.00000000000E+00  0.18995131990E+04  0.18995131990E+04  0.25500000920E-02 0. -1.
       -2   -1    0    0    0  501  0.00000000000E+00  0.00000000000E+00 -0.14797745334E+03  0.14797745336E+03  0.25500000920E-02 0.  1.
    10030    2    1    2    0    0  0.00000000000E+00  0.00000000000E+00  0.17515357457E+04  0.20474906524E+04  0.10603492364E+04 0.  0.
        3    1    3    3  502    0 -0.37777892499E+03  0.32955092369E+03  0.12089038057E+04  0.13087280653E+04  0.10100000352E+00 0. -1.
       -3    1    3    3    0  502  0.37777892499E+03 -0.32955092369E+03  0.54263194002E+03  0.73876258703E+03  0.10100000352E+00 0.  1.
</event>
<event>
 5   0  0.5854579E-03  0.1077803E+04  0.7818609E-02  0.9227101E-01
        1   -1    0    0  501    0  0.00000000000E+00  0.00000000000E+00  0.20729920450E+03  0.20729920456E+03  0.50400001928E-02 0.  1.
       -1   -1    0    0    0  501  0.00000000000E+00  0.00000000000E+00 -0.14009457203E+04  0.14009457203E+04  0.50400001928E-02 0. -1.
    10030    2    1    2    0    0  0.00000000000E+00  0.00000000000E+00 -0.11936465158E+04  0.16082449248E+04  0.10778031980E+04 0.  0.
        4    1    3    3  502    0  0.50366998319E+03 -0.16448845053E+03 -0.45006494746E+03  0.69519779356E+03  0.12699999809E+01 0.  1.
       -4    1    3    3    0  502 -0.50366998319E+03  0.16448845053E+03 -0.74358156830E+03  0.91304713128E+03  0.12699999809E+01 0. -1.
</event>
<event>
 5   0  0.9719260E-03  0.1115790E+04  0.7818609E-02  0.9189937E-01
        2   -1    0    0  501    0  0.00000000000E+00  0.00000000000E+00  0.34506154602E+03  0.34506154603E+03  0.25500000920E-02 0.  1.
       -2   -1    0    0    0  501  0.00000000000E+00  0.00000000000E+00 -0.90200392683E+03  0.90200392683E+03  0.25500000920E-02 0. -1.
    10030    2    1    2    0    0  0.00000000000E+00  0.00000000000E+00 -0.55694238081E+03  0.12470654729E+04  0.11157900690E+04 0.  0.
        3    1    3    3  502    0 -0.11308735670E+03  0.46708905610E+03 -0.59515544071E+03  0.76496466937E+03  0.10100000352E+00 0. -1.
       -3    1    3    3    0  502  0.11308735670E+03 -0.46708905610E+03  0.38213059901E+02  0.48210080349E+03  0.10100000352E+00 0.  1.
</event>
<event>
 5   0  0.9925021E-03  0.1104960E+04  0.7818609E-02  0.9200371E-01
        2   -1    0    0  501    0  0.00000000000E+00  0.00000000000E+00  0.57413793534E+03  0.57413793535E+03  0.25500000920E-02 0. -1.
       -2   -1    0    0    0  501  0.00000000000E+00  0.00000000000E+00 -0.53163908020E+03  0.53163908021E+03  0.25500000920E-02 0.  1.
    10030    2    1    2    0    0  0.00000000000E+00  0.00000000000E+00  0.42498855140E+02  0.11057770156E+04  0.11049600244E+04 0.  0.
        4    1    3    3  502    0 -0.28907363942E+02 -0.30714546218E+03  0.47990978516E+03  0.57051641994E+03  0.12699999809E+01 0. -1.
       -4    1    3    3    0  502  0.28907363942E+02  0.30714546218E+03 -0.43741093002E+03  0.53526059562E+03  0.12699999809E+01 0.  1.
</event>
<event>
 5   0  0.5854579E-03  0.9582869E+03  0.7818609E-02  0.9355517E-01
        1   -1    0    0  501    0  0.00000000000E+00  0.00000000000E+00  0.12959478337E+04  0.12959478337E+04  0.50400001928E-02 0.  1.
       -1   -1    0    0    0  501  0.00000000000E+00  0.00000000000E+00 -0.17715098630E+03  0.17715098637E+03  0.50400001928E-02 0. -1.
    10030    2    1    2    0    0  0.00000000000E+00  0.00000000000E+00  0.11187968474E+04  0.14730988200E+04  0.95828688187E+03 0.  0.
        4    1    3    3  502    0 -0.18437843259E+03 -0.11074011021E+03 -0.98772887285E+02  0.23667799766E+03  0.12699999809E+01 0. -1.
       -4    1    3    3    0  502  0.18437843259E+03  0.11074011021E+03  0.12175697346E+04  0.12364208224E+04  0.12699999809E+01 0.  1.
</event>
<event>
 5   0  0.5789905E-03  0.9812649E+03  0.7818609E-02  0.9329335E-01
        1   -1    0    0  501    0  0.00000000000E+00  0.00000000000E+00  0.60358712816E+03  0.60358712818E+03  0.50400001928E-02 0. -1.
       -1   -1    0    0    0  501  0.00000000000E+00  0.00000000000E+00 -0.39881598280E+03  0.39881598283E+03  0.50400001928E-02 0.  1.
    10030    2    1    2    0    0  0.00000000000E+00  0.00000000000E+00  0.20477114536E+03  0.10024031110E+04  0.98126488524E+03 0.  0.
        1    1    3    3  502    0  0.21575023444E+03 -0.43205239650E+03  0.13901199038E+02  0.48312594667E+03  0.50400001928E-02 0.  1.
       -1    1    3    3    0  502 -0.21575023444E+03  0.43205239650E+03  0.19086994632E+03  0.51927716435E+03  0.50400001928E-02 0. -1.
</event>
<event>
 5   0  0.1028016E-02  0.1096130E+04  0.7818609E-02  0.9208972E-01
        2   -1    0    0  501    0  0.00000000000E+00  0.00000000000E+00  0.19192323512E+04  0.19192323512E+04  0.25500000920E-02 0. -1.
       -2   -1    0    0    0  501  0.00000000000E+00  0.00000000000E+00 -0.15650792863E+03  0.15650792865E+03  0.25500000920E-02 0.  1.
    10030    2    1    2    0    0  0.00000000000E+00  0.00000000000E+00  0.17627244226E+04  0.20757402799E+04  0.10961297001E+04 0.  0.
        2    1    3    3  502    0 -0.54093147749E+02 -0.15209815804E+03 -0.11046489580E+03  0.19560780026E+03  0.25500000920E-02 0.  1.
       -2    1    3    3    0  502  0.54093147749E+02  0.15209815804E+03  0.18731893184E+04  0.18801324796E+04  0.25500000920E-02 0. -1.
</event>
<event>
 5   0  0.9719260E-03  0.1128455E+04  0.7818609E-02  0.9177893E-01
        2   -1    0    0  501    0  0.00000000000E+00  0.00000000000E+00  0.91316541604E+03  0.91316541604E+03  0.25500000920E-02 0.  1.
       -2   -1    0    0    0  501  0.00000000000E+00  0.00000000000E+00 -0.34862555344E+03  0.34862555345E+03  0.25500000920E-02 0. -1.
    10030    2    1    2    0    0  0.00000000000E+00  0.00000000000E+00  0.56453986260E+03  0.12617909695E+04  0.11284552247E+04 0.  0.
        3    1    3    3  502    0  0.48379485245E+03  0.20241727455E+03  0.49535724531E+02  0.52676751087E+03  0.10100000352E+00 0. -1.
       -3    1    3    3    0  502 -0.48379485245E+03 -0.20241727455E+03  0.51500413807E+03  0.73502345862E+03  0.10100000352E+00 0.  1.
</event>
<event>
 5   0  0.5854579E-03  0.1083533E+04  0.7818609E-02  0.9221392E-01
        1   -1    0    0  501    0  0.00000000000E+00  0.00000000000E+00  0.38585362857E+03  0.38585362860E+03  0.50400001928E-02 0.  1.
       -1   -1    0    0    0  501  0.00000000000E+00  0.00000000000E+00 -0.76067987859E+03  0.76067987860E+03  0.50400001928E-02 0. -1.
    10030    2    1    2    0    0  0.00000000000E+00  0.00000000000E+00 -0.37482625002E+03  0.11465335072E+04  0.10835332784E+04 0.  0.
        4    1    3    3  502    0 -0.13536668678E+03 -0.20281386979E+03  0.32450506001E+03  0.40590978375E+03  0.12699999809E+01 0.  1.
       -4    1    3    3    0  502  0.13536668678E+03  0.20281386979E+03 -0.69933131003E+03  0.74062372346E+03  0.12699999809E+01 0. -1.
</event>
<event>
 5   0  0.5958706E-03  0.1094142E+04  0.7818609E-02  0.9210920E-01
       -1   -1    0    0    0  501  0.00000000000E+00  0.00000000000E+00  0.20880042678E+03  0.20880042684E+03  0.50400001928E-02 0. -1.
        1   -1    0    0  501    0  0.00000000000E+00  0.00000000000E+00 -0.14333629133E+04  0.14333629133E+04  0.50400001928E-02 0.  1.
    10030    2    1    2    0    0  0.00000000000E+00  0.00000000000E+00 -0.12245624865E+04  0.16421633401E+04  0.10941421993E+04 0.  0.
        2    1    3    3  502    0 -0.69363940553E+02  0.14850707963E+03  0.17108154703E+03  0.23692742495E+03  0.25500000920E-02 0. -1.
       -2    1    3    3    0  502  0.69363940553E+02 -0.14850707963E+03 -0.13956440335E+04  0.14052359152E+04  0.25500000920E-02 0.  1.
</event>
<event>
 5   0  0.5789905E-03  0.1090157E+04  0.7818609E-02  0.9214839E-01
        1   -1    0    0  501    0  0.00000000000E+00  0.00000000000E+00  0.38363006618E+03  0.38363006622E+03  0.50400001928E-02 0. -1.
       -1   -1    0    0    0  501  0.00000000000E+00  0.00000000000E+00 -0.77447128198E+03  0.77447128200E+03  0.50400001928E-02 0.  1.
    10030    2    1    2    0    0  0.00000000000E+00  0.00000000000E+00 -0.39084121580E+03  0.11581013482E+04  0.10901568129E+04 0.  0.
        1    1    3    3  502    0 -0.27023747600E+03  0.46332409757E+03 -0.92353375045E+02  0.54426708400E+03  0.50400001928E-02 0. -1.
       -1    1    3    3    0  502  0.27023747600E+03 -0.46332409757E+03 -0.29848784075E+03  0.61383426421E+03  0.50400001928E-02 0.  1.
</event>
<event>
 5   0  0.1028016E-02  0.5985407E+03  0.7818609E-02  0.9908438E-01
        2   -1    0    0  501    0  0.00000000000E+00  0.00000000000E+00  0.15456169122E+04  0.15456169122E+04  0.25500000920E-02 0.  1.
       -2   -1    0    0    0  501  0.00000000000E+00  0.00000000000E+00 -0.57946281370E+02  0.57946281427E+02  0.25500000920E-02 0. -1.
    10030    2    1    2    0    0  0.00000000000E+00  0.00000000000E+00  0.14876706309E+04  0.16035631937E+04  0.59854073390E+03 0.  0.
        2    1    3    3  502    0 -0.13237018165E+03  0.22738732069E+03  0.11258886561E+04  0.11562232157E+04  0.25500000920E-02 0.  1.
       -2    1    3    3    0  502  0.13237018165E+03 -0.22738732069E+03  0.36178197473E+03  0.44733997792E+03  0.25500000920E-02 0. -1.
</event>
<event>
 5   0  0.3949750E-03  0.1082106E+04  0.7818609E-02  0.9222810E-01
        3   -1    0    0  501    0  0.00000000000E+00  0.00000000000E+00  0.95768627584E+03  0.95768628116E+03  0.10100000352E+00 0.  1.
       -3   -1    0    0    0  501  0.00000000000E+00  0.00000000000E+00 -0.30567234550E+03  0.30567236218E+03  0.10100000352E+00 0. -1.
    10030    2    1    2    0    0  0.00000000000E+00  0.00000000000E+00  0.65201393034E+03  0.12633586433E+04  0.10821057695E+04 0.  0.
        3    1    3    3  502    0  0.12926839917E+03  0.52333699964E+01  0.93936192720E+03  0.94822916411E+03  0.10100000352E+00 0.  1.
       -3    1    3    3    0  502 -0.12926839917E+03 -0.52333699964E+01 -0.28734799686E+03  0.31512947924E+03  0.10100000352E+00 0. -1.
</event>
<event>
 5   0  0.5998641E-03  0.1080834E+04  0.7818609E-02  0.9224076E-01
        1   -1    0    0  501    0  0.00000000000E+00  0.00000000000E+00  0.15791076111E+04  0.15791076111E+04  0.50400001928E-02 0. -1.
       -1   -1    0    0    0  501  0.00000000000E+00  0.00000000000E+00 -0.18494670426E+03  0.18494670433E+03  0.50400001928E-02 0.  1.
    10030    2    1    2    0    0  0.00000000000E+00  0.00000000000E+00  0.13941609068E+04  0.17640543154E+04  0.10808343969E+04 0.  0.
        3    1    3    3  502    0  0.21473211679E+03 -0.40098946085E+03  0.22082407179E+03  0.50563396897E+03  0.10100000352E+00 0.  1.
       -3    1    3    3    0  502 -0.21473211679E+03  0.40098946085E+03  0.11733368350E+04  0.12584203464E+04  0.10100000352E+00 0. -1.
</event>
<event>
 5   0  0.5789905E-03  0.1087244E+04  0.7818609E-02  0.9217715E-01
        1   -1    0    0  501    0  0.00000000000E+00  0.00000000000E+00  0.51718106080E+03  0.51718106082E+03  0.50400001928E-02 0.  1.
       -1   -1    0    0    0  501  0.00000000000E+00  0.00000000000E+00 -0.57141461269E+03  0.57141461271E+03  0.50400001928E-02 0. -1.
    10030    2    1    2    0    0  0.00000000000E+00  0.00000000000E+00 -0.54233551890E+02  0.10885956735E+04  0.10872438835E+04 0.  0.
        1    1    3    3  502    0 -0.40396603468E+03 -0.36334953340E+03 -0.44841185156E+02  0.54518086220E+03  0.50400001928E-02 0. -1.
       -1    1    3    3    0  502  0.40396603468E+03  0.36334953340E+03 -0.93923667339E+01  0.54341481133E+03  0.50400001928E-02 0.  1.
</event>
<event>
 5   0  0.9719260E-03  0.1200552E+04  0.7818609E-02  0.9112374E-01
       -2   -1    0    0    0  501  0.00000000000E+00  0.00000000000E+00  0.20871029651E+03  0.20871029653E+03  0.25500000920E-02 0.  1.
        2   -1    0    0  501    0  0.00000000000E+00  0.00000000000E+00 -0.17264656257E+04  0.17264656257E+04  0.25500000920E-02 0. -1.
    10030    2    1    2    0    0  0.00000000000E+00  0.00000000000E+00 -0.15177553292E+04  0.19351759222E+04  0.12005517942E+04 0.  0.
        3    1    3    3  502    0 -0.47624744202E+03 -0.27809658991E+03 -0.11409427811E+04  0.12672410108E+04  0.10100000352E+00 0. -1.
       -3    1    3    3    0  502  0.47624744202E+03  0.27809658991E+03 -0.37681254802E+03  0.66793491143E+03  0.10100000352E+00 0.  1.
</event>
<event>
 5   0  0.9719260E-03  0.1105043E+04  0.7818609E-02  0.9200291E-01
        2   -1    0    0  501    0  0.00000000000E+00  0.00000000000E+00  0.35413896662E+03  0.35413896663E+03  0.25500000920E-02 0.  1.
       -2   -1    0    0    0  501  0.00000000000E+00  0.00000000000E+00 -0.86203397508E+03  0.86203397508E+03  0.25500000920E-02 0. -1.
    10030    2    1    2    0    0  0.00000000000E+00  0.00000000000E+00 -0.50789500845E+03  0.12161729417E+04  0.11050426619E+04 0.  0.
        3    1    3    3  502    0  0.46580204300E+03 -0.22863862667E+03 -0.45035031435E+02  0.52084098257E+03  0.10100000352E+00 0.  1.
       -3    1    3    3    0  502 -0.46580204300E+03  0.22863862667E+03 -0.46285997702E+03  0.69533195914E+03  0.10100000352E+00 0. -1.
</event>
<event>
 5   0  0.5789905E-03  0.1089609E+04  0.7818609E-02  0.9215379E-01
       -1   -1    0    0    0  501  0.00000000000E+00  0.00000000000E+00  0.45476821824E+03  0.45476821827E+03  0.50400001928E-02 0. -1.
        1   -1    0    0  501    0  0.00000000000E+00  0.00000000000E+00 -0.65266677569E+03  0.65266677571E+03  0.50400001928E-02 0.  1.
    10030    2    1    2    0    0  0.00000000000E+00  0.00000000000E+00 -0.19789855745E+03  0.11074349940E+04  0.10896093001E+04 0.  0.
        1    1    3    3  502    0 -0.25218931861E+03  0.44942079099E+03  0.80672300882E+02  0.52161913304E+03  0.50400001928E-02 0. -1.
       -1    1    3    3    0  502  0.25218931861E+03 -0.44942079099E+03 -0.27857085833E+03  0.58581586094E+03  0.50400001928E-02 0.  1.
</event>
<event>
 5   0  0.1019384E-02  0.1090929E+04  0.7818609E-02  0.9214079E-01
       -2   -1    0    0    0  501  0.00000000000E+00  0.00000000000E+00  0.20381560733E+03  0.20381560735E+03  0.25500000920E-02 0.  1.
        2   -1    0    0  501    0  0.00000000000E+00  0.00000000000E+00 -0.14598066781E+04  0.14598066781E+04  0.25500000920E-02 0. -1.
    10030    2    1    2    0    0  0.00000000000E+00  0.00000000000E+00 -0.12559910707E+04  0.16636222854E+04  0.10909287505E+04 0.  0.
        1    1    3    3  502    0 -0.31855617943E+03 -0.42623586819E+03 -0.81084022720E+03  0.96985407606E+03  0.50400001928E-02 0.  1.
       -1    1    3    3    0  502  0.31855617943E+03  0.42623586819E+03 -0.44515084353E+03  0.69376820935E+03  0.50400001928E-02 0. -1.
</event>
<event>
 5   0  0.5958706E-03  0.1084683E+04  0.7818609E-02  0.9220251E-01
       -1   -1    0    0    0  501  0.00000000000E+00  0.00000000000E+00  0.37139991080E+03  0.37139991084E+03  0.50400001928E-02 0. -1.
        1   -1    0    0  501    0  0.00000000000E+00  0.00000000000E+00 -0.79196070524E+03  0.79196070526E+03  0.50400001928E-02 0.  1.
    10030    2    1    2    0    0  0.00000000000E+00  0.00000000000E+00 -0.42056079444E+03  0.11633606161E+04  0.10846826915E+04 0.  0.
        2    1    3    3  502    0  0.34330751122E+03  0.57356904379E+02 -0.65636266328E+03  0.74294132171E+03  0.25500000920E-02 0.  1.
       -2    1    3    3    0  502 -0.34330751122E+03 -0.57356904379E+02  0.23580186884E+03  0.42041929439E+03  0.25500000920E-02 0. -1.
</event>
<event>
 5   0  0.5789905E-03  0.1093068E+04  0.7818609E-02  0.9211975E-01
        1   -1    0    0  501    0  0.00000000000E+00  0.00000000000E+00  0.41330617805E+03  0.41330617808E+03  0.50400001928E-02 0. -1.
       -1   -1    0    0    0  501  0.00000000000E+00  0.00000000000E+00 -0.72270696995E+03  0.72270696997E+03  0.50400001928E-02 0.  1.
    10030    2    1    2    0    0  0.00000000000E+00  0.00000000000E+00 -0.30940079190E+03  0.11360131481E+04  0.10930677118E+04 0.  0.
        1    1    3    3  502    0  0.21343356572E+03  0.48010989961E+03 -0.31107747353E+03  0.61059691880E+03  0.50400001928E-02 0.  1.
       -1    1    3    3    0  502 -0.21343356572E+03 -0.48010989961E+03  0.16766816301E+01  0.52541622926E+03  0.50400001928E-02 0. -1.
</event>
<event>
 5   0  0.9692981E-03  0.1098541E+04  0.7818609E-02  0.9206615E-01
        2   -1    0    0  501    0  0.00000000000E+00  0.00000000000E+00  0.35340677233E+03  0.35340677234E+03  0.25500000920E-02 0.  1.
       -2   -1    0    0    0  501  0.00000000000E+00  0.00000000000E+00 -0.85368532404E+03  0.85368532404E+03  0.25500000920E-02 0. -1.
    10030    2    1    2    0    0  0.00000000000E+00  0.00000000000E+00 -0.50027855170E+03  0.12070920964E+04  0.10985411689E+04 0.  0.
        5    1    3    3  502    0 -0.22907866064E+02 -0.20587098161E+03  0.30881944239E+03  0.37188596288E+03  0.46999998093E+01 0.  1.
       -5    1    3    3    0  502  0.22907866064E+02  0.20587098161E+03 -0.80909799409E+03  0.83520613350E+03  0.46999998093E+01 0. -1.
</event>
<event>
 5   0  0.1019384E-02  0.1095855E+04  0.7818609E-02  0.9209241E-01
       -2   -1    0    0    0  501  0.00000000000E+00  0.00000000000E+00  0.17240224871E+03  0.17240224873E+03  0.25500000920E-02 0.  1.
        2   -1    0    0  501    0  0.00000000000E+00  0.00000000000E+00 -0.17414198854E+04  0.17414198854E+04  0.25500000920E-02 0. -1.
    10030    2    1    2    0    0  0.00000000000E+00  0.00000000000E+00 -0.15690176366E+04  0.19138221341E+04  0.10958552901E+04 0.  0.
        1    1    3    3  502    0  0.32926030470E+03 -0.25554470100E+03 -0.16334017378E+03  0.44765550913E+03  0.50400001928E-02 0.  1.
       -1    1    3    3    0  502 -0.32926030470E+03  0.25554470100E+03 -0.14056774629E+04  0.14661666250E+04  0.50400001928E-02 0. -1.
</event>
<event>
 5   0  0.5958706E-03  0.1111196E+04  0.7818609E-02  0.9194348E-01
        1   -1    0    0  501    0  0.00000000000E+00  0.00000000000E+00  0.72279276349E+03  0.72279276350E+03  0.50400001928E-02 0. -1.
       -1   -1    0    0    0  501  0.00000000000E+00  0.00000000000E+00 -0.42707848791E+03  0.42707848794E+03  0.50400001928E-02 0.  1.
    10030    2    1    2    0    0  0.00000000000E+00  0.00000000000E+00  0.29571427557E+03  0.11498712514E+04  0.11111961853E+04 0.  0.
        2    1    3    3  502    0 -0.20428162233E+03  0.19782974270E+03  0.64177641072E+03  0.70195765519E+03  0.25500000920E-02 0. -1.
       -2    1    3    3    0  502  0.20428162233E+03 -0.19782974270E+03 -0.34606213515E+03  0.44791359626E+03  0.25500000920E-02 0.  1.
</event>
<event>
 5   0  0.5958706E-03  0.1370858E+04  0.7818609E-02  0.8975187E-01
       -1   -1    0    0    0  501  0.00000000000E+00  0.00000000000E+00  0.45679612649E+03  0.45679612652E+03  0.50400001928E-02 0. -1.
        1   -1    0    0  501    0  0.00000000000E+00  0.00000000000E+00 -0.10284965040E+04  0.10284965040E+04  0.50400001928E-02 0.  1.
    10030    2    1    2    0    0  0.00000000000E+00  0.00000000000E+00 -0.57170037750E+03  0.14852926305E+04  0.13708584452E+04 0.  0.
        2    1    3    3  502    0 -0.49330686654E+03 -0.47036159047E+03 -0.36414234481E+03  0.77278155882E+03  0.25500000920E-02 0. -1.
       -2    1    3    3    0  502  0.49330686654E+03  0.47036159047E+03 -0.20755803269E+03  0.71251107171E+03  0.25500000920E-02 0.  1.
</event>
<event>
 5   0  0.1028016E-02  0.1107557E+04  0.7818609E-02  0.9197858E-01
       -2   -1    0    0    0  501  0.00000000000E+00  0.00000000000E+00  0.27433795899E+03  0.27433795900E+03  0.25500000920E-02 0. -1.
        2   -1    0    0  501    0  0.00000000000E+00  0.00000000000E+00 -0.11178562839E+04  0.11178562839E+04  0.25500000920E-02 0.  1.
    10030    2    1    2    0    0  0.00000000000E+00  0.00000000000E+00 -0.84351832487E+03  0.13921942429E+04  0.11075566105E+04 0.  0.
        2    1    3    3  502    0  0.29282302444E+03 -0.30374482391E+03 -0.87264096821E+03  0.96928246713E+03  0.25500000920E-02 0.  1.
       -2    1    3    3    0  502 -0.29282302444E+03  0.30374482391E+03  0.29122643334E+02  0.42291177574E+03  0.25500000920E-02 0. -1.
</event>
<event>
 5   0  0.3949750E-03  0.1104272E+04  0.7818609E-02  0.9201038E-01
        3   -1    0    0  501    0  0.00000000000E+00  0.00000000000E+00  0.43586951514E+03  0.43586952684E+03  0.10100000352E+00 0.  1.
       -3   -1    0    0    0  501  0.00000000000E+00  0.00000000000E+00 -0.69941554504E+03  0.69941555233E+03  0.10100000352E+00 0. -1.
    10030    2    1    2    0    0  0.00000000000E+00  0.00000000000E+00 -0.26354602990E+03  0.11352850792E+04  0.11042715704E+04 0.  0.
        2    1    3    3  502    0  0.41303191423E+03  0.17968964548E+03 -0.46006906869E+03  0.64385346069E+03  0.25500000920E-02 0. -1.
       -2    1    3    3    0  502 -0.41303191423E+03 -0.17968964548E+03  0.19652303880E+03  0.49143161849E+03  0.25500000920E-02 0.  1.
</event>
<event>
 5   0  0.5998641E-03  0.1103005E+04  0.7818609E-02  0.9202268E-01
        1   -1    0    0  501    0  0.00000000000E+00  0.00000000000E+00  0.10112705739E+04  0.10112705739E+04  0.50400001928E-02 0. -1.
       -1   -1    0    0    0  501  0.00000000000E+00  0.00000000000E+00 -0.30076522793E+03  0.30076522798E+03  0.50400001928E-02 0.  1.
    10030    2    1    2    0    0  0.00000000000E+00  0.00000000000E+00  0.71050534593E+03  0.13120358018E+04  0.11030050312E+04 0.  0.
        3    1    3    3  502    0 -0.46946006119E+03  0.27939276428E+03  0.44507407819E+03  0.70465879053E+03  0.10100000352E+00 0.  1.
       -3    1    3    3    0  502  0.46946006119E+03 -0.27939276428E+03  0.26543126773E+03  0.60737701132E+03  0.10100000352E+00 0. -1.
</event>
<event>
 5   0  0.9692981E-03  0.1097933E+04  0.7818609E-02  0.9207209E-01
       -2   -1    0    0    0  501  0.00000000000E+00  0.00000000000E+00  0.21086072642E+03  0.21086072644E+03  0.25500000920E-02 0.  1.
        2   -1    0    0  501    0  0.00000000000E+00  0.00000000000E+00 -0.14292091737E+04  0.14292091737E+04  0.25500000920E-02 0. -1.
    10030    2    1    2    0    0  0.00000000000E+00  0.00000000000E+00 -0.12183484473E+04  0.16400699001E+04  0.10979327568E+04 0.  0.
        5    1    3    3  502    0 -0.17462637716E+03 -0.39290732415E+02  0.16601532000E+03  0.24417475243E+03  0.46999998093E+01 0.  1.
       -5    1    3    3    0  502  0.17462637716E+03  0.39290732415E+02 -0.13843637673E+04  0.13958951477E+04  0.46999998093E+01 0. -1.
</event>
<event>
 5   0  0.5998641E-03  0.1093475E+04  0.7818609E-02  0.9211575E-01
       -1   -1    0    0    0  501  0.00000000000E+00  0.00000000000E+00  0.11602640065E+03  0.11602640076E+03  0.50400001928E-02 0.  1.
        1   -1    0    0  501    0  0.00000000000E+00  0.00000000000E+00 -0.25763249878E+04  0.25763249878E+04  0.50400001928E-02 0. -1.
    10030    2    1    2    0    0  0.00000000000E+00  0.00000000000E+00 -0.24602985872E+04  0.26923513886E+04  0.10934746735E+04 0.  0.
        3    1    3    3  502    0  0.22481325932E+03  0.48709169101E+03 -0.97047913934E+03  0.11088864176E+04  0.10100000352E+00 0. -1.
       -3    1    3    3    0  502 -0.22481325932E+03 -0.48709169101E+03 -0.14898194479E+04  0.15834649710E+04  0.10100000352E+00 0.  1.
</event>
<event>
 5   0  0.1028016E-02  0.1083531E+04  0.7818609E-02  0.9221394E-01
       -2   -1    0    0    0  501  0.00000000000E+00  0.00000000000E+00  0.17514716823E+03  0.17514716825E+03  0.25500000920E-02 0. -1.
        2   -1    0    0  501    0  0.00000000000E+00  0.00000000000E+00 -0.16757898782E+04  0.16757898782E+04  0.25500000920E-02 0.  1.
    10030    2    1    2    0    0  0.00000000000E+00  0.00000000000E+00 -0.15006427099E+04  0.18509370464E+04  0.10835309903E+04 0.  0.
        2    1    3    3  502    0  0.15132605423E+03 -0.13390258783E+03 -0.16090106846E+04  0.16216488093E+04  0.25500000920E-02 0.  1.
       -2    1    3    3    0  502 -0.15132605423E+03  0.13390258783E+03  0.10836797467E+03  0.22928823707E+03  0.25500000920E-02 0. -1.
</event>
<event>
 5   0  0.1028016E-02  0.1191843E+04  0.7818609E-02  0.9120027E-01
       -2   -1    0    0    0  501  0.00000000000E+00  0.00000000000E+00  0.25904577534E+03  0.25904577535E+03  0.25500000920E-02 0. -1.
        2   -1    0    0  501    0  0.00000000000E+00  0.00000000000E+00 -0.13708859410E+04  0.13708859410E+04  0.25500000920E-02 0.  1.
    10030    2    1    2    0    0  0.00000000000E+00  0.00000000000E+00 -0.11118401657E+04  0.16299317164E+04  0.11918426264E+04 0.  0.
        2    1    3    3  502    0  0.33087545882E+03 -0.31507818665E+03 -0.10791295711E+04  0.11718675113E+04  0.25500000920E-02 0.  1.
       -2    1    3    3    0  502 -0.33087545882E+03  0.31507818665E+03 -0.32710594631E+02  0.45806420506E+03  0.25500000920E-02 0. -1.
</event>
<event>
 5   0  0.5789905E-03  0.1077693E+04  0.7818609E-02  0.9227210E-01
       -1   -1    0    0    0  501  0.00000000000E+00  0.00000000000E+00  0.21017233866E+03  0.21017233872E+03  0.50400001928E-02 0.  1.
        1   -1    0    0  501    0  0.00000000000E+00  0.00000000000E+00 -0.13815124879E+04  0.13815124879E+04  0.50400001928E-02 0. -1.
    10030    2    1    2    0    0  0.00000000000E+00  0.00000000000E+00 -0.11713401492E+04  0.15916848266E+04  0.10776932968E+04 0.  0.
        1    1    3    3  502    0 -0.40987983078E+03 -0.14969558865E+03 -0.10525911125E+04  0.11394552625E+04  0.50400001928E-02 0. -1.
       -1    1    3    3    0  502  0.40987983078E+03  0.14969558865E+03 -0.11874903668E+03  0.45222956413E+03  0.50400001928E-02 0.  1.
</event>
<event>
 5   0  0.9719260E-03  0.1101842E+04  0.7818609E-02  0.9203398E-01
       -2   -1    0    0    0  501  0.00000000000E+00  0.00000000000E+00  0.21190252699E+03  0.21190252700E+03  0.25500000920E-02 0. -1.
        2   -1    0    0  501    0  0.00000000000E+00  0.00000000000E+00 -0.14323280638E+04  0.14323280638E+04  0.25500000920E-02 0.  1.
    10030    2    1    2    0    0  0.00000000000E+00  0.00000000000E+00 -0.12204255368E+04  0.16442305908E+04  0.11018419782E+04 0.  0.
        3    1    3    3  502    0  0.73717323766E+02  0.84289374917E+02  0.19474155233E+03  0.22464021223E+03  0.10100000352E+00 0. -1.
       -3    1    3    3    0  502 -0.73717323766E+02 -0.84289374917E+02 -0.14151670891E+04  0.14195903786E+04  0.10100000352E+00 0.  1.
</event>
<event>
 5   0  0.1028016E-02  0.9779017E+03  0.7818609E-02  0.9333120E-01
        2   -1    0    0  501    0  0.00000000000E+00  0.00000000000E+00  0.30005983463E+03  0.30005983464E+03  0.25500000920E-02 0. -1.
       -2   -1    0    0    0  501  0.00000000000E+00  0.00000000000E+00 -0.79675080732E+03  0.79675080732E+03  0.25500000920E-02 0.  1.
    10030    2    1    2    0    0  0.00000000000E+00  0.00000000000E+00 -0.49669097269E+03  0.10968106420E+04  0.97790166274E+03 0.  0.
        2    1    3    3  502    0 -0.57051399693E+02 -0.10972147201E+03 -0.77891999412E+03  0.78867611912E+03  0.25500000920E-02 0.  1.
       -2    1    3    3    0  502  0.57051399693E+02  0.10972147201E+03  0.28222902143E+03  0.30813452285E+03  0.25500000920E-02 0. -1.
</event>
<event>
 5   0  0.5998641E-03  0.1080226E+04  0.7818609E-02  0.9224682E-01
       -1   -1    0    0    0  501  0.00000000000E+00  0.00000000000E+00  0.28043099959E+03  0.28043099964E+03  0.50400001928E-02 0. -1.
        1   -1    0    0  501    0  0.00000000000E+00  0.00000000000E+00 -0.10402640917E+04  0.10402640917E+04  0.50400001928E-02 0.  1.
    10030    2    1    2    0    0  0.00000000000E+00  0.00000000000E+00 -0.75983309214E+03  0.13206950914E+04  0.10802264561E+04 0.  0.
        3    1    3    3  502    0 -0.31907102067E+03  0.42620417829E+03 -0.49107300302E+03  0.72429898683E+03  0.10100000352E+00 0. -1.
       -3    1    3    3    0  502  0.31907102067E+03 -0.42620417829E+03 -0.26876008912E+03  0.59639610455E+03  0.10100000352E+00 0.  1.
</event>
<event>
 5   0  0.5998641E-03  0.1092799E+04  0.7818609E-02  0.9212239E-01
        1   -1    0    0  501    0  0.00000000000E+00  0.00000000000E+00  0.52017389369E+03  0.52017389371E+03  0.50400001928E-02 0. -1.
       -1   -1    0    0    0  501  0.00000000000E+00  0.00000000000E+00 -0.57394720245E+03  0.57394720247E+03  0.50400001928E-02 0.  1.
    10030    2    1    2    0    0  0.00000000000E+00  0.00000000000E+00 -0.53773308766E+02  0.10941210962E+04  0.10927988856E+04 0.  0.
        3    1    3    3  502    0  0.72871270328E+02 -0.41363861306E+03 -0.37680231546E+03  0.56425802555E+03  0.10100000352E+00 0.  1.
       -3    1    3    3    0  502 -0.72871270328E+02  0.41363861306E+03  0.32302900670E+03  0.52986307064E+03  0.10100000352E+00 0. -1.
</event>
<event>
 5   0  0.5854579E-03  0.1027348E+04  0.7818609E-02  0.9279049E-01
       -1   -1    0    0    0  501  0.00000000000E+00  0.00000000000E+00  0.44104260813E+03  0.44104260816E+03  0.50400001928E-02 0. -1.
        1   -1    0    0  501    0  0.00000000000E+00  0.00000000000E+00 -0.59826590754E+03  0.59826590756E+03  0.50400001928E-02 0.  1.
    10030    2    1    2    0    0  0.00000000000E+00  0.00000000000E+00 -0.15722329940E+03  0.10393085157E+04  0.10273475678E+04 0.  0.
        4    1    3    3  502    0 -0.20457425686E+03  0.41363080323E+03  0.14966583500E+03  0.48512116323E+03  0.12699999809E+01 0. -1.
       -4    1    3    3    0  502  0.20457425686E+03 -0.41363080323E+03 -0.30688913440E+03  0.55418735249E+03  0.12699999809E+01 0.  1.
</event>
<event>
 5   0  0.9719260E-03  0.1109464E+04  0.7818609E-02  0.9196016E-01
       -2   -1    0    0    0  501  0.00000000000E+00  0.00000000000E+00  0.28088057822E+03  0.28088057824E+03  0.25500000920E-02 0.  1.
        2   -1    0    0  501    0  0.00000000000E+00  0.00000000000E+00 -0.10955825699E+04  0.10955825699E+04  0.25500000920E-02 0. -1.
    10030    2    1    2    0    0  0.00000000000E+00  0.00000000000E+00 -0.81470199163E+03  0.13764631481E+04  0.11094644938E+04 0.  0.
        3    1    3    3  502    0 -0.14503675041E+03 -0.36693326283E+02  0.25537944620E+03  0.29597420648E+03  0.10100000352E+00 0.  1.
       -3    1    3    3    0  502  0.14503675041E+03  0.36693326283E+02 -0.10700814378E+04  0.10804889416E+04  0.10100000352E+00 0. -1.
</event>
<event>
 5   0  0.1028016E-02  0.8325888E+03  0.7818609E-02  0.9514008E-01
        2   -1    0    0  501    0  0.00000000000E+00  0.00000000000E+00  0.23012016414E+04  0.23012016414E+04  0.25500000920E-02 0.  1.
       -2   -1    0    0    0  501  0.00000000000E+00  0.00000000000E+00 -0.75308930498E+02  0.75308930541E+02  0.25500000920E-02 0. -1.
    10030    2    1    2    0    0  0.00000000000E+00  0.00000000000E+00  0.22258927109E+04  0.23765105720E+04  0.83258881695E+03 0.  0.
        2    1    3    3  502    0  0.28911671335E+03  0.41483568032E+02  0.19596471508E+04  0.19812941013E+04  0.25500000920E-02 0.  1.
       -2    1    3    3    0  502 -0.28911671335E+03 -0.41483568032E+02  0.26624556011E+03  0.39521647061E+03  0.25500000920E-02 0. -1.
</event>
<event>
 5   0  0.9925021E-03  0.1052359E+04  0.7818609E-02  0.9252912E-01
        2   -1    0    0  501    0  0.00000000000E+00  0.00000000000E+00  0.12919374281E+04  0.12919374281E+04  0.25500000920E-02 0. -1.
       -2   -1    0    0    0  501  0.00000000000E+00  0.00000000000E+00 -0.21430205212E+03  0.21430205214E+03  0.25500000920E-02 0.  1.
    10030    2    1    2    0    0  0.00000000000E+00  0.00000000000E+00  0.10776353759E+04  0.15062394802E+04  0.10523589541E+04 0.  0.
        4    1    3    3  502    0  0.40909347888E+03  0.10934711686E+03  0.91782763066E+02  0.43328968938E+03  0.12699999809E+01 0.  1.
       -4    1    3    3    0  502 -0.40909347888E+03 -0.10934711686E+03  0.98585261288E+03  0.10729497908E+04  0.12699999809E+01 0. -1.
</event>
<event>
 5   0  0.5958706E-03  0.1098134E+04  0.7818609E-02  0.9207012E-01
        1   -1    0    0  501    0  0.00000000000E+00  0.00000000000E+00  0.94362858706E+03  0.94362858708E+03  0.50400001928E-02 0.  1.
       -1   -1    0    0    0  501  0.00000000000E+00  0.00000000000E+00 -0.31948463847E+03  0.31948463851E+03  0.50400001928E-02 0. -1.
    10030    2    1    2    0    0  0.00000000000E+00  0.00000000000E+00  0.62414394860E+03  0.12631132256E+04  0.10981344872E+04 0.  0.
        2    1    3    3  502    0  0.13965445685E+03 -0.11670181367E+03 -0.28378125464E+03  0.33712680273E+03  0.25500000920E-02 0. -1.
       -2    1    3    3    0  502 -0.13965445685E+03  0.11670181367E+03  0.90792520323E+03  0.92598642285E+03  0.25500000920E-02 0.  1.
</event>
<event>
 5   0  0.5712664E-03  0.1101088E+04  0.7818609E-02  0.9204132E-01
        1   -1    0    0  501    0  0.00000000000E+00  0.00000000000E+00  0.82404369232E+03  0.82404369233E+03  0.50400001928E-02 0.  1.
       -1   -1    0    0    0  501  0.00000000000E+00  0.00000000000E+00 -0.36781873463E+03  0.36781873466E+03  0.50400001928E-02 0. -1.
    10030    2    1    2    0    0  0.00000000000E+00  0.00000000000E+00  0.45622495769E+03  0.11918624270E+04  0.11010880223E+04 0.  0.
        5    1    3    3  502    0  0.14302810829E+03  0.13239931295E+03 -0.32920256142E+03  0.38260035844E+03  0.46999998093E+01 0. -1.
       -5    1    3    3    0  502 -0.14302810829E+03 -0.13239931295E+03  0.78542751911E+03  0.80926206856E+03  0.46999998093E+01 0.  1.
</event>
<event>
 5   0  0.1019384E-02  0.1055716E+04  0.7818609E-02  0.9249462E-01
        2   -1    0    0  501    0  0.00000000000E+00  0.00000000000E+00  0.22089102191E+03  0.22089102193E+03  0.25500000920E-02 0.  1.
       -2   -1    0    0    0  501  0.00000000000E+00  0.00000000000E+00 -0.12614099237E+04  0.12614099237E+04  0.25500000920E-02 0. -1.
    10030    2    1    2    0    0  0.00000000000E+00  0.00000000000E+00 -0.10405189018E+04  0.14823009457E+04  0.10557161117E+04 0.  0.
        1    1    3    3  502    0  0.39983548434E+03  0.12440007111E+03 -0.69007514211E+02  0.42438877137E+03  0.50400001928E-02 0.  1.
       -1    1    3    3    0  502 -0.39983548434E+03 -0.12440007111E+03 -0.97151138761E+03  0.10579121743E+04  0.50400001928E-02 0. -1.
</event>
<event>
 5   0  0.1028016E-02  0.1094335E+04  0.7818609E-02  0.9210731E-01
        2   -1    0    0  501    0  0.00000000000E+00  0.00000000000E+00  0.14903588330E+04  0.14903588330E+04  0.25500000920E-02 0. -1.
       -2   -1    0    0    0  501  0.00000000000E+00  0.00000000000E+00 -0.20088590216E+03  0.20088590217E+03  0.25500000920E-02 0.  1.
    10030    2    1    2    0    0  0.00000000000E+00  0.00000000000E+00  0.12894729309E+04  0.16912447352E+04  0.10943346448E+04 0.  0.
        2    1    3    3  502    0  0.79581953951E+02  0.50764964570E+03  0.35416371839E+03  0.62407803167E+03  0.25500000920E-02 0.  1.
       -2    1    3    3    0  502 -0.79581953951E+02 -0.50764964570E+03  0.93530921247E+03  0.10671667035E+04  0.25500000920E-02 0. -1.
</event>
<event>
 5   0  0.5789905E-03  0.1117537E+04  0.7818609E-02  0.9188265E-01
       -1   -1    0    0    0  501  0.00000000000E+00  0.00000000000E+00  0.11480245236E+04  0.11480245236E+04  0.50400001928E-02 0.  1.
        1   -1    0    0  501    0  0.00000000000E+00  0.00000000000E+00 -0.27196496080E+03  0.27196496085E+03  0.50400001928E-02 0. -1.
    10030    2    1    2    0    0  0.00000000000E+00  0.00000000000E+00  0.87605956277E+03  0.14199894844E+04  0.11175373723E+04 0.  0.
        1    1    3    3  502    0  0.11635537221E+03  0.48523318335E+03  0.11851298400E+03  0.51286951778E+03  0.50400001928E-02 0. -1.
       -1    1    3    3    0  502 -0.11635537221E+03 -0.48523318335E+03  0.75754657877E+03  0.90711996665E+03  0.50400001928E-02 0.  1.
</event>
<event>
 5   0  0.5998641E-03  0.1091185E+04  0.7818609E-02  0.9213827E-01
       -1   -1    0    0    0  501  0.00000000000E+00  0.00000000000E+00  0.28664614717E+03  0.28664614721E+03  0.50400001928E-02 0.  1.
        1   -1    0    0  501    0  0.00000000000E+00  0.00000000000E+00 -0.10384616717E+04  0.10384616718E+04  0.50400001928E-02 0. -1.
    10030    2    1    2    0    0  0.00000000000E+00  0.00000000000E+00 -0.75181552457E+03  0.13251078190E+04  0.10911847455E+04 0.  0.
        3    1    3    3  502    0  0.35801369188E+03 -0.36742232480E+03 -0.15035390482E+03  0.53458327250E+03  0.10100000352E+00 0. -1.
       -3    1    3    3    0  502 -0.35801369188E+03  0.36742232480E+03 -0.60146161974E+03  0.79052454647E+03  0.10100000352E+00 0.  1.
</event>
<event>
 5   0  0.5854579E-03  0.1101464E+04  0.7818609E-02  0.9203767E-01
        1   -1    0    0  501    0  0.00000000000E+00  0.00000000000E+00  0.71031757150E+03  0.71031757152E+03  0.50400001928E-02 0.  1.
       -1   -1    0    0    0  501  0.00000000000E+00  0.00000000000E+00 -0.42699982341E+03  0.42699982344E+03  0.50400001928E-02 0. -1.
    10030    2    1    2    0    0  0.00000000000E+00  0.00000000000E+00  0.28331774809E+03  0.11373173950E+04  0.11014635312E+04 0.  0.
        4    1    3    3  502    0 -0.48574309850E+03 -0.17727603192E+03 -0.54065310294E+02  0.51990174063E+03  0.12699999809E+01 0. -1.
       -4    1    3    3    0  502  0.48574309850E+03  0.17727603192E+03  0.33738305838E+03  0.61741565433E+03  0.12699999809E+01 0.  1.
</event>
<event>
 5   0  0.3949750E-03  0.1063070E+04  0.7818609E-02  0.9241953E-01
       -3   -1    0    0    0  501  0.00000000000E+00  0.00000000000E+00  0.30126870221E+03  0.30126871914E+03  0.10100000352E+00 0.  1.
        3   -1    0    0  501    0  0.00000000000E+00  0.00000000000E+00 -0.93779884560E+03  0.93779885104E+03  0.10100000352E+00 0. -1.
    10030    2    1    2    0    0  0.00000000000E+00  0.00000000000E+00 -0.63653014339E+03  0.12390675702E+04  0.10630699977E+04 0.  0.
        2    1    3    3  502    0  0.32238014357E+03  0.29072369679E+03  0.39240088292E+02  0.43587728706E+03  0.25500000920E-02 0.  1.
       -2    1    3    3    0  502 -0.32238014357E+03 -0.29072369679E+03 -0.67577023168E+03  0.80319028311E+03  0.25500000920E-02 0. -1.
</event>
<event>
 5   0  0.5789905E-03  0.1103755E+04  0.7818609E-02  0.9201540E-01
        1   -1    0    0  501    0  0.00000000000E+00  0.00000000000E+00  0.80742274902E+03  0.80742274903E+03  0.50400001928E-02 0. -1.
       -1   -1    0    0    0  501  0.00000000000E+00  0.00000000000E+00 -0.37721116824E+03  0.37721116827E+03  0.50400001928E-02 0.  1.
    10030    2    1    2    0    0  0.00000000000E+00  0.00000000000E+00  0.43021158078E+03  0.11846339173E+04  0.11037551874E+04 0.  0.
        1    1    3    3  502    0 -0.33522606677E+02  0.54429569432E+03  0.30609598754E+03  0.62536095307E+03  0.50400001928E-02 0. -1.
       -1    1    3    3    0  502  0.33522606677E+02 -0.54429569432E+03  0.12411559323E+03  0.55927296423E+03  0.50400001928E-02 0.  1.
</event>
<event>
 5   0  0.9719260E-03  0.1069419E+04  0.7818609E-02  0.9235522E-01
       -2   -1    0    0    0  501  0.00000000000E+00  0.00000000000E+00  0.50832099042E+03  0.50832099043E+03  0.25500000920E-02 0.  1.
        2   -1    0    0  501    0  0.00000000000E+00  0.00000000000E+00 -0.56246753484E+03  0.56246753485E+03  0.25500000920E-02 0. -1.
    10030    2    1    2    0    0  0.00000000000E+00  0.00000000000E+00 -0.54146544424E+02  0.10707885253E+04  0.10694186353E+04 0.  0.
        3    1    3    3  502    0 -0.27647112046E+03 -0.45536321650E+03 -0.73198590500E+02  0.53772668079E+03  0.10100000352E+00 0. -1.
       -3    1    3    3    0  502  0.27647112046E+03  0.45536321650E+03  0.19052046076E+02  0.53306184448E+03  0.10100000352E+00 0.  1.
</event>
<event>
 5   0  0.5958706E-03  0.1105581E+04  0.7818609E-02  0.9199769E-01
        1   -1    0    0  501    0  0.00000000000E+00  0.00000000000E+00  0.29781272214E+03  0.29781272218E+03  0.50400001928E-02 0.  1.
       -1   -1    0    0    0  501  0.00000000000E+00  0.00000000000E+00 -0.10260721778E+04  0.10260721779E+04  0.50400001928E-02 0. -1.
    10030    2    1    2    0    0  0.00000000000E+00  0.00000000000E+00 -0.72825945570E+03  0.13238849000E+04  0.11055810209E+04 0.  0.
        2    1    3    3  502    0 -0.10686107400E+03 -0.53764465469E+03 -0.27864540237E+03  0.61491814425E+03  0.25500000920E-02 0.  1.
       -2    1    3    3    0  502  0.10686107400E+03  0.53764465469E+03 -0.44961405333E+03  0.70896675579E+03  0.25500000920E-02 0. -1.
</event>
<event>
 5   0  0.1019384E-02  0.1096181E+04  0.7818609E-02  0.9208922E-01
        2   -1    0    0  501    0  0.00000000000E+00  0.00000000000E+00  0.61310860036E+03  0.61310860037E+03  0.25500000920E-02 0.  1.
       -2   -1    0    0    0  501  0.00000000000E+00  0.00000000000E+00 -0.48996734421E+03  0.48996734422E+03  0.25500000920E-02 0. -1.
    10030    2    1    2    0    0  0.00000000000E+00  0.00000000000E+00  0.12314125615E+03  0.11030759446E+04  0.10961809935E+04 0.  0.
        1    1    3    3  502    0  0.52199531651E+03 -0.13226165542E+03  0.16434499264E+03  0.56301113007E+03  0.50400001928E-02 0. -1.
       -1    1    3    3    0  502 -0.52199531651E+03  0.13226165542E+03 -0.41203736486E+02  0.54006481452E+03  0.50400001928E-02 0.  1.
</event>
<event>
 5   0  0.5958706E-03  0.1113542E+04  0.7818609E-02  0.9192093E-01
        1   -1    0    0  501    0  0.00000000000E+00  0.00000000000E+00  0.64874918081E+03  0.64874918083E+03  0.50400001928E-02 0. -1.
       -1   -1    0    0    0  501  0.00000000000E+00  0.00000000000E+00 -0.47783321770E+03  0.47783321773E+03  0.50400001928E-02 0.  1.
    10030    2    1    2    0    0  0.00000000000E+00  0.00000000000E+00  0.17091596311E+03  0.11265823986E+04  0.11135419320E+04 0.  0.
        2    1    3    3  502    0  0.37898789920E+03  0.66776251347E+02 -0.32162584820E+03  0.50153173551E+03  0.25500000920E-02 0.  1.
       -2    1    3    3    0  502 -0.37898789920E+03 -0.66776251347E+02  0.49254181132E+03  0.62505066305E+03  0.25500000920E-02 0. -1.
</event>
<event>
 5   0  0.5998641E-03  0.1126371E+04  0.7818609E-02  0.9179863E-01
        1   -1    0    0  501    0  0.00000000000E+00  0.00000000000E+00  0.79926664294E+03  0.79926664295E+03  0.50400001928E-02 0. -1.
       -1   -1    0    0    0  501  0.00000000000E+00  0.00000000000E+00 -0.39683634214E+03  0.39683634217E+03  0.50400001928E-02 0.  1.
    10030    2    1    2    0    0  0.00000000000E+00  0.00000000000E+00  0.40243030080E+03  0.11961029851E+04  0.11263712550E+04 0.  0.
        3    1    3    3  502    0 -0.43923229172E+03 -0.21304903626E+03  0.49942642284E+03  0.69838503705E+03  0.10100000352E+00 0. -1.
       -3    1    3    3    0  502  0.43923229172E+03  0.21304903626E+03 -0.96996122040E+02  0.49771794808E+03  0.10100000352E+00 0.  1.
</event>
<event>
 5   0  0.9925021E-03  0.1260928E+04  0.7818609E-02  0.9061137E-01
        2   -1    0    0  501    0  0.00000000000E+00  0.00000000000E+00  0.20933060635E+04  0.20933060635E+04  0.25500000920E-02 0. -1.
       -2   -1    0    0    0  501  0.00000000000E+00  0.00000000000E+00 -0.18988379202E+03  0.18988379204E+03  0.25500000920E-02 0.  1.
    10030    2    1    2    0    0  0.00000000000E+00  0.00000000000E+00  0.19034222715E+04  0.22831898555E+04  0.12609280602E+04 0.  0.
        4    1    3    3  502    0 -0.60265695706E+03  0.92421624184E+02  0.12422522354E+04  0.13838097390E+04  0.12699999809E+01 0. -1.
       -4    1    3    3    0  502  0.60265695706E+03 -0.92421624184E+02  0.66117003606E+03  0.89938011652E+03  0.12699999809E+01 0.  1.
</event>
<event>
 5   0  0.5854579E-03  0.1146128E+04  0.7818609E-02  0.9161363E-01
        1   -1    0    0  501    0  0.00000000000E+00  0.00000000000E+00  0.57444842822E+03  0.57444842824E+03  0.50400001928E-02 0. -1.
       -1   -1    0    0    0  501  0.00000000000E+00  0.00000000000E+00 -0.57168246100E+03  0.57168246102E+03  0.50400001928E-02 0.  1.
    10030    2    1    2    0    0  0.00000000000E+00  0.00000000000E+00  0.27659672249E+01  0.11461308893E+04  0.11461275517E+04 0.  0.
        4    1    3    3  502    0  0.48239186056E+03  0.25836692758E+03  0.17151607993E+03  0.57347602825E+03  0.12699999809E+01 0. -1.
       -4    1    3    3    0  502 -0.48239186056E+03 -0.25836692758E+03 -0.16875011270E+03  0.57265486101E+03  0.12699999809E+01 0.  1.
</event>
<event>
 5   0  0.1028016E-02  0.1201492E+04  0.7818609E-02  0.9111552E-01
       -2   -1    0    0    0  501  0.00000000000E+00  0.00000000000E+00  0.33352356275E+03  0.33352356276E+03  0.25500000920E-02 0.  1.
        2   -1    0    0  501    0  0.00000000000E+00  0.00000000000E+00 -0.10820698451E+04  0.10820698451E+04  0.25500000920E-02 0. -1.
    10030    2    1    2    0    0  0.00000000000E+00  0.00000000000E+00 -0.74854628232E+03  0.14155934078E+04  0.12014920555E+04 0.  0.
        2    1    3    3  502    0  0.28842980832E+03  0.52093155899E+03 -0.46804413789E+03  0.75738151450E+03  0.25500000920E-02 0.  1.
       -2    1    3    3    0  502 -0.28842980832E+03 -0.52093155899E+03 -0.28050214443E+03  0.65821189333E+03  0.25500000920E-02 0. -1.
</event>
<event>
 5   0  0.5998641E-03  0.1296544E+04  0.7818609E-02  0.9032310E-01
       -1   -1    0    0    0  501  0.00000000000E+00  0.00000000000E+00  0.43382105187E+03  0.43382105190E+03  0.50400001928E-02 0.  1.
        1   -1    0    0  501    0  0.00000000000E+00  0.00000000000E+00 -0.96873277195E+03  0.96873277196E+03  0.50400001928E-02 0. -1.
    10030    2    1    2    0    0  0.00000000000E+00  0.00000000000E+00 -0.53491172008E+03  0.14025538239E+04  0.12965441298E+04 0.  0.
        3    1    3    3  502    0  0.37898644970E+03 -0.19552204737E+03  0.26072502608E+03  0.49983712296E+03  0.10100000352E+00 0.  1.
       -3    1    3    3    0  502 -0.37898644970E+03  0.19552204737E+03 -0.79563674615E+03  0.90271670091E+03  0.10100000352E+00 0. -1.
</event>
<event>
 5   0  0.9719260E-03  0.1106433E+04  0.7818609E-02  0.9198945E-01
        2   -1    0    0  501    0  0.00000000000E+00  0.00000000000E+00  0.12783085880E+04  0.12783085880E+04  0.25500000920E-02 0. -1.
       -2   -1    0    0    0  501  0.00000000000E+00  0.00000000000E+00 -0.23941656226E+03  0.23941656228E+03  0.25500000920E-02 0.  1.
    10030    2    1    2    0    0  0.00000000000E+00  0.00000000000E+00  0.10388920258E+04  0.15177251503E+04  0.11064325513E+04 0.  0.
        3    1    3    3  502    0 -0.19992899708E+03 -0.48736839224E+03  0.28767387211E+03  0.60021314591E+03  0.10100000352E+00 0.  1.
       -3    1    3    3    0  502  0.19992899708E+03  0.48736839224E+03  0.75121815366E+03  0.91751200440E+03  0.10100000352E+00 0. -1.
</event>
<event>
 5   0  0.5958706E-03  0.1125224E+04  0.7818609E-02  0.9180950E-01
        1   -1    0    0  501    0  0.00000000000E+00  0.00000000000E+00  0.71530321929E+03  0.71530321931E+03  0.50400001928E-02 0.  1.
       -1   -1    0    0    0  501  0.00000000000E+00  0.00000000000E+00 -0.44251470230E+03  0.44251470233E+03  0.50400001928E-02 0. -1.
    10030    2    1    2    0    0  0.00000000000E+00  0.00000000000E+00  0.27278851700E+03  0.11578179216E+04  0.11252238731E+04 0.  0.
        2    1    3    3  502    0  0.45747841457E+03 -0.76682150691E+02 -0.19120770586E+03  0.50172406641E+03  0.25500000920E-02 0. -1.
       -2    1    3    3    0  502 -0.45747841457E+03  0.76682150691E+02  0.46399622286E+03  0.65609385523E+03  0.25500000920E-02 0.  1.
</event>
<event>
 5   0  0.1028016E-02  0.1165806E+04  0.7818609E-02  0.9143325E-01
       -2   -1    0    0    0  501  0.00000000000E+00  0.00000000000E+00  0.99035155521E+03  0.99035155522E+03  0.25500000920E-02 0. -1.
        2   -1    0    0  501    0  0.00000000000E+00  0.00000000000E+00 -0.34308608118E+03  0.34308608119E+03  0.25500000920E-02 0.  1.
    10030    2    1    2    0    0  0.00000000000E+00  0.00000000000E+00  0.64726547404E+03  0.13334376364E+04  0.11658058742E+04 0.  0.
        2    1    3    3  502    0  0.25663106629E+03  0.51691969898E+03  0.22993713461E+03  0.62123792967E+03  0.25500000920E-02 0.  1.
       -2    1    3    3    0  502 -0.25663106629E+03 -0.51691969898E+03  0.41732833943E+03  0.71219970673E+03  0.25500000920E-02 0. -1.
</event>
<event>
 5   0  0.1019384E-02  0.1074400E+04  0.7818609E-02  0.9230509E-01
       -2   -1    0    0    0  501  0.00000000000E+00  0.00000000000E+00  0.15542072441E+03  0.15542072443E+03  0.25500000920E-02 0.  1.
        2   -1    0    0  501    0  0.00000000000E+00  0.00000000000E+00 -0.18567924099E+04  0.18567924099E+04  0.25500000920E-02 0. -1.
    10030    2    1    2    0    0  0.00000000000E+00  0.00000000000E+00 -0.17013716855E+04  0.20122131343E+04  0.10744003378E+04 0.  0.
        1    1    3    3  502    0 -0.31608067015E+01 -0.47137103409E+02  0.15152257885E+03  0.15871669460E+03  0.50400001928E-02 0.  1.
       -1    1    3    3    0  502  0.31608067015E+01  0.47137103409E+02 -0.18528942643E+04  0.18534964397E+04  0.50400001928E-02 0. -1.
</event>
<event>
 5   0  0.5789905E-03  0.1103411E+04  0.7818609E-02  0.9201873E-01
       -1   -1    0    0    0  501  0.00000000000E+00  0.00000000000E+00  0.82910333566E+03  0.82910333568E+03  0.50400001928E-02 0.  1.
        1   -1    0    0  501    0  0.00000000000E+00  0.00000000000E+00 -0.36711842895E+03  0.36711842898E+03  0.50400001928E-02 0. -1.
    10030    2    1    2    0    0  0.00000000000E+00  0.00000000000E+00  0.46198490672E+03  0.11962217647E+04  0.11034112815E+04 0.  0.
        1    1    3    3  502    0 -0.44067890980E+03  0.56416743610E+02 -0.12362723816E+03  0.46115555352E+03  0.50400001928E-02 0. -1.
       -1    1    3    3    0  502  0.44067890980E+03 -0.56416743610E+02  0.58561214488E+03  0.73506621114E+03  0.50400001928E-02 0.  1.
</event>
<event>
 5   0  0.5958706E-03  0.1160784E+04  0.7818609E-02  0.9147892E-01
       -1   -1    0    0    0  501  0.00000000000E+00  0.00000000000E+00  0.48631732103E+03  0.48631732105E+03  0.50400001928E-02 0. -1.
        1   -1    0    0  501    0  0.00000000000E+00  0.00000000000E+00 -0.69266515081E+03  0.69266515083E+03  0.50400001928E-02 0.  1.
    10030    2    1    2    0    0  0.00000000000E+00  0.00000000000E+00 -0.20634782978E+03  0.11789824719E+04  0.11607843220E+04 0.  0.
        2    1    3    3  502    0 -0.21068724978E+03 -0.29742175078E+03 -0.56192546665E+03  0.66978283431E+03  0.25500000920E-02 0. -1.
       -2    1    3    3    0  502  0.21068724978E+03  0.29742175078E+03  0.35557763687E+03  0.50919963757E+03  0.25500000920E-02 0.  1.
</event>
<event>
 5   0  0.1028016E-02  0.1106268E+04  0.7818609E-02  0.9199104E-01
        2   -1    0    0  501    0  0.00000000000E+00  0.00000000000E+00  0.17617321601E+04  0.17617321601E+04  0.25500000920E-02 0.  1.
       -2   -1    0    0    0  501  0.00000000000E+00  0.00000000000E+00 -0.17366841744E+03  0.17366841745E+03  0.25500000920E-02 0. -1.
    10030    2    1    2    0    0  0.00000000000E+00  0.00000000000E+00  0.15880637427E+04  0.19354005776E+04  0.11062680258E+04 0.  0.
        2    1    3    3  502    0 -0.10002281239E+03  0.50320912609E+03  0.43237771481E+03  0.67095042727E+03  0.25500000920E-02 0.  1.
       -2    1    3    3    0  502  0.10002281239E+03 -0.50320912609E+03  0.11556860279E+04  0.12644501503E+04  0.25500000920E-02 0. -1.
</event>
<event>
 5   0  0.9925021E-03  0.1052643E+04  0.7818609E-02  0.9252620E-01
        2   -1    0    0  501    0  0.00000000000E+00  0.00000000000E+00  0.20497059031E+04  0.20497059031E+04  0.25500000920E-02 0. -1.
       -2   -1    0    0    0  501  0.00000000000E+00  0.00000000000E+00 -0.13514832352E+03  0.13514832355E+03  0.25500000920E-02 0.  1.
    10030    2    1    2    0    0  0.00000000000E+00  0.00000000000E+00  0.19145575795E+04  0.21848542266E+04  0.10526429908E+04 0.  0.
        4    1    3    3  502    0  0.18989641334E+03 -0.10433183944E+03 -0.38283539959E+02  0.22002959540E+03  0.12699999809E+01 0.  1.
       -4    1    3    3    0  502 -0.18989641334E+03  0.10433183944E+03  0.19528411195E+04  0.19648246312E+04  0.12699999809E+01 0. -1.
</event>
<event>
 5   0  0.9719260E-03  0.7918458E+03  0.7818609E-02  0.9571896E-01
        2   -1    0    0  501    0  0.00000000000E+00  0.00000000000E+00  0.44104638414E+03  0.44104638414E+03  0.25500000920E-02 0.  1.
       -2   -1    0    0    0  501  0.00000000000E+00  0.00000000000E+00 -0.35541596273E+03  0.35541596274E+03  0.25500000920E-02 0. -1.
    10030    2    1    2    0    0  0.00000000000E+00  0.00000000000E+00  0.85630421408E+02  0.79646234688E+03  0.79184575577E+03 0.  0.
        3    1    3    3  502    0  0.21239396129E+02 -0.40208062520E+02  0.43841105929E+03  0.44076305126E+03  0.10100000352E+00 0.  1.
       -3    1    3    3    0  502 -0.21239396129E+02  0.40208062520E+02 -0.35278063789E+03  0.35569929562E+03  0.10100000352E+00 0. -1.
</event>
<event>
 5   0  0.9692981E-03  0.1065213E+04  0.7818609E-02  0.9239777E-01
       -2   -1    0    0    0  501  0.00000000000E+00  0.00000000000E+00  0.21492012007E+03  0.21492012009E+03  0.25500000920E-02 0. -1.
        2   -1    0    0  501    0  0.00000000000E+00  0.00000000000E+00 -0.13198838474E+04  0.13198838474E+04  0.25500000920E-02 0.  1.
    10030    2    1    2    0    0  0.00000000000E+00  0.00000000000E+00 -0.11049637273E+04  0.15348039674E+04  0.10652128331E+04 0.  0.
        5    1    3    3  502    0 -0.12209254738E+03  0.10003675012E+03  0.18041507599E+03  0.23976161315E+03  0.46999998093E+01 0. -1.
       -5    1    3    3    0  502  0.12209254738E+03 -0.10003675012E+03 -0.12853788033E+04  0.12950423543E+04  0.46999998093E+01 0.  1.
</event>
<event>
 5   0  0.5854579E-03  0.1104106E+04  0.7818609E-02  0.9201199E-01
       -1   -1    0    0    0  501  0.00000000000E+00  0.00000000000E+00  0.18574723308E+03  0.18574723315E+03  0.50400001928E-02 0. -1.
        1   -1    0    0  501    0  0.00000000000E+00  0.00000000000E+00 -0.16407389061E+04  0.16407389061E+04  0.50400001928E-02 0.  1.
    10030    2    1    2    0    0  0.00000000000E+00  0.00000000000E+00 -0.14549916730E+04  0.18264861392E+04  0.11041063574E+04 0.  0.
        4    1    3    3  502    0 -0.11505793586E+03  0.43042996414E+03 -0.12667278849E+04  0.13427991026E+04  0.12699999809E+01 0.  1.
       -4    1    3    3    0  502  0.11505793586E+03 -0.43042996414E+03 -0.18826378813E+03  0.48368703668E+03  0.12699999809E+01 0. -1.
</event>
<event>
 5   0  0.5998641E-03  0.1104170E+04  0.7818609E-02  0.9201137E-01
       -1   -1    0    0    0  501  0.00000000000E+00  0.00000000000E+00  0.29857553127E+03  0.29857553131E+03  0.50400001928E-02 0.  1.
        1   -1    0    0  501    0  0.00000000000E+00  0.00000000000E+00 -0.10208395904E+04  0.10208395904E+04  0.50400001928E-02 0. -1.
    10030    2    1    2    0    0  0.00000000000E+00  0.00000000000E+00 -0.72226405912E+03  0.13194151217E+04  0.11041697751E+04 0.  0.
        3    1    3    3  502    0 -0.32153299487E+03 -0.88544467593E+02 -0.88686988941E+03  0.94750292900E+03  0.10100000352E+00 0. -1.
       -3    1    3    3    0  502  0.32153299487E+03  0.88544467593E+02  0.16460583028E+03  0.37191219272E+03  0.10100000352E+00 0.  1.
</event>
<event>
 5   0  0.5854579E-03  0.1113564E+04  0.7818609E-02  0.9192072E-01
       -1   -1    0    0    0  501  0.00000000000E+00  0.00000000000E+00  0.28536166129E+03  0.28536166133E+03  0.50400001928E-02 0. -1.
        1   -1    0    0  501    0  0.00000000000E+00  0.00000000000E+00 -0.10863621757E+04  0.10863621757E+04  0.50400001928E-02 0.  1.
    10030    2    1    2    0    0  0.00000000000E+00  0.00000000000E+00 -0.80100051442E+03  0.13717238371E+04  0.11135638558E+04 0.  0.
        4    1    3    3  502    0 -0.27558958133E+03 -0.32015768294E+03  0.46289794387E+02  0.42496460706E+03  0.12699999809E+01 0. -1.
       -4    1    3    3    0  502  0.27558958133E+03  0.32015768294E+03 -0.84729030880E+03  0.94675922999E+03  0.12699999809E+01 0.  1.
</event>
<event>
 5   0  0.9925021E-03  0.8645242E+03  0.7818609E-02  0.9471048E-01
        2   -1    0    0  501    0  0.00000000000E+00  0.00000000000E+00  0.16121111801E+04  0.16121111801E+04  0.25500000920E-02 0.  1.
       -2   -1    0    0    0  501  0.00000000000E+00  0.00000000000E+00 -0.11590423700E+03  0.11590423702E+03  0.25500000920E-02 0. -1.
    10030    2    1    2    0    0  0.00000000000E+00  0.00000000000E+00  0.14962069431E+04  0.17280154171E+04  0.86452418430E+03 0.  0.
        4    1    3    3  502    0 -0.99003698026E+02 -0.26253863333E+03  0.14053446480E+04  0.14330818046E+04  0.12699999809E+01 0.  1.
       -4    1    3    3    0  502  0.99003698026E+02  0.26253863333E+03  0.90862295117E+02  0.29493361251E+03  0.12699999809E+01 0. -1.
</event>
<event>
 5   0  0.9925021E-03  0.1079915E+04  0.7818609E-02  0.9224992E-01
        2   -1    0    0  501    0  0.00000000000E+00  0.00000000000E+00  0.79690463805E+03  0.79690463805E+03  0.25500000920E-02 0. -1.
       -2   -1    0    0    0  501  0.00000000000E+00  0.00000000000E+00 -0.36585847161E+03  0.36585847162E+03  0.25500000920E-02 0.  1.
    10030    2    1    2    0    0  0.00000000000E+00  0.00000000000E+00  0.43104616643E+03  0.11627631097E+04  0.10799153910E+04 0.  0.
        4    1    3    3  502    0  0.27211860212E+03 -0.67937516428E+02 -0.28127255981E+03  0.39721518798E+03  0.12699999809E+01 0.  1.
       -4    1    3    3    0  502 -0.27211860212E+03  0.67937516428E+02  0.71231872625E+03  0.76554792170E+03  0.12699999809E+01 0. -1.
</event>
<event>
 5   0  0.5712664E-03  0.1100051E+04  0.7818609E-02  0.9205142E-01
        1   -1    0    0  501    0  0.00000000000E+00  0.00000000000E+00  0.82441038728E+03  0.82441038729E+03  0.50400001928E-02 0. -1.
       -1   -1    0    0    0  501  0.00000000000E+00  0.00000000000E+00 -0.36696293303E+03  0.36696293306E+03  0.50400001928E-02 0.  1.
    10030    2    1    2    0    0  0.00000000000E+00  0.00000000000E+00  0.45744745425E+03  0.11913733204E+04  0.11000510057E+04 0.  0.
        5    1    3    3  502    0 -0.53164452485E+03 -0.14085640315E+03  0.22393676331E+03  0.59384862639E+03  0.46999998093E+01 0.  1.
       -5    1    3    3    0  502  0.53164452485E+03  0.14085640315E+03  0.23351069094E+03  0.59752469396E+03  0.46999998093E+01 0. -1.
</event>
<event>
 5   0  0.1028016E-02  0.1080939E+04  0.7818609E-02  0.9223972E-01
        2   -1    0    0  501    0  0.00000000000E+00  0.00000000000E+00  0.28784058362E+04  0.28784058362E+04  0.25500000920E-02 0. -1.
       -2   -1    0    0    0  501  0.00000000000E+00  0.00000000000E+00 -0.10148225512E+03  0.10148225515E+03  0.25500000920E-02 0.  1.
    10030    2    1    2    0    0  0.00000000000E+00  0.00000000000E+00  0.27769235811E+04  0.29798880914E+04  0.10809386947E+04 0.  0.
        2    1    3    3  502    0 -0.44332526494E+03 -0.27507744584E+03  0.99955126912E+03  0.11275227853E+04  0.25500000920E-02 0.  1.
       -2    1    3    3    0  502  0.44332526494E+03  0.27507744584E+03  0.17773723120E+04  0.18523653061E+04  0.25500000920E-02 0. -1.
</event>
<event>
 5   0  0.5958706E-03  0.1196540E+04  0.7818609E-02  0.9115891E-01
        1   -1    0    0  501    0  0.00000000000E+00  0.00000000000E+00  0.90948674412E+03  0.90948674414E+03  0.50400001928E-02 0. -1.
       -1   -1    0    0    0  501  0.00000000000E+00  0.00000000000E+00 -0.39354811126E+03  0.39354811129E+03  0.50400001928E-02 0.  1.
    10030    2    1    2    0    0  0.00000000000E+00  0.00000000000E+00  0.51593863286E+03  0.13030348554E+04  0.11965396615E+04 0.  0.
        2    1    3    3  502    0 -0.19084173507E+03  0.56623385218E+03  0.22556444778E+03  0.63868667068E+03  0.25500000920E-02 0. -1.
       -2    1    3    3    0  502  0.19084173507E+03 -0.56623385218E+03  0.29037418509E+03  0.66434818474E+03  0.25500000920E-02 0.  1.
</event>
<event>
 5   0  0.5998641E-03  0.5905099E+03  0.7818609E-02  0.9925293E-01
        1   -1    0    0  501    0  0.00000000000E+00  0.00000000000E+00  0.43947282824E+03  0.43947282827E+03  0.50400001928E-02 0. -1.
       -1   -1    0    0    0  501  0.00000000000E+00  0.00000000000E+00 -0.19836377662E+03  0.19836377668E+03  0.50400001928E-02 0.  1.
    10030    2    1    2    0    0  0.00000000000E+00  0.00000000000E+00  0.24110905162E+03  0.63783660495E+03  0.59050991511E+03 0.  0.
        3    1    3    3  502    0 -0.21630670343E+03  0.82855338061E+02 -0.77209114062E+02  0.24416153360E+03  0.10100000352E+00 0.  1.
       -3    1    3    3    0  502  0.21630670343E+03 -0.82855338061E+02  0.31831816569E+03  0.39367507135E+03  0.10100000352E+00 0. -1.
</event>
<event>
 5   0  0.9719260E-03  0.1094903E+04  0.7818609E-02  0.9210174E-01
        2   -1    0    0  501    0  0.00000000000E+00  0.00000000000E+00  0.26161392362E+03  0.26161392363E+03  0.25500000920E-02 0. -1.
       -2   -1    0    0    0  501  0.00000000000E+00  0.00000000000E+00 -0.11455939309E+04  0.11455939309E+04  0.25500000920E-02 0.  1.
    10030    2    1    2    0    0  0.00000000000E+00  0.00000000000E+00 -0.88398000728E+03  0.14072078545E+04  0.10949033257E+04 0.  0.
        3    1    3    3  502    0  0.29105871030E+03  0.38141328043E+03 -0.10313607691E+03  0.49074262490E+03  0.10100000352E+00 0. -1.
       -3    1    3    3    0  502 -0.29105871030E+03 -0.38141328043E+03 -0.78084393038E+03  0.91646522964E+03  0.10100000352E+00 0.  1.
</event>
<event>
 5   0  0.1019384E-02  0.1090609E+04  0.7818609E-02  0.9214393E-01
       -2   -1    0    0    0  501  0.00000000000E+00  0.00000000000E+00  0.38406927614E+03  0.38406927615E+03  0.25500000920E-02 0.  1.
        2   -1    0    0  501    0  0.00000000000E+00  0.00000000000E+00 -0.77422775328E+03  0.77422775329E+03  0.25500000920E-02 0. -1.
    10030    2    1    2    0    0  0.00000000000E+00  0.00000000000E+00 -0.39015847714E+03  0.11582970294E+04  0.10906091743E+04 0.  0.
        1    1    3    3  502    0  0.13167364991E+02 -0.54513034604E+03 -0.19074957369E+03  0.57769011898E+03  0.50400001928E-02 0.  1.
       -1    1    3    3    0  502 -0.13167364991E+02  0.54513034604E+03 -0.19940890346E+03  0.58060691046E+03  0.50400001928E-02 0. -1.
</event>
<event>
 5   0  0.5854579E-03  0.1104611E+04  0.7818609E-02  0.9200709E-01
        1   -1    0    0  501    0  0.00000000000E+00  0.00000000000E+00  0.61592162164E+03  0.61592162166E+03  0.50400001928E-02 0.  1.
       -1   -1    0    0    0  501  0.00000000000E+00  0.00000000000E+00 -0.49526033743E+03  0.49526033745E+03  0.50400001928E-02 0. -1.
    10030    2    1    2    0    0  0.00000000000E+00  0.00000000000E+00  0.12066128421E+03  0.11111819591E+04  0.11046113347E+04 0.  0.
        4    1    3    3  502    0  0.35219103062E+03 -0.37270430636E+03 -0.14605533645E+03  0.53317989107E+03  0.12699999809E+01 0. -1.
       -4    1    3    3    0  502 -0.35219103062E+03  0.37270430636E+03  0.26671662066E+03  0.57800206805E+03  0.12699999809E+01 0.  1.
</event>
<event>
 5   0  0.5854579E-03  0.1084048E+04  0.7818609E-02  0.9220881E-01
        1   -1    0    0  501    0  0.00000000000E+00  0.00000000000E+00  0.36265359138E+03  0.36265359141E+03  0.50400001928E-02 0. -1.
       -1   -1    0    0    0  501  0.00000000000E+00  0.00000000000E+00 -0.81011229538E+03  0.81011229539E+03  0.50400001928E-02 0.  1.
    10030    2    1    2    0    0  0.00000000000E+00  0.00000000000E+00 -0.44745870400E+03  0.11727658868E+04  0.10840482155E+04 0.  0.
        4    1    3    3  502    0 -0.19131079932E+03 -0.48603122820E+01  0.32488696535E+03  0.37706312168E+03  0.12699999809E+01 0. -1.
       -4    1    3    3    0  502  0.19131079932E+03  0.48603122820E+01 -0.77234566935E+03  0.79570276513E+03  0.12699999809E+01 0.  1.
</event>
<event>
 5   0  0.5998641E-03  0.1108340E+04  0.7818609E-02  0.9197101E-01
       -1   -1    0    0    0  501  0.00000000000E+00  0.00000000000E+00  0.43310099914E+03  0.43310099917E+03  0.50400001928E-02 0. -1.
        1   -1    0    0  501    0  0.00000000000E+00  0.00000000000E+00 -0.70908220232E+03  0.70908220233E+03  0.50400001928E-02 0.  1.
    10030    2    1    2    0    0  0.00000000000E+00  0.00000000000E+00 -0.27598120318E+03  0.11421832015E+04  0.11083396778E+04 0.  0.
        3    1    3    3  502    0 -0.12405490176E+03  0.37481362674E+03 -0.53874739857E+03  0.66792487834E+03  0.10100000352E+00 0.  1.
       -3    1    3    3    0  502  0.12405490176E+03 -0.37481362674E+03  0.26276619539E+03  0.47425832316E+03  0.10100000352E+00 0. -1.
</event>
<event>
 5   0  0.9925021E-03  0.1098693E+04  0.7818609E-02  0.9206467E-01
        2   -1    0    0  501    0  0.00000000000E+00  0.00000000000E+00  0.62007493877E+03  0.62007493877E+03  0.25500000920E-02 0.  1.
       -2   -1    0    0    0  501  0.00000000000E+00  0.00000000000E+00 -0.48668567078E+03  0.48668567078E+03  0.25500000920E-02 0. -1.
    10030    2    1    2    0    0  0.00000000000E+00  0.00000000000E+00  0.13338926799E+03  0.11067606096E+04  0.10986930190E+04 0.  0.
        4    1    3    3  502    0  0.66226482199E+02  0.54532071926E+03  0.71124746524E+02  0.55391423186E+03  0.12699999809E+01 0.  1.
       -4    1    3    3    0  502 -0.66226482199E+02 -0.54532071926E+03  0.62264521464E+02  0.55284637769E+03  0.12699999809E+01 0. -1.
</event>
<event>
 5   0  0.5712664E-03  0.1050431E+04  0.7818609E-02  0.9254899E-01
        1   -1    0    0  501    0  0.00000000000E+00  0.00000000000E+00  0.13308395513E+04  0.13308395513E+04  0.50400001928E-02 0.  1.
       -1   -1    0    0    0  501  0.00000000000E+00  0.00000000000E+00 -0.20727619897E+03  0.20727619903E+03  0.50400001928E-02 0. -1.
    10030    2    1    2    0    0  0.00000000000E+00  0.00000000000E+00  0.11235633523E+04  0.15381157503E+04  0.10504310804E+04 0.  0.
        5    1    3    3  502    0  0.50921699022E+03  0.31986221486E+02  0.74410671203E+03  0.90224273362E+03  0.46999998093E+01 0.  1.
       -5    1    3    3    0  502 -0.50921699022E+03 -0.31986221486E+02  0.37945664027E+03  0.63587301667E+03  0.46999998093E+01 0. -1.
</event>
<event>
 5   0  0.9719260E-03  0.1113156E+04  0.7818609E-02  0.9192463E-01
        2   -1    0    0  501    0  0.00000000000E+00  0.00000000000E+00  0.47404698390E+03  0.47404698391E+03  0.25500000920E-02 0. -1.
       -2   -1    0    0    0  501  0.00000000000E+00  0.00000000000E+00 -0.65347793392E+03  0.65347793392E+03  0.25500000920E-02 0.  1.
    10030    2    1    2    0    0  0.00000000000E+00  0.00000000000E+00 -0.17943095001E+03  0.11275249178E+04  0.11131563118E+04 0.  0.
        3    1    3    3  502    0 -0.36311465081E+03  0.19689357627E+03  0.28814116163E+03  0.50363148158E+03  0.10100000352E+00 0. -1.
       -3    1    3    3    0  502  0.36311465081E+03 -0.19689357627E+03 -0.46757211165E+03  0.62389343625E+03  0.10100000352E+00 0.  1.
</event>
<event>
 5   0  0.9719260E-03  0.1113808E+04  0.7818609E-02  0.9191837E-01
       -2   -1    0    0    0  501  0.00000000000E+00  0.00000000000E+00  0.12412263022E+04  0.12412263022E+04  0.25500000920E-02 0. -1.
        2   -1    0    0  501    0  0.00000000000E+00  0.00000000000E+00 -0.24986763625E+03  0.24986763626E+03  0.25500000920E-02 0.  1.
    10030    2    1    2    0    0  0.00000000000E+00  0.00000000000E+00  0.99135866598E+03  0.14910939385E+04  0.11138083896E+04 0.  0.
        3    1    3    3  502    0 -0.44732177470E+03 -0.30882887816E+03  0.65782782736E+03  0.85335192433E+03  0.10100000352E+00 0. -1.
       -3    1    3    3    0  502  0.44732177470E+03  0.30882887816E+03  0.33353083861E+03  0.63774201415E+03  0.10100000352E+00 0.  1.
</event>
<event>
 5   0  0.5712664E-03  0.1095507E+04  0.7818609E-02  0.9209582E-01
       -1   -1    0    0    0  501  0.00000000000E+00  0.00000000000E+00  0.24958283372E+03  0.24958283377E+03  0.50400001928E-02 0.  1.
        1   -1    0    0  501    0  0.00000000000E+00  0.00000000000E+00 -0.12021414670E+04  0.12021414670E+04  0.50400001928E-02 0. -1.
    10030    2    1    2    0    0  0.00000000000E+00  0.00000000000E+00 -0.95255863330E+03  0.14517243008E+04  0.10955069583E+04 0.  0.
        5    1    3    3  502    0 -0.35259972963E+02  0.40710963085E+03  0.70512228513E+01  0.40872157634E+03  0.46999998093E+01 0.  1.
       -5    1    3    3    0  502  0.35259972963E+02 -0.40710963085E+03 -0.95960985615E+03  0.10430027245E+04  0.46999998093E+01 0. -1.
</event>
<event>
 5   0  0.3949750E-03  0.1097162E+04  0.7818609E-02  0.9207962E-01
       -3   -1    0    0    0  501  0.00000000000E+00  0.00000000000E+00  0.90871326931E+03  0.90871327493E+03  0.10100000352E+00 0.  1.
        3   -1    0    0  501    0  0.00000000000E+00  0.00000000000E+00 -0.33117274242E+03  0.33117275782E+03  0.10100000352E+00 0. -1.
    10030    2    1    2    0    0  0.00000000000E+00  0.00000000000E+00  0.57754052689E+03  0.12398860328E+04  0.10971619361E+04 0.  0.
        5    1    3    3  502    0 -0.28757080947E+03 -0.67893106931E+02  0.81107553813E+03  0.86323349274E+03  0.46999998093E+01 0.  1.
       -5    1    3    3    0  502  0.28757080947E+03  0.67893106931E+02 -0.23353501124E+03  0.37665254001E+03  0.46999998093E+01 0. -1.
</event>
<event>
 5   0  0.3949750E-03  0.1099786E+04  0.7818609E-02  0.9205401E-01
        3   -1    0    0  501    0  0.00000000000E+00  0.00000000000E+00  0.61288536534E+03  0.61288537367E+03  0.10100000352E+00 0. -1.
       -3   -1    0    0    0  501  0.00000000000E+00  0.00000000000E+00 -0.49337455343E+03  0.49337456377E+03  0.10100000352E+00 0.  1.
    10030    2    1    2    0    0  0.00000000000E+00  0.00000000000E+00  0.11951081191E+03  0.11062599374E+04  0.10997855314E+04 0.  0.
        3    1    3    3  502    0 -0.26232206792E+03 -0.27319941860E+03 -0.34125333387E+03  0.50980843238E+03  0.10100000352E+00 0.  1.
       -3    1    3    3    0  502  0.26232206792E+03  0.27319941860E+03  0.46076414578E+03  0.59645150506E+03  0.10100000352E+00 0. -1.
</event>
<event>
 5   0  0.5712664E-03  0.1081318E+04  0.7818609E-02  0.9223594E-01
       -1   -1    0    0    0  501  0.00000000000E+00  0.00000000000E+00  0.72731715007E+03  0.72731715009E+03  0.50400001928E-02 0. -1.
        1   -1    0    0  501    0  0.00000000000E+00  0.00000000000E+00 -0.40190454467E+03  0.40190454470E+03  0.50400001928E-02 0.  1.
    10030    2    1    2    0    0  0.00000000000E+00  0.00000000000E+00  0.32541260540E+03  0.11292216948E+04  0.10813178405E+04 0.  0.
        5    1    3    3  502    0  0.96588554030E+02 -0.40695842650E+03 -0.19502669868E+03  0.46152141106E+03  0.46999998093E+01 0.  1.
       -5    1    3    3    0  502 -0.96588554030E+02  0.40695842650E+03  0.52043930408E+03  0.66770028374E+03  0.46999998093E+01 0. -1.
</event>
<event>
 5   0  0.9719260E-03  0.1126754E+04  0.7818609E-02  0.9179501E-01
       -2   -1    0    0    0  501  0.00000000000E+00  0.00000000000E+00  0.14174705053E+03  0.14174705055E+03  0.25500000920E-02 0.  1.
        2   -1    0    0  501    0  0.00000000000E+00  0.00000000000E+00 -0.22391548738E+04  0.22391548738E+04  0.25500000920E-02 0. -1.
    10030    2    1    2    0    0  0.00000000000E+00  0.00000000000E+00 -0.20974078232E+04  0.23809019243E+04  0.11267539200E+04 0.  0.
        3    1    3    3  502    0  0.30752247100E+02  0.39817377415E+03 -0.20902914287E+03  0.45075630655E+03  0.10100000352E+00 0.  1.
       -3    1    3    3    0  502 -0.30752247100E+02 -0.39817377415E+03 -0.18883786804E+04  0.19301456178E+04  0.10100000352E+00 0. -1.
</event>
<event>
 5   0  0.5712664E-03  0.1089430E+04  0.7818609E-02  0.9215556E-01
       -1   -1    0    0    0  501  0.00000000000E+00  0.00000000000E+00  0.21543339281E+03  0.21543339287E+03  0.50400001928E-02 0.  1.
        1   -1    0    0  501    0  0.00000000000E+00  0.00000000000E+00 -0.13772913930E+04  0.13772913930E+04  0.50400001928E-02 0. -1.
    10030    2    1    2    0    0  0.00000000000E+00  0.00000000000E+00 -0.11618580002E+04  0.15927247858E+04  0.10894302322E+04 0.  0.
        5    1    3    3  502    0  0.57123134971E+01  0.46102985957E+03 -0.10049315840E+04  0.11056630320E+04  0.46999998093E+01 0. -1.
       -5    1    3    3    0  502 -0.57123134971E+01 -0.46102985957E+03 -0.15692641621E+03  0.48706175383E+03  0.46999998093E+01 0.  1.
</event>
<event>
 5   0  0.1028016E-02  0.1123771E+04  0.7818609E-02  0.9182328E-01
       -2   -1    0    0    0  501  0.00000000000E+00  0.00000000000E+00  0.25790112053E+03  0.25790112055E+03  0.25500000920E-02 0.  1.
        2   -1    0    0  501    0  0.00000000000E+00  0.00000000000E+00 -0.12241719579E+04  0.12241719579E+04  0.25500000920E-02 0. -1.
    10030    2    1    2    0    0  0.00000000000E+00  0.00000000000E+00 -0.96627083738E+03  0.14820730785E+04  0.11237710081E+04 0.  0.
        2    1    3    3  502    0 -0.97874450844E+02 -0.52539161151E+03 -0.71194379139E+03  0.89021329785E+03  0.25500000920E-02 0.  1.
       -2    1    3    3    0  502  0.97874450844E+02  0.52539161151E+03 -0.25432704599E+03  0.59185978061E+03  0.25500000920E-02 0. -1.
</event>
<event>
 5   0  0.1019384E-02  0.1108821E+04  0.7818609E-02  0.9196636E-01
       -2   -1    0    0    0  501  0.00000000000E+00  0.00000000000E+00  0.94837219924E+03  0.94837219924E+03  0.25500000920E-02 0.  1.
        2   -1    0    0  501    0  0.00000000000E+00  0.00000000000E+00 -0.32410396776E+03  0.32410396777E+03  0.25500000920E-02 0. -1.
    10030    2    1    2    0    0  0.00000000000E+00  0.00000000000E+00  0.62426823148E+03  0.12724761670E+04  0.11088213430E+04 0.  0.
        1    1    3    3  502    0 -0.27461293639E+03 -0.48017734380E+03  0.26936956578E+03  0.61525808351E+03  0.50400001928E-02 0. -1.
       -1    1    3    3    0  502  0.27461293639E+03  0.48017734380E+03  0.35489866571E+03  0.65721808350E+03  0.50400001928E-02 0.  1.
</event>
<event>
 5   0  0.5789905E-03  0.1100275E+04  0.7818609E-02  0.9204924E-01
        1   -1    0    0  501    0  0.00000000000E+00  0.00000000000E+00  0.48367077298E+03  0.48367077300E+03  0.50400001928E-02 0. -1.
       -1   -1    0    0    0  501  0.00000000000E+00  0.00000000000E+00 -0.62573807311E+03  0.62573807313E+03  0.50400001928E-02 0.  1.
    10030    2    1    2    0    0  0.00000000000E+00  0.00000000000E+00 -0.14206730014E+03  0.11094088461E+04  0.11002749066E+04 0.  0.
        1    1    3    3  502    0  0.43792494525E+03 -0.15333917586E+03 -0.36905465201E+03  0.59286802639E+03  0.50400001928E-02 0.  1.
       -1    1    3    3    0  502 -0.43792494525E+03  0.15333917586E+03  0.22698735188E+03  0.51654081974E+03  0.50400001928E-02 0. -1.
</event>
<event>
 5   0  0.9925021E-03  0.1095380E+04  0.7818609E-02  0.9209706E-01
        2   -1    0    0  501    0  0.00000000000E+00  0.00000000000E+00  0.64474270752E+03  0.64474270752E+03  0.25500000920E-02 0. -1.
       -2   -1    0    0    0  501  0.00000000000E+00  0.00000000000E+00 -0.46524683058E+03  0.46524683059E+03  0.25500000920E-02 0.  1.
    10030    2    1    2    0    0  0.00000000000E+00  0.00000000000E+00  0.17949587694E+03  0.11099895381E+04  0.10953803015E+04 0.  0.
        4    1    3    3  502    0 -0.74596468032E+02 -0.17282066661E+03  0.61093361217E+03  0.63927545490E+03  0.12699999809E+01 0. -1.
       -4    1    3    3    0  502  0.74596468032E+02  0.17282066661E+03 -0.43143773523E+03  0.47071408321E+03  0.12699999809E+01 0.  1.
</event>
<event>
 5   0  0.9925021E-03  0.8661126E+03  0.7818609E-02  0.9468963E-01
        2   -1    0    0  501    0  0.00000000000E+00  0.00000000000E+00  0.15203655607E+04  0.15203655607E+04  0.25500000920E-02 0.  1.
       -2   -1    0    0    0  501  0.00000000000E+00  0.00000000000E+00 -0.12335044450E+03  0.12335044453E+03  0.25500000920E-02 0. -1.
    10030    2    1    2    0    0  0.00000000000E+00  0.00000000000E+00  0.13970151162E+04  0.16437160052E+04  0.86611262026E+03 0.  0.
        4    1    3    3  502    0  0.40185542108E+03 -0.15268149231E+03  0.79778920504E+03  0.90623873572E+03  0.12699999809E+01 0.  1.
       -4    1    3    3    0  502 -0.40185542108E+03  0.15268149231E+03  0.59922591112E+03  0.73747726948E+03  0.12699999809E+01 0. -1.
</event>
<event>
 5   0  0.9719260E-03  0.1068504E+04  0.7818609E-02  0.9236446E-01
       -2   -1    0    0    0  501  0.00000000000E+00  0.00000000000E+00  0.37573154180E+03  0.37573154181E+03  0.25500000920E-02 0. -1.
        2   -1    0    0  501    0  0.00000000000E+00  0.00000000000E+00 -0.75965138039E+03  0.75965138039E+03  0.25500000920E-02 0.  1.
    10030    2    1    2    0    0  0.00000000000E+00  0.00000000000E+00 -0.38391983859E+03  0.11353829222E+04  0.10685035974E+04 0.  0.
        3    1    3    3  502    0  0.44438129745E+03 -0.21449307554E+03  0.25658620846E+02  0.49410564862E+03  0.10100000352E+00 0. -1.
       -3    1    3    3    0  502 -0.44438129745E+03  0.21449307554E+03 -0.40957845943E+03  0.64127727358E+03  0.10100000352E+00 0.  1.
</event>
<event>
 5   0  0.5854579E-03  0.1126849E+04  0.7818609E-02  0.9179411E-01
       -1   -1    0    0    0  501  0.00000000000E+00  0.00000000000E+00  0.39323921582E+03  0.39323921586E+03  0.50400001928E-02 0.  1.
        1   -1    0    0  501    0  0.00000000000E+00  0.00000000000E+00 -0.80726195295E+03  0.80726195297E+03  0.50400001928E-02 0. -1.
    10030    2    1    2    0    0  0.00000000000E+00  0.00000000000E+00 -0.41402273713E+03  0.12005011688E+04  0.11268488051E+04 0.  0.
        4    1    3    3  502    0  0.13460101470E+03 -0.44926550139E+03  0.12562802381E+03  0.48553160264E+03  0.12699999809E+01 0.  1.
       -4    1    3    3    0  502 -0.13460101470E+03  0.44926550139E+03 -0.53965076094E+03  0.71496956619E+03  0.12699999809E+01 0. -1.
</event>
<event>
 5   0  0.5958706E-03  0.9655154E+03  0.7818609E-02  0.9347197E-01
       -1   -1    0    0    0  501  0.00000000000E+00  0.00000000000E+00  0.22729314443E+03  0.22729314449E+03  0.50400001928E-02 0. -1.
        1   -1    0    0  501    0  0.00000000000E+00  0.00000000000E+00 -0.10253498556E+04  0.10253498556E+04  0.50400001928E-02 0.  1.
    10030    2    1    2    0    0  0.00000000000E+00  0.00000000000E+00 -0.79805671113E+03  0.12526430001E+04  0.96551539161E+03 0.  0.
        2    1    3    3  502    0 -0.11580368547E+03 -0.44862826246E+03 -0.57490475481E+03  0.73837205294E+03  0.25500000920E-02 0.  1.
       -2    1    3    3    0  502  0.11580368547E+03  0.44862826246E+03 -0.22315195632E+03  0.51427094713E+03  0.25500000920E-02 0. -1.
</event>
<event>
 5   0  0.9719260E-03  0.1120674E+04  0.7818609E-02  0.9185273E-01
        2   -1    0    0  501    0  0.00000000000E+00  0.00000000000E+00  0.18116944925E+04  0.18116944925E+04  0.25500000920E-02 0. -1.
       -2   -1    0    0    0  501  0.00000000000E+00  0.00000000000E+00 -0.17330602236E+03  0.17330602238E+03  0.25500000920E-02 0.  1.
    10030    2    1    2    0    0  0.00000000000E+00  0.00000000000E+00  0.16383884702E+04  0.19850005149E+04  0.11206740227E+04 0.  0.
        3    1    3    3  502    0  0.11404039517E+03  0.20396057314E+03  0.17212704320E+04  0.17370598831E+04  0.10100000352E+00 0. -1.
       -3    1    3    3    0  502 -0.11404039517E+03 -0.20396057314E+03 -0.82881961819E+02  0.24794063185E+03  0.10100000352E+00 0.  1.
</event>
<event>
 5   0  0.9925021E-03  0.1089648E+04  0.7818609E-02  0.9215341E-01
        2   -1    0    0  501    0  0.00000000000E+00  0.00000000000E+00  0.77608510246E+03  0.77608510247E+03  0.25500000920E-02 0. -1.
       -2   -1    0    0    0  501  0.00000000000E+00  0.00000000000E+00 -0.38247519945E+03  0.38247519945E+03  0.25500000920E-02 0.  1.
    10030    2    1    2    0    0  0.00000000000E+00  0.00000000000E+00  0.39360990302E+03  0.11585603019E+04  0.10896482081E+04 0.  0.
        4    1    3    3  502    0  0.20111780897E+03 -0.45074733326E+03  0.44206658501E+03  0.66260547086E+03  0.12699999809E+01 0. -1.
       -4    1    3    3    0  502 -0.20111780897E+03  0.45074733326E+03 -0.48456681994E+02  0.49595483107E+03  0.12699999809E+01 0.  1.
</event>
<event>
 5   0  0.9925021E-03  0.1154308E+04  0.7818609E-02  0.9153818E-01
       -2   -1    0    0    0  501  0.00000000000E+00  0.00000000000E+00  0.18172750173E+03  0.18172750175E+03  0.25500000920E-02 0. -1.
        2   -1    0    0  501    0  0.00000000000E+00  0.00000000000E+00 -0.18330018359E+04  0.18330018359E+04  0.25500000920E-02 0.  1.
    10030    2    1    2    0    0  0.00000000000E+00  0.00000000000E+00 -0.16512743342E+04  0.20147293377E+04  0.11543081813E+04 0.  0.
        4    1    3    3  502    0 -0.25812299789E+03  0.26448361376E+01 -0.17266266308E+04  0.17458166033E+04  0.12699999809E+01 0.  1.
       -4    1    3    3    0  502  0.25812299789E+03 -0.26448361376E+01  0.75352296629E+02  0.26891273437E+03  0.12699999809E+01 0. -1.
</event>
<event>
 5   0  0.5998641E-03  0.1077349E+04  0.7818609E-02  0.9227555E-01
        1   -1    0    0  501    0  0.00000000000E+00  0.00000000000E+00  0.48850136111E+03  0.48850136113E+03  0.50400001928E-02 0. -1.
       -1   -1    0    0    0  501  0.00000000000E+00  0.00000000000E+00 -0.59400033538E+03  0.59400033541E+03  0.50400001928E-02 0.  1.
    10030    2    1    2    0    0  0.00000000000E+00  0.00000000000E+00 -0.10549897428E+03  0.10825016965E+04  0.10773485459E+04 0.  0.
        3    1    3    3  502    0  0.26874506020E+03 -0.45773010064E+03  0.39500387787E+02  0.53226031531E+03  0.10100000352E+00 0. -1.
       -3    1    3    3    0  502 -0.26874506020E+03  0.45773010064E+03 -0.14499936207E+03  0.55024138123E+03  0.10100000352E+00 0.  1.
</event>
<event>
 5   0  0.5789905E-03  0.1096104E+04  0.7818609E-02  0.9208997E-01
       -1   -1    0    0    0  501  0.00000000000E+00  0.00000000000E+00  0.33891014739E+03  0.33891014743E+03  0.50400001928E-02 0. -1.
        1   -1    0    0  501    0  0.00000000000E+00  0.00000000000E+00 -0.88625618669E+03  0.88625618670E+03  0.50400001928E-02 0.  1.
    10030    2    1    2    0    0  0.00000000000E+00  0.00000000000E+00 -0.54734603930E+03  0.12251663341E+04  0.10961044018E+04 0.  0.
        1    1    3    3  502    0  0.29327147564E+03 -0.81049883624E+02 -0.78317884701E+03  0.84020613452E+03  0.50400001928E-02 0.  1.
       -1    1    3    3    0  502 -0.29327147564E+03  0.81049883624E+02  0.23583280772E+03  0.38496019961E+03  0.50400001928E-02 0. -1.
</event>
<event>
 5   0  0.5958706E-03  0.9083858E+03  0.7818609E-02  0.9415159E-01
        1   -1    0    0  501    0  0.00000000000E+00  0.00000000000E+00  0.39654995095E+03  0.39654995098E+03  0.50400001928E-02 0.  1.
       -1   -1    0    0    0  501  0.00000000000E+00  0.00000000000E+00 -0.52021489528E+03  0.52021489531E+03  0.50400001928E-02 0. -1.
    10030    2    1    2    0    0  0.00000000000E+00  0.00000000000E+00 -0.12366494433E+03  0.91676484629E+03  0.90838580181E+03 0.  0.
        2    1    3    3  502    0 -0.11624778810E+03 -0.17956559312E+03 -0.46619500887E+03  0.51292800350E+03  0.25500000920E-02 0. -1.
       -2    1    3    3    0  502  0.11624778810E+03  0.17956559312E+03  0.34253006454E+03  0.40383684279E+03  0.25500000920E-02 0.  1.
</event>
<event>
 5   0  0.1019384E-02  0.1114262E+04  0.7818609E-02  0.9191401E-01
        2   -1    0    0  501    0  0.00000000000E+00  0.00000000000E+00  0.20799362574E+04  0.20799362574E+04  0.25500000920E-02 0.  1.
       -2   -1    0    0    0  501  0.00000000000E+00  0.00000000000E+00 -0.14923294280E+03  0.14923294283E+03  0.25500000920E-02 0. -1.
    10030    2    1    2    0    0  0.00000000000E+00  0.00000000000E+00  0.19307033146E+04  0.22291692003E+04  0.11142621030E+04 0.  0.
        1    1    3    3  502    0 -0.21790653728E+03  0.27554493766E+03  0.18304412259E+04  0.18638463867E+04  0.50400001928E-02 0.  1.
       -1    1    3    3    0  502  0.21790653728E+03 -0.27554493766E+03  0.10026208874E+03  0.36532281358E+03  0.50400001928E-02 0. -1.
</event>
<event>
 5   0  0.9925021E-03  0.1080328E+04  0.7818609E-02  0.9224581E-01
       -2   -1    0    0    0  501  0.00000000000E+00  0.00000000000E+00  0.42810221580E+03  0.42810221581E+03  0.25500000920E-02 0.  1.
        2   -1    0    0  501    0  0.00000000000E+00  0.00000000000E+00 -0.68155919476E+03  0.68155919477E+03  0.25500000920E-02 0. -1.
    10030    2    1    2    0    0  0.00000000000E+00  0.00000000000E+00 -0.25345697897E+03  0.11096614106E+04  0.10803277308E+04 0.  0.
        4    1    3    3  502    0  0.38059298840E+03 -0.13233450964E+03 -0.49623503730E+03  0.63922943487E+03  0.12699999809E+01 0. -1.
       -4    1    3    3    0  502 -0.38059298840E+03  0.13233450964E+03  0.24277805833E+03  0.47043197571E+03  0.12699999809E+01 0.  1.
</event>
<event>
 5   0  0.5712664E-03  0.1096275E+04  0.7818609E-02  0.9208830E-01
       -1   -1    0    0    0  501  0.00000000000E+00  0.00000000000E+00  0.21362788724E+03  0.21362788730E+03  0.50400001928E-02 0.  1.
        1   -1    0    0  501    0  0.00000000000E+00  0.00000000000E+00 -0.14064386690E+04  0.14064386690E+04  0.50400001928E-02 0. -1.
    10030    2    1    2    0    0  0.00000000000E+00  0.00000000000E+00 -0.11928107818E+04  0.16200665563E+04  0.10962746398E+04 0.  0.
        5    1    3    3  502    0  0.43110157154E+03  0.33241642562E+03 -0.69083606587E+03  0.87956000643E+03  0.46999998093E+01 0. -1.
       -5    1    3    3    0  502 -0.43110157154E+03 -0.33241642562E+03 -0.50197471589E+03  0.74050654987E+03  0.46999998093E+01 0.  1.
</event>
<event>
 5   0  0.1019384E-02  0.9201128E+03  0.7818609E-02  0.9400783E-01
        2   -1    0    0  501    0  0.00000000000E+00  0.00000000000E+00  0.18709528194E+03  0.18709528196E+03  0.25500000920E-02 0.  1.
       -2   -1    0    0    0  501  0.00000000000E+00  0.00000000000E+00 -0.11312517779E+04  0.11312517779E+04  0.25500000920E-02 0. -1.
    10030    2    1    2    0    0  0.00000000000E+00  0.00000000000E+00 -0.94415649594E+03  0.13183470598E+04  0.92011275471E+03 0.  0.
        1    1    3    3  502    0  0.60158140687E+02 -0.31629061058E+03 -0.94293276857E+03  0.99638394121E+03  0.50400001928E-02 0. -1.
       -1    1    3    3    0  502 -0.60158140687E+02  0.31629061058E+03 -0.12237273691E+01  0.32196311864E+03  0.50400001928E-02 0.  1.
</event>
<event>
 5   0  0.5789905E-03  0.1123581E+04  0.7818609E-02  0.9182508E-01
       -1   -1    0    0    0  501  0.00000000000E+00  0.00000000000E+00  0.50924201071E+03  0.50924201074E+03  0.50400001928E-02 0. -1.
        1   -1    0    0  501    0  0.00000000000E+00  0.00000000000E+00 -0.61976131334E+03  0.61976131336E+03  0.50400001928E-02 0.  1.
    10030    2    1    2    0    0  0.00000000000E+00  0.00000000000E+00 -0.11051930262E+03  0.11290033241E+04  0.11235808781E+04 0.  0.
        1    1    3    3  502    0 -0.18418627710E+03  0.43900934075E+03  0.24443249273E+03  0.53516448823E+03  0.50400001928E-02 0. -1.
       -1    1    3    3    0  502  0.18418627710E+03 -0.43900934075E+03 -0.35495179535E+03  0.59383883587E+03  0.50400001928E-02 0.  1.
</event>
<event>
 5   0  0.5712664E-03  0.1125488E+04  0.7818609E-02  0.9180699E-01
       -1   -1    0    0    0  501  0.00000000000E+00  0.00000000000E+00  0.25736117031E+03  0.25736117035E+03  0.50400001928E-02 0.  1.
        1   -1    0    0  501    0  0.00000000000E+00  0.00000000000E+00 -0.12304919856E+04  0.12304919856E+04  0.50400001928E-02 0. -1.
    10030    2    1    2    0    0  0.00000000000E+00  0.00000000000E+00 -0.97313081525E+03  0.14878531559E+04  0.11254880852E+04 0.  0.
        5    1    3    3  502    0  0.51242245090E+03  0.19921904918E+03 -0.32796421655E+03  0.64019342005E+03  0.46999998093E+01 0. -1.
       -5    1    3    3    0  502 -0.51242245090E+03 -0.19921904918E+03 -0.64516659871E+03  0.84765973588E+03  0.46999998093E+01 0.  1.
</event>
<event>
 5   0  0.5712664E-03  0.1108208E+04  0.7818609E-02  0.9197229E-01
        1   -1    0    0  501    0  0.00000000000E+00  0.00000000000E+00  0.11449862879E+04  0.11449862879E+04  0.50400001928E-02 0. -1.
       -1   -1    0    0    0  501  0.00000000000E+00  0.00000000000E+00 -0.26815272335E+03  0.26815272339E+03  0.50400001928E-02 0.  1.
    10030    2    1    2    0    0  0.00000000000E+00  0.00000000000E+00  0.87683356454E+03  0.14131390113E+04  0.11082079071E+04 0.  0.
        5    1    3    3  502    0  0.85440555168E+02  0.14018307780E+03 -0.23640239142E+03  0.28785337315E+03  0.46999998093E+01 0.  1.
       -5    1    3    3    0  502 -0.85440555168E+02 -0.14018307780E+03  0.11132359560E+04  0.11252856381E+04  0.46999998093E+01 0. -1.
</event>
<event>
 5   0  0.9692981E-03  0.1070786E+04  0.7818609E-02  0.9234143E-01
       -2   -1    0    0    0  501  0.00000000000E+00  0.00000000000E+00  0.25214037864E+03  0.25214037865E+03  0.25500000920E-02 0.  1.
        2   -1    0    0  501    0  0.00000000000E+00  0.00000000000E+00 -0.11368494846E+04  0.11368494846E+04  0.25500000920E-02 0. -1.
    10030    2    1    2    0    0  0.00000000000E+00  0.00000000000E+00 -0.88470910596E+03  0.13889898632E+04  0.10707859908E+04 0.  0.
        5    1    3    3  502    0 -0.35208862567E+02 -0.96252338488E+02 -0.11239785169E+04  0.11286513957E+04  0.46999998093E+01 0. -1.
       -5    1    3    3    0  502  0.35208862567E+02  0.96252338488E+02  0.23926941093E+03  0.26033846752E+03  0.46999998093E+01 0.  1.
</event>
<event>
 5   0  0.9692981E-03  0.1054799E+04  0.7818609E-02  0.9250403E-01
        2   -1    0    0  501    0  0.00000000000E+00  0.00000000000E+00  0.59694277355E+03  0.59694277356E+03  0.25500000920E-02 0. -1.
       -2   -1    0    0    0  501  0.00000000000E+00  0.00000000000E+00 -0.46595838531E+03  0.46595838532E+03  0.25500000920E-02 0.  1.
    10030    2    1    2    0    0  0.00000000000E+00  0.00000000000E+00  0.13098438824E+03  0.10629011589E+04  0.10547994897E+04 0.  0.
        5    1    3    3  502    0  0.50531731978E+03 -0.44838593029E+02 -0.79740817824E+02  0.51355309474E+03  0.46999998093E+01 0.  1.
       -5    1    3    3    0  502 -0.50531731978E+03  0.44838593029E+02  0.21072520607E+03  0.54934806413E+03  0.46999998093E+01 0. -1.
</event>
<event>
 5   0  0.9925021E-03  0.1094601E+04  0.7818609E-02  0.9210471E-01
       -2   -1    0    0    0  501  0.00000000000E+00  0.00000000000E+00  0.35209730504E+03  0.35209730505E+03  0.25500000920E-02 0. -1.
        2   -1    0    0  501    0  0.00000000000E+00  0.00000000000E+00 -0.85072396512E+03  0.85072396513E+03  0.25500000920E-02 0.  1.
    10030    2    1    2    0    0  0.00000000000E+00  0.00000000000E+00 -0.49862666008E+03  0.12028212702E+04  0.10946005947E+04 0.  0.
        4    1    3    3  502    0 -0.95129136730E+02  0.29144237682E+03 -0.74751115417E+03  0.80793734298E+03  0.12699999809E+01 0.  1.
       -4    1    3    3    0  502  0.95129136730E+02 -0.29144237682E+03  0.24888449409E+03  0.39488392720E+03  0.12699999809E+01 0. -1.
</event>
<event>
 5   0  0.5789905E-03  0.1091537E+04  0.7818609E-02  0.9213480E-01
       -1   -1    0    0    0  501  0.00000000000E+00  0.00000000000E+00  0.13068608825E+04  0.13068608825E+04  0.50400001928E-02 0.  1.
        1   -1    0    0  501    0  0.00000000000E+00  0.00000000000E+00 -0.22792265893E+03  0.22792265899E+03  0.50400001928E-02 0. -1.
    10030    2    1    2    0    0  0.00000000000E+00  0.00000000000E+00  0.10789382236E+04  0.15347835415E+04  0.10915369114E+04 0.  0.
        1    1    3    3  502    0 -0.44808033298E+02  0.54355150737E+03  0.51109541622E+03  0.74744533279E+03  0.50400001928E-02 0. -1.
       -1    1    3    3    0  502  0.44808033298E+02 -0.54355150737E+03  0.56784280736E+03  0.78733820871E+03  0.50400001928E-02 0.  1.
</event>
<event>
 5   0  0.9692981E-03  0.1101142E+04  0.7818609E-02  0.9204079E-01
       -2   -1    0    0    0  501  0.00000000000E+00  0.00000000000E+00  0.30270132507E+03  0.30270132508E+03  0.25500000920E-02 0.  1.
        2   -1    0    0  501    0  0.00000000000E+00  0.00000000000E+00 -0.10014117912E+04  0.10014117912E+04  0.25500000920E-02 0. -1.
    10030    2    1    2    0    0  0.00000000000E+00  0.00000000000E+00 -0.69871046617E+03  0.13041131163E+04  0.11011424543E+04 0.  0.
        5    1    3    3  502    0  0.26745076524E+03 -0.32868998352E+03 -0.76562493007E+03  0.87508321926E+03  0.46999998093E+01 0. -1.
       -5    1    3    3    0  502 -0.26745076524E+03  0.32868998352E+03  0.66914463897E+02  0.42902989706E+03  0.46999998093E+01 0.  1.
</event>
<event>
 5   0  0.5998641E-03  0.1097319E+04  0.7818609E-02  0.9207809E-01
        1   -1    0    0  501    0  0.00000000000E+00  0.00000000000E+00  0.35123476851E+03  0.35123476855E+03  0.50400001928E-02 0.  1.
       -1   -1    0    0    0  501  0.00000000000E+00  0.00000000000E+00 -0.85705436241E+03  0.85705436243E+03  0.50400001928E-02 0. -1.
    10030    2    1    2    0    0  0.00000000000E+00  0.00000000000E+00 -0.50581959390E+03  0.12082891310E+04  0.10973190796E+04 0.  0.
        3    1    3    3  502    0  0.30372207494E+03  0.44901611081E+03 -0.34611440038E+03  0.64316230838E+03  0.10100000352E+00 0. -1.
       -3    1    3    3    0  502 -0.30372207494E+03 -0.44901611081E+03 -0.15970519352E+03  0.56512682259E+03  0.10100000352E+00 0.  1.
</event>
<event>
 5   0  0.9719260E-03  0.1119241E+04  0.7818609E-02  0.9186639E-01
        2   -1    0    0  501    0  0.00000000000E+00  0.00000000000E+00  0.20317671864E+04  0.20317671864E+04  0.25500000920E-02 0. -1.
       -2   -1    0    0    0  501  0.00000000000E+00  0.00000000000E+00 -0.15413923193E+03  0.15413923195E+03  0.25500000920E-02 0.  1.
    10030    2    1    2    0    0  0.00000000000E+00  0.00000000000E+00  0.18776279544E+04  0.21859064183E+04  0.11192408741E+04 0.  0.
        3    1    3    3  502    0  0.21888597243E+02  0.14701351897E+03 -0.11488456229E+03  0.18785781406E+03  0.10100000352E+00 0.  1.
       -3    1    3    3    0  502 -0.21888597243E+02 -0.14701351897E+03  0.19925125167E+04  0.19980486043E+04  0.10100000352E+00 0. -1.
</event>
<event>
 5   0  0.9692981E-03  0.1032670E+04  0.7818609E-02  0.9273422E-01
        2   -1    0    0  501    0  0.00000000000E+00  0.00000000000E+00  0.44152468913E+03  0.44152468914E+03  0.25500000920E-02 0. -1.
       -2   -1    0    0    0  501  0.00000000000E+00  0.00000000000E+00 -0.60382039004E+03  0.60382039005E+03  0.25500000920E-02 0.  1.
    10030    2    1    2    0    0  0.00000000000E+00  0.00000000000E+00 -0.16229570091E+03  0.10453450792E+04  0.10326695696E+04 0.  0.
        5    1    3    3  502    0  0.24142807043E+03  0.33018267685E+03 -0.40008887699E+03  0.57218992719E+03  0.46999998093E+01 0.  1.
       -5    1    3    3    0  502 -0.24142807043E+03 -0.33018267685E+03  0.23779317608E+03  0.47315515201E+03  0.46999998093E+01 0. -1.
</event>
<event>
 5   0  0.5854579E-03  0.1101388E+04  0.7818609E-02  0.9203841E-01
       -1   -1    0    0    0  501  0.00000000000E+00  0.00000000000E+00  0.46835654686E+03  0.46835654689E+03  0.50400001928E-02 0.  1.
        1   -1    0    0  501    0  0.00000000000E+00  0.00000000000E+00 -0.64750593908E+03  0.64750593910E+03  0.50400001928E-02 0. -1.
    10030    2    1    2    0    0  0.00000000000E+00  0.00000000000E+00 -0.17914939222E+03  0.11158624860E+04  0.11013875716E+04 0.  0.
        4    1    3    3  502    0  0.31799645443E+02 -0.15239158464E+03 -0.62474758367E+03  0.64385213266E+03  0.12699999809E+01 0. -1.
       -4    1    3    3    0  502 -0.31799645443E+02  0.15239158464E+03  0.44559819145E+03  0.47201035333E+03  0.12699999809E+01 0.  1.
</event>
<event>
 5   0  0.9719260E-03  0.1039189E+04  0.7818609E-02  0.9266577E-01
        2   -1    0    0  501    0  0.00000000000E+00  0.00000000000E+00  0.23637433892E+03  0.23637433893E+03  0.25500000920E-02 0.  1.
       -2   -1    0    0    0  501  0.00000000000E+00  0.00000000000E+00 -0.11421651492E+04  0.11421651492E+04  0.25500000920E-02 0. -1.
    10030    2    1    2    0    0  0.00000000000E+00  0.00000000000E+00 -0.90579081026E+03  0.13785394881E+04  0.10391891687E+04 0.  0.
        3    1    3    3  502    0  0.48503642573E+03 -0.12726638291E+03 -0.27236009586E+03  0.57064621134E+03  0.10100000352E+00 0.  1.
       -3    1    3    3    0  502 -0.48503642573E+03  0.12726638291E+03 -0.63343071440E+03  0.80789327677E+03  0.10100000352E+00 0. -1.
</event>
<event>
 5   0  0.1028016E-02  0.9757130E+03  0.7818609E-02  0.9335591E-01
        2   -1    0    0  501    0  0.00000000000E+00  0.00000000000E+00  0.54296608520E+03  0.54296608521E+03  0.25500000920E-02 0.  1.
       -2   -1    0    0    0  501  0.00000000000E+00  0.00000000000E+00 -0.43834038149E+03  0.43834038150E+03  0.25500000920E-02 0. -1.
    10030    2    1    2    0    0  0.00000000000E+00  0.00000000000E+00  0.10462570371E+03  0.98130646670E+03  0.97571299249E+03 0.  0.
        2    1    3    3  502    0  0.43811385309E+03  0.16263942041E+03 -0.88520727158E+02  0.47563772820E+03  0.25500000920E-02 0. -1.
       -2    1    3    3    0  502 -0.43811385309E+03 -0.16263942041E+03  0.19314643087E+03  0.50566873851E+03  0.25500000920E-02 0.  1.
</event>
<event>
 5   0  0.9925021E-03  0.1099878E+04  0.7818609E-02  0.9205310E-01
       -2   -1    0    0    0  501  0.00000000000E+00  0.00000000000E+00  0.17677777189E+03  0.17677777191E+03  0.25500000920E-02 0. -1.
        2   -1    0    0  501    0  0.00000000000E+00  0.00000000000E+00 -0.17108096244E+04  0.17108096244E+04  0.25500000920E-02 0.  1.
    10030    2    1    2    0    0  0.00000000000E+00  0.00000000000E+00 -0.15340318525E+04  0.18875873963E+04  0.10998783815E+04 0.  0.
        4    1    3    3  502    0  0.18354439296E+03 -0.76089310912E+01 -0.16565941900E+04  0.16667490403E+04  0.12699999809E+01 0.  1.
       -4    1    3    3    0  502 -0.18354439296E+03  0.76089310912E+01  0.12256233750E+03  0.22083835602E+03  0.12699999809E+01 0. -1.
</event>
<event>
 5   0  0.9719260E-03  0.1041815E+04  0.7818609E-02  0.9263835E-01
        2   -1    0    0  501    0  0.00000000000E+00  0.00000000000E+00  0.10502172741E+04  0.10502172741E+04  0.25500000920E-02 0.  1.
       -2   -1    0    0    0  501  0.00000000000E+00  0.00000000000E+00 -0.25837003485E+03  0.25837003487E+03  0.25500000920E-02 0. -1.
    10030    2    1    2    0    0  0.00000000000E+00  0.00000000000E+00  0.79184723925E+03  0.13085873090E+04  0.10418150963E+04 0.  0.
        3    1    3    3  502    0 -0.49678834361E+02 -0.24305454500E+03 -0.17940503602E+03  0.30615302641E+03  0.10100000352E+00 0. -1.
       -3    1    3    3    0  502  0.49678834361E+02  0.24305454500E+03  0.97125227527E+03  0.10024342826E+04  0.10100000352E+00 0.  1.
</event>
<event>
 5   0  0.1019384E-02  0.1084015E+04  0.7818609E-02  0.9220914E-01
       -2   -1    0    0    0  501  0.00000000000E+00  0.00000000000E+00  0.21536529445E+03  0.21536529447E+03  0.25500000920E-02 0.  1.
        2   -1    0    0  501    0  0.00000000000E+00  0.00000000000E+00 -0.13640636550E+04  0.13640636550E+04  0.25500000920E-02 0. -1.
    10030    2    1    2    0    0  0.00000000000E+00  0.00000000000E+00 -0.11486983606E+04  0.15794289495E+04  0.10840147060E+04 0.  0.
        1    1    3    3  502    0 -0.81644669657E+02  0.18943742462E+03  0.15593461386E+03  0.25858846408E+03  0.50400001928E-02 0.  1.
       -1    1    3    3    0  502  0.81644669657E+02 -0.18943742462E+03 -0.13046329744E+04  0.13208404854E+04  0.50400001928E-02 0. -1.
</event>
<event>
 5   0  0.1019384E-02  0.1105038E+04  0.7818609E-02  0.9200296E-01
        2   -1    0    0  501    0  0.00000000000E+00  0.00000000000E+00  0.70609803783E+03  0.70609803784E+03  0.25500000920E-02 0. -1.
       -2   -1    0    0    0  501  0.00000000000E+00  0.00000000000E+00 -0.43234366864E+03  0.43234366865E+03  0.25500000920E-02 0.  1.
    10030    2    1    2    0    0  0.00000000000E+00  0.00000000000E+00  0.27375436919E+03  0.11384417065E+04  0.11050375851E+04 0.  0.
        1    1    3    3  502    0 -0.48748007355E+03 -0.17595668913E+03  0.33418536045E+03  0.61666638770E+03  0.50400001928E-02 0. -1.
       -1    1    3    3    0  502  0.48748007355E+03  0.17595668913E+03 -0.60430991259E+02  0.52177531878E+03  0.50400001928E-02 0.  1.
</event>
<event>
 5   0  0.5789905E-03  0.1104970E+04  0.7818609E-02  0.9200361E-01
        1   -1    0    0  501    0  0.00000000000E+00  0.00000000000E+00  0.57033289866E+03  0.57033289868E+03  0.50400001928E-02 0. -1.
       -1   -1    0    0    0  501  0.00000000000E+00  0.00000000000E+00 -0.53519541725E+03  0.53519541727E+03  0.50400001928E-02 0.  1.
    10030    2    1    2    0    0  0.00000000000E+00  0.00000000000E+00  0.35137481407E+02  0.11055283160E+04  0.11049697800E+04 0.  0.
        1    1    3    3  502    0  0.10566810997E+03  0.98836998433E+02  0.55104089880E+03  0.56971973276E+03  0.50400001928E-02 0. -1.
       -1    1    3    3    0  502 -0.10566810997E+03 -0.98836998433E+02 -0.51590341739E+03  0.53580858319E+03  0.50400001928E-02 0.  1.
</event>
<event>
 5   0  0.5958706E-03  0.1114196E+04  0.7818609E-02  0.9191465E-01
        1   -1    0    0  501    0  0.00000000000E+00  0.00000000000E+00  0.17072789577E+04  0.17072789577E+04  0.50400001928E-02 0.  1.
       -1   -1    0    0    0  501  0.00000000000E+00  0.00000000000E+00 -0.18178511817E+03  0.18178511824E+03  0.50400001928E-02 0. -1.
    10030    2    1    2    0    0  0.00000000000E+00  0.00000000000E+00  0.15254938396E+04  0.18890640760E+04  0.11141955074E+04 0.  0.
        2    1    3    3  502    0 -0.46219987720E+03  0.27615893975E+03  0.10052937617E+04  0.11403981909E+04  0.25500000920E-02 0.  1.
       -2    1    3    3    0  502  0.46219987720E+03 -0.27615893975E+03  0.52020007791E+03  0.74866588513E+03  0.25500000920E-02 0. -1.
</event>
<event>
 5   0  0.1019384E-02  0.1283387E+04  0.7818609E-02  0.9042844E-01
       -2   -1    0    0    0  501  0.00000000000E+00  0.00000000000E+00  0.23139942476E+03  0.23139942478E+03  0.25500000920E-02 0. -1.
        2   -1    0    0  501    0  0.00000000000E+00  0.00000000000E+00 -0.17794805449E+04  0.17794805449E+04  0.25500000920E-02 0.  1.
    10030    2    1    2    0    0  0.00000000000E+00  0.00000000000E+00 -0.15480811201E+04  0.20108799697E+04  0.12833873530E+04 0.  0.
        1    1    3    3  502    0  0.49928681905E+03 -0.16445325177E+03 -0.19740744397E+03  0.56151749630E+03  0.50400001928E-02 0. -1.
       -1    1    3    3    0  502 -0.49928681905E+03  0.16445325177E+03 -0.13506736762E+04  0.14493624734E+04  0.50400001928E-02 0.  1.
</event>
<event>
 5   0  0.5998641E-03  0.1107269E+04  0.7818609E-02  0.9198135E-01
        1   -1    0    0  501    0  0.00000000000E+00  0.00000000000E+00  0.14226964135E+04  0.14226964135E+04  0.50400001928E-02 0. -1.
       -1   -1    0    0    0  501  0.00000000000E+00  0.00000000000E+00 -0.21544399781E+03  0.21544399787E+03  0.50400001928E-02 0.  1.
    10030    2    1    2    0    0  0.00000000000E+00  0.00000000000E+00  0.12072524157E+04  0.16381404114E+04  0.11072694397E+04 0.  0.
        3    1    3    3  502    0 -0.23916150865E+03 -0.87977379475E+02  0.13307730765E+04  0.13549521164E+04  0.10100000352E+00 0. -1.
       -3    1    3    3    0  502  0.23916150865E+03  0.87977379475E+02 -0.12352066083E+03  0.28318829491E+03  0.10100000352E+00 0.  1.
</event>
<event>
 5   0  0.9692981E-03  0.1109102E+04  0.7818609E-02  0.9196365E-01
        2   -1    0    0  501    0  0.00000000000E+00  0.00000000000E+00  0.14666128965E+04  0.14666128965E+04  0.25500000920E-02 0.  1.
       -2   -1    0    0    0  501  0.00000000000E+00  0.00000000000E+00 -0.20968520882E+03  0.20968520883E+03  0.25500000920E-02 0. -1.
    10030    2    1    2    0    0  0.00000000000E+00  0.00000000000E+00  0.12569276877E+04  0.16762981053E+04  0.11091023965E+04 0.  0.
        5    1    3    3  502    0 -0.53514030873E+03  0.10559006831E+03  0.47747099149E+03  0.72493106587E+03  0.46999998093E+01 0. -1.
       -5    1    3    3    0  502  0.53514030873E+03 -0.10559006831E+03  0.77945669620E+03  0.95136703947E+03  0.46999998093E+01 0.  1.
</event>
<event>
 5   0  0.5998641E-03  0.1090642E+04  0.7818609E-02  0.9214361E-01
        1   -1    0    0  501    0  0.00000000000E+00  0.00000000000E+00  0.15853624984E+04  0.15853624984E+04  0.50400001928E-02 0.  1.
       -1   -1    0    0    0  501  0.00000000000E+00  0.00000000000E+00 -0.18757540578E+03  0.18757540585E+03  0.50400001928E-02 0. -1.
    10030    2    1    2    0    0  0.00000000000E+00  0.00000000000E+00  0.13977870927E+04  0.17729379043E+04  0.10906420385E+04 0.  0.
        3    1    3    3  502    0  0.22859174788E+03 -0.42668000964E+03  0.29066305146E+03  0.56461937401E+03  0.10100000352E+00 0. -1.
       -3    1    3    3    0  502 -0.22859174788E+03  0.42668000964E+03  0.11071240412E+04  0.12083185303E+04  0.10100000352E+00 0.  1.
</event>
<event>
 5   0  0.1028016E-02  0.1101121E+04  0.7818609E-02  0.9204100E-01
       -2   -1    0    0    0  501  0.00000000000E+00  0.00000000000E+00  0.53440934819E+03  0.53440934819E+03  0.25500000920E-02 0. -1.
        2   -1    0    0  501    0  0.00000000000E+00  0.00000000000E+00 -0.56719945562E+03  0.56719945563E+03  0.25500000920E-02 0.  1.
    10030    2    1    2    0    0  0.00000000000E+00  0.00000000000E+00 -0.32790107434E+02  0.11016088038E+04  0.11011206862E+04 0.  0.
        2    1    3    3  502    0 -0.40432509380E+03  0.28709547183E+03  0.22290566976E+03  0.54368145917E+03  0.25500000920E-02 0. -1.
       -2    1    3    3    0  502  0.40432509380E+03 -0.28709547183E+03 -0.25569577720E+03  0.55792734465E+03  0.25500000920E-02 0.  1.
</event>
<event>
 5   0  0.5854579E-03  0.1115426E+04  0.7818609E-02  0.9190285E-01
        1   -1    0    0  501    0  0.00000000000E+00  0.00000000000E+00  0.18448907039E+04  0.18448907039E+04  0.50400001928E-02 0. -1.
       -1   -1    0    0    0  501  0.00000000000E+00  0.00000000000E+00 -0.16859753560E+03  0.16859753568E+03  0.50400001928E-02 0.  1.
    10030    2    1    2    0    0  0.00000000000E+00  0.00000000000E+00  0.16762931683E+04  0.20134882396E+04  0.11154264229E+04 0.  0.
        4    1    3    3  502    0 -0.38307676489E+03 -0.11871469717E+03  0.15377391687E+04  0.15891772559E+04  0.12699999809E+01 0. -1.
       -4    1    3    3    0  502  0.38307676489E+03  0.11871469717E+03  0.13855399965E+03  0.42431098365E+03  0.12699999809E+01 0.  1.
</event>
<event>
 5   0  0.5712664E-03  0.1071756E+04  0.7818609E-02  0.9233166E-01
       -1   -1    0    0    0  501  0.00000000000E+00  0.00000000000E+00  0.28257099260E+03  0.28257099265E+03  0.50400001928E-02 0. -1.
        1   -1    0    0  501    0  0.00000000000E+00  0.00000000000E+00 -0.10162595556E+04  0.10162595556E+04  0.50400001928E-02 0.  1.
    10030    2    1    2    0    0  0.00000000000E+00  0.00000000000E+00 -0.73368856295E+03  0.12988305482E+04  0.10717564488E+04 0.  0.
        5    1    3    3  502    0  0.26788769256E+03 -0.36565477657E+03 -0.20503192536E+02  0.45377274308E+03  0.46999998093E+01 0. -1.
       -5    1    3    3    0  502 -0.26788769256E+03  0.36565477657E+03 -0.71318537042E+03  0.84505780514E+03  0.46999998093E+01 0.  1.
</event>
<event>
 5   0  0.5789905E-03  0.1034391E+04  0.7818609E-02  0.9271609E-01
       -1   -1    0    0    0  501  0.00000000000E+00  0.00000000000E+00  0.60826676929E+03  0.60826676931E+03  0.50400001928E-02 0.  1.
        1   -1    0    0  501    0  0.00000000000E+00  0.00000000000E+00 -0.43976006754E+03  0.43976006757E+03  0.50400001928E-02 0. -1.
    10030    2    1    2    0    0  0.00000000000E+00  0.00000000000E+00  0.16850670175E+03  0.10480268369E+04  0.10343914841E+04 0.  0.
        1    1    3    3  502    0  0.18547660244E+03  0.31896324129E+03  0.45145644756E+03  0.58305406560E+03  0.50400001928E-02 0.  1.
       -1    1    3    3    0  502 -0.18547660244E+03 -0.31896324129E+03 -0.28294974581E+03  0.46497277128E+03  0.50400001928E-02 0. -1.
</event>
<event>
 5   0  0.5958706E-03  0.1081162E+04  0.7818609E-02  0.9223750E-01
        1   -1    0    0  501    0  0.00000000000E+00  0.00000000000E+00  0.12141384732E+04  0.12141384732E+04  0.50400001928E-02 0. -1.
       -1   -1    0    0    0  501  0.00000000000E+00  0.00000000000E+00 -0.24068742079E+03  0.24068742084E+03  0.50400001928E-02 0.  1.
    10030    2    1    2    0    0  0.00000000000E+00  0.00000000000E+00  0.97345105237E+03  0.14548258940E+04  0.10811620741E+04 0.  0.
        2    1    3    3  502    0  0.32408286114E+03 -0.39330246518E+03  0.24409939574E+03  0.56506729246E+03  0.25500000920E-02 0.  1.
       -2    1    3    3    0  502 -0.32408286114E+03  0.39330246518E+03  0.72935165663E+03  0.88975860155E+03  0.25500000920E-02 0. -1.
</event>
<event>
 5   0  0.9719260E-03  0.1107532E+04  0.7818609E-02  0.9197882E-01
        2   -1    0    0  501    0  0.00000000000E+00  0.00000000000E+00  0.14848868766E+04  0.14848868766E+04  0.25500000920E-02 0.  1.
       -2   -1    0    0    0  501  0.00000000000E+00  0.00000000000E+00 -0.20651846812E+03  0.20651846814E+03  0.25500000920E-02 0. -1.
    10030    2    1    2    0    0  0.00000000000E+00  0.00000000000E+00  0.12783684085E+04  0.16914053447E+04  0.11075316034E+04 0.  0.
        3    1    3    3  502    0 -0.42246801233E+02 -0.16151310751E+03 -0.16717117593E+03  0.23625725042E+03  0.10100000352E+00 0. -1.
       -3    1    3    3    0  502  0.42246801233E+02  0.16151310751E+03  0.14455395844E+04  0.14551480943E+04  0.10100000352E+00 0.  1.
</event>
<event>
 5   0  0.1019384E-02  0.1102510E+04  0.7818609E-02  0.9202748E-01
       -2   -1    0    0    0  501  0.00000000000E+00  0.00000000000E+00  0.15421869747E+03  0.15421869749E+03  0.25500000920E-02 0. -1.
        2   -1    0    0  501    0  0.00000000000E+00  0.00000000000E+00 -0.19704634733E+04  0.19704634733E+04  0.25500000920E-02 0.  1.
    10030    2    1    2    0    0  0.00000000000E+00  0.00000000000E+00 -0.18162447758E+04  0.21246821708E+04  0.11025104268E+04 0.  0.
        1    1    3    3  502    0  0.24330391987E+03 -0.21517421521E+02 -0.18604889008E+04  0.18764537689E+04  0.50400001928E-02 0.  1.
       -1    1    3    3    0  502 -0.24330391987E+03  0.21517421521E+02  0.44244125010E+02  0.24822840183E+03  0.50400001928E-02 0. -1.
</event>
<event>
 5   0  0.3949750E-03  0.1124932E+04  0.7818609E-02  0.9181227E-01
        4   -1    0    0  501    0  0.00000000000E+00  0.00000000000E+00  0.56804715906E+03  0.56804857875E+03  0.12699999809E+01 0. -1.
       -4   -1    0    0    0  501  0.00000000000E+00  0.00000000000E+00 -0.55693657520E+03  0.55693802321E+03  0.12699999809E+01 0.  1.
    10030    2    1    2    0    0  0.00000000000E+00  0.00000000000E+00  0.11110583867E+02  0.11249866020E+04  0.11249317355E+04 0.  0.
        5    1    3    3  502    0 -0.39560721216E+03 -0.30235980337E+03 -0.25602819298E+03  0.55990985221E+03  0.46999998093E+01 0.  1.
       -5    1    3    3    0  502  0.39560721216E+03  0.30235980337E+03  0.26713877685E+03  0.56507674974E+03  0.46999998093E+01 0. -1.
</event>
<event>
 5   0  0.5958706E-03  0.1098050E+04  0.7818609E-02  0.9207094E-01
        1   -1    0    0  501    0  0.00000000000E+00  0.00000000000E+00  0.58811351928E+03  0.58811351930E+03  0.50400001928E-02 0.  1.
       -1   -1    0    0    0  501  0.00000000000E+00  0.00000000000E+00 -0.51253480041E+03  0.51253480043E+03  0.50400001928E-02 0. -1.
    10030    2    1    2    0    0  0.00000000000E+00  0.00000000000E+00  0.75578718872E+02  0.11006483197E+04  0.10980503545E+04 0.  0.
        2    1    3    3  502    0  0.19979308038E+03  0.26740023980E+03 -0.39914159418E+03  0.52032122331E+03  0.25500000920E-02 0. -1.
       -2    1    3    3    0  502 -0.19979308038E+03 -0.26740023980E+03  0.47472031305E+03  0.58032709642E+03  0.25500000920E-02 0.  1.
</event>
<event>
 5   0  0.5998641E-03  0.1013819E+04  0.7818609E-02  0.9293517E-01
       -1   -1    0    0    0  501  0.00000000000E+00  0.00000000000E+00  0.19916961652E+03  0.19916961659E+03  0.50400001928E-02 0. -1.
        1   -1    0    0  501    0  0.00000000000E+00  0.00000000000E+00 -0.12901437096E+04  0.12901437096E+04  0.50400001928E-02 0.  1.
    10030    2    1    2    0    0  0.00000000000E+00  0.00000000000E+00 -0.10909740931E+04  0.14893133262E+04  0.10138193684E+04 0.  0.
        3    1    3    3  502    0  0.34427923208E+01 -0.39336580893E+03 -0.10151322163E+04  0.10886881736E+04  0.10100000352E+00 0.  1.
       -3    1    3    3    0  502 -0.34427923208E+01  0.39336580893E+03 -0.75841876768E+02  0.40062515264E+03  0.10100000352E+00 0. -1.
</event>
<event>
 5   0  0.5854579E-03  0.1064659E+04  0.7818609E-02  0.9240339E-01
        1   -1    0    0  501    0  0.00000000000E+00  0.00000000000E+00  0.10711433726E+04  0.10711433726E+04  0.50400001928E-02 0. -1.
       -1   -1    0    0    0  501  0.00000000000E+00  0.00000000000E+00 -0.26455354149E+03  0.26455354153E+03  0.50400001928E-02 0.  1.
    10030    2    1    2    0    0  0.00000000000E+00  0.00000000000E+00  0.80658983114E+03  0.13356969142E+04  0.10646591430E+04 0.  0.
        4    1    3    3  502    0  0.11101443353E+03  0.45556696062E+03  0.87132292567E+02  0.47692673376E+03  0.12699999809E+01 0.  1.
       -4    1    3    3    0  502 -0.11101443353E+03 -0.45556696062E+03  0.71945753857E+03  0.85877018041E+03  0.12699999809E+01 0. -1.
</event>
<event>
 5   0  0.1028016E-02  0.1054786E+04  0.7818609E-02  0.9250417E-01
       -2   -1    0    0    0  501  0.00000000000E+00  0.00000000000E+00  0.15020041126E+03  0.15020041128E+03  0.25500000920E-02 0.  1.
        2   -1    0    0  501    0  0.00000000000E+00  0.00000000000E+00 -0.18518133089E+04  0.18518133089E+04  0.25500000920E-02 0. -1.
    10030    2    1    2    0    0  0.00000000000E+00  0.00000000000E+00 -0.17016128976E+04  0.20020137202E+04  0.10547855149E+04 0.  0.
        2    1    3    3  502    0  0.35357387903E+03 -0.99025982194E+02 -0.13225137399E+03  0.39027049467E+03  0.25500000920E-02 0.  1.
       -2    1    3    3    0  502 -0.35357387903E+03  0.99025982194E+02 -0.15693615236E+04  0.16117432255E+04  0.25500000920E-02 0. -1.
</event>
<event>
 5   0  0.1019384E-02  0.1097525E+04  0.7818609E-02  0.9207607E-01
        2   -1    0    0  501    0  0.00000000000E+00  0.00000000000E+00  0.19636052244E+04  0.19636052244E+04  0.25500000920E-02 0.  1.
       -2   -1    0    0    0  501  0.00000000000E+00  0.00000000000E+00 -0.15336094929E+03  0.15336094931E+03  0.25500000920E-02 0. -1.
    10030    2    1    2    0    0  0.00000000000E+00  0.00000000000E+00  0.18102442751E+04  0.21169661737E+04  0.10975251455E+04 0.  0.
        1    1    3    3  502    0  0.19614897559E+02  0.36785522421E+03  0.12057819551E+03  0.38760974116E+03  0.50400001928E-02 0. -1.
       -1    1    3    3    0  502 -0.19614897559E+02 -0.36785522421E+03  0.16896660796E+04  0.17293564325E+04  0.50400001928E-02 0.  1.
</event>
<event>
 5   0  0.3949750E-03  0.1123501E+04  0.7818609E-02  0.9182585E-01
       -3   -1    0    0    0  501  0.00000000000E+00  0.00000000000E+00  0.12312055695E+04  0.12312055737E+04  0.10100000352E+00 0. -1.
        3   -1    0    0  501    0  0.00000000000E+00  0.00000000000E+00 -0.25630436812E+03  0.25630438802E+03  0.10100000352E+00 0.  1.
    10030    2    1    2    0    0  0.00000000000E+00  0.00000000000E+00  0.97490120143E+03  0.14875099617E+04  0.11235005713E+04 0.  0.
        4    1    3    3  502    0  0.21137300170E+03 -0.24656715928E+03 -0.11940737563E+03  0.34602549637E+03  0.12699999809E+01 0.  1.
       -4    1    3    3    0  502 -0.21137300170E+03  0.24656715928E+03  0.10943085771E+04  0.11414844653E+04  0.12699999809E+01 0. -1.
</event>
<event>
 5   0  0.5789905E-03  0.1103887E+04  0.7818609E-02  0.9201412E-01
       -1   -1    0    0    0  501  0.00000000000E+00  0.00000000000E+00  0.47965514070E+03  0.47965514072E+03  0.50400001928E-02 0. -1.
        1   -1    0    0  501    0  0.00000000000E+00  0.00000000000E+00 -0.63512597501E+03  0.63512597503E+03  0.50400001928E-02 0.  1.
    10030    2    1    2    0    0  0.00000000000E+00  0.00000000000E+00 -0.15547083431E+03  0.11147811158E+04  0.11038866589E+04 0.  0.
        1    1    3    3  502    0  0.42039389951E+03  0.55071724228E+02 -0.43460311531E+03  0.60716043466E+03  0.50400001928E-02 0.  1.
       -1    1    3    3    0  502 -0.42039389951E+03 -0.55071724228E+02  0.27913228100E+03  0.50762068109E+03  0.50400001928E-02 0. -1.
</event>
<event>
 5   0  0.1028016E-02  0.1091485E+04  0.7818609E-02  0.9213531E-01
        2   -1    0    0  501    0  0.00000000000E+00  0.00000000000E+00  0.12345166203E+04  0.12345166203E+04  0.25500000920E-02 0. -1.
       -2   -1    0    0    0  501  0.00000000000E+00  0.00000000000E+00 -0.24125635164E+03  0.24125635165E+03  0.25500000920E-02 0.  1.
    10030    2    1    2    0    0  0.00000000000E+00  0.00000000000E+00  0.99326026868E+03  0.14757729720E+04  0.10914851824E+04 0.  0.
        2    1    3    3  502    0  0.54702091794E+02 -0.49868119223E+03  0.78712155923E+03  0.93340002107E+03  0.25500000920E-02 0.  1.
       -2    1    3    3    0  502 -0.54702091794E+02  0.49868119223E+03  0.20613870946E+03  0.54237295090E+03  0.25500000920E-02 0. -1.
</event>
<event>
 5   0  0.5789905E-03  0.1100111E+04  0.7818609E-02  0.9205084E-01
        1   -1    0    0  501    0  0.00000000000E+00  0.00000000000E+00  0.25635322993E+04  0.25635322994E+04  0.50400001928E-02 0. -1.
       -1   -1    0    0    0  501  0.00000000000E+00  0.00000000000E+00 -0.11802497211E+03  0.11802497222E+03  0.50400001928E-02 0.  1.
    10030    2    1    2    0    0  0.00000000000E+00  0.00000000000E+00  0.24455073272E+04  0.26815572716E+04  0.11001105913E+04 0.  0.
        1    1    3    3  502    0 -0.30519241134E+03 -0.45194750902E+03  0.10476262081E+04  0.11810671576E+04  0.50400001928E-02 0.  1.
       -1    1    3    3    0  502  0.30519241134E+03  0.45194750902E+03  0.13978811191E+04  0.15004901139E+04  0.50400001928E-02 0. -1.
</event>
<event>
 5   0  0.1019384E-02  0.1177265E+04  0.7818609E-02  0.9132993E-01
       -2   -1    0    0    0  501  0.00000000000E+00  0.00000000000E+00  0.25823238995E+03  0.25823238997E+03  0.25500000920E-02 0. -1.
        2   -1    0    0  501    0  0.00000000000E+00  0.00000000000E+00 -0.13417684757E+04  0.13417684757E+04  0.25500000920E-02 0.  1.
    10030    2    1    2    0    0  0.00000000000E+00  0.00000000000E+00 -0.10835360858E+04  0.16000008657E+04  0.11772647625E+04 0.  0.
        1    1    3    3  502    0 -0.14222957917E+03 -0.32603692242E+03  0.95638762956E+02  0.36834236924E+03  0.50400001928E-02 0. -1.
       -1    1    3    3    0  502  0.14222957917E+03  0.32603692242E+03 -0.11791748487E+04  0.12316584964E+04  0.50400001928E-02 0.  1.
</event>
<event>
 5   0  0.5998641E-03  0.9042648E+03  0.7818609E-02  0.9420266E-01
       -1   -1    0    0    0  501  0.00000000000E+00  0.00000000000E+00  0.23614325083E+03  0.23614325088E+03  0.50400001928E-02 0. -1.
        1   -1    0    0  501    0  0.00000000000E+00  0.00000000000E+00 -0.86567669945E+03  0.86567669947E+03  0.50400001928E-02 0.  1.
    10030    2    1    2    0    0  0.00000000000E+00  0.00000000000E+00 -0.62953344862E+03  0.11018199504E+04  0.90426480638E+03 0.  0.
        3    1    3    3  502    0  0.17899338441E+03  0.28840285048E+03  0.49164239523E+02  0.34297517181E+03  0.10100000352E+00 0. -1.
       -3    1    3    3    0  502 -0.17899338441E+03 -0.28840285048E+03 -0.67869768814E+03  0.75884477854E+03  0.10100000352E+00 0.  1.
</event>
<event>
 5   0  0.9692981E-03  0.1044807E+04  0.7818609E-02  0.9260722E-01
        2   -1    0    0  501    0  0.00000000000E+00  0.00000000000E+00  0.10861979470E+04  0.10861979470E+04  0.25500000920E-02 0. -1.
       -2   -1    0    0    0  501  0.00000000000E+00  0.00000000000E+00 -0.25124817536E+03  0.25124817537E+03  0.25500000920E-02 0.  1.
    10030    2    1    2    0    0  0.00000000000E+00  0.00000000000E+00  0.83494977162E+03  0.13374461224E+04  0.10448066850E+04 0.  0.
        5    1    3    3  502    0 -0.39108263221E+03  0.18409459191E+03  0.41976988865E+02  0.43430473355E+03  0.46999998093E+01 0.  1.
       -5    1    3    3    0  502  0.39108263221E+03 -0.18409459191E+03  0.79297278275E+03  0.90314138881E+03  0.46999998093E+01 0. -1.
</event>
<event>
 5   0  0.1019384E-02  0.1102652E+04  0.7818609E-02  0.9202611E-01
       -2   -1    0    0    0  501  0.00000000000E+00  0.00000000000E+00  0.47975945753E+03  0.47975945754E+03  0.25500000920E-02 0. -1.
        2   -1    0    0  501    0  0.00000000000E+00  0.00000000000E+00 -0.63356779990E+03  0.63356779990E+03  0.25500000920E-02 0.  1.
    10030    2    1    2    0    0  0.00000000000E+00  0.00000000000E+00 -0.15380834236E+03  0.11133272574E+04  0.11026516113E+04 0.  0.
        1    1    3    3  502    0  0.44027993053E+03  0.26774964796E+03 -0.27482202834E+03  0.58400636854E+03  0.50400001928E-02 0. -1.
       -1    1    3    3    0  502 -0.44027993053E+03 -0.26774964796E+03  0.12101368598E+03  0.52932088890E+03  0.50400001928E-02 0.  1.
</event>
<event>
 5   0  0.5958706E-03  0.1127190E+04  0.7818609E-02  0.9179088E-01
        1   -1    0    0  501    0  0.00000000000E+00  0.00000000000E+00  0.17104455811E+04  0.17104455811E+04  0.50400001928E-02 0. -1.
       -1   -1    0    0    0  501  0.00000000000E+00  0.00000000000E+00 -0.18570561087E+03  0.18570561094E+03  0.50400001928E-02 0.  1.
    10030    2    1    2    0    0  0.00000000000E+00  0.00000000000E+00  0.15247399703E+04  0.18961511921E+04  0.11271900311E+04 0.  0.
        2    1    3    3  502    0  0.61224572427E+01  0.15303829430E+03  0.16747656974E+04  0.16817545437E+04  0.25500000920E-02 0. -1.
       -2    1    3    3    0  502 -0.61224572427E+01 -0.15303829430E+03 -0.15002572717E+03  0.21439664835E+03  0.25500000920E-02 0.  1.
</event>
<event>
 5   0  0.1028016E-02  0.1105784E+04  0.7818609E-02  0.9199573E-01
        2   -1    0    0  501    0  0.00000000000E+00  0.00000000000E+00  0.19219014936E+04  0.19219014936E+04  0.25500000920E-02 0.  1.
       -2   -1    0    0    0  501  0.00000000000E+00  0.00000000000E+00 -0.15905577603E+03  0.15905577605E+03  0.25500000920E-02 0. -1.
    10030    2    1    2    0    0  0.00000000000E+00  0.00000000000E+00  0.17628457175E+04  0.20809572696E+04  0.11057839455E+04 0.  0.
        2    1    3    3  502    0 -0.27199322835E+03 -0.37268127956E+03  0.14547581922E+04  0.15261694041E+04  0.25500000920E-02 0.  1.
       -2    1    3    3    0  502  0.27199322835E+03  0.37268127956E+03  0.30808752536E+03  0.55478786548E+03  0.25500000920E-02 0. -1.
</event>
<event>
 5   0  0.1019384E-02  0.1105331E+04  0.7818609E-02  0.9200012E-01
       -2   -1    0    0    0  501  0.00000000000E+00  0.00000000000E+00  0.25095549023E+03  0.25095549024E+03  0.25500000920E-02 0.  1.
        2   -1    0    0  501    0  0.00000000000E+00  0.00000000000E+00 -0.12171042205E+04  0.12171042205E+04  0.25500000920E-02 0. -1.
    10030    2    1    2    0    0  0.00000000000E+00  0.00000000000E+00 -0.96614873029E+03  0.14680597108E+04  0.11053306950E+04 0.  0.
        1    1    3    3  502    0  0.90020701140E+01  0.54267519559E+03 -0.34465462968E+03  0.64293407046E+03  0.50400001928E-02 0. -1.
       -1    1    3    3    0  502 -0.90020701140E+01 -0.54267519559E+03 -0.62149410061E+03  0.82512564031E+03  0.50400001928E-02 0.  1.
</event>
<event>
 5   0  0.5958706E-03  0.1102035E+04  0.7818609E-02  0.9203211E-01
       -1   -1    0    0    0  501  0.00000000000E+00  0.00000000000E+00  0.38840878511E+03  0.38840878514E+03  0.50400001928E-02 0. -1.
        1   -1    0    0  501    0  0.00000000000E+00  0.00000000000E+00 -0.78170286518E+03  0.78170286520E+03  0.50400001928E-02 0.  1.
    10030    2    1    2    0    0  0.00000000000E+00  0.00000000000E+00 -0.39329408007E+03  0.11701116503E+04  0.11020349545E+04 0.  0.
        2    1    3    3  502    0  0.15639548921E+02  0.41171166411E+03  0.19183613960E+03  0.45448013633E+03  0.25500000920E-02 0. -1.
       -2    1    3    3    0  502 -0.15639548921E+02 -0.41171166411E+03 -0.58513021968E+03  0.71563151401E+03  0.25500000920E-02 0.  1.
</event>
<event>
 5   0  0.5854579E-03  0.1183069E+04  0.7818609E-02  0.9127807E-01
        1   -1    0    0  501    0  0.00000000000E+00  0.00000000000E+00  0.16155809419E+04  0.16155809419E+04  0.50400001928E-02 0. -1.
       -1   -1    0    0    0  501  0.00000000000E+00  0.00000000000E+00 -0.21658656300E+03  0.21658656306E+03  0.50400001928E-02 0.  1.
    10030    2    1    2    0    0  0.00000000000E+00  0.00000000000E+00  0.13989943789E+04  0.18321675050E+04  0.11830690994E+04 0.  0.
        4    1    3    3  502    0 -0.21526055016E+03 -0.11517150987E+03 -0.13492531829E+03  0.27894091768E+03  0.12699999809E+01 0.  1.
       -4    1    3    3    0  502  0.21526055016E+03  0.11517150987E+03  0.15339196972E+04  0.15532265873E+04  0.12699999809E+01 0. -1.
</event>
<event>
 5   0  0.9692981E-03  0.1083813E+04  0.7818609E-02  0.9221114E-01
        2   -1    0    0  501    0  0.00000000000E+00  0.00000000000E+00  0.11841890958E+04  0.11841890958E+04  0.25500000920E-02 0.  1.
       -2   -1    0    0    0  501  0.00000000000E+00  0.00000000000E+00 -0.24798608188E+03  0.24798608189E+03  0.25500000920E-02 0. -1.
    10030    2    1    2    0    0  0.00000000000E+00  0.00000000000E+00  0.93620301391E+03  0.14321751777E+04  0.10838125559E+04 0.  0.
        5    1    3    3  502    0 -0.22839860198E+03 -0.59737861344E+02  0.11126334869E+04  0.11374136889E+04  0.46999998093E+01 0.  1.
       -5    1    3    3    0  502  0.22839860198E+03  0.59737861344E+02 -0.17643047301E+03  0.29476148879E+03  0.46999998093E+01 0. -1.
</event>
<event>
 5   0  0.5998641E-03  0.1077677E+04  0.7818609E-02  0.9227226E-01
        1   -1    0    0  501    0  0.00000000000E+00  0.00000000000E+00  0.80688137065E+03  0.80688137066E+03  0.50400001928E-02 0.  1.
       -1   -1    0    0    0  501  0.00000000000E+00  0.00000000000E+00 -0.35983857114E+03  0.35983857118E+03  0.50400001928E-02 0. -1.
    10030    2    1    2    0    0  0.00000000000E+00  0.00000000000E+00  0.44704279951E+03  0.11667199418E+04  0.10776772050E+04 0.  0.
        3    1    3    3  502    0  0.37930149568E+03 -0.29287078566E+03 -0.43217873607E+02  0.48115560531E+03  0.10100000352E+00 0. -1.
       -3    1    3    3    0  502 -0.37930149568E+03  0.29287078566E+03  0.49026067311E+03  0.68556433653E+03  0.10100000352E+00 0.  1.
</event>
<event>
 5   0  0.5789905E-03  0.1093074E+04  0.7818609E-02  0.9211969E-01
       -1   -1    0    0    0  501  0.00000000000E+00  0.00000000000E+00  0.11016551314E+04  0.11016551314E+04  0.50400001928E-02 0. -1.
        1   -1    0    0  501    0  0.00000000000E+00  0.00000000000E+00 -0.27114001788E+03  0.27114001793E+03  0.50400001928E-02 0.  1.
    10030    2    1    2    0    0  0.00000000000E+00  0.00000000000E+00  0.83051511354E+03  0.13727951494E+04  0.10930741824E+04 0.  0.
        1    1    3    3  502    0  0.46522506154E+03  0.37009795900E+02  0.77247026029E+03  0.90250450743E+03  0.50400001928E-02 0. -1.
       -1    1    3    3    0  502 -0.46522506154E+03 -0.37009795900E+02  0.58044853246E+02  0.47029064193E+03  0.50400001928E-02 0.  1.
</event>
<event>
 5   0  0.9719260E-03  0.1081749E+04  0.7818609E-02  0.9223166E-01
       -2   -1    0    0    0  501  0.00000000000E+00  0.00000000000E+00  0.32656466195E+03  0.32656466196E+03  0.25500000920E-02 0. -1.
        2   -1    0    0  501    0  0.00000000000E+00  0.00000000000E+00 -0.89582565082E+03  0.89582565083E+03  0.25500000920E-02 0.  1.
    10030    2    1    2    0    0  0.00000000000E+00  0.00000000000E+00 -0.56926098888E+03  0.12223903128E+04  0.10817485860E+04 0.  0.
        3    1    3    3  502    0 -0.53862620421E+03 -0.26205409196E+02 -0.23749282753E+03  0.58924338322E+03  0.10100000352E+00 0.  1.
       -3    1    3    3    0  502  0.53862620421E+03  0.26205409196E+02 -0.33176816134E+03  0.63314692956E+03  0.10100000352E+00 0. -1.
</event>
<event>
 5   0  0.9692981E-03  0.1108748E+04  0.7818609E-02  0.9196707E-01
       -2   -1    0    0    0  501  0.00000000000E+00  0.00000000000E+00  0.25919824533E+03  0.25919824534E+03  0.25500000920E-02 0. -1.
        2   -1    0    0  501    0  0.00000000000E+00  0.00000000000E+00 -0.11856970986E+04  0.11856970986E+04  0.25500000920E-02 0.  1.
    10030    2    1    2    0    0  0.00000000000E+00  0.00000000000E+00 -0.92649885325E+03  0.14448953439E+04  0.11087481363E+04 0.  0.
        5    1    3    3  502    0  0.31038969544E+03  0.45244149883E+03 -0.56638538468E+03  0.78858072946E+03  0.46999998093E+01 0.  1.
       -5    1    3    3    0  502 -0.31038969544E+03 -0.45244149883E+03 -0.36011346857E+03  0.65631461445E+03  0.46999998093E+01 0. -1.
</event>
<event>
 5   0  0.5712664E-03  0.1131014E+04  0.7818609E-02  0.9175480E-01
       -1   -1    0    0    0  501  0.00000000000E+00  0.00000000000E+00  0.38027503188E+03  0.38027503192E+03  0.50400001928E-02 0. -1.
        1   -1    0    0  501    0  0.00000000000E+00  0.00000000000E+00 -0.84096472556E+03  0.84096472557E+03  0.50400001928E-02 0.  1.
    10030    2    1    2    0    0  0.00000000000E+00  0.00000000000E+00 -0.46068969367E+03  0.12212397575E+04  0.11310135063E+04 0.  0.
        5    1    3    3  502    0 -0.21000702647E+03  0.39451088379E+03 -0.60444277178E+03  0.75174127394E+03  0.46999998093E+01 0.  1.
       -5    1    3    3    0  502  0.21000702647E+03 -0.39451088379E+03  0.14375307811E+03  0.46949848355E+03  0.46999998093E+01 0. -1.
</event>
<event>
 5   0  0.5958706E-03  0.1151058E+04  0.7818609E-02  0.9156808E-01
       -1   -1    0    0    0  501  0.00000000000E+00  0.00000000000E+00  0.14050591697E+03  0.14050591706E+03  0.50400001928E-02 0. -1.
        1   -1    0    0  501    0  0.00000000000E+00  0.00000000000E+00 -0.23574369180E+04  0.23574369180E+04  0.50400001928E-02 0.  1.
    10030    2    1    2    0    0  0.00000000000E+00  0.00000000000E+00 -0.22169310011E+04  0.24979428351E+04  0.11510583582E+04 0.  0.
        2    1    3    3  502    0  0.87656863391E+02  0.42364557236E+03 -0.19321839104E+04  0.19800237272E+04  0.25500000920E-02 0.  1.
       -2    1    3    3    0  502 -0.87656863391E+02 -0.42364557236E+03 -0.28474709069E+03  0.51791910791E+03  0.25500000920E-02 0. -1.
</event>
<event>
 5   0  0.9925021E-03  0.9839132E+03  0.7818609E-02  0.9326367E-01
       -2   -1    0    0    0  501  0.00000000000E+00  0.00000000000E+00  0.39258018087E+03  0.39258018088E+03  0.25500000920E-02 0. -1.
        2   -1    0    0  501    0  0.00000000000E+00  0.00000000000E+00 -0.61648878361E+03  0.61648878361E+03  0.25500000920E-02 0.  1.
    10030    2    1    2    0    0  0.00000000000E+00  0.00000000000E+00 -0.22390860274E+03  0.10090689645E+04  0.98391316320E+03 0.  0.
        4    1    3    3  502    0  0.48097186522E+03 -0.10538741744E+02 -0.64919649291E+01  0.48113278700E+03  0.12699999809E+01 0.  1.
       -4    1    3    3    0  502 -0.48097186522E+03  0.10538741744E+02 -0.21741663781E+03  0.52793617750E+03  0.12699999809E+01 0. -1.
</event>
<event>
 5   0  0.9692981E-03  0.1063678E+04  0.7818609E-02  0.9241335E-01
       -2   -1    0    0    0  501  0.00000000000E+00  0.00000000000E+00  0.22154352275E+03  0.22154352276E+03  0.25500000920E-02 0. -1.
        2   -1    0    0  501    0  0.00000000000E+00  0.00000000000E+00 -0.12767371256E+04  0.12767371256E+04  0.25500000920E-02 0.  1.
    10030    2    1    2    0    0  0.00000000000E+00  0.00000000000E+00 -0.10551936029E+04  0.14982806484E+04  0.10636782229E+04 0.  0.
        5    1    3    3  502    0  0.28396610723E+03  0.39977046405E+03 -0.23762820893E+03  0.54492424212E+03  0.46999998093E+01 0. -1.
       -5    1    3    3    0  502 -0.28396610723E+03 -0.39977046405E+03 -0.81756539397E+03  0.95335640628E+03  0.46999998093E+01 0.  1.
</event>
<event>
 5   0  0.5854579E-03  0.1044643E+04  0.7818609E-02  0.9260892E-01
       -1   -1    0    0    0  501  0.00000000000E+00  0.00000000000E+00  0.73961692805E+03  0.73961692807E+03  0.50400001928E-02 0. -1.
        1   -1    0    0  501    0  0.00000000000E+00  0.00000000000E+00 -0.36886652627E+03  0.36886652630E+03  0.50400001928E-02 0.  1.
    10030    2    1    2    0    0  0.00000000000E+00  0.00000000000E+00  0.37075040178E+03  0.11084834544E+04  0.10446433402E+04 0.  0.
        4    1    3    3  502    0 -0.96498191448E+02 -0.51099335960E+03  0.23727430787E+03  0.57160023144E+03  0.12699999809E+01 0.  1.
       -4    1    3    3    0  502  0.96498191448E+02  0.51099335960E+03  0.13347609391E+03  0.53688322293E+03  0.12699999809E+01 0. -1.
</event>
<event>
 5   0  0.1028016E-02  0.1101614E+04  0.7818609E-02  0.9203621E-01
       -2   -1    0    0    0  501  0.00000000000E+00  0.00000000000E+00  0.51072006717E+03  0.51072006718E+03  0.25500000920E-02 0.  1.
        2   -1    0    0  501    0  0.00000000000E+00  0.00000000000E+00 -0.59403990381E+03  0.59403990381E+03  0.25500000920E-02 0. -1.
    10030    2    1    2    0    0  0.00000000000E+00  0.00000000000E+00 -0.83319836633E+02  0.11047599710E+04  0.11016135431E+04 0.  0.
        2    1    3    3  502    0 -0.15913023333E+03 -0.42371457779E+03  0.27313411072E+03  0.52863855047E+03  0.25500000920E-02 0.  1.
       -2    1    3    3    0  502  0.15913023333E+03  0.42371457779E+03 -0.35645394735E+03  0.57612142052E+03  0.25500000920E-02 0. -1.
</event>
<event>
 5   0  0.3949750E-03  0.1120269E+04  0.7818609E-02  0.9185659E-01
        3   -1    0    0  501    0  0.00000000000E+00  0.00000000000E+00  0.54331256331E+03  0.54331257270E+03  0.10100000352E+00 0. -1.
       -3   -1    0    0    0  501  0.00000000000E+00  0.00000000000E+00 -0.57747701192E+03  0.57747702075E+03  0.10100000352E+00 0.  1.
    10030    2    1    2    0    0  0.00000000000E+00  0.00000000000E+00 -0.34164448605E+02  0.11207895935E+04  0.11202687638E+04 0.  0.
        5    1    3    3  502    0  0.36976853648E+03 -0.11398622630E+03 -0.42224804136E+03  0.57274525645E+03  0.46999998093E+01 0.  1.
       -5    1    3    3    0  502 -0.36976853648E+03  0.11398622630E+03  0.38808359275E+03  0.54804433700E+03  0.46999998093E+01 0. -1.
</event>
<event>
 5   0  0.5958706E-03  0.1106792E+04  0.7818609E-02  0.9198597E-01
       -1   -1    0    0    0  501  0.00000000000E+00  0.00000000000E+00  0.66904265110E+03  0.66904265112E+03  0.50400001928E-02 0.  1.
        1   -1    0    0  501    0  0.00000000000E+00  0.00000000000E+00 -0.45773934516E+03  0.45773934519E+03  0.50400001928E-02 0. -1.
    10030    2    1    2    0    0  0.00000000000E+00  0.00000000000E+00  0.21130330594E+03  0.11267819963E+04  0.11067920221E+04 0.  0.
        2    1    3    3  502    0  0.17008450054E+03 -0.45181019326E+03 -0.16976345326E+03  0.51174292191E+03  0.25500000920E-02 0. -1.
       -2    1    3    3    0  502 -0.17008450054E+03  0.45181019326E+03  0.38106675920E+03  0.61503907439E+03  0.25500000920E-02 0.  1.
</event>
<event>
 5   0  0.1019384E-02  0.1072375E+04  0.7818609E-02  0.9232543E-01
        2   -1    0    0  501    0  0.00000000000E+00  0.00000000000E+00  0.92637943042E+03  0.92637943042E+03  0.25500000920E-02 0. -1.
       -2   -1    0    0    0  501  0.00000000000E+00  0.00000000000E+00 -0.31034469360E+03  0.31034469361E+03  0.25500000920E-02 0.  1.
    10030    2    1    2    0    0  0.00000000000E+00  0.00000000000E+00  0.61603473682E+03  0.12367241240E+04  0.10723748235E+04 0.  0.
        1    1    3    3  502    0  0.36921987266E+03  0.34879797011E+03  0.10989325672E+03  0.51967284537E+03  0.50400001928E-02 0.  1.
       -1    1    3    3    0  502 -0.36921987266E+03 -0.34879797011E+03  0.50614148010E+03  0.71705127866E+03  0.50400001928E-02 0. -1.
</event>
<event>
 5   0  0.5789905E-03  0.1093919E+04  0.7818609E-02  0.9211139E-01
       -1   -1    0    0    0  501  0.00000000000E+00  0.00000000000E+00  0.13588829679E+03  0.13588829689E+03  0.50400001928E-02 0.  1.
        1   -1    0    0  501    0  0.00000000000E+00  0.00000000000E+00 -0.22015498758E+04  0.22015498758E+04  0.50400001928E-02 0. -1.
    10030    2    1    2    0    0  0.00000000000E+00  0.00000000000E+00 -0.20656615790E+04  0.23374381727E+04  0.10939193079E+04 0.  0.
        1    1    3    3  502    0 -0.81926286285E+02 -0.46297303602E+03 -0.43565093899E+03  0.64097401596E+03  0.50400001928E-02 0.  1.
       -1    1    3    3    0  502  0.81926286285E+02  0.46297303602E+03 -0.16300106400E+04  0.16964641567E+04  0.50400001928E-02 0. -1.
</event>
<event>
 5   0  0.5998641E-03  0.1115635E+04  0.7818609E-02  0.9190086E-01
        1   -1    0    0  501    0  0.00000000000E+00  0.00000000000E+00  0.64074321206E+03  0.64074321208E+03  0.50400001928E-02 0. -1.
       -1   -1    0    0    0  501  0.00000000000E+00  0.00000000000E+00 -0.48562396621E+03  0.48562396623E+03  0.50400001928E-02 0.  1.
    10030    2    1    2    0    0  0.00000000000E+00  0.00000000000E+00  0.15511924586E+03  0.11263671783E+04  0.11156348148E+04 0.  0.
        3    1    3    3  502    0  0.22959164972E+03 -0.41143691982E+01 -0.43569187931E+03  0.49250043406E+03  0.10100000352E+00 0.  1.
       -3    1    3    3    0  502 -0.22959164972E+03  0.41143691982E+01  0.59081112516E+03  0.63386674426E+03  0.10100000352E+00 0. -1.
</event>
<event>
 5   0  0.9925021E-03  0.1095496E+04  0.7818609E-02  0.9209593E-01
        2   -1    0    0  501    0  0.00000000000E+00  0.00000000000E+00  0.11003831000E+04  0.11003831000E+04  0.25500000920E-02 0. -1.
       -2   -1    0    0    0  501  0.00000000000E+00  0.00000000000E+00 -0.27265769332E+03  0.27265769333E+03  0.25500000920E-02 0.  1.
    10030    2    1    2    0    0  0.00000000000E+00  0.00000000000E+00  0.82772540665E+03  0.13730407933E+04  0.10954960845E+04 0.  0.
        4    1    3    3  502    0 -0.26182161286E+03 -0.12852978230E+03 -0.16723242984E+03  0.33621237394E+03  0.12699999809E+01 0.  1.
       -4    1    3    3    0  502  0.26182161286E+03  0.12852978230E+03  0.99495783649E+03  0.10368284194E+04  0.12699999809E+01 0. -1.
</event>
<event>
 5   0  0.1019384E-02  0.1126755E+04  0.7818609E-02  0.9179500E-01
       -2   -1    0    0    0  501  0.00000000000E+00  0.00000000000E+00  0.28497312471E+03  0.28497312472E+03  0.25500000920E-02 0.  1.
        2   -1    0    0  501    0  0.00000000000E+00  0.00000000000E+00 -0.11137692089E+04  0.11137692089E+04  0.25500000920E-02 0. -1.
    10030    2    1    2    0    0  0.00000000000E+00  0.00000000000E+00 -0.82879608417E+03  0.13987423336E+04  0.11267551494E+04 0.  0.
        1    1    3    3  502    0 -0.15183843341E+03  0.22887218693E+03  0.19623060776E+03  0.33755568319E+03  0.50400001928E-02 0.  1.
       -1    1    3    3    0  502  0.15183843341E+03 -0.22887218693E+03 -0.10250266919E+04  0.10611866504E+04  0.50400001928E-02 0. -1.
</event>
<event>
 5   0  0.9692981E-03  0.1080492E+04  0.7818609E-02  0.9224417E-01
       -2   -1    0    0    0  501  0.00000000000E+00  0.00000000000E+00  0.29533624369E+03  0.29533624370E+03  0.25500000920E-02 0.  1.
        2   -1    0    0  501    0  0.00000000000E+00  0.00000000000E+00 -0.98824813849E+03  0.98824813849E+03  0.25500000920E-02 0. -1.
    10030    2    1    2    0    0  0.00000000000E+00  0.00000000000E+00 -0.69291189480E+03  0.12835843822E+04  0.10804915420E+04 0.  0.
        5    1    3    3  502    0 -0.20819006207E+03  0.83501199709E+02  0.23737439364E+03  0.32662554256E+03  0.46999998093E+01 0.  1.
       -5    1    3    3    0  502  0.20819006207E+03 -0.83501199709E+02 -0.93028628844E+03  0.95695883964E+03  0.46999998093E+01 0. -1.
</event>
<event>
 5   0  0.5854579E-03  0.1099895E+04  0.7818609E-02  0.9205294E-01
        1   -1    0    0  501    0  0.00000000000E+00  0.00000000000E+00  0.28060594798E+03  0.28060594802E+03  0.50400001928E-02 0.  1.
       -1   -1    0    0    0  501  0.00000000000E+00  0.00000000000E+00 -0.10778180696E+04  0.10778180696E+04  0.50400001928E-02 0. -1.
    10030    2    1    2    0    0  0.00000000000E+00  0.00000000000E+00 -0.79721212161E+03  0.13584240176E+04  0.10998948335E+04 0.  0.
        4    1    3    3  502    0  0.34642468962E+01 -0.29151462152E+03 -0.97452541197E+03  0.10171991777E+04  0.12699999809E+01 0. -1.
       -4    1    3    3    0  502 -0.34642468962E+01  0.29151462152E+03  0.17731329036E+03  0.34122483996E+03  0.12699999809E+01 0.  1.
</event>
<event>
 5   0  0.5712664E-03  0.1106297E+04  0.7818609E-02  0.9199076E-01
        1   -1    0    0  501    0  0.00000000000E+00  0.00000000000E+00  0.13161586061E+04  0.13161586061E+04  0.50400001928E-02 0.  1.
       -1   -1    0    0    0  501  0.00000000000E+00  0.00000000000E+00 -0.23247443688E+03  0.23247443693E+03  0.50400001928E-02 0. -1.
    10030    2    1    2    0    0  0.00000000000E+00  0.00000000000E+00  0.10836841692E+04  0.15486330430E+04  0.11062969418E+04 0.  0.
        5    1    3    3  502    0 -0.52810585368E+03 -0.14552569872E+03  0.43452285876E+03  0.69921793917E+03  0.46999998093E+01 0. -1.
       -5    1    3    3    0  502  0.52810585368E+03  0.14552569872E+03  0.64916131044E+03  0.84941510385E+03  0.46999998093E+01 0.  1.
</event>
<event>
 5   0  0.1028016E-02  0.1095465E+04  0.7818609E-02  0.9209623E-01
       -2   -1    0    0    0  501  0.00000000000E+00  0.00000000000E+00  0.15357656160E+03  0.15357656162E+03  0.25500000920E-02 0. -1.
        2   -1    0    0  501    0  0.00000000000E+00  0.00000000000E+00 -0.19534953607E+04  0.19534953607E+04  0.25500000920E-02 0.  1.
    10030    2    1    2    0    0  0.00000000000E+00  0.00000000000E+00 -0.17999187991E+04  0.21070719223E+04  0.10954653817E+04 0.  0.
        2    1    3    3  502    0 -0.13617895746E+03  0.52409405620E+03 -0.10584755596E+04  0.11889448257E+04  0.25500000920E-02 0.  1.
       -2    1    3    3    0  502  0.13617895746E+03 -0.52409405620E+03 -0.74144323946E+03  0.91812709662E+03  0.25500000920E-02 0. -1.
</event>
<event>
 5   0  0.5854579E-03  0.1119739E+04  0.7818609E-02  0.9186164E-01
       -1   -1    0    0    0  501  0.00000000000E+00  0.00000000000E+00  0.11164912603E+04  0.11164912603E+04  0.50400001928E-02 0. -1.
        1   -1    0    0  501    0  0.00000000000E+00  0.00000000000E+00 -0.28074885646E+03  0.28074885650E+03  0.50400001928E-02 0.  1.
    10030    2    1    2    0    0  0.00000000000E+00  0.00000000000E+00  0.83574240385E+03  0.13972401168E+04  0.11197386206E+04 0.  0.
        4    1    3    3  502    0  0.12013386398E+03  0.54676306090E+03  0.42831437951E+03  0.70486651973E+03  0.12699999809E+01 0. -1.
       -4    1    3    3    0  502 -0.12013386398E+03 -0.54676306090E+03  0.40742802434E+03  0.69237359709E+03  0.12699999809E+01 0.  1.
</event>
<event>
 5   0  0.9692981E-03  0.1083046E+04  0.7818609E-02  0.9221875E-01
        2   -1    0    0  501    0  0.00000000000E+00  0.00000000000E+00  0.87933308801E+03  0.87933308802E+03  0.25500000920E-02 0.  1.
       -2   -1    0    0    0  501  0.00000000000E+00  0.00000000000E+00 -0.33348834680E+03  0.33348834681E+03  0.25500000920E-02 0. -1.
    10030    2    1    2    0    0  0.00000000000E+00  0.00000000000E+00  0.54584474121E+03  0.12128214348E+04  0.10830463292E+04 0.  0.
        5    1    3    3  502    0 -0.10799686017E+03  0.25653090799E+03 -0.24722819525E+03  0.37231075607E+03  0.46999998093E+01 0. -1.
       -5    1    3    3    0  502  0.10799686017E+03 -0.25653090799E+03  0.79307293646E+03  0.84051067876E+03  0.46999998093E+01 0.  1.
</event>
<event>
 5   0  0.5712664E-03  0.1087897E+04  0.7818609E-02  0.9217069E-01
       -1   -1    0    0    0  501  0.00000000000E+00  0.00000000000E+00  0.52768889397E+03  0.52768889399E+03  0.50400001928E-02 0. -1.
        1   -1    0    0  501    0  0.00000000000E+00  0.00000000000E+00 -0.56070946500E+03  0.56070946502E+03  0.50400001928E-02 0.  1.
    10030    2    1    2    0    0  0.00000000000E+00  0.00000000000E+00 -0.33020571029E+02  0.10883983590E+04  0.10878973434E+04 0.  0.
        5    1    3    3  502    0 -0.40964030810E+03 -0.73964325251E+02 -0.36678888456E+03  0.55482617032E+03  0.46999998093E+01 0.  1.
       -5    1    3    3    0  502  0.40964030810E+03  0.73964325251E+02  0.33376831353E+03  0.53357218870E+03  0.46999998093E+01 0. -1.
</event>
<event>
 5   0  0.5854579E-03  0.1119979E+04  0.7818609E-02  0.9185935E-01
       -1   -1    0    0    0  501  0.00000000000E+00  0.00000000000E+00  0.68040046912E+03  0.68040046914E+03  0.50400001928E-02 0. -1.
        1   -1    0    0  501    0  0.00000000000E+00  0.00000000000E+00 -0.46088772071E+03  0.46088772073E+03  0.50400001928E-02 0.  1.
    10030    2    1    2    0    0  0.00000000000E+00  0.00000000000E+00  0.21951274841E+03  0.11412881899E+04  0.11199789666E+04 0.  0.
        4    1    3    3  502    0 -0.13856869219E+03 -0.38748305207E+03 -0.27726205067E+03  0.49620586024E+03  0.12699999809E+01 0.  1.
       -4    1    3    3    0  502  0.13856869219E+03  0.38748305207E+03  0.49677479908E+03  0.64508232963E+03  0.12699999809E+01 0. -1.
</event>
<event>
 5   0  0.1028016E-02  0.1090327E+04  0.7818609E-02  0.9214671E-01
       -2   -1    0    0    0  501  0.00000000000E+00  0.00000000000E+00  0.16213618945E+03  0.16213618947E+03  0.25500000920E-02 0.  1.
        2   -1    0    0  501    0  0.00000000000E+00  0.00000000000E+00 -0.18330470571E+04  0.18330470571E+04  0.25500000920E-02 0. -1.
    10030    2    1    2    0    0  0.00000000000E+00  0.00000000000E+00 -0.16709108677E+04  0.19951832466E+04  0.10903270426E+04 0.  0.
        2    1    3    3  502    0  0.10436943541E+03 -0.23212621963E+03  0.46750453754E+02  0.25876855648E+03  0.25500000920E-02 0.  1.
       -2    1    3    3    0  502 -0.10436943541E+03  0.23212621963E+03 -0.17176613214E+04  0.17364146901E+04  0.25500000920E-02 0. -1.
</event>
<event>
 5   0  0.5712664E-03  0.1059648E+04  0.7818609E-02  0.9245439E-01
       -1   -1    0    0    0  501  0.00000000000E+00  0.00000000000E+00  0.43681461478E+03  0.43681461481E+03  0.50400001928E-02 0.  1.
        1   -1    0    0  501    0  0.00000000000E+00  0.00000000000E+00 -0.64263803911E+03  0.64263803913E+03  0.50400001928E-02 0. -1.
    10030    2    1    2    0    0  0.00000000000E+00  0.00000000000E+00 -0.20582342433E+03  0.10794526539E+04  0.10596484087E+04 0.  0.
        5    1    3    3  502    0  0.41024358639E+03 -0.33518206610E+03 -0.96094866493E+02  0.53842653257E+03  0.46999998093E+01 0.  1.
       -5    1    3    3    0  502 -0.41024358639E+03  0.33518206610E+03 -0.10972855784E+03  0.54102612138E+03  0.46999998093E+01 0. -1.
</event>
<event>
 5   0  0.1019384E-02  0.1123806E+04  0.7818609E-02  0.9182294E-01
       -2   -1    0    0    0  501  0.00000000000E+00  0.00000000000E+00  0.28529149891E+03  0.28529149892E+03  0.25500000920E-02 0.  1.
        2   -1    0    0  501    0  0.00000000000E+00  0.00000000000E+00 -0.11067110257E+04  0.11067110257E+04  0.25500000920E-02 0. -1.
    10030    2    1    2    0    0  0.00000000000E+00  0.00000000000E+00 -0.82141952680E+03  0.13920025246E+04  0.11238064734E+04 0.  0.
        1    1    3    3  502    0  0.14267646529E+03 -0.54163117693E+03 -0.46630211897E+03  0.72880626489E+03  0.50400001928E-02 0. -1.
       -1    1    3    3    0  502 -0.14267646529E+03  0.54163117693E+03 -0.35511740783E+03  0.66319625974E+03  0.50400001928E-02 0.  1.
</event>
<event>
 5   0  0.5789905E-03  0.1105951E+04  0.7818609E-02  0.9199411E-01
       -1   -1    0    0    0  501  0.00000000000E+00  0.00000000000E+00  0.17167923142E+03  0.17167923150E+03  0.50400001928E-02 0.  1.
        1   -1    0    0  501    0  0.00000000000E+00  0.00000000000E+00 -0.17811219588E+04  0.17811219588E+04  0.50400001928E-02 0. -1.
    10030    2    1    2    0    0  0.00000000000E+00  0.00000000000E+00 -0.16094427273E+04  0.19528011903E+04  0.11059505396E+04 0.  0.
        1    1    3    3  502    0  0.39869767400E+03  0.38147445652E+03 -0.86836217733E+03  0.10288515283E+04  0.50400001928E-02 0. -1.
       -1    1    3    3    0  502 -0.39869767400E+03 -0.38147445652E+03 -0.74108055000E+03  0.92394966197E+03  0.50400001928E-02 0.  1.
</event>
<event>
 5   0  0.5958706E-03  0.1063906E+04  0.7818609E-02  0.9241103E-01
       -1   -1    0    0    0  501  0.00000000000E+00  0.00000000000E+00  0.15422367402E+03  0.15422367411E+03  0.50400001928E-02 0. -1.
        1   -1    0    0  501    0  0.00000000000E+00  0.00000000000E+00 -0.18348293361E+04  0.18348293361E+04  0.50400001928E-02 0.  1.
    10030    2    1    2    0    0  0.00000000000E+00  0.00000000000E+00 -0.16806056621E+04  0.19890530102E+04  0.10639062393E+04 0.  0.
        2    1    3    3  502    0 -0.51937186778E+02  0.50334132201E+03 -0.53353196461E+03  0.73532735232E+03  0.25500000920E-02 0. -1.
       -2    1    3    3    0  502  0.51937186778E+02 -0.50334132201E+03 -0.11470736975E+04  0.12537256579E+04  0.25500000920E-02 0.  1.
</event>
<event>
 5   0  0.9925021E-03  0.1109436E+04  0.7818609E-02  0.9196043E-01
        2   -1    0    0  501    0  0.00000000000E+00  0.00000000000E+00  0.20024986806E+04  0.20024986806E+04  0.25500000920E-02 0. -1.
       -2   -1    0    0    0  501  0.00000000000E+00  0.00000000000E+00 -0.15366410853E+03  0.15366410855E+03  0.25500000920E-02 0.  1.
    10030    2    1    2    0    0  0.00000000000E+00  0.00000000000E+00  0.18488345720E+04  0.21561627891E+04  0.11094362075E+04 0.  0.
        4    1    3    3  502    0  0.35311653632E+03 -0.28660975001E+02  0.17539830145E+04  0.17894051436E+04  0.12699999809E+01 0. -1.
       -4    1    3    3    0  502 -0.35311653632E+03  0.28660975001E+02  0.94851557518E+02  0.36675764555E+03  0.12699999809E+01 0.  1.
</event>
<event>
 5   0  0.1028016E-02  0.1156592E+04  0.7818609E-02  0.9151724E-01
       -2   -1    0    0    0  501  0.00000000000E+00  0.00000000000E+00  0.21600079970E+03  0.21600079972E+03  0.25500000920E-02 0. -1.
        2   -1    0    0  501    0  0.00000000000E+00  0.00000000000E+00 -0.15482634356E+04  0.15482634356E+04  0.25500000920E-02 0.  1.
    10030    2    1    2    0    0  0.00000000000E+00  0.00000000000E+00 -0.13322626359E+04  0.17642642353E+04  0.11565917867E+04 0.  0.
        2    1    3    3  502    0 -0.44782610270E+03  0.12286603994E+02 -0.12239499478E+04  0.13033620577E+04  0.25500000920E-02 0.  1.
       -2    1    3    3    0  502  0.44782610270E+03 -0.12286603994E+02 -0.10831268815E+03  0.46090217760E+03  0.25500000920E-02 0. -1.
</event>
<event>
 5   0  0.9925021E-03  0.1084210E+04  0.7818609E-02  0.9220720E-01
       -2   -1    0    0    0  501  0.00000000000E+00  0.00000000000E+00  0.47820701620E+03  0.47820701621E+03  0.25500000920E-02 0. -1.
        2   -1    0    0  501    0  0.00000000000E+00  0.00000000000E+00 -0.61454113363E+03  0.61454113364E+03  0.25500000920E-02 0.  1.
    10030    2    1    2    0    0  0.00000000000E+00  0.00000000000E+00 -0.13633411743E+03  0.10927481498E+04  0.10842100938E+04 0.  0.
        4    1    3    3  502    0  0.51779489773E+03 -0.50861035022E+02 -0.22160874968E+03  0.56551786164E+03  0.12699999809E+01 0.  1.
       -4    1    3    3    0  502 -0.51779489773E+03  0.50861035022E+02  0.85274632246E+02  0.52723028821E+03  0.12699999809E+01 0. -1.
</event>
<event>
 5   0  0.3949750E-03  0.1090592E+04  0.7818609E-02  0.9214410E-01
       -4   -1    0    0    0  501  0.00000000000E+00  0.00000000000E+00  0.31406610342E+03  0.31406867118E+03  0.12699999809E+01 0.  1.
        4   -1    0    0  501    0  0.00000000000E+00  0.00000000000E+00 -0.94676096388E+03  0.94676181567E+03  0.12699999809E+01 0. -1.
    10030    2    1    2    0    0  0.00000000000E+00  0.00000000000E+00 -0.63269486046E+03  0.12608304869E+04  0.10905919173E+04 0.  0.
        5    1    3    3  502    0  0.15404838593E+03  0.52010645342E+03 -0.25214534889E+03  0.59819812358E+03  0.46999998093E+01 0. -1.
       -5    1    3    3    0  502 -0.15404838593E+03 -0.52010645342E+03 -0.38054951157E+03  0.66263236327E+03  0.46999998093E+01 0.  1.
</event>
<event>
 5   0  0.1019384E-02  0.1098823E+04  0.7818609E-02  0.9206339E-01
        2   -1    0    0  501    0  0.00000000000E+00  0.00000000000E+00  0.97019426907E+03  0.97019426908E+03  0.25500000920E-02 0.  1.
       -2   -1    0    0    0  501  0.00000000000E+00  0.00000000000E+00 -0.31112658989E+03  0.31112658990E+03  0.25500000920E-02 0. -1.
    10030    2    1    2    0    0  0.00000000000E+00  0.00000000000E+00  0.65906767919E+03  0.12813208590E+04  0.10988234334E+04 0.  0.
        1    1    3    3  502    0 -0.50037525472E+03 -0.19901433905E+02  0.59308380290E+03  0.77622152759E+03  0.50400001928E-02 0.  1.
       -1    1    3    3    0  502  0.50037525472E+03  0.19901433905E+02  0.65983876290E+02  0.50509933138E+03  0.50400001928E-02 0. -1.
</event>
<event>
 5   0  0.5854579E-03  0.1107560E+04  0.7818609E-02  0.9197855E-01
        1   -1    0    0  501    0  0.00000000000E+00  0.00000000000E+00  0.14097437442E+04  0.14097437442E+04  0.50400001928E-02 0.  1.
       -1   -1    0    0    0  501  0.00000000000E+00  0.00000000000E+00 -0.21753761957E+03  0.21753761962E+03  0.50400001928E-02 0. -1.
    10030    2    1    2    0    0  0.00000000000E+00  0.00000000000E+00  0.11922061247E+04  0.16272813639E+04  0.11075600180E+04 0.  0.
        4    1    3    3  502    0  0.39633733191E+03 -0.24293051591E+03  0.15392950674E+03  0.48968808661E+03  0.12699999809E+01 0. -1.
       -4    1    3    3    0  502 -0.39633733191E+03  0.24293051591E+03  0.10382766179E+04  0.11375932773E+04  0.12699999809E+01 0.  1.
</event>
<event>
 5   0  0.5958706E-03  0.1141661E+04  0.7818609E-02  0.9165511E-01
        1   -1    0    0  501    0  0.00000000000E+00  0.00000000000E+00  0.11056438546E+04  0.11056438546E+04  0.50400001928E-02 0.  1.
       -1   -1    0    0    0  501  0.00000000000E+00  0.00000000000E+00 -0.29471298575E+03  0.29471298580E+03  0.50400001928E-02 0. -1.
    10030    2    1    2    0    0  0.00000000000E+00  0.00000000000E+00  0.81093086883E+03  0.14003568404E+04  0.11416612485E+04 0.  0.
        2    1    3    3  502    0  0.51621615059E+03 -0.22646740751E+03  0.51572950777E+03  0.76403110276E+03  0.25500000920E-02 0.  1.
       -2    1    3    3    0  502 -0.51621615059E+03  0.22646740751E+03  0.29520136106E+03  0.63632573763E+03  0.25500000920E-02 0. -1.
</event>
<event>
 5   0  0.5854579E-03  0.1090875E+04  0.7818609E-02  0.9214132E-01
       -1   -1    0    0    0  501  0.00000000000E+00  0.00000000000E+00  0.59640537882E+03  0.59640537884E+03  0.50400001928E-02 0.  1.
        1   -1    0    0  501    0  0.00000000000E+00  0.00000000000E+00 -0.49882532830E+03  0.49882532833E+03  0.50400001928E-02 0. -1.
    10030    2    1    2    0    0  0.00000000000E+00  0.00000000000E+00  0.97580050521E+02  0.10952307072E+04  0.10908750779E+04 0.  0.
        4    1    3    3  502    0  0.38615572889E+03 -0.19364924177E+03  0.38311241696E+03  0.57740195075E+03  0.12699999809E+01 0.  1.
       -4    1    3    3    0  502 -0.38615572889E+03  0.19364924177E+03 -0.28553236644E+03  0.51782875643E+03  0.12699999809E+01 0. -1.
</event>
<event>
 5   0  0.1019384E-02  0.1096145E+04  0.7818609E-02  0.9208957E-01
       -2   -1    0    0    0  501  0.00000000000E+00  0.00000000000E+00  0.21295373161E+03  0.21295373162E+03  0.25500000920E-02 0.  1.
        2   -1    0    0  501    0  0.00000000000E+00  0.00000000000E+00 -0.14105579611E+04  0.14105579611E+04  0.25500000920E-02 0. -1.
    10030    2    1    2    0    0  0.00000000000E+00  0.00000000000E+00 -0.11976042295E+04  0.16235116927E+04  0.10961452121E+04 0.  0.
        1    1    3    3  502    0 -0.26149296257E+03 -0.48110178030E+03 -0.56419072556E+03  0.78622431107E+03  0.50400001928E-02 0. -1.
       -1    1    3    3    0  502  0.26149296257E+03  0.48110178030E+03 -0.63341350395E+03  0.83728738167E+03  0.50400001928E-02 0.  1.
</event>
<event>
 5   0  0.5789905E-03  0.5635419E+03  0.7818609E-02  0.9984072E-01
       -1   -1    0    0    0  501  0.00000000000E+00  0.00000000000E+00  0.50822733040E+02  0.50822733290E+02  0.50400001928E-02 0.  1.
        1   -1    0    0  501    0  0.00000000000E+00  0.00000000000E+00 -0.15621918099E+04  0.15621918100E+04  0.50400001928E-02 0. -1.
    10030    2    1    2    0    0  0.00000000000E+00  0.00000000000E+00 -0.15113690769E+04  0.16130145432E+04  0.56354186188E+03 0.  0.
        1    1    3    3  502    0  0.45491296879E+02 -0.14257578893E+03 -0.14390297746E+04  0.14467909337E+04  0.50400001928E-02 0. -1.
       -1    1    3    3    0  502 -0.45491296879E+02  0.14257578893E+03 -0.72339302315E+02  0.16622360953E+03  0.50400001928E-02 0.  1.
</event>
<event>
 5   0  0.5712664E-03  0.9535678E+03  0.7818609E-02  0.9360990E-01
        1   -1    0    0  501    0  0.00000000000E+00  0.00000000000E+00  0.54582503342E+03  0.54582503344E+03  0.50400001928E-02 0. -1.
       -1   -1    0    0    0  501  0.00000000000E+00  0.00000000000E+00 -0.41647572012E+03  0.41647572015E+03  0.50400001928E-02 0.  1.
    10030    2    1    2    0    0  0.00000000000E+00  0.00000000000E+00  0.12934931330E+03  0.96230075360E+03  0.95356777186E+03 0.  0.
        5    1    3    3  502    0  0.39515895207E+03 -0.12490186207E+03  0.30252301845E+03  0.51312117403E+03  0.46999998093E+01 0. -1.
       -5    1    3    3    0  502 -0.39515895207E+03  0.12490186207E+03 -0.17317370515E+03  0.44917957957E+03  0.46999998093E+01 0.  1.
</event>
<event>
 5   0  0.5998641E-03  0.9530757E+03  0.7818609E-02  0.9361563E-01
        1   -1    0    0  501    0  0.00000000000E+00  0.00000000000E+00  0.67156601697E+03  0.67156601699E+03  0.50400001928E-02 0. -1.
       -1   -1    0    0    0  501  0.00000000000E+00  0.00000000000E+00 -0.33814744597E+03  0.33814744600E+03  0.50400001928E-02 0.  1.
    10030    2    1    2    0    0  0.00000000000E+00  0.00000000000E+00  0.33341857100E+03  0.10097134630E+04  0.95307572304E+03 0.  0.
        3    1    3    3  502    0  0.33753517508E+03  0.26131721946E+03  0.39112678001E+03  0.57896187426E+03  0.10100000352E+00 0. -1.
       -3    1    3    3    0  502 -0.33753517508E+03 -0.26131721946E+03 -0.57708209011E+02  0.43075158873E+03  0.10100000352E+00 0.  1.
</event>
<event>
 5   0  0.1028016E-02  0.1090736E+04  0.7818609E-02  0.9214268E-01
       -2   -1    0    0    0  501  0.00000000000E+00  0.00000000000E+00  0.55684864304E+03  0.55684864305E+03  0.25500000920E-02 0. -1.
        2   -1    0    0  501    0  0.00000000000E+00  0.00000000000E+00 -0.53412423649E+03  0.53412423649E+03  0.25500000920E-02 0.  1.
    10030    2    1    2    0    0  0.00000000000E+00  0.00000000000E+00  0.22724406557E+02  0.10909728795E+04  0.10907361850E+04 0.  0.
        2    1    3    3  502    0  0.15440002057E+03 -0.41913338798E+03  0.32434254334E+03  0.55200566002E+03  0.25500000920E-02 0. -1.
       -2    1    3    3    0  502 -0.15440002057E+03  0.41913338798E+03 -0.30161813679E+03  0.53896721952E+03  0.25500000920E-02 0.  1.
</event>
<event>
 5   0  0.1028016E-02  0.1062967E+04  0.7818609E-02  0.9242058E-01
       -2   -1    0    0    0  501  0.00000000000E+00  0.00000000000E+00  0.12332950384E+04  0.12332950384E+04  0.25500000920E-02 0.  1.
        2   -1    0    0  501    0  0.00000000000E+00  0.00000000000E+00 -0.22904064832E+03  0.22904064833E+03  0.25500000920E-02 0. -1.
    10030    2    1    2    0    0  0.00000000000E+00  0.00000000000E+00  0.10042543901E+04  0.14623356867E+04  0.10629669706E+04 0.  0.
        2    1    3    3  502    0  0.51790084574E+03  0.39087895368E+02  0.65731783142E+03  0.83774452018E+03  0.25500000920E-02 0.  1.
       -2    1    3    3    0  502 -0.51790084574E+03 -0.39087895368E+02  0.34693655865E+03  0.62459116654E+03  0.25500000920E-02 0. -1.
</event>
<event>
 5   0  0.3949750E-03  0.1113704E+04  0.7818609E-02  0.9191937E-01
       -3   -1    0    0    0  501  0.00000000000E+00  0.00000000000E+00  0.36889336578E+03  0.36889337961E+03  0.10100000352E+00 0. -1.
        3   -1    0    0  501    0  0.00000000000E+00  0.00000000000E+00 -0.84057976004E+03  0.84057976611E+03  0.10100000352E+00 0.  1.
    10030    2    1    2    0    0  0.00000000000E+00  0.00000000000E+00 -0.47168639426E+03  0.12094731457E+04  0.11137042856E+04 0.  0.
        5    1    3    3  502    0 -0.13379608593E+03  0.37658125883E+03  0.18524616878E+03  0.44051455158E+03  0.46999998093E+01 0. -1.
       -5    1    3    3    0  502  0.13379608593E+03 -0.37658125883E+03 -0.65693256304E+03  0.76895859413E+03  0.46999998093E+01 0.  1.
</event>
<event>
 5   0  0.9925021E-03  0.1085284E+04  0.7818609E-02  0.9219655E-01
        2   -1    0    0  501    0  0.00000000000E+00  0.00000000000E+00  0.10683783208E+04  0.10683783208E+04  0.25500000920E-02 0.  1.
       -2   -1    0    0    0  501  0.00000000000E+00  0.00000000000E+00 -0.27561431557E+03  0.27561431558E+03  0.25500000920E-02 0. -1.
    10030    2    1    2    0    0  0.00000000000E+00  0.00000000000E+00  0.79276400526E+03  0.13439926364E+04  0.10852840360E+04 0.  0.
        4    1    3    3  502    0  0.39676565256E+03  0.84851457362E+02 -0.49840048250E+02  0.40878893842E+03  0.12699999809E+01 0. -1.
       -4    1    3    3    0  502 -0.39676565256E+03 -0.84851457362E+02  0.84260405351E+03  0.93520369800E+03  0.12699999809E+01 0.  1.
</event>
<event>
 5   0  0.3949750E-03  0.1134732E+04  0.7818609E-02  0.9171986E-01
        3   -1    0    0  501    0  0.00000000000E+00  0.00000000000E+00  0.10864384422E+04  0.10864384469E+04  0.10100000352E+00 0. -1.
       -3   -1    0    0    0  501  0.00000000000E+00  0.00000000000E+00 -0.29629288258E+03  0.29629289979E+03  0.10100000352E+00 0.  1.
    10030    2    1    2    0    0  0.00000000000E+00  0.00000000000E+00  0.79014555966E+03  0.13827313467E+04  0.11347316739E+04 0.  0.
        5    1    3    3  502    0 -0.12835479413E+03 -0.54515534409E+03  0.28464331144E+03  0.62826205290E+03  0.46999998093E+01 0. -1.
       -5    1    3    3    0  502  0.12835479413E+03  0.54515534409E+03  0.50550224823E+03  0.75446929383E+03  0.46999998093E+01 0.  1.
</event>
<event>
 5   0  0.5712664E-03  0.1118183E+04  0.7818609E-02  0.9187648E-01
       -1   -1    0    0    0  501  0.00000000000E+00  0.00000000000E+00  0.99350294890E+02  0.99350295018E+02  0.50400001928E-02 0. -1.
        1   -1    0    0  501    0  0.00000000000E+00  0.00000000000E+00 -0.31462750391E+04  0.31462750391E+04  0.50400001928E-02 0.  1.
    10030    2    1    2    0    0  0.00000000000E+00  0.00000000000E+00 -0.30469247442E+04  0.32456253341E+04  0.11181830855E+04 0.  0.
        5    1    3    3  502    0 -0.34490759118E+03 -0.97861045361E+02 -0.27686127184E+04  0.27917336022E+04  0.46999998093E+01 0.  1.
       -5    1    3    3    0  502  0.34490759118E+03  0.97861045361E+02 -0.27831202572E+03  0.45389173193E+03  0.46999998093E+01 0. -1.
</event>
<event>
 5   0  0.5789905E-03  0.1067080E+04  0.7818609E-02  0.9237886E-01
        1   -1    0    0  501    0  0.00000000000E+00  0.00000000000E+00  0.52488044823E+03  0.52488044826E+03  0.50400001928E-02 0.  1.
       -1   -1    0    0    0  501  0.00000000000E+00  0.00000000000E+00 -0.54234214258E+03  0.54234214260E+03  0.50400001928E-02 0. -1.
    10030    2    1    2    0    0  0.00000000000E+00  0.00000000000E+00 -0.17461694346E+02  0.10672225909E+04  0.10670797288E+04 0.  0.
        1    1    3    3  502    0 -0.34476074676E+03  0.85445378480E+02 -0.40690963358E+03  0.54012622148E+03  0.50400001928E-02 0.  1.
       -1    1    3    3    0  502  0.34476074676E+03 -0.85445378480E+02  0.38944793924E+03  0.52709636937E+03  0.50400001928E-02 0. -1.
</event>
<event>
 5   0  0.5958706E-03  0.1092172E+04  0.7818609E-02  0.9212856E-01
       -1   -1    0    0    0  501  0.00000000000E+00  0.00000000000E+00  0.34941721089E+03  0.34941721093E+03  0.50400001928E-02 0. -1.
        1   -1    0    0  501    0  0.00000000000E+00  0.00000000000E+00 -0.85344899236E+03  0.85344899238E+03  0.50400001928E-02 0.  1.
    10030    2    1    2    0    0  0.00000000000E+00  0.00000000000E+00 -0.50403178147E+03  0.12028662033E+04  0.10921717202E+04 0.  0.
        2    1    3    3  502    0  0.26166029236E+03 -0.29817932990E+03 -0.66532808439E+03  0.77462150839E+03  0.25500000920E-02 0.  1.
       -2    1    3    3    0  502 -0.26166029236E+03  0.29817932990E+03  0.16129630292E+03  0.42824469491E+03  0.25500000920E-02 0. -1.
</event>
<event>
 5   0  0.9692981E-03  0.1096246E+04  0.7818609E-02  0.9208858E-01
       -2   -1    0    0    0  501  0.00000000000E+00  0.00000000000E+00  0.23015038587E+03  0.23015038589E+03  0.25500000920E-02 0.  1.
        2   -1    0    0  501    0  0.00000000000E+00  0.00000000000E+00 -0.13054028935E+04  0.13054028935E+04  0.25500000920E-02 0. -1.
    10030    2    1    2    0    0  0.00000000000E+00  0.00000000000E+00 -0.10752525076E+04  0.15355532793E+04  0.10962462856E+04 0.  0.
        5    1    3    3  502    0 -0.20659301985E+03 -0.24031106581E+02 -0.12479517158E+04  0.12651734050E+04  0.46999998093E+01 0. -1.
       -5    1    3    3    0  502  0.20659301985E+03  0.24031106581E+02  0.17269920817E+03  0.27037987432E+03  0.46999998093E+01 0.  1.
</event>
<event>
 5   0  0.5998641E-03  0.1062521E+04  0.7818609E-02  0.9242512E-01
       -1   -1    0    0    0  501  0.00000000000E+00  0.00000000000E+00  0.29121245870E+03  0.29121245874E+03  0.50400001928E-02 0.  1.
        1   -1    0    0  501    0  0.00000000000E+00  0.00000000000E+00 -0.96918116800E+03  0.96918116801E+03  0.50400001928E-02 0. -1.
    10030    2    1    2    0    0  0.00000000000E+00  0.00000000000E+00 -0.67796870930E+03  0.12603936268E+04  0.10625208344E+04 0.  0.
        3    1    3    3  502    0  0.43605149252E+03 -0.30100145221E+03 -0.38484777472E+03  0.65486685538E+03  0.10100000352E+00 0.  1.
       -3    1    3    3    0  502 -0.43605149252E+03  0.30100145221E+03 -0.29312093457E+03  0.60552677138E+03  0.10100000352E+00 0. -1.
</event>
<event>
 5   0  0.5958706E-03  0.1101387E+04  0.7818609E-02  0.9203841E-01
       -1   -1    0    0    0  501  0.00000000000E+00  0.00000000000E+00  0.16456506366E+03  0.16456506374E+03  0.50400001928E-02 0.  1.
        1   -1    0    0  501    0  0.00000000000E+00  0.00000000000E+00 -0.18428174421E+04  0.18428174421E+04  0.50400001928E-02 0. -1.
    10030    2    1    2    0    0  0.00000000000E+00  0.00000000000E+00 -0.16782523784E+04  0.20073825058E+04  0.11013870705E+04 0.  0.
        2    1    3    3  502    0  0.45533380482E+03  0.16825474492E+01 -0.14036355556E+04  0.14756437502E+04  0.25500000920E-02 0. -1.
       -2    1    3    3    0  502 -0.45533380482E+03 -0.16825474492E+01 -0.27461682283E+03  0.53173875556E+03  0.25500000920E-02 0.  1.
</event>
<event>
 5   0  0.9719260E-03  0.8458204E+03  0.7818609E-02  0.9495964E-01
        2   -1    0    0  501    0  0.00000000000E+00  0.00000000000E+00  0.32979886449E+03  0.32979886450E+03  0.25500000920E-02 0. -1.
       -2   -1    0    0    0  501  0.00000000000E+00  0.00000000000E+00 -0.54230941036E+03  0.54230941037E+03  0.25500000920E-02 0.  1.
    10030    2    1    2    0    0  0.00000000000E+00  0.00000000000E+00 -0.21251054587E+03  0.87210827486E+03  0.84582037749E+03 0.  0.
        3    1    3    3  502    0 -0.30506865550E+03 -0.15323398448E+03  0.15111322197E+03  0.37333999870E+03  0.10100000352E+00 0. -1.
       -3    1    3    3    0  502  0.30506865550E+03  0.15323398448E+03 -0.36362376784E+03  0.49876827617E+03  0.10100000352E+00 0.  1.
</event>
<event>
 5   0  0.5998641E-03  0.1093900E+04  0.7818609E-02  0.9211158E-01
        1   -1    0    0  501    0  0.00000000000E+00  0.00000000000E+00  0.11186574355E+04  0.11186574355E+04  0.50400001928E-02 0. -1.
       -1   -1    0    0    0  501  0.00000000000E+00  0.00000000000E+00 -0.26742273647E+03  0.26742273652E+03  0.50400001928E-02 0.  1.
    10030    2    1    2    0    0  0.00000000000E+00  0.00000000000E+00  0.85123469902E+03  0.13860801720E+04  0.10939002379E+04 0.  0.
        3    1    3    3  502    0  0.12876694237E+03 -0.15861525846E+03  0.10684934837E+04  0.10878502014E+04  0.10100000352E+00 0. -1.
       -3    1    3    3    0  502 -0.12876694237E+03  0.15861525846E+03 -0.21725878470E+03  0.29822997066E+03  0.10100000352E+00 0.  1.
</event>
<event>
 5   0  0.5998641E-03  0.1084320E+04  0.7818609E-02  0.9220611E-01
       -1   -1    0    0    0  501  0.00000000000E+00  0.00000000000E+00  0.31838409257E+03  0.31838409261E+03  0.50400001928E-02 0.  1.
        1   -1    0    0  501    0  0.00000000000E+00  0.00000000000E+00 -0.92321631261E+03  0.92321631262E+03  0.50400001928E-02 0. -1.
    10030    2    1    2    0    0  0.00000000000E+00  0.00000000000E+00 -0.60483222004E+03  0.12416004052E+04  0.10843198568E+04 0.  0.
        3    1    3    3  502    0  0.38640305880E+03 -0.34604391995E+03 -0.12178957177E+03  0.53280993645E+03  0.10100000352E+00 0. -1.
       -3    1    3    3    0  502 -0.38640305880E+03  0.34604391995E+03 -0.48304264827E+03  0.70879046878E+03  0.10100000352E+00 0.  1.
</event>
<event>
 5   0  0.5789905E-03  0.1082626E+04  0.7818609E-02  0.9222293E-01
       -1   -1    0    0    0  501  0.00000000000E+00  0.00000000000E+00  0.20040004993E+03  0.20040005000E+03  0.50400001928E-02 0.  1.
        1   -1    0    0  501    0  0.00000000000E+00  0.00000000000E+00 -0.14621734523E+04  0.14621734524E+04  0.50400001928E-02 0. -1.
    10030    2    1    2    0    0  0.00000000000E+00  0.00000000000E+00 -0.12617734024E+04  0.16625735024E+04  0.10826257579E+04 0.  0.
        1    1    3    3  502    0  0.17821950030E+03 -0.33913949235E+03 -0.12181573978E+04  0.12769828626E+04  0.50400001928E-02 0. -1.
       -1    1    3    3    0  502 -0.17821950030E+03  0.33913949235E+03 -0.43616004594E+02  0.38559063972E+03  0.50400001928E-02 0.  1.
</event>
<event>
 5   0  0.9692981E-03  0.1150191E+04  0.7818609E-02  0.9157607E-01
        2   -1    0    0  501    0  0.00000000000E+00  0.00000000000E+00  0.95335052471E+03  0.95335052471E+03  0.25500000920E-02 0. -1.
       -2   -1    0    0    0  501  0.00000000000E+00  0.00000000000E+00 -0.34691833062E+03  0.34691833063E+03  0.25500000920E-02 0.  1.
    10030    2    1    2    0    0  0.00000000000E+00  0.00000000000E+00  0.60643219409E+03  0.13002688553E+04  0.11501908929E+04 0.  0.
        5    1    3    3  502    0 -0.30314632433E+03 -0.29387277021E+03  0.74461610752E+03  0.85599891156E+03  0.46999998093E+01 0. -1.
       -5    1    3    3    0  502  0.30314632433E+03  0.29387277021E+03 -0.13818391343E+03  0.44426994378E+03  0.46999998093E+01 0.  1.
</event>
<event>
 5   0  0.5854579E-03  0.1111921E+04  0.7818609E-02  0.9193650E-01
       -1   -1    0    0    0  501  0.00000000000E+00  0.00000000000E+00  0.33308377502E+03  0.33308377506E+03  0.50400001928E-02 0.  1.
        1   -1    0    0  501    0  0.00000000000E+00  0.00000000000E+00 -0.92797109755E+03  0.92797109757E+03  0.50400001928E-02 0. -1.
    10030    2    1    2    0    0  0.00000000000E+00  0.00000000000E+00 -0.59488732253E+03  0.12610548726E+04  0.11119210697E+04 0.  0.
        4    1    3    3  502    0  0.24857528663E+02 -0.17895580672E+03  0.29885838555E+03  0.34922918693E+03  0.12699999809E+01 0.  1.
       -4    1    3    3    0  502 -0.24857528663E+02  0.17895580672E+03 -0.89374570808E+03  0.91182568570E+03  0.12699999809E+01 0. -1.
</event>
<event>
 5   0  0.5958706E-03  0.1087789E+04  0.7818609E-02  0.9217176E-01
       -1   -1    0    0    0  501  0.00000000000E+00  0.00000000000E+00  0.23244934997E+03  0.23244935002E+03  0.50400001928E-02 0.  1.
        1   -1    0    0  501    0  0.00000000000E+00  0.00000000000E+00 -0.12726270994E+04  0.12726270994E+04  0.50400001928E-02 0. -1.
    10030    2    1    2    0    0  0.00000000000E+00  0.00000000000E+00 -0.10401777494E+04  0.15050764494E+04  0.10877892113E+04 0.  0.
        2    1    3    3  502    0 -0.81046855711E+02  0.49348447808E+03 -0.22422321546E+03  0.54806165099E+03  0.25500000920E-02 0.  1.
       -2    1    3    3    0  502  0.81046855711E+02 -0.49348447808E+03 -0.81595453399E+03  0.95701479846E+03  0.25500000920E-02 0. -1.
</event>
<event>
 5   0  0.9719260E-03  0.1086080E+04  0.7818609E-02  0.9218866E-01
        2   -1    0    0  501    0  0.00000000000E+00  0.00000000000E+00  0.85523395479E+03  0.85523395479E+03  0.25500000920E-02 0. -1.
       -2   -1    0    0    0  501  0.00000000000E+00  0.00000000000E+00 -0.34480913946E+03  0.34480913947E+03  0.25500000920E-02 0.  1.
    10030    2    1    2    0    0  0.00000000000E+00  0.00000000000E+00  0.51042481533E+03  0.12000430943E+04  0.10860800781E+04 0.  0.
        3    1    3    3  502    0 -0.12240498180E+03 -0.52451036156E+02  0.83691232765E+03  0.84744105703E+03  0.10100000352E+00 0. -1.
       -3    1    3    3    0  502  0.12240498180E+03  0.52451036156E+02 -0.32648751232E+03  0.35260203724E+03  0.10100000352E+00 0.  1.
</event>
<event>
 5   0  0.9925021E-03  0.1157887E+04  0.7818609E-02  0.9150538E-01
        2   -1    0    0  501    0  0.00000000000E+00  0.00000000000E+00  0.95522287320E+03  0.95522287320E+03  0.25500000920E-02 0. -1.
       -2   -1    0    0    0  501  0.00000000000E+00  0.00000000000E+00 -0.35088728802E+03  0.35088728803E+03  0.25500000920E-02 0.  1.
    10030    2    1    2    0    0  0.00000000000E+00  0.00000000000E+00  0.60433558518E+03  0.13061101612E+04  0.11578869780E+04 0.  0.
        4    1    3    3  502    0  0.88110023401E+02 -0.50938283705E+03  0.81487563507E+01  0.51701282967E+03  0.12699999809E+01 0. -1.
       -4    1    3    3    0  502 -0.88110023401E+02  0.50938283705E+03  0.59618682883E+03  0.78909733156E+03  0.12699999809E+01 0.  1.
</event>
<event>
 5   0  0.9925021E-03  0.1146834E+04  0.7818609E-02  0.9160710E-01
       -2   -1    0    0    0  501  0.00000000000E+00  0.00000000000E+00  0.27409800735E+03  0.27409800736E+03  0.25500000920E-02 0.  1.
        2   -1    0    0  501    0  0.00000000000E+00  0.00000000000E+00 -0.11995961406E+04  0.11995961406E+04  0.25500000920E-02 0. -1.
    10030    2    1    2    0    0  0.00000000000E+00  0.00000000000E+00 -0.92549813328E+03  0.14736941480E+04  0.11468337487E+04 0.  0.
        4    1    3    3  502    0  0.47655509253E+03 -0.25367367655E+03 -0.21440521676E+03  0.58088406784E+03  0.12699999809E+01 0.  1.
       -4    1    3    3    0  502 -0.47655509253E+03  0.25367367655E+03 -0.71109291652E+03  0.89281008015E+03  0.12699999809E+01 0. -1.
</event>
<event>
 5   0  0.5712664E-03  0.1087250E+04  0.7818609E-02  0.9217709E-01
       -1   -1    0    0    0  501  0.00000000000E+00  0.00000000000E+00  0.52253722145E+03  0.52253722147E+03  0.50400001928E-02 0.  1.
        1   -1    0    0  501    0  0.00000000000E+00  0.00000000000E+00 -0.56556341342E+03  0.56556341344E+03  0.50400001928E-02 0. -1.
    10030    2    1    2    0    0  0.00000000000E+00  0.00000000000E+00 -0.43026191971E+02  0.10881006349E+04  0.10872496211E+04 0.  0.
        5    1    3    3  502    0  0.15816649779E+03  0.41325551957E+03 -0.33752769873E+03  0.55654631693E+03  0.46999998093E+01 0. -1.
       -5    1    3    3    0  502 -0.15816649779E+03 -0.41325551957E+03  0.29450150676E+03  0.53155431798E+03  0.46999998093E+01 0.  1.
</event>
<event>
 5   0  0.5998641E-03  0.1151235E+04  0.7818609E-02  0.9156645E-01
       -1   -1    0    0    0  501  0.00000000000E+00  0.00000000000E+00  0.15647506342E+03  0.15647506350E+03  0.50400001928E-02 0.  1.
        1   -1    0    0  501    0  0.00000000000E+00  0.00000000000E+00 -0.21174979743E+04  0.21174979743E+04  0.50400001928E-02 0. -1.
    10030    2    1    2    0    0  0.00000000000E+00  0.00000000000E+00 -0.19610229109E+04  0.22739730378E+04  0.11512352147E+04 0.  0.
        3    1    3    3  502    0 -0.15525673003E+03  0.34556855675E+03 -0.12449036762E+03  0.39877329583E+03  0.10100000352E+00 0.  1.
       -3    1    3    3    0  502  0.15525673003E+03 -0.34556855675E+03 -0.18365325432E+04  0.18751997420E+04  0.10100000352E+00 0. -1.
</event>
<event>
 5   0  0.9925021E-03  0.1110659E+04  0.7818609E-02  0.9194865E-01
       -2   -1    0    0    0  501  0.00000000000E+00  0.00000000000E+00  0.22964737273E+03  0.22964737274E+03  0.25500000920E-02 0. -1.
        2   -1    0    0  501    0  0.00000000000E+00  0.00000000000E+00 -0.13428888407E+04  0.13428888407E+04  0.25500000920E-02 0.  1.
    10030    2    1    2    0    0  0.00000000000E+00  0.00000000000E+00 -0.11132414680E+04  0.15725362135E+04  0.11106590731E+04 0.  0.
        4    1    3    3  502    0  0.34370804771E+03 -0.35040306850E+03 -0.92439460423E+03  0.10466253053E+04  0.12699999809E+01 0.  1.
       -4    1    3    3    0  502 -0.34370804771E+03  0.35040306850E+03 -0.18884686378E+03  0.52591090818E+03  0.12699999809E+01 0. -1.
</event>
<event>
 5   0  0.3949750E-03  0.1055393E+04  0.7818609E-02  0.9249794E-01
       -3   -1    0    0    0  501  0.00000000000E+00  0.00000000000E+00  0.18270870305E+04  0.18270870333E+04  0.10100000352E+00 0.  1.
        3   -1    0    0  501    0  0.00000000000E+00  0.00000000000E+00 -0.15240850187E+03  0.15240853534E+03  0.10100000352E+00 0. -1.
    10030    2    1    2    0    0  0.00000000000E+00  0.00000000000E+00  0.16746785287E+04  0.19794955687E+04  0.10553930699E+04 0.  0.
        5    1    3    3  502    0 -0.22273370390E+03 -0.40043700323E+03  0.34651417012E+03  0.57450348694E+03  0.46999998093E+01 0.  1.
       -5    1    3    3    0  502  0.22273370390E+03  0.40043700323E+03  0.13281643585E+04  0.14049920817E+04  0.46999998093E+01 0. -1.
</event>
<event>
 5   0  0.9692981E-03  0.1079927E+04  0.7818609E-02  0.9224980E-01
        2   -1    0    0  501    0  0.00000000000E+00  0.00000000000E+00  0.23290729958E+04  0.23290729958E+04  0.25500000920E-02 0.  1.
       -2   -1    0    0    0  501  0.00000000000E+00  0.00000000000E+00 -0.12518321090E+03  0.12518321092E+03  0.25500000920E-02 0. -1.
    10030    2    1    2    0    0  0.00000000000E+00  0.00000000000E+00  0.22038897849E+04  0.24542562067E+04  0.10799274718E+04 0.  0.
        5    1    3    3  502    0 -0.33435600531E+03 -0.13188555005E+03  0.18624575411E+03  0.40484232427E+03  0.46999998093E+01 0. -1.
       -5    1    3    3    0  502  0.33435600531E+03  0.13188555005E+03  0.20176440308E+04  0.20494138825E+04  0.46999998093E+01 0.  1.
</event>
<event>
 5   0  0.5712664E-03  0.1104010E+04  0.7818609E-02  0.9201293E-01
       -1   -1    0    0    0  501  0.00000000000E+00  0.00000000000E+00  0.15449921472E+03  0.15449921480E+03  0.50400001928E-02 0. -1.
        1   -1    0    0  501    0  0.00000000000E+00  0.00000000000E+00 -0.19722383854E+04  0.19722383854E+04  0.50400001928E-02 0.  1.
    10030    2    1    2    0    0  0.00000000000E+00  0.00000000000E+00 -0.18177391707E+04  0.21267376002E+04  0.11040095686E+04 0.  0.
        5    1    3    3  502    0 -0.47045415399E+03 -0.16761808025E+03 -0.45601032633E+03  0.67630646866E+03  0.46999998093E+01 0. -1.
       -5    1    3    3    0  502  0.47045415399E+03  0.16761808025E+03 -0.13617288444E+04  0.14504311316E+04  0.46999998093E+01 0.  1.
</event>
<event>
 5   0  0.5998641E-03  0.1087123E+04  0.7818609E-02  0.9217834E-01
       -1   -1    0    0    0  501  0.00000000000E+00  0.00000000000E+00  0.15892734405E+03  0.15892734413E+03  0.50400001928E-02 0.  1.
        1   -1    0    0  501    0  0.00000000000E+00  0.00000000000E+00 -0.18590839189E+04  0.18590839189E+04  0.50400001928E-02 0. -1.
    10030    2    1    2    0    0  0.00000000000E+00  0.00000000000E+00 -0.17001565748E+04  0.20180112630E+04  0.10871233043E+04 0.  0.
        3    1    3    3  502    0 -0.20223513966E+03  0.26274670696E+03 -0.50528946486E+02  0.33539240953E+03  0.10100000352E+00 0.  1.
       -3    1    3    3    0  502  0.20223513966E+03 -0.26274670696E+03 -0.16496276283E+04  0.16826188535E+04  0.10100000352E+00 0. -1.
</event>
<event>
 5   0  0.1028016E-02  0.1113100E+04  0.7818609E-02  0.9192517E-01
       -2   -1    0    0    0  501  0.00000000000E+00  0.00000000000E+00  0.10247194551E+04  0.10247194551E+04  0.25500000920E-02 0.  1.
        2   -1    0    0  501    0  0.00000000000E+00  0.00000000000E+00 -0.30227557918E+03  0.30227557919E+03  0.25500000920E-02 0. -1.
    10030    2    1    2    0    0  0.00000000000E+00  0.00000000000E+00  0.72244387594E+03  0.13269950343E+04  0.11130995765E+04 0.  0.
        2    1    3    3  502    0  0.42759339256E+03 -0.99322651171E+02 -0.46641356560E+02  0.44144820143E+03  0.25500000920E-02 0. -1.
       -2    1    3    3    0  502 -0.42759339256E+03  0.99322651171E+02  0.76908523250E+03  0.88554683290E+03  0.25500000920E-02 0.  1.
</event>
<event>
 5   0  0.9692981E-03  0.1114893E+04  0.7818609E-02  0.9190797E-01
       -2   -1    0    0    0  501  0.00000000000E+00  0.00000000000E+00  0.30225177410E+03  0.30225177411E+03  0.25500000920E-02 0.  1.
        2   -1    0    0  501    0  0.00000000000E+00  0.00000000000E+00 -0.10281050882E+04  0.10281050882E+04  0.25500000920E-02 0. -1.
    10030    2    1    2    0    0  0.00000000000E+00  0.00000000000E+00 -0.72585331410E+03  0.13303568623E+04  0.11148929758E+04 0.  0.
        5    1    3    3  502    0  0.45741939585E+03 -0.27865075638E+03 -0.54719064254E+03  0.76571433120E+03  0.46999998093E+01 0.  1.
       -5    1    3    3    0  502 -0.45741939585E+03  0.27865075638E+03 -0.17866267156E+03  0.56464253111E+03  0.46999998093E+01 0. -1.
</event>
<event>
 5   0  0.1019384E-02  0.1135824E+04  0.7818609E-02  0.9170962E-01
        2   -1    0    0  501    0  0.00000000000E+00  0.00000000000E+00  0.12827945829E+04  0.12827945829E+04  0.25500000920E-02 0. -1.
       -2   -1    0    0    0  501  0.00000000000E+00  0.00000000000E+00 -0.25142280460E+03  0.25142280461E+03  0.25500000920E-02 0.  1.
    10030    2    1    2    0    0  0.00000000000E+00  0.00000000000E+00  0.10313717783E+04  0.15342173875E+04  0.11358235986E+04 0.  0.
        1    1    3    3  502    0 -0.52290920475E+03  0.14367260580E+03  0.74351098379E+03  0.92026324337E+03  0.50400001928E-02 0.  1.
       -1    1    3    3    0  502  0.52290920475E+03 -0.14367260580E+03  0.28786079453E+03  0.61395414415E+03  0.50400001928E-02 0. -1.
</event>
<event>
 5   0  0.9925021E-03  0.1043461E+04  0.7818609E-02  0.9262122E-01
        2   -1    0    0  501    0  0.00000000000E+00  0.00000000000E+00  0.51014507566E+03  0.51014507567E+03  0.25500000920E-02 0. -1.
       -2   -1    0    0    0  501  0.00000000000E+00  0.00000000000E+00 -0.53357880461E+03  0.53357880462E+03  0.25500000920E-02 0.  1.
    10030    2    1    2    0    0  0.00000000000E+00  0.00000000000E+00 -0.23433728950E+02  0.10437238803E+04  0.10434607796E+04 0.  0.
        4    1    3    3  502    0  0.45782283024E+03 -0.10334044418E+03  0.21620018453E+03  0.51674473774E+03  0.12699999809E+01 0. -1.
       -4    1    3    3    0  502 -0.45782283024E+03  0.10334044418E+03 -0.23963391348E+03  0.52697914255E+03  0.12699999809E+01 0.  1.
</event>
<event>
 5   0  0.9692981E-03  0.1075706E+04  0.7818609E-02  0.9229199E-01
        2   -1    0    0  501    0  0.00000000000E+00  0.00000000000E+00  0.54300318707E+03  0.54300318708E+03  0.25500000920E-02 0.  1.
       -2   -1    0    0    0  501  0.00000000000E+00  0.00000000000E+00 -0.53275190008E+03  0.53275190009E+03  0.25500000920E-02 0. -1.
    10030    2    1    2    0    0  0.00000000000E+00  0.00000000000E+00  0.10251286992E+02  0.10757550872E+04  0.10757062418E+04 0.  0.
        5    1    3    3  502    0 -0.12137316394E+03  0.34974892976E+03  0.39528196350E+03  0.54159549431E+03  0.46999998093E+01 0.  1.
       -5    1    3    3    0  502  0.12137316394E+03 -0.34974892976E+03 -0.38503067650E+03  0.53415959286E+03  0.46999998093E+01 0. -1.
</event>
<event>
 5   0  0.9719260E-03  0.1082480E+04  0.7818609E-02  0.9222439E-01
        2   -1    0    0  501    0  0.00000000000E+00  0.00000000000E+00  0.44873385970E+03  0.44873385971E+03  0.25500000920E-02 0. -1.
       -2   -1    0    0    0  501  0.00000000000E+00  0.00000000000E+00 -0.65281584737E+03  0.65281584737E+03  0.25500000920E-02 0.  1.
    10030    2    1    2    0    0  0.00000000000E+00  0.00000000000E+00 -0.20408198766E+03  0.11015497071E+04  0.10824796993E+04 0.  0.
        3    1    3    3  502    0  0.43258025602E+03  0.19382024890E+02  0.22839354752E+03  0.48955588398E+03  0.10100000352E+00 0. -1.
       -3    1    3    3    0  502 -0.43258025602E+03 -0.19382024890E+02 -0.43247553518E+03  0.61199382311E+03  0.10100000352E+00 0.  1.
</event>
<event>
 5   0  0.5958706E-03  0.1081316E+04  0.7818609E-02  0.9223596E-01
       -1   -1    0    0    0  501  0.00000000000E+00  0.00000000000E+00  0.28990310705E+03  0.28990310709E+03  0.50400001928E-02 0. -1.
        1   -1    0    0  501    0  0.00000000000E+00  0.00000000000E+00 -0.10083060404E+04  0.10083060404E+04  0.50400001928E-02 0.  1.
    10030    2    1    2    0    0  0.00000000000E+00  0.00000000000E+00 -0.71840293332E+03  0.12982091475E+04  0.10813159649E+04 0.  0.
        2    1    3    3  502    0 -0.25214863045E+03  0.30765161110E+03 -0.79882230968E+03  0.89238194071E+03  0.25500000920E-02 0.  1.
       -2    1    3    3    0  502  0.25214863045E+03 -0.30765161110E+03  0.80419376359E+02  0.40582720676E+03  0.25500000920E-02 0. -1.
</event>
<event>
 5   0  0.9692981E-03  0.1107733E+04  0.7818609E-02  0.9197688E-01
       -2   -1    0    0    0  501  0.00000000000E+00  0.00000000000E+00  0.31571920932E+03  0.31571920933E+03  0.25500000920E-02 0. -1.
        2   -1    0    0  501    0  0.00000000000E+00  0.00000000000E+00 -0.97164828704E+03  0.97164828704E+03  0.25500000920E-02 0.  1.
    10030    2    1    2    0    0  0.00000000000E+00  0.00000000000E+00 -0.65592907772E+03  0.12873674964E+04  0.11077328720E+04 0.  0.
        5    1    3    3  502    0 -0.30185974384E+03  0.14854934976E+03  0.18333452082E+03  0.38317078541E+03  0.46999998093E+01 0. -1.
       -5    1    3    3    0  502  0.30185974384E+03 -0.14854934976E+03 -0.83926359854E+03  0.90419671096E+03  0.46999998093E+01 0.  1.
</event>
<event>
 5   0  0.5712664E-03  0.1038122E+04  0.7818609E-02  0.9267694E-01
       -1   -1    0    0    0  501  0.00000000000E+00  0.00000000000E+00  0.61483259288E+03  0.61483259290E+03  0.50400001928E-02 0.  1.
        1   -1    0    0  501    0  0.00000000000E+00  0.00000000000E+00 -0.43820730700E+03  0.43820730703E+03  0.50400001928E-02 0. -1.
    10030    2    1    2    0    0  0.00000000000E+00  0.00000000000E+00  0.17662528588E+03  0.10530398999E+04  0.10381216399E+04 0.  0.
        5    1    3    3  502    0  0.93056066106E+02  0.32989422650E+03 -0.30704779904E+03  0.46020655472E+03  0.46999998093E+01 0. -1.
       -5    1    3    3    0  502 -0.93056066106E+02 -0.32989422650E+03  0.48367308492E+03  0.59283334521E+03  0.46999998093E+01 0.  1.
</event>
<event>
 5   0  0.5712664E-03  0.1096472E+04  0.7818609E-02  0.9208638E-01
       -1   -1    0    0    0  501  0.00000000000E+00  0.00000000000E+00  0.79196124675E+03  0.79196124677E+03  0.50400001928E-02 0. -1.
        1   -1    0    0  501    0  0.00000000000E+00  0.00000000000E+00 -0.37951660103E+03  0.37951660107E+03  0.50400001928E-02 0.  1.
    10030    2    1    2    0    0  0.00000000000E+00  0.00000000000E+00  0.41244464572E+03  0.11714778478E+04  0.10964715054E+04 0.  0.
        5    1    3    3  502    0 -0.27586370142E+02  0.50147061735E+03  0.44104487216E+03  0.66841338791E+03  0.46999998093E+01 0. -1.
       -5    1    3    3    0  502  0.27586370142E+02 -0.50147061735E+03 -0.28600226435E+02  0.50306445992E+03  0.46999998093E+01 0.  1.
</event>
<event>
 5   0  0.5712664E-03  0.1086757E+04  0.7818609E-02  0.9218196E-01
       -1   -1    0    0    0  501  0.00000000000E+00  0.00000000000E+00  0.11836831468E+04  0.11836831468E+04  0.50400001928E-02 0.  1.
        1   -1    0    0  501    0  0.00000000000E+00  0.00000000000E+00 -0.24944201477E+03  0.24944201482E+03  0.50400001928E-02 0. -1.
    10030    2    1    2    0    0  0.00000000000E+00  0.00000000000E+00  0.93424113200E+03  0.14331251616E+04  0.10867572112E+04 0.  0.
        5    1    3    3  502    0  0.15899823384E+03  0.41320887429E+03  0.51743131014E+02  0.44578184548E+03  0.46999998093E+01 0. -1.
       -5    1    3    3    0  502 -0.15899823384E+03 -0.41320887429E+03  0.88249800099E+03  0.98734331613E+03  0.46999998093E+01 0.  1.
</event>
<event>
 5   0  0.5854579E-03  0.1100794E+04  0.7818609E-02  0.9204419E-01
       -1   -1    0    0    0  501  0.00000000000E+00  0.00000000000E+00  0.21119855983E+03  0.21119855989E+03  0.50400001928E-02 0. -1.
        1   -1    0    0  501    0  0.00000000000E+00  0.00000000000E+00 -0.14343692536E+04  0.14343692536E+04  0.50400001928E-02 0.  1.
    10030    2    1    2    0    0  0.00000000000E+00  0.00000000000E+00 -0.12231706937E+04  0.16455678135E+04  0.11007937512E+04 0.  0.
        4    1    3    3  502    0 -0.32578413057E+03 -0.41339362114E+03 -0.85219109736E+03  0.10016291055E+04  0.12699999809E+01 0.  1.
       -4    1    3    3    0  502  0.32578413057E+03  0.41339362114E+03 -0.37097959637E+03  0.64393870792E+03  0.12699999809E+01 0. -1.
</event>
<event>
 5   0  0.9719260E-03  0.1123065E+04  0.7818609E-02  0.9182998E-01
        2   -1    0    0  501    0  0.00000000000E+00  0.00000000000E+00  0.35415743430E+03  0.35415743431E+03  0.25500000920E-02 0.  1.
       -2   -1    0    0    0  501  0.00000000000E+00  0.00000000000E+00 -0.89033560516E+03  0.89033560516E+03  0.25500000920E-02 0. -1.
    10030    2    1    2    0    0  0.00000000000E+00  0.00000000000E+00 -0.53617817086E+03  0.12444930395E+04  0.11230654008E+04 0.  0.
        3    1    3    3  502    0 -0.52354567486E+03 -0.19212720901E+03 -0.34080437066E+03  0.65357521937E+03  0.10100000352E+00 0.  1.
       -3    1    3    3    0  502  0.52354567486E+03  0.19212720901E+03 -0.19537380020E+03  0.59091782010E+03  0.10100000352E+00 0. -1.
</event>
<event>
 5   0  0.9692981E-03  0.1091876E+04  0.7818609E-02  0.9213146E-01
        2   -1    0    0  501    0  0.00000000000E+00  0.00000000000E+00  0.45959517518E+03  0.45959517519E+03  0.25500000920E-02 0. -1.
       -2   -1    0    0    0  501  0.00000000000E+00  0.00000000000E+00 -0.64850227482E+03  0.64850227483E+03  0.25500000920E-02 0.  1.
    10030    2    1    2    0    0  0.00000000000E+00  0.00000000000E+00 -0.18890709964E+03  0.11080974500E+04  0.10918763971E+04 0.  0.
        5    1    3    3  502    0  0.46448058440E+02 -0.24088727099E+03  0.40048245718E+03  0.46967263914E+03  0.46999998093E+01 0. -1.
       -5    1    3    3    0  502 -0.46448058440E+02  0.24088727099E+03 -0.58938955682E+03  0.63842481087E+03  0.46999998093E+01 0.  1.
</event>
<event>
 5   0  0.5854579E-03  0.1102574E+04  0.7818609E-02  0.9202687E-01
       -1   -1    0    0    0  501  0.00000000000E+00  0.00000000000E+00  0.40394716500E+03  0.40394716503E+03  0.50400001928E-02 0.  1.
        1   -1    0    0  501    0  0.00000000000E+00  0.00000000000E+00 -0.75236932211E+03  0.75236932213E+03  0.50400001928E-02 0. -1.
    10030    2    1    2    0    0  0.00000000000E+00  0.00000000000E+00 -0.34842215711E+03  0.11563164872E+04  0.11025741784E+04 0.  0.
        4    1    3    3  502    0  0.49675126371E+03  0.22422683486E+03 -0.26117675887E+03  0.60436280804E+03  0.12699999809E+01 0. -1.
       -4    1    3    3    0  502 -0.49675126371E+03 -0.22422683486E+03 -0.87245398242E+02  0.55195367911E+03  0.12699999809E+01 0.  1.
</event>
<event>
 5   0  0.1028016E-02  0.1065378E+04  0.7818609E-02  0.9239610E-01
       -2   -1    0    0    0  501  0.00000000000E+00  0.00000000000E+00  0.31862371339E+03  0.31862371340E+03  0.25500000920E-02 0. -1.
        2   -1    0    0  501    0  0.00000000000E+00  0.00000000000E+00 -0.89057236794E+03  0.89057236794E+03  0.25500000920E-02 0.  1.
    10030    2    1    2    0    0  0.00000000000E+00  0.00000000000E+00 -0.57194865455E+03  0.12091960813E+04  0.10653778202E+04 0.  0.
        2    1    3    3  502    0 -0.25325835096E+03  0.81906898413E+02  0.23773466567E+03  0.35688415993E+03  0.25500000920E-02 0. -1.
       -2    1    3    3    0  502  0.25325835096E+03 -0.81906898413E+02 -0.80968332022E+03  0.85231192141E+03  0.25500000920E-02 0.  1.
</event>
<event>
 5   0  0.1028016E-02  0.1043217E+04  0.7818609E-02  0.9262375E-01
        2   -1    0    0  501    0  0.00000000000E+00  0.00000000000E+00  0.58135049937E+03  0.58135049937E+03  0.25500000920E-02 0.  1.
       -2   -1    0    0    0  501  0.00000000000E+00  0.00000000000E+00 -0.46800607862E+03  0.46800607863E+03  0.25500000920E-02 0. -1.
    10030    2    1    2    0    0  0.00000000000E+00  0.00000000000E+00  0.11334442074E+03  0.10493565780E+04  0.10432172689E+04 0.  0.
        2    1    3    3  502    0 -0.17749386627E+03 -0.18317735687E+03  0.51434164059E+03  0.57411265435E+03  0.25500000920E-02 0.  1.
       -2    1    3    3    0  502  0.17749386627E+03  0.18317735687E+03 -0.40099721985E+03  0.47524392365E+03  0.25500000920E-02 0. -1.
</event>
<event>
 5   0  0.5854579E-03  0.1089829E+04  0.7818609E-02  0.9215162E-01
        1   -1    0    0  501    0  0.00000000000E+00  0.00000000000E+00  0.70781950828E+03  0.70781950830E+03  0.50400001928E-02 0. -1.
       -1   -1    0    0    0  501  0.00000000000E+00  0.00000000000E+00 -0.41950208934E+03  0.41950208937E+03  0.50400001928E-02 0.  1.
    10030    2    1    2    0    0  0.00000000000E+00  0.00000000000E+00  0.28831741894E+03  0.11273215977E+04  0.10898289088E+04 0.  0.
        4    1    3    3  502    0  0.16015902141E+03 -0.14321061121E+02 -0.39440061778E+03  0.42592190028E+03  0.12699999809E+01 0.  1.
       -4    1    3    3    0  502 -0.16015902141E+03  0.14321061121E+02  0.68271803672E+03  0.70139969739E+03  0.12699999809E+01 0. -1.
</event>
<event>
 5   0  0.9692981E-03  0.1074934E+04  0.7818609E-02  0.9229973E-01
       -2   -1    0    0    0  501  0.00000000000E+00  0.00000000000E+00  0.49900030560E+03  0.49900030561E+03  0.25500000920E-02 0. -1.
        2   -1    0    0  501    0  0.00000000000E+00  0.00000000000E+00 -0.57889888493E+03  0.57889888493E+03  0.25500000920E-02 0.  1.
    10030    2    1    2    0    0  0.00000000000E+00  0.00000000000E+00 -0.79898579326E+02  0.10778991905E+04  0.10749338966E+04 0.  0.
        5    1    3    3  502    0  0.36184021737E+03 -0.31649604447E+03 -0.28092563741E+03  0.55681181096E+03  0.46999998093E+01 0.  1.
       -5    1    3    3    0  502 -0.36184021737E+03  0.31649604447E+03  0.20102705809E+03  0.52108737958E+03  0.46999998093E+01 0. -1.
</event>
<event>
 5   0  0.5998641E-03  0.1061670E+04  0.7818609E-02  0.9243378E-01
       -1   -1    0    0    0  501  0.00000000000E+00  0.00000000000E+00  0.47896491981E+03  0.47896491984E+03  0.50400001928E-02 0.  1.
        1   -1    0    0  501    0  0.00000000000E+00  0.00000000000E+00 -0.58832233032E+03  0.58832233034E+03  0.50400001928E-02 0. -1.
    10030    2    1    2    0    0  0.00000000000E+00  0.00000000000E+00 -0.10935741051E+03  0.10672872502E+04  0.10616699257E+04 0.  0.
        3    1    3    3  502    0  0.12488994204E+03  0.43297874397E+03 -0.33672986278E+03  0.56254342148E+03  0.10100000352E+00 0. -1.
       -3    1    3    3    0  502 -0.12488994204E+03 -0.43297874397E+03  0.22737245227E+03  0.50474382870E+03  0.10100000352E+00 0.  1.
</event>
<event>
 5   0  0.9925021E-03  0.1014341E+04  0.7818609E-02  0.9292954E-01
        2   -1    0    0  501    0  0.00000000000E+00  0.00000000000E+00  0.69956991547E+03  0.69956991547E+03  0.25500000920E-02 0.  1.
       -2   -1    0    0    0  501  0.00000000000E+00  0.00000000000E+00 -0.36768597920E+03  0.36768597921E+03  0.25500000920E-02 0. -1.
    10030    2    1    2    0    0  0.00000000000E+00  0.00000000000E+00  0.33188393627E+03  0.10672558947E+04  0.10143412629E+04 0.  0.
        4    1    3    3  502    0  0.21953868112E+03  0.40536279198E+03 -0.56521491038E+02  0.46444861661E+03  0.12699999809E+01 0.  1.
       -4    1    3    3    0  502 -0.21953868112E+03 -0.40536279198E+03  0.38840542731E+03  0.60280727806E+03  0.12699999809E+01 0. -1.
</event>
<event>
 5   0  0.5712664E-03  0.1096740E+04  0.7818609E-02  0.9208376E-01
       -1   -1    0    0    0  501  0.00000000000E+00  0.00000000000E+00  0.40302045722E+03  0.40302045725E+03  0.50400001928E-02 0.  1.
        1   -1    0    0  501    0  0.00000000000E+00  0.00000000000E+00 -0.74613928892E+03  0.74613928893E+03  0.50400001928E-02 0. -1.
    10030    2    1    2    0    0  0.00000000000E+00  0.00000000000E+00 -0.34311883170E+03  0.11491597462E+04  0.10967395268E+04 0.  0.
        5    1    3    3  502    0 -0.26056945329E+02 -0.18468462446E+03 -0.71186072821E+03  0.73590431530E+03  0.46999998093E+01 0. -1.
       -5    1    3    3    0  502  0.26056945329E+02  0.18468462446E+03  0.36874189651E+03  0.41325543088E+03  0.46999998093E+01 0.  1.
</event>
<event>
 5   0  0.9692981E-03  0.1086563E+04  0.7818609E-02  0.9218388E-01
        2   -1    0    0  501    0  0.00000000000E+00  0.00000000000E+00  0.69670863002E+03  0.69670863002E+03  0.25500000920E-02 0.  1.
       -2   -1    0    0    0  501  0.00000000000E+00  0.00000000000E+00 -0.42364179803E+03  0.42364179804E+03  0.25500000920E-02 0. -1.
    10030    2    1    2    0    0  0.00000000000E+00  0.00000000000E+00  0.27306683199E+03  0.11203504281E+04  0.10865631997E+04 0.  0.
        5    1    3    3  502    0  0.27041076412E+03 -0.46770432033E+03  0.19543680874E+03  0.57453193890E+03  0.46999998093E+01 0. -1.
       -5    1    3    3    0  502 -0.27041076412E+03  0.46770432033E+03  0.77630023246E+02  0.54581848916E+03  0.46999998093E+01 0.  1.
</event>
<event>
 5   0  0.5789905E-03  0.1050699E+04  0.7818609E-02  0.9254623E-01
       -1   -1    0    0    0  501  0.00000000000E+00  0.00000000000E+00  0.27907379675E+03  0.27907379679E+03  0.50400001928E-02 0. -1.
        1   -1    0    0  501    0  0.00000000000E+00  0.00000000000E+00 -0.98895663019E+03  0.98895663021E+03  0.50400001928E-02 0.  1.
    10030    2    1    2    0    0  0.00000000000E+00  0.00000000000E+00 -0.70988283344E+03  0.12680304270E+04  0.10506985898E+04 0.  0.
        1    1    3    3  502    0  0.21528245406E+03  0.47536778284E+03 -0.42806086909E+03  0.67494975492E+03  0.50400001928E-02 0.  1.
       -1    1    3    3    0  502 -0.21528245406E+03 -0.47536778284E+03 -0.28182196435E+03  0.59308067208E+03  0.50400001928E-02 0. -1.
</event>
<event>
 5   0  0.5789905E-03  0.1096143E+04  0.7818609E-02  0.9208960E-01
        1   -1    0    0  501    0  0.00000000000E+00  0.00000000000E+00  0.37997410322E+03  0.37997410326E+03  0.50400001928E-02 0.  1.
       -1   -1    0    0    0  501  0.00000000000E+00  0.00000000000E+00 -0.79053334005E+03  0.79053334007E+03  0.50400001928E-02 0. -1.
    10030    2    1    2    0    0  0.00000000000E+00  0.00000000000E+00 -0.41055923683E+03  0.11705074433E+04  0.10961426859E+04 0.  0.
        1    1    3    3  502    0  0.34228430131E+03 -0.10073972526E+03 -0.64952657630E+03  0.74107476580E+03  0.50400001928E-02 0. -1.
       -1    1    3    3    0  502 -0.34228430131E+03  0.10073972526E+03  0.23896733947E+03  0.42943267752E+03  0.50400001928E-02 0.  1.
</event>
<event>
 5   0  0.5998641E-03  0.1058852E+04  0.7818609E-02  0.9246252E-01
       -1   -1    0    0    0  501  0.00000000000E+00  0.00000000000E+00  0.19968770092E+03  0.19968770098E+03  0.50400001928E-02 0.  1.
        1   -1    0    0  501    0  0.00000000000E+00  0.00000000000E+00 -0.14036522652E+04  0.14036522653E+04  0.50400001928E-02 0. -1.
    10030    2    1    2    0    0  0.00000000000E+00  0.00000000000E+00 -0.12039645643E+04  0.16033399662E+04  0.10588523859E+04 0.  0.
        3    1    3    3  502    0  0.30044708266E+02 -0.47955626293E+03 -0.26537738307E+03  0.54890988282E+03  0.10100000352E+00 0.  1.
       -3    1    3    3    0  502 -0.30044708266E+02  0.47955626293E+03 -0.93858718125E+03  0.10544300834E+04  0.10100000352E+00 0. -1.
</event>
<event>
 5   0  0.9925021E-03  0.1124610E+04  0.7818609E-02  0.9181532E-01
        2   -1    0    0  501    0  0.00000000000E+00  0.00000000000E+00  0.13165516202E+04  0.13165516202E+04  0.25500000920E-02 0.  1.
       -2   -1    0    0    0  501  0.00000000000E+00  0.00000000000E+00 -0.24016306057E+03  0.24016306059E+03  0.25500000920E-02 0. -1.
    10030    2    1    2    0    0  0.00000000000E+00  0.00000000000E+00  0.10763885596E+04  0.15567146808E+04  0.11246102730E+04 0.  0.
        4    1    3    3  502    0 -0.40359118288E+02  0.20278846475E+03 -0.18562939338E+03  0.27787030149E+03  0.12699999809E+01 0. -1.
       -4    1    3    3    0  502  0.40359118288E+02 -0.20278846475E+03  0.12620179530E+04  0.12788443793E+04  0.12699999809E+01 0.  1.
</event>
<event>
 5   0  0.1019384E-02  0.1098529E+04  0.7818609E-02  0.9206627E-01
       -2   -1    0    0    0  501  0.00000000000E+00  0.00000000000E+00  0.24471424835E+03  0.24471424836E+03  0.25500000920E-02 0. -1.
        2   -1    0    0  501    0  0.00000000000E+00  0.00000000000E+00 -0.12328311419E+04  0.12328311419E+04  0.25500000920E-02 0.  1.
    10030    2    1    2    0    0  0.00000000000E+00  0.00000000000E+00 -0.98811689351E+03  0.14775453902E+04  0.10985287365E+04 0.  0.
        1    1    3    3  502    0  0.28621635018E+03  0.67287763969E+02  0.12995628021E+03  0.32145929304E+03  0.50400001928E-02 0. -1.
       -1    1    3    3    0  502 -0.28621635018E+03 -0.67287763969E+02 -0.11180731737E+04  0.11560860972E+04  0.50400001928E-02 0.  1.
</event>
<event>
 5   0  0.9692981E-03  0.1100976E+04  0.7818609E-02  0.9204242E-01
       -2   -1    0    0    0  501  0.00000000000E+00  0.00000000000E+00  0.15144132220E+03  0.15144132222E+03  0.25500000920E-02 0. -1.
        2   -1    0    0  501    0  0.00000000000E+00  0.00000000000E+00 -0.20010180463E+04  0.20010180463E+04  0.25500000920E-02 0.  1.
    10030    2    1    2    0    0  0.00000000000E+00  0.00000000000E+00 -0.18495767241E+04  0.21524593686E+04  0.11009756014E+04 0.  0.
        5    1    3    3  502    0 -0.51222589145E+03  0.15212870037E+03 -0.66618782375E+03  0.85401803954E+03  0.46999998093E+01 0.  1.
       -5    1    3    3    0  502  0.51222589145E+03 -0.15212870037E+03 -0.11833889004E+04  0.12984413290E+04  0.46999998093E+01 0. -1.
</event>
<event>
 5   0  0.3949750E-03  0.1099305E+04  0.7818609E-02  0.9205869E-01
       -4   -1    0    0    0  501  0.00000000000E+00  0.00000000000E+00  0.23119311364E+03  0.23119660183E+03  0.12699999809E+01 0. -1.
        4   -1    0    0  501    0  0.00000000000E+00  0.00000000000E+00 -0.13067644281E+04  0.13067650453E+04  0.12699999809E+01 0.  1.
    10030    2    1    2    0    0  0.00000000000E+00  0.00000000000E+00 -0.10755713145E+04  0.15379616471E+04  0.10993054059E+04 0.  0.
        5    1    3    3  502    0  0.23080653717E+03 -0.88566031476E+02 -0.12245662371E+04  0.12492798560E+04  0.46999998093E+01 0.  1.
       -5    1    3    3    0  502 -0.23080653717E+03  0.88566031476E+02  0.14899492264E+03  0.28868179108E+03  0.46999998093E+01 0. -1.
</event>
<event>
 5   0  0.3949750E-03  0.1047728E+04  0.7818609E-02  0.9257693E-01
       -3   -1    0    0    0  501  0.00000000000E+00  0.00000000000E+00  0.13458563789E+04  0.13458563827E+04  0.10100000352E+00 0.  1.
        3   -1    0    0  501    0  0.00000000000E+00  0.00000000000E+00 -0.20390994897E+03  0.20390997399E+03  0.10100000352E+00 0. -1.
    10030    2    1    2    0    0  0.00000000000E+00  0.00000000000E+00  0.11419464299E+04  0.15497663567E+04  0.10477280713E+04 0.  0.
        5    1    3    3  502    0 -0.48439520846E+03  0.13964261287E+03  0.78158032225E+03  0.93006917347E+03  0.46999998093E+01 0.  1.
       -5    1    3    3    0  502  0.48439520846E+03 -0.13964261287E+03  0.36036610766E+03  0.61969718319E+03  0.46999998093E+01 0. -1.
</event>
<event>
 5   0  0.5712664E-03  0.1093748E+04  0.7818609E-02  0.9211307E-01
        1   -1    0    0  501    0  0.00000000000E+00  0.00000000000E+00  0.11645617578E+04  0.11645617578E+04  0.50400001928E-02 0.  1.
       -1   -1    0    0    0  501  0.00000000000E+00  0.00000000000E+00 -0.25681005393E+03  0.25681005398E+03  0.50400001928E-02 0. -1.
    10030    2    1    2    0    0  0.00000000000E+00  0.00000000000E+00  0.90775170386E+03  0.14213718118E+04  0.10937479927E+04 0.  0.
        5    1    3    3  502    0 -0.97839570306E+02  0.36945282074E+03  0.96216323866E+03  0.10353009978E+04  0.46999998093E+01 0.  1.
       -5    1    3    3    0  502  0.97839570306E+02 -0.36945282074E+03 -0.54411534801E+02  0.38607081396E+03  0.46999998093E+01 0. -1.
</event>
<event>
 5   0  0.9925021E-03  0.1095381E+04  0.7818609E-02  0.9209706E-01
       -2   -1    0    0    0  501  0.00000000000E+00  0.00000000000E+00  0.26651384181E+03  0.26651384182E+03  0.25500000920E-02 0.  1.
        2   -1    0    0  501    0  0.00000000000E+00  0.00000000000E+00 -0.11255125577E+04  0.11255125577E+04  0.25500000920E-02 0. -1.
    10030    2    1    2    0    0  0.00000000000E+00  0.00000000000E+00 -0.85899871586E+03  0.13920263995E+04  0.10953806202E+04 0.  0.
        4    1    3    3  502    0 -0.49049485856E+03  0.22386363699E+03 -0.30719087553E+03  0.62053846065E+03  0.12699999809E+01 0. -1.
       -4    1    3    3    0  502  0.49049485856E+03 -0.22386363699E+03 -0.55180784034E+03  0.77148793885E+03  0.12699999809E+01 0.  1.
</event>
<event>
 5   0  0.5998641E-03  0.1032290E+04  0.7818609E-02  0.9273821E-01
        1   -1    0    0  501    0  0.00000000000E+00  0.00000000000E+00  0.28400350622E+03  0.28400350626E+03  0.50400001928E-02 0. -1.
       -1   -1    0    0    0  501  0.00000000000E+00  0.00000000000E+00 -0.93803733069E+03  0.93803733070E+03  0.50400001928E-02 0.  1.
    10030    2    1    2    0    0  0.00000000000E+00  0.00000000000E+00 -0.65403382447E+03  0.12220408370E+04  0.10322904454E+04 0.  0.
        3    1    3    3  502    0  0.77986443446E+02  0.11474388824E+03  0.26151633636E+03  0.29603859483E+03  0.10100000352E+00 0. -1.
       -3    1    3    3    0  502 -0.77986443446E+02 -0.11474388824E+03 -0.91555016083E+03  0.92600224214E+03  0.10100000352E+00 0.  1.
</event>
<event>
 5   0  0.9925021E-03  0.9517263E+03  0.7818609E-02  0.9363135E-01
        2   -1    0    0  501    0  0.00000000000E+00  0.00000000000E+00  0.66471078126E+03  0.66471078126E+03  0.25500000920E-02 0. -1.
       -2   -1    0    0    0  501  0.00000000000E+00  0.00000000000E+00 -0.34066807090E+03  0.34066807091E+03  0.25500000920E-02 0.  1.
    10030    2    1    2    0    0  0.00000000000E+00  0.00000000000E+00  0.32404271035E+03  0.10053788522E+04  0.95172630428E+03 0.  0.
        4    1    3    3  502    0  0.49018316703E+02  0.14174250870E+03  0.63908898074E+03  0.65645264288E+03  0.12699999809E+01 0. -1.
       -4    1    3    3    0  502 -0.49018316703E+02 -0.14174250870E+03 -0.31504627039E+03  0.34892620929E+03  0.12699999809E+01 0.  1.
</event>
<event>
 5   0  0.5789905E-03  0.1096650E+04  0.7818609E-02  0.9208463E-01
       -1   -1    0    0    0  501  0.00000000000E+00  0.00000000000E+00  0.33880574502E+03  0.33880574506E+03  0.50400001928E-02 0.  1.
        1   -1    0    0  501    0  0.00000000000E+00  0.00000000000E+00 -0.88741251514E+03  0.88741251515E+03  0.50400001928E-02 0. -1.
    10030    2    1    2    0    0  0.00000000000E+00  0.00000000000E+00 -0.54860677012E+03  0.12262182602E+04  0.10966502786E+04 0.  0.
        1    1    3    3  502    0  0.23973420215E+03  0.41134739785E+03  0.29827532795E+02  0.47704177085E+03  0.50400001928E-02 0.  1.
       -1    1    3    3    0  502 -0.23973420215E+03 -0.41134739785E+03 -0.57843430291E+03  0.74917648936E+03  0.50400001928E-02 0. -1.
</event>
<event>
 5   0  0.5789905E-03  0.1116400E+04  0.7818609E-02  0.9189353E-01
       -1   -1    0    0    0  501  0.00000000000E+00  0.00000000000E+00  0.15880205343E+04  0.15880205343E+04  0.50400001928E-02 0. -1.
        1   -1    0    0  501    0  0.00000000000E+00  0.00000000000E+00 -0.19621117661E+03  0.19621117667E+03  0.50400001928E-02 0.  1.
    10030    2    1    2    0    0  0.00000000000E+00  0.00000000000E+00  0.13918093577E+04  0.17842317110E+04  0.11164002465E+04 0.  0.
        1    1    3    3  502    0  0.37390644098E+03 -0.59005653076E+02  0.40253298057E+02  0.38066786275E+03  0.50400001928E-02 0.  1.
       -1    1    3    3    0  502 -0.37390644098E+03  0.59005653076E+02  0.13515560597E+04  0.14035638483E+04  0.50400001928E-02 0. -1.
</event>
<event>
 5   0  0.9925021E-03  0.1067158E+04  0.7818609E-02  0.9237806E-01
       -2   -1    0    0    0  501  0.00000000000E+00  0.00000000000E+00  0.36709829259E+03  0.36709829260E+03  0.25500000920E-02 0.  1.
        2   -1    0    0  501    0  0.00000000000E+00  0.00000000000E+00 -0.77556007827E+03  0.77556007828E+03  0.25500000920E-02 0. -1.
    10030    2    1    2    0    0  0.00000000000E+00  0.00000000000E+00 -0.40846178568E+03  0.11426583709E+04  0.10671584335E+04 0.  0.
        4    1    3    3  502    0  0.48849069386E+03  0.20175439715E+03 -0.12571374693E+03  0.54326195691E+03  0.12699999809E+01 0.  1.
       -4    1    3    3    0  502 -0.48849069386E+03 -0.20175439715E+03 -0.28274803875E+03  0.59939641397E+03  0.12699999809E+01 0. -1.
</event>
<event>
 5   0  0.1019384E-02  0.1083603E+04  0.7818609E-02  0.9221322E-01
        2   -1    0    0  501    0  0.00000000000E+00  0.00000000000E+00  0.57397234330E+03  0.57397234331E+03  0.25500000920E-02 0. -1.
       -2   -1    0    0    0  501  0.00000000000E+00  0.00000000000E+00 -0.51143414752E+03  0.51143414753E+03  0.25500000920E-02 0.  1.
    10030    2    1    2    0    0  0.00000000000E+00  0.00000000000E+00  0.62538195782E+02  0.10854064908E+04  0.10836033520E+04 0.  0.
        1    1    3    3  502    0 -0.28009704626E+03  0.43070645810E+02  0.49381626429E+03  0.56935396613E+03  0.50400001928E-02 0. -1.
       -1    1    3    3    0  502  0.28009704626E+03 -0.43070645810E+02 -0.43127806850E+03  0.51605252470E+03  0.50400001928E-02 0.  1.
</event>
<event>
 5   0  0.1028016E-02  0.1097344E+04  0.7818609E-02  0.9207785E-01
        2   -1    0    0  501    0  0.00000000000E+00  0.00000000000E+00  0.88613938952E+03  0.88613938953E+03  0.25500000920E-02 0.  1.
       -2   -1    0    0    0  501  0.00000000000E+00  0.00000000000E+00 -0.33972175672E+03  0.33972175673E+03  0.25500000920E-02 0. -1.
    10030    2    1    2    0    0  0.00000000000E+00  0.00000000000E+00  0.54641763280E+03  0.12258611463E+04  0.10973437567E+04 0.  0.
        2    1    3    3  502    0 -0.29388737916E+03  0.93429438119E+02  0.78016569908E+03  0.83890247917E+03  0.25500000920E-02 0.  1.
       -2    1    3    3    0  502  0.29388737916E+03 -0.93429438119E+02 -0.23374806628E+03  0.38695866709E+03  0.25500000920E-02 0. -1.
</event>
<event>
 5   0  0.9925021E-03  0.1098269E+04  0.7818609E-02  0.9206881E-01
       -2   -1    0    0    0  501  0.00000000000E+00  0.00000000000E+00  0.81673637147E+03  0.81673637148E+03  0.25500000920E-02 0. -1.
        2   -1    0    0  501    0  0.00000000000E+00  0.00000000000E+00 -0.36921146150E+03  0.36921146151E+03  0.25500000920E-02 0.  1.
    10030    2    1    2    0    0  0.00000000000E+00  0.00000000000E+00  0.44752490997E+03  0.11859478330E+04  0.10982685088E+04 0.  0.
        4    1    3    3  502    0 -0.11600247692E+03  0.46408550644E+03  0.51494726398E+03  0.70285434446E+03  0.12699999809E+01 0. -1.
       -4    1    3    3    0  502  0.11600247692E+03 -0.46408550644E+03 -0.67422354006E+02  0.48309348853E+03  0.12699999809E+01 0.  1.
</event>
<event>
 5   0  0.5789905E-03  0.1178770E+04  0.7818609E-02  0.9131645E-01
       -1   -1    0    0    0  501  0.00000000000E+00  0.00000000000E+00  0.45509624017E+03  0.45509624020E+03  0.50400001928E-02 0.  1.
        1   -1    0    0  501    0  0.00000000000E+00  0.00000000000E+00 -0.76329902112E+03  0.76329902113E+03  0.50400001928E-02 0. -1.
    10030    2    1    2    0    0  0.00000000000E+00  0.00000000000E+00 -0.30820278094E+03  0.12183952613E+04  0.11787697225E+04 0.  0.
        1    1    3    3  502    0 -0.15548949596E+02 -0.56395696062E+03 -0.33037850727E+03  0.65378833069E+03  0.50400001928E-02 0. -1.
       -1    1    3    3    0  502  0.15548949596E+02  0.56395696062E+03  0.22175726321E+02  0.56460693064E+03  0.50400001928E-02 0.  1.
</event>
<event>
 5   0  0.5998641E-03  0.1157630E+04  0.7818609E-02  0.9150773E-01
        1   -1    0    0  501    0  0.00000000000E+00  0.00000000000E+00  0.68333789855E+03  0.68333789857E+03  0.50400001928E-02 0. -1.
       -1   -1    0    0    0  501  0.00000000000E+00  0.00000000000E+00 -0.49027985225E+03  0.49027985228E+03  0.50400001928E-02 0.  1.
    10030    2    1    2    0    0  0.00000000000E+00  0.00000000000E+00  0.19305804630E+03  0.11736177509E+04  0.11576299996E+04 0.  0.
        3    1    3    3  502    0 -0.12031126274E+03  0.28057170163E+03 -0.40202628453E+03  0.50479740823E+03  0.10100000352E+00 0.  1.
       -3    1    3    3    0  502  0.12031126274E+03 -0.28057170163E+03  0.59508433083E+03  0.66882034262E+03  0.10100000352E+00 0. -1.
</event>
<event>
 5   0  0.1028016E-02  0.1078645E+04  0.7818609E-02  0.9226260E-01
       -2   -1    0    0    0  501  0.00000000000E+00  0.00000000000E+00  0.17978197323E+03  0.17978197325E+03  0.25500000920E-02 0. -1.
        2   -1    0    0  501    0  0.00000000000E+00  0.00000000000E+00 -0.16178960131E+04  0.16178960131E+04  0.25500000920E-02 0.  1.
    10030    2    1    2    0    0  0.00000000000E+00  0.00000000000E+00 -0.14381140399E+04  0.17976779864E+04  0.10786445897E+04 0.  0.
        2    1    3    3  502    0  0.48862442743E+02 -0.35743220473E+03 -0.13872052788E+04  0.14333470637E+04  0.25500000920E-02 0.  1.
       -2    1    3    3    0  502 -0.48862442743E+02  0.35743220473E+03 -0.50908761080E+02  0.36433092272E+03  0.25500000920E-02 0. -1.
</event>
<event>
 5   0  0.3949750E-03  0.1123991E+04  0.7818609E-02  0.9182119E-01
        3   -1    0    0  501    0  0.00000000000E+00  0.00000000000E+00  0.63245813074E+03  0.63245813880E+03  0.10100000352E+00 0.  1.
       -3   -1    0    0    0  501  0.00000000000E+00  0.00000000000E+00 -0.49938284943E+03  0.49938285965E+03  0.10100000352E+00 0. -1.
    10030    2    1    2    0    0  0.00000000000E+00  0.00000000000E+00  0.13307528131E+03  0.11318409984E+04  0.11239906651E+04 0.  0.
        1    1    3    3  502    0 -0.39580367880E+03  0.17653385197E+03 -0.29375173207E+03  0.52355977038E+03  0.50400001928E-02 0. -1.
       -1    1    3    3    0  502  0.39580367880E+03 -0.17653385197E+03  0.42682701338E+03  0.60828122806E+03  0.50400001928E-02 0.  1.
</event>
<event>
 5   0  0.5958706E-03  0.1109431E+04  0.7818609E-02  0.9196048E-01
       -1   -1    0    0    0  501  0.00000000000E+00  0.00000000000E+00  0.14682668668E+04  0.14682668668E+04  0.50400001928E-02 0. -1.
        1   -1    0    0  501    0  0.00000000000E+00  0.00000000000E+00 -0.20957316317E+03  0.20957316323E+03  0.50400001928E-02 0.  1.
    10030    2    1    2    0    0  0.00000000000E+00  0.00000000000E+00  0.12586937037E+04  0.16778400301E+04  0.11094310825E+04 0.  0.
        2    1    3    3  502    0  0.45014561287E+03  0.10136715315E+03  0.10949985266E+04  0.11882458272E+04  0.25500000920E-02 0. -1.
       -2    1    3    3    0  502 -0.45014561287E+03 -0.10136715315E+03  0.16369517705E+03  0.48959420290E+03  0.25500000920E-02 0.  1.
</event>
<event>
 5   0  0.5958706E-03  0.1100379E+04  0.7818609E-02  0.9204822E-01
        1   -1    0    0  501    0  0.00000000000E+00  0.00000000000E+00  0.12078672350E+04  0.12078672350E+04  0.50400001928E-02 0. -1.
       -1   -1    0    0    0  501  0.00000000000E+00  0.00000000000E+00 -0.25061417357E+03  0.25061417362E+03  0.50400001928E-02 0.  1.
    10030    2    1    2    0    0  0.00000000000E+00  0.00000000000E+00  0.95725306146E+03  0.14584814087E+04  0.11003792963E+04 0.  0.
        2    1    3    3  502    0  0.33001605448E+03  0.36208861006E+03  0.81048831587E+03  0.94705336065E+03  0.25500000920E-02 0. -1.
       -2    1    3    3    0  502 -0.33001605448E+03 -0.36208861006E+03  0.14676474560E+03  0.51142804802E+03  0.25500000920E-02 0.  1.
</event>
<event>
 5   0  0.5854579E-03  0.1078298E+04  0.7818609E-02  0.9226606E-01
        1   -1    0    0  501    0  0.00000000000E+00  0.00000000000E+00  0.59525974697E+03  0.59525974699E+03  0.50400001928E-02 0. -1.
       -1   -1    0    0    0  501  0.00000000000E+00  0.00000000000E+00 -0.48832772777E+03  0.48832772780E+03  0.50400001928E-02 0.  1.
    10030    2    1    2    0    0  0.00000000000E+00  0.00000000000E+00  0.10693201920E+03  0.10835874748E+04  0.10782983626E+04 0.  0.
        4    1    3    3  502    0  0.10887705135E+03  0.35988058040E+03 -0.33483843479E+03  0.50347456219E+03  0.12699999809E+01 0. -1.
       -4    1    3    3    0  502 -0.10887705135E+03 -0.35988058040E+03  0.44177045398E+03  0.58011291261E+03  0.12699999809E+01 0.  1.
</event>
<event>
 5   0  0.1028016E-02  0.1086078E+04  0.7818609E-02  0.9218868E-01
        2   -1    0    0  501    0  0.00000000000E+00  0.00000000000E+00  0.37265255615E+03  0.37265255616E+03  0.25500000920E-02 0.  1.
       -2   -1    0    0    0  501  0.00000000000E+00  0.00000000000E+00 -0.79133048144E+03  0.79133048144E+03  0.25500000920E-02 0. -1.
    10030    2    1    2    0    0  0.00000000000E+00  0.00000000000E+00 -0.41867792529E+03  0.11639830376E+04  0.10860779469E+04 0.  0.
        2    1    3    3  502    0  0.42706162679E+03  0.33541890234E+03 -0.21144281626E+03  0.58274826270E+03  0.25500000920E-02 0. -1.
       -2    1    3    3    0  502 -0.42706162679E+03 -0.33541890234E+03 -0.20723510902E+03  0.58123477489E+03  0.25500000920E-02 0.  1.
</event>
<event>
 5   0  0.5789905E-03  0.1148626E+04  0.7818609E-02  0.9159052E-01
        1   -1    0    0  501    0  0.00000000000E+00  0.00000000000E+00  0.89615047684E+03  0.89615047685E+03  0.50400001928E-02 0.  1.
       -1   -1    0    0    0  501  0.00000000000E+00  0.00000000000E+00 -0.36805809975E+03  0.36805809978E+03  0.50400001928E-02 0. -1.
    10030    2    1    2    0    0  0.00000000000E+00  0.00000000000E+00  0.52809237709E+03  0.12642085766E+04  0.11486260342E+04 0.  0.
        1    1    3    3  502    0 -0.28868360482E+03 -0.41436440157E+03  0.56506179979E+03  0.75784623678E+03  0.50400001928E-02 0.  1.
       -1    1    3    3    0  502  0.28868360482E+03  0.41436440157E+03 -0.36969422703E+02  0.50636233985E+03  0.50400001928E-02 0. -1.
</event>
<event>
 5   0  0.1028016E-02  0.1140472E+04  0.7818609E-02  0.9166619E-01
        2   -1    0    0  501    0  0.00000000000E+00  0.00000000000E+00  0.13158607338E+04  0.13158607338E+04  0.25500000920E-02 0.  1.
       -2   -1    0    0    0  501  0.00000000000E+00  0.00000000000E+00 -0.24711500723E+03  0.24711500724E+03  0.25500000920E-02 0. -1.
    10030    2    1    2    0    0  0.00000000000E+00  0.00000000000E+00  0.10687457265E+04  0.15629757410E+04  0.11404717177E+04 0.  0.
        2    1    3    3  502    0  0.41714901979E+03  0.28900871479E+03  0.89077155720E+03  0.10251894016E+04  0.25500000920E-02 0.  1.
       -2    1    3    3    0  502 -0.41714901979E+03 -0.28900871479E+03  0.17797416932E+03  0.53778633944E+03  0.25500000920E-02 0. -1.
</event>
<event>
 5   0  0.1028016E-02  0.1111158E+04  0.7818609E-02  0.9194385E-01
       -2   -1    0    0    0  501  0.00000000000E+00  0.00000000000E+00  0.17772087904E+03  0.17772087906E+03  0.25500000920E-02 0.  1.
        2   -1    0    0  501    0  0.00000000000E+00  0.00000000000E+00 -0.17368121603E+04  0.17368121603E+04  0.25500000920E-02 0. -1.
    10030    2    1    2    0    0  0.00000000000E+00  0.00000000000E+00 -0.15590912813E+04  0.19145330394E+04  0.11111575656E+04 0.  0.
        2    1    3    3  502    0 -0.52378691655E+03 -0.70398190354E+02 -0.10747745741E+04  0.11976848602E+04  0.25500000920E-02 0. -1.
       -2    1    3    3    0  502  0.52378691655E+03  0.70398190354E+02 -0.48431670716E+03  0.71684817918E+03  0.25500000920E-02 0.  1.
</event>
<event>
 5   0  0.1028016E-02  0.1182820E+04  0.7818609E-02  0.9128029E-01
        2   -1    0    0  501    0  0.00000000000E+00  0.00000000000E+00  0.99383477235E+03  0.99383477235E+03  0.25500000920E-02 0. -1.
       -2   -1    0    0    0  501  0.00000000000E+00  0.00000000000E+00 -0.35193525437E+03  0.35193525438E+03  0.25500000920E-02 0.  1.
    10030    2    1    2    0    0  0.00000000000E+00  0.00000000000E+00  0.64189951797E+03  0.13457700267E+04  0.11828195017E+04 0.  0.
        2    1    3    3  502    0 -0.15308327556E+03 -0.47818806833E+03  0.67652105041E+03  0.84248385718E+03  0.25500000920E-02 0. -1.
       -2    1    3    3    0  502  0.15308327556E+03  0.47818806833E+03 -0.34621532439E+02  0.50328616955E+03  0.25500000920E-02 0.  1.
</event>
<event>
 5   0  0.1019384E-02  0.1094481E+04  0.7818609E-02  0.9210588E-01
       -2   -1    0    0    0  501  0.00000000000E+00  0.00000000000E+00  0.74874229430E+03  0.74874229430E+03  0.25500000920E-02 0. -1.
        2   -1    0    0  501    0  0.00000000000E+00  0.00000000000E+00 -0.39996696575E+03  0.39996696576E+03  0.25500000920E-02 0.  1.
    10030    2    1    2    0    0  0.00000000000E+00  0.00000000000E+00  0.34877532855E+03  0.11487092601E+04  0.10944810343E+04 0.  0.
        1    1    3    3  502    0 -0.43303317721E+03 -0.12645867584E+03 -0.15073931400E+03  0.47563838162E+03  0.50400001928E-02 0.  1.
       -1    1    3    3    0  502  0.43303317721E+03  0.12645867584E+03  0.49951464255E+03  0.67307087844E+03  0.50400001928E-02 0. -1.
</event>
<event>
 5   0  0.5958706E-03  0.1101279E+04  0.7818609E-02  0.9203946E-01
        1   -1    0    0  501    0  0.00000000000E+00  0.00000000000E+00  0.11405097036E+04  0.11405097036E+04  0.50400001928E-02 0. -1.
       -1   -1    0    0    0  501  0.00000000000E+00  0.00000000000E+00 -0.26584939976E+03  0.26584939981E+03  0.50400001928E-02 0.  1.
    10030    2    1    2    0    0  0.00000000000E+00  0.00000000000E+00  0.87466030380E+03  0.14063591034E+04  0.11012789295E+04 0.  0.
        2    1    3    3  502    0  0.31399259212E+03  0.23970781648E+03  0.92720249409E+03  0.10078470371E+04  0.25500000920E-02 0. -1.
       -2    1    3    3    0  502 -0.31399259212E+03 -0.23970781648E+03 -0.52542190289E+02  0.39851206626E+03  0.25500000920E-02 0.  1.
</event>
<event>
 5   0  0.9925021E-03  0.1112787E+04  0.7818609E-02  0.9192817E-01
        2   -1    0    0  501    0  0.00000000000E+00  0.00000000000E+00  0.28864593136E+03  0.28864593137E+03  0.25500000920E-02 0. -1.
       -2   -1    0    0    0  501  0.00000000000E+00  0.00000000000E+00 -0.10725041253E+04  0.10725041253E+04  0.25500000920E-02 0.  1.
    10030    2    1    2    0    0  0.00000000000E+00  0.00000000000E+00 -0.78385819389E+03  0.13611500566E+04  0.11127874049E+04 0.  0.
        4    1    3    3  502    0 -0.24842039632E+03 -0.12650224100E+03 -0.98091343989E+03  0.10197589420E+04  0.12699999809E+01 0.  1.
       -4    1    3    3    0  502  0.24842039632E+03  0.12650224100E+03  0.19705524600E+03  0.34139111465E+03  0.12699999809E+01 0. -1.
</event>
<event>
 5   0  0.9692981E-03  0.1119175E+04  0.7818609E-02  0.9186702E-01
       -2   -1    0    0    0  501  0.00000000000E+00  0.00000000000E+00  0.14906453699E+03  0.14906453701E+03  0.25500000920E-02 0. -1.
        2   -1    0    0  501    0  0.00000000000E+00  0.00000000000E+00 -0.21006868716E+04  0.21006868716E+04  0.25500000920E-02 0.  1.
    10030    2    1    2    0    0  0.00000000000E+00  0.00000000000E+00 -0.19516223346E+04  0.22497514086E+04  0.11191745456E+04 0.  0.
        5    1    3    3  502    0  0.38963603542E+03 -0.26937347451E+03 -0.37699937447E+03  0.60541632553E+03  0.46999998093E+01 0.  1.
       -5    1    3    3    0  502 -0.38963603542E+03  0.26937347451E+03 -0.15746229602E+04  0.16443350831E+04  0.46999998093E+01 0. -1.
</event>
<event>
 5   0  0.5998641E-03  0.1365150E+04  0.7818609E-02  0.8979439E-01
       -1   -1    0    0    0  501  0.00000000000E+00  0.00000000000E+00  0.33019883674E+03  0.33019883678E+03  0.50400001928E-02 0. -1.
        1   -1    0    0  501    0  0.00000000000E+00  0.00000000000E+00 -0.14109934484E+04  0.14109934484E+04  0.50400001928E-02 0.  1.
    10030    2    1    2    0    0  0.00000000000E+00  0.00000000000E+00 -0.10807946116E+04  0.17411922851E+04  0.13651496553E+04 0.  0.
        3    1    3    3  502    0  0.24199812240E+03  0.21151979418E+03 -0.13084361181E+04  0.13473339601E+04  0.10100000352E+00 0.  1.
       -3    1    3    3    0  502 -0.24199812240E+03 -0.21151979418E+03  0.22764150648E+03  0.39385832509E+03  0.10100000352E+00 0. -1.
</event>
<event>
 5   0  0.9692981E-03  0.1014478E+04  0.7818609E-02  0.9292807E-01
       -2   -1    0    0    0  501  0.00000000000E+00  0.00000000000E+00  0.39009332488E+03  0.39009332489E+03  0.25500000920E-02 0. -1.
        2   -1    0    0  501    0  0.00000000000E+00  0.00000000000E+00 -0.65956322508E+03  0.65956322509E+03  0.25500000920E-02 0.  1.
    10030    2    1    2    0    0  0.00000000000E+00  0.00000000000E+00 -0.26946990020E+03  0.10496565500E+04  0.10144776221E+04 0.  0.
        5    1    3    3  502    0 -0.13852014706E+03  0.47305931847E+03 -0.11022153782E+02  0.49306848187E+03  0.46999998093E+01 0. -1.
       -5    1    3    3    0  502  0.13852014706E+03 -0.47305931847E+03 -0.25844774642E+03  0.55658806811E+03  0.46999998093E+01 0.  1.
</event>
<event>
 5   0  0.5998641E-03  0.1132174E+04  0.7818609E-02  0.9174388E-01
        1   -1    0    0  501    0  0.00000000000E+00  0.00000000000E+00  0.50763477029E+03  0.50763477032E+03  0.50400001928E-02 0. -1.
       -1   -1    0    0    0  501  0.00000000000E+00  0.00000000000E+00 -0.63126967283E+03  0.63126967285E+03  0.50400001928E-02 0.  1.
    10030    2    1    2    0    0  0.00000000000E+00  0.00000000000E+00 -0.12363490254E+03  0.11389044432E+04  0.11321739008E+04 0.  0.
        3    1    3    3  502    0  0.97211653395E+02 -0.44271497938E+03  0.27932654536E+03  0.53241899634E+03  0.10100000352E+00 0. -1.
       -3    1    3    3    0  502 -0.97211653395E+02  0.44271497938E+03 -0.40296144790E+03  0.60648544683E+03  0.10100000352E+00 0.  1.
</event>
<event>
 5   0  0.9692981E-03  0.1098833E+04  0.7818609E-02  0.9206330E-01
        2   -1    0    0  501    0  0.00000000000E+00  0.00000000000E+00  0.49692449624E+03  0.49692449625E+03  0.25500000920E-02 0. -1.
       -2   -1    0    0    0  501  0.00000000000E+00  0.00000000000E+00 -0.60745297196E+03  0.60745297197E+03  0.25500000920E-02 0.  1.
    10030    2    1    2    0    0  0.00000000000E+00  0.00000000000E+00 -0.11052847572E+03  0.11043774682E+04  0.10988325843E+04 0.  0.
        5    1    3    3  502    0  0.12903950151E+02  0.25220400124E+03 -0.54564314174E+03  0.60126691103E+03  0.46999998093E+01 0.  1.
       -5    1    3    3    0  502 -0.12903950151E+02 -0.25220400124E+03  0.43511466602E+03  0.50311055719E+03  0.46999998093E+01 0. -1.
</event>
<event>
 5   0  0.1028016E-02  0.1140221E+04  0.7818609E-02  0.9166852E-01
       -2   -1    0    0    0  501  0.00000000000E+00  0.00000000000E+00  0.42019705394E+03  0.42019705395E+03  0.25500000920E-02 0. -1.
        2   -1    0    0  501    0  0.00000000000E+00  0.00000000000E+00 -0.77350909038E+03  0.77350909038E+03  0.25500000920E-02 0.  1.
    10030    2    1    2    0    0  0.00000000000E+00  0.00000000000E+00 -0.35331203644E+03  0.11937061443E+04  0.11402214539E+04 0.  0.
        2    1    3    3  502    0 -0.38139255395E+03  0.32929165321E+03 -0.45587419419E+03  0.67949580868E+03  0.25500000920E-02 0.  1.
       -2    1    3    3    0  502  0.38139255395E+03 -0.32929165321E+03  0.10256215775E+03  0.51421033565E+03  0.25500000920E-02 0. -1.
</event>
<event>
 5   0  0.5789905E-03  0.1048787E+04  0.7818609E-02  0.9256597E-01
       -1   -1    0    0    0  501  0.00000000000E+00  0.00000000000E+00  0.45422924455E+03  0.45422924458E+03  0.50400001928E-02 0. -1.
        1   -1    0    0  501    0  0.00000000000E+00  0.00000000000E+00 -0.60539575611E+03  0.60539575613E+03  0.50400001928E-02 0.  1.
    10030    2    1    2    0    0  0.00000000000E+00  0.00000000000E+00 -0.15116651156E+03  0.10596250007E+04  0.10487868363E+04 0.  0.
        1    1    3    3  502    0 -0.81867846679E+02 -0.19123475385E+03 -0.56192595479E+03  0.59919433750E+03  0.50400001928E-02 0.  1.
       -1    1    3    3    0  502  0.81867846679E+02  0.19123475385E+03  0.41075944323E+03  0.46043066321E+03  0.50400001928E-02 0. -1.
</event>
<event>
 5   0  0.5789905E-03  0.1109140E+04  0.7818609E-02  0.9196329E-01
        1   -1    0    0  501    0  0.00000000000E+00  0.00000000000E+00  0.46911138468E+03  0.46911138471E+03  0.50400001928E-02 0.  1.
       -1   -1    0    0    0  501  0.00000000000E+00  0.00000000000E+00 -0.65559719406E+03  0.65559719408E+03  0.50400001928E-02 0. -1.
    10030    2    1    2    0    0  0.00000000000E+00  0.00000000000E+00 -0.18648580937E+03  0.11247085788E+04  0.11091404014E+04 0.  0.
        1    1    3    3  502    0  0.27707587191E+02 -0.51231065412E+03 -0.30671666196E+03  0.59774997069E+03  0.50400001928E-02 0. -1.
       -1    1    3    3    0  502 -0.27707587191E+02  0.51231065412E+03  0.12023085258E+03  0.52695860810E+03  0.50400001928E-02 0.  1.
</event>
<event>
 5   0  0.9925021E-03  0.1195278E+04  0.7818609E-02  0.9116999E-01
        2   -1    0    0  501    0  0.00000000000E+00  0.00000000000E+00  0.73400246864E+03  0.73400246865E+03  0.25500000920E-02 0. -1.
       -2   -1    0    0    0  501  0.00000000000E+00  0.00000000000E+00 -0.48660947759E+03  0.48660947760E+03  0.25500000920E-02 0.  1.
    10030    2    1    2    0    0  0.00000000000E+00  0.00000000000E+00  0.24739299105E+03  0.12206119462E+04  0.11952783070E+04 0.  0.
        4    1    3    3  502    0  0.46490222901E+03  0.34554074467E+03 -0.26521414166E+02  0.57985988573E+03  0.12699999809E+01 0.  1.
       -4    1    3    3    0  502 -0.46490222901E+03 -0.34554074467E+03  0.27391440522E+03  0.64075206051E+03  0.12699999809E+01 0. -1.
</event>
<event>
 5   0  0.9925021E-03  0.1093175E+04  0.7818609E-02  0.9211870E-01
       -2   -1    0    0    0  501  0.00000000000E+00  0.00000000000E+00  0.14857563755E+03  0.14857563758E+03  0.25500000920E-02 0.  1.
        2   -1    0    0  501    0  0.00000000000E+00  0.00000000000E+00 -0.20108119836E+04  0.20108119836E+04  0.25500000920E-02 0. -1.
    10030    2    1    2    0    0  0.00000000000E+00  0.00000000000E+00 -0.18622363461E+04  0.21593876212E+04  0.10931745926E+04 0.  0.
        4    1    3    3  502    0 -0.25570825810E+02 -0.48196826256E+03 -0.42438070295E+03  0.64268800143E+03  0.12699999809E+01 0.  1.
       -4    1    3    3    0  502  0.25570825810E+02  0.48196826256E+03 -0.14378556431E+04  0.15166996198E+04  0.12699999809E+01 0. -1.
</event>
<event>
 5   0  0.1019384E-02  0.1093627E+04  0.7818609E-02  0.9211426E-01
       -2   -1    0    0    0  501  0.00000000000E+00  0.00000000000E+00  0.19350322035E+03  0.19350322036E+03  0.25500000920E-02 0.  1.
        2   -1    0    0  501    0  0.00000000000E+00  0.00000000000E+00 -0.15452200266E+04  0.15452200266E+04  0.25500000920E-02 0. -1.
    10030    2    1    2    0    0  0.00000000000E+00  0.00000000000E+00 -0.13517168063E+04  0.17387232470E+04  0.10936270869E+04 0.  0.
        1    1    3    3  502    0  0.32171275544E+03  0.41483277786E+03 -0.43255282941E+03  0.68021120313E+03  0.50400001928E-02 0.  1.
       -1    1    3    3    0  502 -0.32171275544E+03 -0.41483277786E+03 -0.91916397687E+03  0.10585120439E+04  0.50400001928E-02 0. -1.
</event>
<event>
 5   0  0.9692981E-03  0.1105009E+04  0.7818609E-02  0.9200324E-01
       -2   -1    0    0    0  501  0.00000000000E+00  0.00000000000E+00  0.63595630037E+03  0.63595630038E+03  0.25500000920E-02 0.  1.
        2   -1    0    0  501    0  0.00000000000E+00  0.00000000000E+00 -0.48000314070E+03  0.48000314071E+03  0.25500000920E-02 0. -1.
    10030    2    1    2    0    0  0.00000000000E+00  0.00000000000E+00  0.15595315967E+03  0.11159594411E+04  0.11050086362E+04 0.  0.
        5    1    3    3  502    0  0.46917203051E+03  0.27230765792E+03 -0.27775416966E+02  0.54320108483E+03  0.46999998093E+01 0. -1.
       -5    1    3    3    0  502 -0.46917203051E+03 -0.27230765792E+03  0.18372857664E+03  0.57275835625E+03  0.46999998093E+01 0.  1.
</event>
<event>
 5   0  0.5998641E-03  0.1114425E+04  0.7818609E-02  0.9191245E-01
        1   -1    0    0  501    0  0.00000000000E+00  0.00000000000E+00  0.33582673225E+03  0.33582673229E+03  0.50400001928E-02 0. -1.
       -1   -1    0    0    0  501  0.00000000000E+00  0.00000000000E+00 -0.92454199837E+03  0.92454199838E+03  0.50400001928E-02 0.  1.
    10030    2    1    2    0    0  0.00000000000E+00  0.00000000000E+00 -0.58871526612E+03  0.12603687307E+04  0.11144252656E+04 0.  0.
        3    1    3    3  502    0 -0.24834662074E+03  0.40957730597E+03  0.27630631233E+02  0.47978440532E+03  0.10100000352E+00 0. -1.
       -3    1    3    3    0  502  0.24834662074E+03 -0.40957730597E+03 -0.61634589735E+03  0.78058432535E+03  0.10100000352E+00 0.  1.
</event>
<event>
 5   0  0.5789905E-03  0.1108660E+04  0.7818609E-02  0.9196792E-01
        1   -1    0    0  501    0  0.00000000000E+00  0.00000000000E+00  0.72489740820E+03  0.72489740821E+03  0.50400001928E-02 0.  1.
       -1   -1    0    0    0  501  0.00000000000E+00  0.00000000000E+00 -0.42389702033E+03  0.42389702036E+03  0.50400001928E-02 0. -1.
    10030    2    1    2    0    0  0.00000000000E+00  0.00000000000E+00  0.30100038787E+03  0.11487944286E+04  0.11086601849E+04 0.  0.
        1    1    3    3  502    0  0.20974238017E+01 -0.14895757646E+03 -0.40276604583E+03  0.42943363453E+03  0.50400001928E-02 0. -1.
       -1    1    3    3    0  502 -0.20974238017E+01  0.14895757646E+03  0.70376643370E+03  0.71936079404E+03  0.50400001928E-02 0.  1.
</event>
<event>
 5   0  0.1028016E-02  0.9953733E+03  0.7818609E-02  0.9313634E-01
        2   -1    0    0  501    0  0.00000000000E+00  0.00000000000E+00  0.50296693566E+03  0.50296693567E+03  0.25500000920E-02 0.  1.
       -2   -1    0    0    0  501  0.00000000000E+00  0.00000000000E+00 -0.49246181557E+03  0.49246181557E+03  0.25500000920E-02 0. -1.
    10030    2    1    2    0    0  0.00000000000E+00  0.00000000000E+00  0.10505120098E+02  0.99542875124E+03  0.99537331753E+03 0.  0.
        2    1    3    3  502    0  0.23474049484E+03  0.11262344037E+03  0.42942812503E+03  0.50219085397E+03  0.25500000920E-02 0.  1.
       -2    1    3    3    0  502 -0.23474049484E+03 -0.11262344037E+03 -0.41892300493E+03  0.49323789727E+03  0.25500000920E-02 0. -1.
</event>
<event>
 5   0  0.5712664E-03  0.1093393E+04  0.7818609E-02  0.9211656E-01
       -1   -1    0    0    0  501  0.00000000000E+00  0.00000000000E+00  0.27754130828E+03  0.27754130832E+03  0.50400001928E-02 0.  1.
        1   -1    0    0  501    0  0.00000000000E+00  0.00000000000E+00 -0.10768732640E+04  0.10768732640E+04  0.50400001928E-02 0. -1.
    10030    2    1    2    0    0  0.00000000000E+00  0.00000000000E+00 -0.79933195575E+03  0.13544145724E+04  0.10933925454E+04 0.  0.
        5    1    3    3  502    0  0.40156493179E+03 -0.20371254859E+03 -0.78367431641E+03  0.90383666726E+03  0.46999998093E+01 0. -1.
       -5    1    3    3    0  502 -0.40156493179E+03  0.20371254859E+03 -0.15657639342E+02  0.45057790510E+03  0.46999998093E+01 0.  1.
</event>
<event>
 5   0  0.5789905E-03  0.1105804E+04  0.7818609E-02  0.9199554E-01
        1   -1    0    0  501    0  0.00000000000E+00  0.00000000000E+00  0.78218880332E+03  0.78218880334E+03  0.50400001928E-02 0. -1.
       -1   -1    0    0    0  501  0.00000000000E+00  0.00000000000E+00 -0.39082679908E+03  0.39082679912E+03  0.50400001928E-02 0.  1.
    10030    2    1    2    0    0  0.00000000000E+00  0.00000000000E+00  0.39136200424E+03  0.11730156025E+04  0.11058035021E+04 0.  0.
        1    1    3    3  502    0 -0.21889373728E+03  0.55305700806E+02 -0.33970061164E+03  0.40788441297E+03  0.50400001928E-02 0.  1.
       -1    1    3    3    0  502  0.21889373728E+03 -0.55305700806E+02  0.73106261588E+03  0.76513118949E+03  0.50400001928E-02 0. -1.
</event>
<event>
 5   0  0.5958706E-03  0.1106094E+04  0.7818609E-02  0.9199272E-01
        1   -1    0    0  501    0  0.00000000000E+00  0.00000000000E+00  0.16336744542E+04  0.16336744542E+04  0.50400001928E-02 0.  1.
       -1   -1    0    0    0  501  0.00000000000E+00  0.00000000000E+00 -0.18722276447E+03  0.18722276454E+03  0.50400001928E-02 0. -1.
    10030    2    1    2    0    0  0.00000000000E+00  0.00000000000E+00  0.14464516897E+04  0.18208972188E+04  0.11060941147E+04 0.  0.
        2    1    3    3  502    0  0.41388325891E+03 -0.98000398834E+01  0.11955661917E+03  0.43091667174E+03  0.25500000920E-02 0. -1.
       -2    1    3    3    0  502 -0.41388325891E+03  0.98000398834E+01  0.13268950706E+04  0.13899805470E+04  0.25500000920E-02 0.  1.
</event>
<event>
 5   0  0.1028016E-02  0.9952569E+03  0.7818609E-02  0.9313762E-01
        2   -1    0    0  501    0  0.00000000000E+00  0.00000000000E+00  0.12631578722E+04  0.12631578722E+04  0.25500000920E-02 0. -1.
       -2   -1    0    0    0  501  0.00000000000E+00  0.00000000000E+00 -0.19604364596E+03  0.19604364598E+03  0.25500000920E-02 0.  1.
    10030    2    1    2    0    0  0.00000000000E+00  0.00000000000E+00  0.10671142262E+04  0.14592015182E+04  0.99525690091E+03 0.  0.
        2    1    3    3  502    0  0.31298688800E+03  0.27592157074E+03  0.93115454396E+03  0.10203638028E+04  0.25500000920E-02 0. -1.
       -2    1    3    3    0  502 -0.31298688800E+03 -0.27592157074E+03  0.13595968229E+03  0.43883771542E+03  0.25500000920E-02 0.  1.
</event>
<event>
 5   0  0.9719260E-03  0.1074767E+04  0.7818609E-02  0.9230140E-01
       -2   -1    0    0    0  501  0.00000000000E+00  0.00000000000E+00  0.42443834628E+03  0.42443834629E+03  0.25500000920E-02 0. -1.
        2   -1    0    0  501    0  0.00000000000E+00  0.00000000000E+00 -0.68038452006E+03  0.68038452007E+03  0.25500000920E-02 0.  1.
    10030    2    1    2    0    0  0.00000000000E+00  0.00000000000E+00 -0.25594617378E+03  0.11048228664E+04  0.10747674735E+04 0.  0.
        3    1    3    3  502    0  0.49956715340E+03 -0.18147640089E+03 -0.20943722181E+03  0.57128362914E+03  0.10100000352E+00 0. -1.
       -3    1    3    3    0  502 -0.49956715340E+03  0.18147640089E+03 -0.46508951971E+02  0.53353923722E+03  0.10100000352E+00 0.  1.
</event>
<event>
 5   0  0.5712664E-03  0.1092928E+04  0.7818609E-02  0.9212112E-01
        1   -1    0    0  501    0  0.00000000000E+00  0.00000000000E+00  0.14692458395E+04  0.14692458395E+04  0.50400001928E-02 0. -1.
       -1   -1    0    0    0  501  0.00000000000E+00  0.00000000000E+00 -0.20324907682E+03  0.20324907688E+03  0.50400001928E-02 0.  1.
    10030    2    1    2    0    0  0.00000000000E+00  0.00000000000E+00  0.12659967627E+04  0.16724949164E+04  0.10929279218E+04 0.  0.
        5    1    3    3  502    0 -0.30002503540E+03 -0.45422835843E+03  0.56021153497E+03  0.78115137930E+03  0.46999998093E+01 0.  1.
       -5    1    3    3    0  502  0.30002503540E+03  0.45422835843E+03  0.70578522771E+03  0.89134353710E+03  0.46999998093E+01 0. -1.
</event>
<event>
 5   0  0.5789905E-03  0.1149098E+04  0.7818609E-02  0.9158616E-01
        1   -1    0    0  501    0  0.00000000000E+00  0.00000000000E+00  0.69837099513E+03  0.69837099515E+03  0.50400001928E-02 0. -1.
       -1   -1    0    0    0  501  0.00000000000E+00  0.00000000000E+00 -0.47268118842E+03  0.47268118845E+03  0.50400001928E-02 0.  1.
    10030    2    1    2    0    0  0.00000000000E+00  0.00000000000E+00  0.22568980671E+03  0.11710521836E+04  0.11490984848E+04 0.  0.
        1    1    3    3  502    0  0.21446136202E+03  0.54742185280E+02 -0.42748888467E+03  0.48139082790E+03  0.50400001928E-02 0.  1.
       -1    1    3    3    0  502 -0.21446136202E+03 -0.54742185280E+02  0.65317869137E+03  0.68966135569E+03  0.50400001928E-02 0. -1.
</event>
<event>
 5   0  0.5998641E-03  0.1108298E+04  0.7818609E-02  0.9197142E-01
        1   -1    0    0  501    0  0.00000000000E+00  0.00000000000E+00  0.67889158601E+03  0.67889158603E+03  0.50400001928E-02 0.  1.
       -1   -1    0    0    0  501  0.00000000000E+00  0.00000000000E+00 -0.45232691095E+03  0.45232691098E+03  0.50400001928E-02 0. -1.
    10030    2    1    2    0    0  0.00000000000E+00  0.00000000000E+00  0.22656467506E+03  0.11312184970E+04  0.11082976748E+04 0.  0.
        3    1    3    3  502    0 -0.39454513904E+03 -0.88670806787E+01  0.51034753304E+03  0.64513495219E+03  0.10100000352E+00 0.  1.
       -3    1    3    3    0  502  0.39454513904E+03  0.88670806787E+01 -0.28378285798E+03  0.48608354482E+03  0.10100000352E+00 0. -1.
</event>
<event>
 5   0  0.9692981E-03  0.1121040E+04  0.7818609E-02  0.9184924E-01
        2   -1    0    0  501    0  0.00000000000E+00  0.00000000000E+00  0.97711991243E+03  0.97711991244E+03  0.25500000920E-02 0.  1.
       -2   -1    0    0    0  501  0.00000000000E+00  0.00000000000E+00 -0.32153977601E+03  0.32153977602E+03  0.25500000920E-02 0. -1.
    10030    2    1    2    0    0  0.00000000000E+00  0.00000000000E+00  0.65558013643E+03  0.12986596885E+04  0.11210404413E+04 0.  0.
        5    1    3    3  502    0  0.88248263223E+02 -0.39339931385E+03 -0.12327383925E+03  0.42162697440E+03  0.46999998093E+01 0. -1.
       -5    1    3    3    0  502 -0.88248263223E+02  0.39339931385E+03  0.77885397568E+03  0.87703271406E+03  0.46999998093E+01 0.  1.
</event>
<event>
 5   0  0.5712664E-03  0.1090044E+04  0.7818609E-02  0.9214951E-01
        1   -1    0    0  501    0  0.00000000000E+00  0.00000000000E+00  0.70585764068E+03  0.70585764070E+03  0.50400001928E-02 0. -1.
       -1   -1    0    0    0  501  0.00000000000E+00  0.00000000000E+00 -0.42083391808E+03  0.42083391811E+03  0.50400001928E-02 0.  1.
    10030    2    1    2    0    0  0.00000000000E+00  0.00000000000E+00  0.28502372260E+03  0.11266915588E+04  0.10900437359E+04 0.  0.
        5    1    3    3  502    0 -0.18430026559E+03 -0.17141239293E+03 -0.35714284711E+03  0.43694610604E+03  0.46999998093E+01 0.  1.
       -5    1    3    3    0  502  0.18430026559E+03  0.17141239293E+03  0.64216656972E+03  0.68974545276E+03  0.46999998093E+01 0. -1.
</event>
<event>
 5   0  0.1028016E-02  0.1158904E+04  0.7818609E-02  0.9149609E-01
       -2   -1    0    0    0  501  0.00000000000E+00  0.00000000000E+00  0.60020068633E+03  0.60020068634E+03  0.25500000920E-02 0. -1.
        2   -1    0    0  501    0  0.00000000000E+00  0.00000000000E+00 -0.55942027787E+03  0.55942027788E+03  0.25500000920E-02 0.  1.
    10030    2    1    2    0    0  0.00000000000E+00  0.00000000000E+00  0.40780408463E+02  0.11596209642E+04  0.11589036797E+04 0.  0.
        2    1    3    3  502    0 -0.39422878921E+03 -0.29366726085E+03 -0.28656934555E+03  0.56901563085E+03  0.25500000920E-02 0.  1.
       -2    1    3    3    0  502  0.39422878921E+03  0.29366726085E+03  0.32734975401E+03  0.59060533336E+03  0.25500000920E-02 0. -1.
</event>
<event>
 5   0  0.1028016E-02  0.1062838E+04  0.7818609E-02  0.9242189E-01
       -2   -1    0    0    0  501  0.00000000000E+00  0.00000000000E+00  0.40650375798E+03  0.40650375799E+03  0.25500000920E-02 0.  1.
        2   -1    0    0  501    0  0.00000000000E+00  0.00000000000E+00 -0.69471986549E+03  0.69471986550E+03  0.25500000920E-02 0. -1.
    10030    2    1    2    0    0  0.00000000000E+00  0.00000000000E+00 -0.28821610751E+03  0.11012236235E+04  0.10628381553E+04 0.  0.
        2    1    3    3  502    0 -0.26624888738E+03 -0.42509947886E+03  0.37753768585E+02  0.50301429801E+03  0.25500000920E-02 0.  1.
       -2    1    3    3    0  502  0.26624888738E+03  0.42509947886E+03 -0.32596987610E+03  0.59820932548E+03  0.25500000920E-02 0. -1.
</event>
<event>
 5   0  0.9692981E-03  0.1080979E+04  0.7818609E-02  0.9223932E-01
        2   -1    0    0  501    0  0.00000000000E+00  0.00000000000E+00  0.73727546450E+03  0.73727546451E+03  0.25500000920E-02 0. -1.
       -2   -1    0    0    0  501  0.00000000000E+00  0.00000000000E+00 -0.39622758752E+03  0.39622758753E+03  0.25500000920E-02 0.  1.
    10030    2    1    2    0    0  0.00000000000E+00  0.00000000000E+00  0.34104787698E+03  0.11335030520E+04  0.10809789612E+04 0.  0.
        5    1    3    3  502    0  0.11443150936E+03 -0.14127051145E+02 -0.38315969387E+03  0.40015944936E+03  0.46999998093E+01 0.  1.
       -5    1    3    3    0  502 -0.11443150936E+03  0.14127051145E+02  0.72420757085E+03  0.73334360268E+03  0.46999998093E+01 0. -1.
</event>
<event>
 5   0  0.1019384E-02  0.1246204E+04  0.7818609E-02  0.9073349E-01
        2   -1    0    0  501    0  0.00000000000E+00  0.00000000000E+00  0.55754747706E+03  0.55754747706E+03  0.25500000920E-02 0.  1.
       -2   -1    0    0    0  501  0.00000000000E+00  0.00000000000E+00 -0.69636415373E+03  0.69636415374E+03  0.25500000920E-02 0. -1.
    10030    2    1    2    0    0  0.00000000000E+00  0.00000000000E+00 -0.13881667668E+03  0.12539116308E+04  0.12462039593E+04 0.  0.
        1    1    3    3  502    0  0.44786899354E+02 -0.60031385835E+03 -0.23125555856E+03  0.64487342035E+03  0.50400001928E-02 0. -1.
       -1    1    3    3    0  502 -0.44786899354E+02  0.60031385835E+03  0.92438881885E+02  0.60903821045E+03  0.50400001928E-02 0.  1.
</event>
<event>
 5   0  0.1028016E-02  0.1086856E+04  0.7818609E-02  0.9218099E-01
       -2   -1    0    0    0  501  0.00000000000E+00  0.00000000000E+00  0.47823950515E+03  0.47823950516E+03  0.25500000920E-02 0.  1.
        2   -1    0    0  501    0  0.00000000000E+00  0.00000000000E+00 -0.61750209483E+03  0.61750209483E+03  0.25500000920E-02 0. -1.
    10030    2    1    2    0    0  0.00000000000E+00  0.00000000000E+00 -0.13926258968E+03  0.10957416000E+04  0.10868558253E+04 0.  0.
        2    1    3    3  502    0 -0.45251517961E+03  0.21036818568E+03 -0.28653938221E+03  0.57543859697E+03  0.25500000920E-02 0. -1.
       -2    1    3    3    0  502  0.45251517961E+03 -0.21036818568E+03  0.14727679253E+03  0.52030300302E+03  0.25500000920E-02 0.  1.
</event>
<event>
 5   0  0.1019384E-02  0.1060736E+04  0.7818609E-02  0.9244329E-01
       -2   -1    0    0    0  501  0.00000000000E+00  0.00000000000E+00  0.18350151452E+03  0.18350151454E+03  0.25500000920E-02 0.  1.
        2   -1    0    0  501    0  0.00000000000E+00  0.00000000000E+00 -0.15329051303E+04  0.15329051303E+04  0.25500000920E-02 0. -1.
    10030    2    1    2    0    0  0.00000000000E+00  0.00000000000E+00 -0.13494036158E+04  0.17164066448E+04  0.10607363726E+04 0.  0.
        1    1    3    3  502    0  0.20921251652E+03 -0.34207139788E+03 -0.12364221031E+04  0.12998162698E+04  0.50400001928E-02 0. -1.
       -1    1    3    3    0  502 -0.20921251652E+03  0.34207139788E+03 -0.11298151272E+03  0.41659037502E+03  0.50400001928E-02 0.  1.
</event>
<event>
 5   0  0.5958706E-03  0.1113048E+04  0.7818609E-02  0.9192567E-01
        1   -1    0    0  501    0  0.00000000000E+00  0.00000000000E+00  0.14413650551E+04  0.14413650551E+04  0.50400001928E-02 0.  1.
       -1   -1    0    0    0  501  0.00000000000E+00  0.00000000000E+00 -0.21487884783E+03  0.21487884789E+03  0.50400001928E-02 0. -1.
    10030    2    1    2    0    0  0.00000000000E+00  0.00000000000E+00  0.12264862072E+04  0.16562439030E+04  0.11130478200E+04 0.  0.
        2    1    3    3  502    0 -0.31501750189E+02 -0.22625192141E+03  0.13683873590E+04  0.13873234146E+04  0.25500000920E-02 0.  1.
       -2    1    3    3    0  502  0.31501750189E+02  0.22625192141E+03 -0.14190115179E+03  0.26892048842E+03  0.25500000920E-02 0. -1.
</event>
<event>
 5   0  0.5854579E-03  0.1088641E+04  0.7818609E-02  0.9216335E-01
       -1   -1    0    0    0  501  0.00000000000E+00  0.00000000000E+00  0.73944617018E+03  0.73944617020E+03  0.50400001928E-02 0. -1.
        1   -1    0    0  501    0  0.00000000000E+00  0.00000000000E+00 -0.40068447569E+03  0.40068447572E+03  0.50400001928E-02 0.  1.
    10030    2    1    2    0    0  0.00000000000E+00  0.00000000000E+00  0.33876169449E+03  0.11401306459E+04  0.10886406221E+04 0.  0.
        4    1    3    3  502    0  0.87639321926E+02 -0.53069511842E+03  0.25678489337E+03  0.59603527901E+03  0.12699999809E+01 0.  1.
       -4    1    3    3    0  502 -0.87639321926E+02  0.53069511842E+03  0.81976801123E+02  0.54409536690E+03  0.12699999809E+01 0. -1.
</event>
<event>
 5   0  0.5854579E-03  0.1083326E+04  0.7818609E-02  0.9221597E-01
        1   -1    0    0  501    0  0.00000000000E+00  0.00000000000E+00  0.37427803362E+03  0.37427803366E+03  0.50400001928E-02 0.  1.
       -1   -1    0    0    0  501  0.00000000000E+00  0.00000000000E+00 -0.78390670704E+03  0.78390670706E+03  0.50400001928E-02 0. -1.
    10030    2    1    2    0    0  0.00000000000E+00  0.00000000000E+00 -0.40962867342E+03  0.11581847407E+04  0.10833264714E+04 0.  0.
        4    1    3    3  502    0  0.30235474978E+03  0.23064455859E+03 -0.61719081474E+03  0.72494235759E+03  0.12699999809E+01 0. -1.
       -4    1    3    3    0  502 -0.30235474978E+03 -0.23064455859E+03  0.20756214132E+03  0.43324238312E+03  0.12699999809E+01 0.  1.
</event>
<event>
 5   0  0.9925021E-03  0.1183529E+04  0.7818609E-02  0.9127397E-01
        2   -1    0    0  501    0  0.00000000000E+00  0.00000000000E+00  0.23768911245E+04  0.23768911245E+04  0.25500000920E-02 0.  1.
       -2   -1    0    0    0  501  0.00000000000E+00  0.00000000000E+00 -0.14732910057E+03  0.14732910059E+03  0.25500000920E-02 0. -1.
    10030    2    1    2    0    0  0.00000000000E+00  0.00000000000E+00  0.22295620239E+04  0.25242202251E+04  0.11835290137E+04 0.  0.
        4    1    3    3  502    0  0.27762225686E+03 -0.39557518053E+03  0.18431527014E+04  0.19054572508E+04  0.12699999809E+01 0.  1.
       -4    1    3    3    0  502 -0.27762225686E+03  0.39557518053E+03  0.38640932254E+03  0.61876297433E+03  0.12699999809E+01 0. -1.
</event>
<event>
 5   0  0.5712664E-03  0.1101042E+04  0.7818609E-02  0.9204177E-01
       -1   -1    0    0    0  501  0.00000000000E+00  0.00000000000E+00  0.30722694104E+03  0.30722694108E+03  0.50400001928E-02 0. -1.
        1   -1    0    0  501    0  0.00000000000E+00  0.00000000000E+00 -0.98648039785E+03  0.98648039786E+03  0.50400001928E-02 0.  1.
    10030    2    1    2    0    0  0.00000000000E+00  0.00000000000E+00 -0.67925345681E+03  0.12937073389E+04  0.11010419702E+04 0.  0.
        5    1    3    3  502    0 -0.21504512063E+03  0.47011734784E+03 -0.11731995476E+03  0.53013280075E+03  0.46999998093E+01 0. -1.
       -5    1    3    3    0  502  0.21504512063E+03 -0.47011734784E+03 -0.56193350205E+03  0.76357453819E+03  0.46999998093E+01 0.  1.
</event>
<event>
 5   0  0.5958706E-03  0.1035506E+04  0.7818609E-02  0.9270438E-01
       -1   -1    0    0    0  501  0.00000000000E+00  0.00000000000E+00  0.48702605489E+03  0.48702605491E+03  0.50400001928E-02 0. -1.
        1   -1    0    0  501    0  0.00000000000E+00  0.00000000000E+00 -0.55041835480E+03  0.55041835483E+03  0.50400001928E-02 0.  1.
    10030    2    1    2    0    0  0.00000000000E+00  0.00000000000E+00 -0.63392299915E+02  0.10374444097E+04  0.10355058279E+04 0.  0.
        2    1    3    3  502    0 -0.47155624656E+03  0.21362403082E+03 -0.23461292205E+02  0.51821901977E+03  0.25500000920E-02 0. -1.
       -2    1    3    3    0  502  0.47155624656E+03 -0.21362403082E+03 -0.39931007710E+02  0.51922538997E+03  0.25500000920E-02 0.  1.
</event>
<event>
 5   0  0.5854579E-03  0.1070880E+04  0.7818609E-02  0.9234049E-01
        1   -1    0    0  501    0  0.00000000000E+00  0.00000000000E+00  0.71235255586E+03  0.71235255588E+03  0.50400001928E-02 0. -1.
       -1   -1    0    0    0  501  0.00000000000E+00  0.00000000000E+00 -0.40246337828E+03  0.40246337831E+03  0.50400001928E-02 0.  1.
    10030    2    1    2    0    0  0.00000000000E+00  0.00000000000E+00  0.30988917758E+03  0.11148159342E+04  0.10708796687E+04 0.  0.
        4    1    3    3  502    0  0.50706810064E+03 -0.14104240342E+03  0.25738506994E+03  0.58588369612E+03  0.12699999809E+01 0. -1.
       -4    1    3    3    0  502 -0.50706810064E+03  0.14104240342E+03  0.52504107644E+02  0.52893223807E+03  0.12699999809E+01 0.  1.
</event>
<event>
 5   0  0.5854579E-03  0.1111274E+04  0.7818609E-02  0.9194273E-01
       -1   -1    0    0    0  501  0.00000000000E+00  0.00000000000E+00  0.22193691455E+03  0.22193691460E+03  0.50400001928E-02 0.  1.
        1   -1    0    0  501    0  0.00000000000E+00  0.00000000000E+00 -0.13910815067E+04  0.13910815068E+04  0.50400001928E-02 0. -1.
    10030    2    1    2    0    0  0.00000000000E+00  0.00000000000E+00 -0.11691445922E+04  0.16130184214E+04  0.11112737512E+04 0.  0.
        4    1    3    3  502    0 -0.18873357496E+03  0.25646609454E+03 -0.12455017557E+04  0.12855627002E+04  0.12699999809E+01 0.  1.
       -4    1    3    3    0  502  0.18873357496E+03 -0.25646609454E+03  0.76357163482E+02  0.32745572111E+03  0.12699999809E+01 0. -1.
</event>
<event>
 5   0  0.9719260E-03  0.9999477E+03  0.7818609E-02  0.9308602E-01
       -2   -1    0    0    0  501  0.00000000000E+00  0.00000000000E+00  0.26801813955E+03  0.26801813956E+03  0.25500000920E-02 0. -1.
        2   -1    0    0  501    0  0.00000000000E+00  0.00000000000E+00 -0.93267514909E+03  0.93267514909E+03  0.25500000920E-02 0.  1.
    10030    2    1    2    0    0  0.00000000000E+00  0.00000000000E+00 -0.66465700954E+03  0.12006932887E+04  0.99994771518E+03 0.  0.
        3    1    3    3  502    0  0.16887551191E+03  0.31827402850E+03 -0.74855384791E+03  0.83075277259E+03  0.10100000352E+00 0. -1.
       -3    1    3    3    0  502 -0.16887551191E+03 -0.31827402850E+03  0.83896838369E+02  0.36994051607E+03  0.10100000352E+00 0.  1.
</event>
<event>
 5   0  0.5958706E-03  0.1106440E+04  0.7818609E-02  0.9198938E-01
       -1   -1    0    0    0  501  0.00000000000E+00  0.00000000000E+00  0.60112200644E+03  0.60112200646E+03  0.50400001928E-02 0. -1.
        1   -1    0    0  501    0  0.00000000000E+00  0.00000000000E+00 -0.50913483824E+03  0.50913483826E+03  0.50400001928E-02 0.  1.
    10030    2    1    2    0    0  0.00000000000E+00  0.00000000000E+00  0.91987168203E+02  0.11102568447E+04  0.11064396152E+04 0.  0.
        2    1    3    3  502    0 -0.43910805521E+03  0.42162876303E+02 -0.28901232115E+03  0.52737246238E+03  0.25500000920E-02 0.  1.
       -2    1    3    3    0  502  0.43910805521E+03 -0.42162876303E+02  0.38099948936E+03  0.58288438235E+03  0.25500000920E-02 0. -1.
</event>
<event>
 5   0  0.9719260E-03  0.1112310E+04  0.7818609E-02  0.9193276E-01
        2   -1    0    0  501    0  0.00000000000E+00  0.00000000000E+00  0.14791544467E+04  0.14791544467E+04  0.25500000920E-02 0.  1.
       -2   -1    0    0    0  501  0.00000000000E+00  0.00000000000E+00 -0.20911174335E+03  0.20911174336E+03  0.25500000920E-02 0. -1.
    10030    2    1    2    0    0  0.00000000000E+00  0.00000000000E+00  0.12700427034E+04  0.16882661901E+04  0.11123103255E+04 0.  0.
        3    1    3    3  502    0  0.25126543847E+03 -0.15368112080E+03 -0.81014795304E+02  0.30547604607E+03  0.10100000352E+00 0. -1.
       -3    1    3    3    0  502 -0.25126543847E+03  0.15368112080E+03  0.13510574987E+04  0.13827901440E+04  0.10100000352E+00 0.  1.
</event>
<event>
 5   0  0.5712664E-03  0.1088201E+04  0.7818609E-02  0.9216769E-01
        1   -1    0    0  501    0  0.00000000000E+00  0.00000000000E+00  0.74116755025E+03  0.74116755026E+03  0.50400001928E-02 0.  1.
       -1   -1    0    0    0  501  0.00000000000E+00  0.00000000000E+00 -0.39943113577E+03  0.39943113580E+03  0.50400001928E-02 0. -1.
    10030    2    1    2    0    0  0.00000000000E+00  0.00000000000E+00  0.34173641448E+03  0.11405986861E+04  0.10882010778E+04 0.  0.
        5    1    3    3  502    0 -0.33894112054E+03 -0.12969178738E+03  0.59575371636E+03  0.69759990214E+03  0.46999998093E+01 0.  1.
       -5    1    3    3    0  502  0.33894112054E+03  0.12969178738E+03 -0.25401730187E+03  0.44299878393E+03  0.46999998093E+01 0. -1.
</event>
<event>
 5   0  0.9719260E-03  0.1071884E+04  0.7818609E-02  0.9233037E-01
       -2   -1    0    0    0  501  0.00000000000E+00  0.00000000000E+00  0.35712135905E+03  0.35712135905E+03  0.25500000920E-02 0.  1.
        2   -1    0    0  501    0  0.00000000000E+00  0.00000000000E+00 -0.80430338899E+03  0.80430338900E+03  0.25500000920E-02 0. -1.
    10030    2    1    2    0    0  0.00000000000E+00  0.00000000000E+00 -0.44718202995E+03  0.11614247481E+04  0.10718841717E+04 0.  0.
        3    1    3    3  502    0 -0.21823817023E+03 -0.15834733304E+03  0.27827685518E+03  0.38747876736E+03  0.10100000352E+00 0.  1.
       -3    1    3    3    0  502  0.21823817023E+03  0.15834733304E+03 -0.72545888512E+03  0.77394598069E+03  0.10100000352E+00 0. -1.
</event>
<event>
 5   0  0.5789905E-03  0.1072961E+04  0.7818609E-02  0.9231954E-01
       -1   -1    0    0    0  501  0.00000000000E+00  0.00000000000E+00  0.19363734886E+03  0.19363734893E+03  0.50400001928E-02 0. -1.
        1   -1    0    0  501    0  0.00000000000E+00  0.00000000000E+00 -0.14863414850E+04  0.14863414850E+04  0.50400001928E-02 0.  1.
    10030    2    1    2    0    0  0.00000000000E+00  0.00000000000E+00 -0.12927041362E+04  0.16799788340E+04  0.10729608096E+04 0.  0.
        1    1    3    3  502    0  0.26848878512E+03 -0.27302227638E+03 -0.58033662258E+02  0.38729226317E+03  0.50400001928E-02 0. -1.
       -1    1    3    3    0  502 -0.26848878512E+03  0.27302227638E+03 -0.12346704739E+04  0.12926865708E+04  0.50400001928E-02 0.  1.
</event>
<event>
 5   0  0.5712664E-03  0.1129981E+04  0.7818609E-02  0.9176453E-01
        1   -1    0    0  501    0  0.00000000000E+00  0.00000000000E+00  0.27604160741E+03  0.27604160745E+03  0.50400001928E-02 0.  1.
       -1   -1    0    0    0  501  0.00000000000E+00  0.00000000000E+00 -0.11563987413E+04  0.11563987413E+04  0.50400001928E-02 0. -1.
    10030    2    1    2    0    0  0.00000000000E+00  0.00000000000E+00 -0.88035713393E+03  0.14324403488E+04  0.11299808271E+04 0.  0.
        5    1    3    3  502    0  0.48294525255E+03  0.26124040100E+03 -0.60887564414E+03  0.81989895969E+03  0.46999998093E+01 0. -1.
       -5    1    3    3    0  502 -0.48294525255E+03 -0.26124040100E+03 -0.27148148979E+03  0.61254138911E+03  0.46999998093E+01 0.  1.
</event>
<event>
 5   0  0.9719260E-03  0.1137729E+04  0.7818609E-02  0.9169180E-01
        2   -1    0    0  501    0  0.00000000000E+00  0.00000000000E+00  0.30928733684E+03  0.30928733685E+03  0.25500000920E-02 0.  1.
       -2   -1    0    0    0  501  0.00000000000E+00  0.00000000000E+00 -0.10462975171E+04  0.10462975171E+04  0.25500000920E-02 0. -1.
    10030    2    1    2    0    0  0.00000000000E+00  0.00000000000E+00 -0.73701018029E+03  0.13555848540E+04  0.11377285663E+04 0.  0.
        3    1    3    3  502    0  0.21376695980E+03 -0.48658826287E+03 -0.61017987189E+03  0.80918720759E+03  0.10100000352E+00 0. -1.
       -3    1    3    3    0  502 -0.21376695980E+03  0.48658826287E+03 -0.12683030840E+03  0.54639764640E+03  0.10100000352E+00 0.  1.
</event>
<event>
 5   0  0.5789905E-03  0.1089323E+04  0.7818609E-02  0.9215662E-01
       -1   -1    0    0    0  501  0.00000000000E+00  0.00000000000E+00  0.85249532429E+03  0.85249532431E+03  0.50400001928E-02 0. -1.
        1   -1    0    0  501    0  0.00000000000E+00  0.00000000000E+00 -0.34798542575E+03  0.34798542578E+03  0.50400001928E-02 0.  1.
    10030    2    1    2    0    0  0.00000000000E+00  0.00000000000E+00  0.50450989855E+03  0.12004807501E+04  0.10893226306E+04 0.  0.
        1    1    3    3  502    0  0.15602414101E+03  0.51675554024E+03  0.17220587526E+03  0.56659922736E+03  0.50400001928E-02 0.  1.
       -1    1    3    3    0  502 -0.15602414101E+03 -0.51675554024E+03  0.33230402328E+03  0.63388152273E+03  0.50400001928E-02 0. -1.
</event>
<event>
 5   0  0.5958706E-03  0.1091319E+04  0.7818609E-02  0.9213694E-01
       -1   -1    0    0    0  501  0.00000000000E+00  0.00000000000E+00  0.58858706168E+03  0.58858706170E+03  0.50400001928E-02 0.  1.
        1   -1    0    0  501    0  0.00000000000E+00  0.00000000000E+00 -0.50586311641E+03  0.50586311644E+03  0.50400001928E-02 0. -1.
    10030    2    1    2    0    0  0.00000000000E+00  0.00000000000E+00  0.82723945263E+02  0.10944501781E+04  0.10913193581E+04 0.  0.
        2    1    3    3  502    0 -0.28845565547E+03  0.32868566803E+03  0.36864703418E+03  0.57196290908E+03  0.25500000920E-02 0.  1.
       -2    1    3    3    0  502  0.28845565547E+03 -0.32868566803E+03 -0.28592308892E+03  0.52248726906E+03  0.25500000920E-02 0. -1.
</event>
<event>
 5   0  0.1028016E-02  0.1136897E+04  0.7818609E-02  0.9169958E-01
        2   -1    0    0  501    0  0.00000000000E+00  0.00000000000E+00  0.41132230368E+03  0.41132230369E+03  0.25500000920E-02 0.  1.
       -2   -1    0    0    0  501  0.00000000000E+00  0.00000000000E+00 -0.78559698693E+03  0.78559698693E+03  0.25500000920E-02 0. -1.
    10030    2    1    2    0    0  0.00000000000E+00  0.00000000000E+00 -0.37427468325E+03  0.11969192906E+04  0.11368967630E+04 0.  0.
        2    1    3    3  502    0 -0.53723256186E+03 -0.12035192631E+03 -0.38137452434E+02  0.55186762631E+03  0.25500000920E-02 0. -1.
       -2    1    3    3    0  502  0.53723256186E+03  0.12035192631E+03 -0.33613723081E+03  0.64505166431E+03  0.25500000920E-02 0.  1.
</event>
<event>
 5   0  0.1028016E-02  0.1091760E+04  0.7818609E-02  0.9213261E-01
        2   -1    0    0  501    0  0.00000000000E+00  0.00000000000E+00  0.49477595135E+03  0.49477595136E+03  0.25500000920E-02 0. -1.
       -2   -1    0    0    0  501  0.00000000000E+00  0.00000000000E+00 -0.60226192186E+03  0.60226192187E+03  0.25500000920E-02 0.  1.
    10030    2    1    2    0    0  0.00000000000E+00  0.00000000000E+00 -0.10748597051E+03  0.10970378732E+04  0.10917595255E+04 0.  0.
        2    1    3    3  502    0 -0.43524778586E+03 -0.28440544678E+03 -0.22085283565E+03  0.56489208552E+03  0.25500000920E-02 0.  1.
       -2    1    3    3    0  502  0.43524778586E+03  0.28440544678E+03  0.11336686515E+03  0.53214578771E+03  0.25500000920E-02 0. -1.
</event>
<event>
 5   0  0.9925021E-03  0.1089799E+04  0.7818609E-02  0.9215192E-01
       -2   -1    0    0    0  501  0.00000000000E+00  0.00000000000E+00  0.38520663993E+03  0.38520663994E+03  0.25500000920E-02 0.  1.
        2   -1    0    0  501    0  0.00000000000E+00  0.00000000000E+00 -0.77079516690E+03  0.77079516691E+03  0.25500000920E-02 0. -1.
    10030    2    1    2    0    0  0.00000000000E+00  0.00000000000E+00 -0.38558852697E+03  0.11560018068E+04  0.10897989105E+04 0.  0.
        4    1    3    3  502    0 -0.25195472523E+03 -0.17151098081E+03 -0.67191492518E+03  0.73781330950E+03  0.12699999809E+01 0. -1.
       -4    1    3    3    0  502  0.25195472523E+03  0.17151098081E+03  0.28632639821E+03  0.41818849734E+03  0.12699999809E+01 0.  1.
</event>
<event>
 5   0  0.1019384E-02  0.1080483E+04  0.7818609E-02  0.9224426E-01
       -2   -1    0    0    0  501  0.00000000000E+00  0.00000000000E+00  0.21623523080E+03  0.21623523082E+03  0.25500000920E-02 0. -1.
        2   -1    0    0  501    0  0.00000000000E+00  0.00000000000E+00 -0.13497385328E+04  0.13497385328E+04  0.25500000920E-02 0.  1.
    10030    2    1    2    0    0  0.00000000000E+00  0.00000000000E+00 -0.11335033020E+04  0.15659737636E+04  0.10804832681E+04 0.  0.
        1    1    3    3  502    0 -0.29327022101E+03  0.85016258932E+02 -0.12126799396E+04  0.12505310164E+04  0.50400001928E-02 0.  1.
       -1    1    3    3    0  502  0.29327022101E+03 -0.85016258932E+02  0.79176637670E+02  0.31544274725E+03  0.50400001928E-02 0. -1.
</event>
<event>
 5   0  0.9692981E-03  0.1092033E+04  0.7818609E-02  0.9212992E-01
        2   -1    0    0  501    0  0.00000000000E+00  0.00000000000E+00  0.87155157972E+03  0.87155157973E+03  0.25500000920E-02 0. -1.
       -2   -1    0    0    0  501  0.00000000000E+00  0.00000000000E+00 -0.34207279439E+03  0.34207279440E+03  0.25500000920E-02 0.  1.
    10030    2    1    2    0    0  0.00000000000E+00  0.00000000000E+00  0.52947878534E+03  0.12136243741E+04  0.10920331210E+04 0.  0.
        5    1    3    3  502    0  0.48993011156E+03  0.24062262278E+03  0.24977814672E+03  0.60028491017E+03  0.46999998093E+01 0.  1.
       -5    1    3    3    0  502 -0.48993011156E+03 -0.24062262278E+03  0.27970063861E+03  0.61333946395E+03  0.46999998093E+01 0. -1.
</event>
<event>
 5   0  0.9925021E-03  0.1042855E+04  0.7818609E-02  0.9262752E-01
       -2   -1    0    0    0  501  0.00000000000E+00  0.00000000000E+00  0.11058212317E+03  0.11058212320E+03  0.25500000920E-02 0.  1.
        2   -1    0    0  501    0  0.00000000000E+00  0.00000000000E+00 -0.24586833685E+04  0.24586833685E+04  0.25500000920E-02 0. -1.
    10030    2    1    2    0    0  0.00000000000E+00  0.00000000000E+00 -0.23481012453E+04  0.25692654917E+04  0.10428545961E+04 0.  0.
        4    1    3    3  502    0 -0.14642610888E+03 -0.27353064050E+03 -0.14157777974E+03  0.34103591786E+03  0.12699999809E+01 0.  1.
       -4    1    3    3    0  502  0.14642610888E+03  0.27353064050E+03 -0.22065234656E+04  0.22282295738E+04  0.12699999809E+01 0. -1.
</event>
<event>
 5   0  0.9719260E-03  0.1093409E+04  0.7818609E-02  0.9211640E-01
        2   -1    0    0  501    0  0.00000000000E+00  0.00000000000E+00  0.20369112457E+04  0.20369112457E+04  0.25500000920E-02 0.  1.
       -2   -1    0    0    0  501  0.00000000000E+00  0.00000000000E+00 -0.14673479808E+03  0.14673479810E+03  0.25500000920E-02 0. -1.
    10030    2    1    2    0    0  0.00000000000E+00  0.00000000000E+00  0.18901764476E+04  0.21836460438E+04  0.10934089086E+04 0.  0.
        3    1    3    3  502    0 -0.68682775379E+02 -0.31535401744E+03  0.63825872440E+02  0.32899731328E+03  0.10100000352E+00 0. -1.
       -3    1    3    3    0  502  0.68682775379E+02  0.31535401744E+03  0.18263505752E+04  0.18546487305E+04  0.10100000352E+00 0.  1.
</event>
<event>
 5   0  0.5712664E-03  0.1114524E+04  0.7818609E-02  0.9191150E-01
       -1   -1    0    0    0  501  0.00000000000E+00  0.00000000000E+00  0.47017382274E+03  0.47017382277E+03  0.50400001928E-02 0.  1.
        1   -1    0    0  501    0  0.00000000000E+00  0.00000000000E+00 -0.66048136126E+03  0.66048136128E+03  0.50400001928E-02 0. -1.
    10030    2    1    2    0    0  0.00000000000E+00  0.00000000000E+00 -0.19030753852E+03  0.11306551841E+04  0.11145241971E+04 0.  0.
        5    1    3    3  502    0 -0.26440378031E+03 -0.48643774267E+03 -0.15921774592E+03  0.57611059455E+03  0.46999998093E+01 0. -1.
       -5    1    3    3    0  502  0.26440378031E+03  0.48643774267E+03 -0.31089792605E+02  0.55454458950E+03  0.46999998093E+01 0.  1.
</event>
<event>
 5   0  0.5712664E-03  0.1136323E+04  0.7818609E-02  0.9170495E-01
        1   -1    0    0  501    0  0.00000000000E+00  0.00000000000E+00  0.11366235967E+04  0.11366235967E+04  0.50400001928E-02 0.  1.
       -1   -1    0    0    0  501  0.00000000000E+00  0.00000000000E+00 -0.28400550415E+03  0.28400550419E+03  0.50400001928E-02 0. -1.
    10030    2    1    2    0    0  0.00000000000E+00  0.00000000000E+00  0.85261809256E+03  0.14206291009E+04  0.11363227669E+04 0.  0.
        5    1    3    3  502    0  0.21531672867E+03 -0.23928863101E+03  0.10115901790E+04  0.10615823674E+04  0.46999998093E+01 0.  1.
       -5    1    3    3    0  502 -0.21531672867E+03  0.23928863101E+03 -0.15897208643E+03  0.35904673350E+03  0.46999998093E+01 0. -1.
</event>
<event>
 5   0  0.5998641E-03  0.1102580E+04  0.7818609E-02  0.9202681E-01
        1   -1    0    0  501    0  0.00000000000E+00  0.00000000000E+00  0.24139617778E+03  0.24139617783E+03  0.50400001928E-02 0. -1.
       -1   -1    0    0    0  501  0.00000000000E+00  0.00000000000E+00 -0.12590124765E+04  0.12590124766E+04  0.50400001928E-02 0.  1.
    10030    2    1    2    0    0  0.00000000000E+00  0.00000000000E+00 -0.10176162988E+04  0.15004086544E+04  0.11025802459E+04 0.  0.
        3    1    3    3  502    0  0.38868905025E+03  0.12970525252E+03 -0.10106857345E+04  0.10905908007E+04  0.10100000352E+00 0.  1.
       -3    1    3    3    0  502 -0.38868905025E+03 -0.12970525252E+03 -0.69305642554E+01  0.40981785373E+03  0.10100000352E+00 0. -1.
</event>
<event>
 5   0  0.9692981E-03  0.1145505E+04  0.7818609E-02  0.9161940E-01
        2   -1    0    0  501    0  0.00000000000E+00  0.00000000000E+00  0.13650309023E+04  0.13650309023E+04  0.25500000920E-02 0.  1.
       -2   -1    0    0    0  501  0.00000000000E+00  0.00000000000E+00 -0.24032093545E+03  0.24032093546E+03  0.25500000920E-02 0. -1.
    10030    2    1    2    0    0  0.00000000000E+00  0.00000000000E+00  0.11247099668E+04  0.16053518377E+04  0.11455051346E+04 0.  0.
        5    1    3    3  502    0  0.34751143243E+02 -0.52733412205E+03  0.25297556057E+03  0.58592460477E+03  0.46999998093E+01 0. -1.
       -5    1    3    3    0  502 -0.34751143243E+02  0.52733412205E+03  0.87173440625E+03  0.10194272329E+04  0.46999998093E+01 0.  1.
</event>
<event>
 5   0  0.5854579E-03  0.1104172E+04  0.7818609E-02  0.9201135E-01
       -1   -1    0    0    0  501  0.00000000000E+00  0.00000000000E+00  0.73187082241E+03  0.73187082243E+03  0.50400001928E-02 0.  1.
        1   -1    0    0  501    0  0.00000000000E+00  0.00000000000E+00 -0.41646530497E+03  0.41646530500E+03  0.50400001928E-02 0. -1.
    10030    2    1    2    0    0  0.00000000000E+00  0.00000000000E+00  0.31540551744E+03  0.11483361274E+04  0.11041717353E+04 0.  0.
        4    1    3    3  502    0 -0.68130013555E+02  0.27544124946E+03 -0.33482991447E+03  0.43888753136E+03  0.12699999809E+01 0. -1.
       -4    1    3    3    0  502  0.68130013555E+02 -0.27544124946E+03  0.65023543191E+03  0.70944859607E+03  0.12699999809E+01 0.  1.
</event>
<event>
 5   0  0.1019384E-02  0.6121393E+03  0.7818609E-02  0.9880536E-01
        2   -1    0    0  501    0  0.00000000000E+00  0.00000000000E+00  0.23140198956E+04  0.23140198956E+04  0.25500000920E-02 0. -1.
       -2   -1    0    0    0  501  0.00000000000E+00  0.00000000000E+00 -0.40483076045E+02  0.40483076126E+02  0.25500000920E-02 0.  1.
    10030    2    1    2    0    0  0.00000000000E+00  0.00000000000E+00  0.22735368196E+04  0.23545029718E+04  0.61213934199E+03 0.  0.
        1    1    3    3  502    0 -0.40131718385E+02 -0.22982718378E+03  0.37476792122E+03  0.44145450958E+03  0.50400001928E-02 0.  1.
       -1    1    3    3    0  502  0.40131718385E+02  0.22982718378E+03  0.18987688984E+04  0.19130484622E+04  0.50400001928E-02 0. -1.
</event>
<event>
 5   0  0.3949750E-03  0.1132454E+04  0.7818609E-02  0.9174125E-01
       -3   -1    0    0    0  501  0.00000000000E+00  0.00000000000E+00  0.23878367424E+03  0.23878369560E+03  0.10100000352E+00 0. -1.
        3   -1    0    0  501    0  0.00000000000E+00  0.00000000000E+00 -0.13426928481E+04  0.13426928519E+04  0.10100000352E+00 0.  1.
    10030    2    1    2    0    0  0.00000000000E+00  0.00000000000E+00 -0.11039091739E+04  0.15814765475E+04  0.11324542402E+04 0.  0.
        4    1    3    3  502    0 -0.13925040691E+02  0.22975270764E+03 -0.12744091958E+04  0.12950291984E+04  0.12699999809E+01 0.  1.
       -4    1    3    3    0  502  0.13925040691E+02 -0.22975270764E+03  0.17050002195E+03  0.28644734911E+03  0.12699999809E+01 0. -1.
</event>
<event>
 5   0  0.1028016E-02  0.1067704E+04  0.7818609E-02  0.9237254E-01
        2   -1    0    0  501    0  0.00000000000E+00  0.00000000000E+00  0.79723447194E+03  0.79723447194E+03  0.25500000920E-02 0. -1.
       -2   -1    0    0    0  501  0.00000000000E+00  0.00000000000E+00 -0.35748309962E+03  0.35748309963E+03  0.25500000920E-02 0.  1.
    10030    2    1    2    0    0  0.00000000000E+00  0.00000000000E+00  0.43975137232E+03  0.11547175716E+04  0.10677037982E+04 0.  0.
        2    1    3    3  502    0  0.25776633705E+03 -0.71905012872E+02  0.71945672679E+03  0.76761435443E+03  0.25500000920E-02 0. -1.
       -2    1    3    3    0  502 -0.25776633705E+03  0.71905012872E+02 -0.27970535447E+03  0.38710321714E+03  0.25500000920E-02 0.  1.
</event>
<event>
 5   0  0.5712664E-03  0.1106639E+04  0.7818609E-02  0.9198745E-01
       -1   -1    0    0    0  501  0.00000000000E+00  0.00000000000E+00  0.61214709307E+03  0.61214709309E+03  0.50400001928E-02 0.  1.
        1   -1    0    0  501    0  0.00000000000E+00  0.00000000000E+00 -0.50014517297E+03  0.50014517299E+03  0.50400001928E-02 0. -1.
    10030    2    1    2    0    0  0.00000000000E+00  0.00000000000E+00  0.11200192010E+03  0.11122922661E+04  0.11066389000E+04 0.  0.
        5    1    3    3  502    0 -0.27807104566E+03  0.15559646017E+03 -0.39864439770E+03  0.51036576165E+03  0.46999998093E+01 0. -1.
       -5    1    3    3    0  502  0.27807104566E+03 -0.15559646017E+03  0.51064631780E+03  0.60192650443E+03  0.46999998093E+01 0.  1.
</event>
<event>
 5   0  0.9925021E-03  0.1110870E+04  0.7818609E-02  0.9194661E-01
        2   -1    0    0  501    0  0.00000000000E+00  0.00000000000E+00  0.17984962537E+04  0.17984962537E+04  0.25500000920E-02 0.  1.
       -2   -1    0    0    0  501  0.00000000000E+00  0.00000000000E+00 -0.17153675876E+03  0.17153675878E+03  0.25500000920E-02 0. -1.
    10030    2    1    2    0    0  0.00000000000E+00  0.00000000000E+00  0.16269594950E+04  0.19700330125E+04  0.11108703219E+04 0.  0.
        4    1    3    3  502    0  0.42676752664E+03  0.14794580332E+03  0.13867291392E+04  0.14584367662E+04  0.12699999809E+01 0.  1.
       -4    1    3    3    0  502 -0.42676752664E+03 -0.14794580332E+03  0.24023035573E+03  0.51159624630E+03  0.12699999809E+01 0. -1.
</event>
<event>
 5   0  0.9692981E-03  0.1088206E+04  0.7818609E-02  0.9216764E-01
        2   -1    0    0  501    0  0.00000000000E+00  0.00000000000E+00  0.77334570000E+03  0.77334570000E+03  0.25500000920E-02 0.  1.
       -2   -1    0    0    0  501  0.00000000000E+00  0.00000000000E+00 -0.38281452896E+03  0.38281452897E+03  0.25500000920E-02 0. -1.
    10030    2    1    2    0    0  0.00000000000E+00  0.00000000000E+00  0.39053117104E+03  0.11561602290E+04  0.10882058075E+04 0.  0.
        5    1    3    3  502    0 -0.38803196399E+03 -0.24593065095E+03 -0.11444286686E+03  0.47346589099E+03  0.46999998093E+01 0. -1.
       -5    1    3    3    0  502  0.38803196399E+03  0.24593065095E+03  0.50497403790E+03  0.68269433798E+03  0.46999998093E+01 0.  1.
</event>
<event>
 5   0  0.5854579E-03  0.1116105E+04  0.7818609E-02  0.9189635E-01
        1   -1    0    0  501    0  0.00000000000E+00  0.00000000000E+00  0.11404584469E+04  0.11404584469E+04  0.50400001928E-02 0. -1.
       -1   -1    0    0    0  501  0.00000000000E+00  0.00000000000E+00 -0.27306799146E+03  0.27306799151E+03  0.50400001928E-02 0.  1.
    10030    2    1    2    0    0  0.00000000000E+00  0.00000000000E+00  0.86739045539E+03  0.14135264384E+04  0.11161051876E+04 0.  0.
        4    1    3    3  502    0  0.47739021875E+03 -0.28103296057E+03  0.51903144120E+03  0.75912857656E+03  0.12699999809E+01 0.  1.
       -4    1    3    3    0  502 -0.47739021875E+03  0.28103296057E+03  0.34835901419E+03  0.65439786182E+03  0.12699999809E+01 0. -1.
</event>
<event>
 5   0  0.1019384E-02  0.1100309E+04  0.7818609E-02  0.9204890E-01
       -2   -1    0    0    0  501  0.00000000000E+00  0.00000000000E+00  0.19055214481E+03  0.19055214483E+03  0.25500000920E-02 0. -1.
        2   -1    0    0  501    0  0.00000000000E+00  0.00000000000E+00 -0.15883852111E+04  0.15883852111E+04  0.25500000920E-02 0.  1.
    10030    2    1    2    0    0  0.00000000000E+00  0.00000000000E+00 -0.13978330663E+04  0.17789373560E+04  0.11003094270E+04 0.  0.
        1    1    3    3  502    0 -0.87365860441E+02  0.25831775314E+03  0.73599805292E+02  0.28244961767E+03  0.50400001928E-02 0. -1.
       -1    1    3    3    0  502  0.87365860441E+02 -0.25831775314E+03 -0.14714328716E+04  0.14964877383E+04  0.50400001928E-02 0.  1.
</event>
<event>
 5   0  0.5712664E-03  0.1101094E+04  0.7818609E-02  0.9204127E-01
       -1   -1    0    0    0  501  0.00000000000E+00  0.00000000000E+00  0.11806848219E+04  0.11806848220E+04  0.50400001928E-02 0.  1.
        1   -1    0    0  501    0  0.00000000000E+00  0.00000000000E+00 -0.25671692617E+03  0.25671692622E+03  0.50400001928E-02 0. -1.
    10030    2    1    2    0    0  0.00000000000E+00  0.00000000000E+00  0.92396789578E+03  0.14374017482E+04  0.11010935988E+04 0.  0.
        5    1    3    3  502    0 -0.11983484635E+03 -0.52500930801E+03  0.61130907799E+03  0.81468769644E+03  0.46999998093E+01 0.  1.
       -5    1    3    3    0  502  0.11983484635E+03  0.52500930801E+03  0.31265881779E+03  0.62271405174E+03  0.46999998093E+01 0. -1.
</event>
<event>
 5   0  0.5789905E-03  0.1118421E+04  0.7818609E-02  0.9187422E-01
        1   -1    0    0  501    0  0.00000000000E+00  0.00000000000E+00  0.17346489746E+04  0.17346489746E+04  0.50400001928E-02 0.  1.
       -1   -1    0    0    0  501  0.00000000000E+00  0.00000000000E+00 -0.18027633618E+03  0.18027633625E+03  0.50400001928E-02 0. -1.
    10030    2    1    2    0    0  0.00000000000E+00  0.00000000000E+00  0.15543726384E+04  0.19149253109E+04  0.11184206039E+04 0.  0.
        1    1    3    3  502    0  0.12684927596E+03  0.11985224398E+03  0.16868314781E+04  0.16958348195E+04  0.50400001928E-02 0.  1.
       -1    1    3    3    0  502 -0.12684927596E+03 -0.11985224398E+03 -0.13245883969E+03  0.21909049144E+03  0.50400001928E-02 0. -1.
</event>
<event>
 5   0  0.5998641E-03  0.1210507E+04  0.7818609E-02  0.9103709E-01
       -1   -1    0    0    0  501  0.00000000000E+00  0.00000000000E+00  0.23310236861E+03  0.23310236866E+03  0.50400001928E-02 0.  1.
        1   -1    0    0  501    0  0.00000000000E+00  0.00000000000E+00 -0.15715481615E+04  0.15715481615E+04  0.50400001928E-02 0. -1.
    10030    2    1    2    0    0  0.00000000000E+00  0.00000000000E+00 -0.13384457928E+04  0.18046505301E+04  0.12105066689E+04 0.  0.
        3    1    3    3  502    0  0.45287107231E+02 -0.22217454182E+01 -0.15690126553E+04  0.15696676658E+04  0.10100000352E+00 0. -1.
       -3    1    3    3    0  502 -0.45287107231E+02  0.22217454182E+01  0.23056686250E+03  0.23498286431E+03  0.10100000352E+00 0.  1.
</event>
<event>
 5   0  0.5854579E-03  0.1045511E+04  0.7818609E-02  0.9259991E-01
       -1   -1    0    0    0  501  0.00000000000E+00  0.00000000000E+00  0.27615819241E+03  0.27615819245E+03  0.50400001928E-02 0.  1.
        1   -1    0    0  501    0  0.00000000000E+00  0.00000000000E+00 -0.98955295477E+03  0.98955295478E+03  0.50400001928E-02 0. -1.
    10030    2    1    2    0    0  0.00000000000E+00  0.00000000000E+00 -0.71339476236E+03  0.12657111472E+04  0.10455106988E+04 0.  0.
        4    1    3    3  502    0 -0.62706144740E+02 -0.27927731783E+03  0.17286016836E+03  0.33438022003E+03  0.12699999809E+01 0.  1.
       -4    1    3    3    0  502  0.62706144740E+02  0.27927731783E+03 -0.88625493072E+03  0.93133092720E+03  0.12699999809E+01 0. -1.
</event>
<event>
 5   0  0.9719260E-03  0.1141414E+04  0.7818609E-02  0.9165741E-01
        2   -1    0    0  501    0  0.00000000000E+00  0.00000000000E+00  0.16165791113E+04  0.16165791113E+04  0.25500000920E-02 0.  1.
       -2   -1    0    0    0  501  0.00000000000E+00  0.00000000000E+00 -0.20147876189E+03  0.20147876191E+03  0.25500000920E-02 0. -1.
    10030    2    1    2    0    0  0.00000000000E+00  0.00000000000E+00  0.14151003495E+04  0.18180578733E+04  0.11414137863E+04 0.  0.
        3    1    3    3  502    0  0.19314523369E+03  0.20437262887E+03 -0.83474929129E+02  0.29332801898E+03  0.10100000352E+00 0. -1.
       -3    1    3    3    0  502 -0.19314523369E+03 -0.20437262887E+03  0.14985752786E+04  0.15247298543E+04  0.10100000352E+00 0.  1.
</event>
<event>
 5   0  0.5712664E-03  0.1128931E+04  0.7818609E-02  0.9177444E-01
        1   -1    0    0  501    0  0.00000000000E+00  0.00000000000E+00  0.17375290298E+04  0.17375290299E+04  0.50400001928E-02 0.  1.
       -1   -1    0    0    0  501  0.00000000000E+00  0.00000000000E+00 -0.18337615345E+03  0.18337615352E+03  0.50400001928E-02 0. -1.
    10030    2    1    2    0    0  0.00000000000E+00  0.00000000000E+00  0.15541528764E+04  0.19209051834E+04  0.11289311584E+04 0.  0.
        5    1    3    3  502    0 -0.18893315730E+03  0.52434387925E+03  0.92895185064E+03  0.10833309155E+04  0.46999998093E+01 0.  1.
       -5    1    3    3    0  502  0.18893315730E+03 -0.52434387925E+03  0.62520102576E+03  0.83757426789E+03  0.46999998093E+01 0. -1.
</event>
<event>
 5   0  0.9719260E-03  0.1112821E+04  0.7818609E-02  0.9192785E-01
       -2   -1    0    0    0  501  0.00000000000E+00  0.00000000000E+00  0.36653947034E+03  0.36653947035E+03  0.25500000920E-02 0. -1.
        2   -1    0    0  501    0  0.00000000000E+00  0.00000000000E+00 -0.84463635558E+03  0.84463635559E+03  0.25500000920E-02 0.  1.
    10030    2    1    2    0    0  0.00000000000E+00  0.00000000000E+00 -0.47809688524E+03  0.12111758259E+04  0.11128208525E+04 0.  0.
        3    1    3    3  502    0 -0.29285330696E+03 -0.96849855912E+02 -0.74306471437E+03  0.80454218903E+03  0.10100000352E+00 0.  1.
       -3    1    3    3    0  502  0.29285330696E+03  0.96849855912E+02  0.26496782913E+03  0.40663363691E+03  0.10100000352E+00 0. -1.
</event>
<event>
 5   0  0.9692981E-03  0.1085788E+04  0.7818609E-02  0.9219156E-01
        2   -1    0    0  501    0  0.00000000000E+00  0.00000000000E+00  0.19674157053E+04  0.19674157053E+04  0.25500000920E-02 0.  1.
       -2   -1    0    0    0  501  0.00000000000E+00  0.00000000000E+00 -0.14980755923E+03  0.14980755925E+03  0.25500000920E-02 0. -1.
    10030    2    1    2    0    0  0.00000000000E+00  0.00000000000E+00  0.18176081461E+04  0.21172232645E+04  0.10857877229E+04 0.  0.
        5    1    3    3  502    0 -0.40846165258E+03  0.89357017687E+02  0.23364506206E+03  0.47899655871E+03  0.46999998093E+01 0. -1.
       -5    1    3    3    0  502  0.40846165258E+03 -0.89357017687E+02  0.15839630840E+04  0.16382267058E+04  0.46999998093E+01 0.  1.
</event>
<event>
 5   0  0.5958706E-03  0.1140269E+04  0.7818609E-02  0.9166808E-01
        1   -1    0    0  501    0  0.00000000000E+00  0.00000000000E+00  0.53228588659E+03  0.53228588661E+03  0.50400001928E-02 0. -1.
       -1   -1    0    0    0  501  0.00000000000E+00  0.00000000000E+00 -0.61067389900E+03  0.61067389902E+03  0.50400001928E-02 0.  1.
    10030    2    1    2    0    0  0.00000000000E+00  0.00000000000E+00 -0.78388012416E+02  0.11429597856E+04  0.11402685609E+04 0.  0.
        2    1    3    3  502    0  0.17860314534E+02 -0.28268574434E+03  0.45676958780E+03  0.53746504745E+03  0.25500000920E-02 0. -1.
       -2    1    3    3    0  502 -0.17860314534E+02  0.28268574434E+03 -0.53515760022E+03  0.60549473818E+03  0.25500000920E-02 0.  1.
</event>
<event>
 5   0  0.5854579E-03  0.1118739E+04  0.7818609E-02  0.9187117E-01
        1   -1    0    0  501    0  0.00000000000E+00  0.00000000000E+00  0.42207827484E+03  0.42207827487E+03  0.50400001928E-02 0. -1.
       -1   -1    0    0    0  501  0.00000000000E+00  0.00000000000E+00 -0.74131838240E+03  0.74131838241E+03  0.50400001928E-02 0.  1.
    10030    2    1    2    0    0  0.00000000000E+00  0.00000000000E+00 -0.31924010755E+03  0.11633966573E+04  0.11187392618E+04 0.  0.
        4    1    3    3  502    0 -0.16715372786E+03 -0.43667748920E+03  0.15966204220E+03  0.49408620597E+03  0.12699999809E+01 0. -1.
       -4    1    3    3    0  502  0.16715372786E+03  0.43667748920E+03 -0.47890214975E+03  0.66931045132E+03  0.12699999809E+01 0.  1.
</event>
<event>
 5   0  0.1028016E-02  0.1142630E+04  0.7818609E-02  0.9164609E-01
        2   -1    0    0  501    0  0.00000000000E+00  0.00000000000E+00  0.13991157487E+04  0.13991157487E+04  0.25500000920E-02 0.  1.
       -2   -1    0    0    0  501  0.00000000000E+00  0.00000000000E+00 -0.23329090228E+03  0.23329090230E+03  0.25500000920E-02 0. -1.
    10030    2    1    2    0    0  0.00000000000E+00  0.00000000000E+00  0.11658248464E+04  0.16324066510E+04  0.11426302559E+04 0.  0.
        2    1    3    3  502    0  0.24012712263E+03 -0.47672750469E+03  0.29197875536E+03  0.60842562597E+03  0.25500000920E-02 0.  1.
       -2    1    3    3    0  502 -0.24012712263E+03  0.47672750469E+03  0.87384609107E+03  0.10239810250E+04  0.25500000920E-02 0. -1.
</event>
<event>
 5   0  0.9719260E-03  0.1093516E+04  0.7818609E-02  0.9211535E-01
        2   -1    0    0  501    0  0.00000000000E+00  0.00000000000E+00  0.12198088851E+04  0.12198088851E+04  0.25500000920E-02 0. -1.
       -2   -1    0    0    0  501  0.00000000000E+00  0.00000000000E+00 -0.24507453097E+03  0.24507453098E+03  0.25500000920E-02 0.  1.
    10030    2    1    2    0    0  0.00000000000E+00  0.00000000000E+00  0.97473435410E+03  0.14648834161E+04  0.10935155973E+04 0.  0.
        3    1    3    3  502    0  0.23387582934E+03  0.29944562251E+03  0.10140542012E+04  0.10828995879E+04  0.10100000352E+00 0. -1.
       -3    1    3    3    0  502 -0.23387582934E+03 -0.29944562251E+03 -0.39319847068E+02  0.38198382815E+03  0.10100000352E+00 0.  1.
</event>
<event>
 5   0  0.5789905E-03  0.1096452E+04  0.7818609E-02  0.9208657E-01
        1   -1    0    0  501    0  0.00000000000E+00  0.00000000000E+00  0.13153985581E+04  0.13153985581E+04  0.50400001928E-02 0. -1.
       -1   -1    0    0    0  501  0.00000000000E+00  0.00000000000E+00 -0.22848716599E+03  0.22848716604E+03  0.50400001928E-02 0.  1.
    10030    2    1    2    0    0  0.00000000000E+00  0.00000000000E+00  0.10869113921E+04  0.15438857241E+04  0.10964518936E+04 0.  0.
        1    1    3    3  502    0  0.25557350845E+03  0.26739917257E+03  0.11132154386E+04  0.11730595673E+04  0.50400001928E-02 0. -1.
       -1    1    3    3    0  502 -0.25557350845E+03 -0.26739917257E+03 -0.26304046480E+02  0.37082615684E+03  0.50400001928E-02 0.  1.
</event>
<event>
 5   0  0.9692981E-03  0.1092062E+04  0.7818609E-02  0.9212963E-01
       -2   -1    0    0    0  501  0.00000000000E+00  0.00000000000E+00  0.32035571259E+03  0.32035571260E+03  0.25500000920E-02 0.  1.
        2   -1    0    0  501    0  0.00000000000E+00  0.00000000000E+00 -0.93068389326E+03  0.93068389326E+03  0.25500000920E-02 0. -1.
    10030    2    1    2    0    0  0.00000000000E+00  0.00000000000E+00 -0.61032818067E+03  0.12510396059E+04  0.10920620895E+04 0.  0.
        5    1    3    3  502    0 -0.34649611738E+03 -0.16872358507E+03 -0.74825251226E+03  0.84168350323E+03  0.46999998093E+01 0. -1.
       -5    1    3    3    0  502  0.34649611738E+03  0.16872358507E+03  0.13792433159E+03  0.40935610263E+03  0.46999998093E+01 0.  1.
</event>
<event>
 5   0  0.5854579E-03  0.1191841E+04  0.7818609E-02  0.9120028E-01
        1   -1    0    0  501    0  0.00000000000E+00  0.00000000000E+00  0.50624232690E+03  0.50624232693E+03  0.50400001928E-02 0. -1.
       -1   -1    0    0    0  501  0.00000000000E+00  0.00000000000E+00 -0.70148519986E+03  0.70148519987E+03  0.50400001928E-02 0.  1.
    10030    2    1    2    0    0  0.00000000000E+00  0.00000000000E+00 -0.19524287295E+03  0.12077275268E+04  0.11918414322E+04 0.  0.
        4    1    3    3  502    0 -0.43490103763E+02 -0.37358359088E+03 -0.56602043583E+03  0.67958578206E+03  0.12699999809E+01 0.  1.
       -4    1    3    3    0  502  0.43490103763E+02  0.37358359088E+03  0.37077756288E+03  0.52814174474E+03  0.12699999809E+01 0. -1.
</event>
<event>
 5   0  0.5712664E-03  0.8913974E+03  0.7818609E-02  0.9436399E-01
        1   -1    0    0  501    0  0.00000000000E+00  0.00000000000E+00  0.63022019194E+03  0.63022019196E+03  0.50400001928E-02 0. -1.
       -1   -1    0    0    0  501  0.00000000000E+00  0.00000000000E+00 -0.31520302403E+03  0.31520302407E+03  0.50400001928E-02 0.  1.
    10030    2    1    2    0    0  0.00000000000E+00  0.00000000000E+00  0.31501716790E+03  0.94542321603E+03  0.89139735322E+03 0.  0.
        5    1    3    3  502    0 -0.15037153185E+03  0.13411981038E+03 -0.26410879879E+03  0.33222773624E+03  0.46999998093E+01 0.  1.
       -5    1    3    3    0  502  0.15037153185E+03 -0.13411981038E+03  0.57912596670E+03  0.61319547979E+03  0.46999998093E+01 0. -1.
</event>
<event>
 5   0  0.1028016E-02  0.1077656E+04  0.7818609E-02  0.9227248E-01
        2   -1    0    0  501    0  0.00000000000E+00  0.00000000000E+00  0.55472185348E+03  0.55472185349E+03  0.25500000920E-02 0.  1.
       -2   -1    0    0    0  501  0.00000000000E+00  0.00000000000E+00 -0.52338961482E+03  0.52338961482E+03  0.25500000920E-02 0. -1.
    10030    2    1    2    0    0  0.00000000000E+00  0.00000000000E+00  0.31332238666E+02  0.10781114683E+04  0.10776560810E+04 0.  0.
        2    1    3    3  502    0 -0.30763116429E+03 -0.44091138291E+03  0.51679614511E+02  0.54010236380E+03  0.25500000920E-02 0.  1.
       -2    1    3    3    0  502  0.30763116429E+03  0.44091138291E+03 -0.20347375846E+02  0.53800910451E+03  0.25500000920E-02 0. -1.
</event>
<event>
 5   0  0.5789905E-03  0.1063866E+04  0.7818609E-02  0.9241144E-01
       -1   -1    0    0    0  501  0.00000000000E+00  0.00000000000E+00  0.22949110695E+03  0.22949110701E+03  0.50400001928E-02 0.  1.
        1   -1    0    0  501    0  0.00000000000E+00  0.00000000000E+00 -0.12329575037E+04  0.12329575037E+04  0.50400001928E-02 0. -1.
    10030    2    1    2    0    0  0.00000000000E+00  0.00000000000E+00 -0.10034663968E+04  0.14624486107E+04  0.10638661239E+04 0.  0.
        1    1    3    3  502    0 -0.47776264256E+03  0.23361450551E+03 -0.51678567202E+03  0.74155263511E+03  0.50400001928E-02 0. -1.
       -1    1    3    3    0  502  0.47776264256E+03 -0.23361450551E+03 -0.48668072475E+03  0.72089597563E+03  0.50400001928E-02 0.  1.
</event>
<event>
 5   0  0.5958706E-03  0.1074400E+04  0.7818609E-02  0.9230509E-01
        1   -1    0    0  501    0  0.00000000000E+00  0.00000000000E+00  0.46310695004E+03  0.46310695007E+03  0.50400001928E-02 0.  1.
       -1   -1    0    0    0  501  0.00000000000E+00  0.00000000000E+00 -0.62314681474E+03  0.62314681476E+03  0.50400001928E-02 0. -1.
    10030    2    1    2    0    0  0.00000000000E+00  0.00000000000E+00 -0.16003986470E+03  0.10862537648E+04  0.10743995920E+04 0.  0.
        2    1    3    3  502    0  0.24683673882E+03  0.35694204992E+03  0.24009246316E+03  0.49596410505E+03  0.25500000920E-02 0.  1.
       -2    1    3    3    0  502 -0.24683673882E+03 -0.35694204992E+03 -0.40013232786E+03  0.59028965977E+03  0.25500000920E-02 0. -1.
</event>
<event>
 5   0  0.9692981E-03  0.1019196E+04  0.7818609E-02  0.9287738E-01
       -2   -1    0    0    0  501  0.00000000000E+00  0.00000000000E+00  0.36371961104E+03  0.36371961105E+03  0.25500000920E-02 0.  1.
        2   -1    0    0  501    0  0.00000000000E+00  0.00000000000E+00 -0.71398381193E+03  0.71398381194E+03  0.25500000920E-02 0. -1.
    10030    2    1    2    0    0  0.00000000000E+00  0.00000000000E+00 -0.35026420090E+03  0.10777034230E+04  0.10191955933E+04 0.  0.
        5    1    3    3  502    0 -0.11316919485E+02 -0.22419107681E+03  0.30859857657E+03  0.38163448881E+03  0.46999998093E+01 0.  1.
       -5    1    3    3    0  502  0.11316919485E+02  0.22419107681E+03 -0.65886277747E+03  0.69606893417E+03  0.46999998093E+01 0. -1.
</event>
<event>
 5   0  0.9925021E-03  0.1110976E+04  0.7818609E-02  0.9194560E-01
       -2   -1    0    0    0  501  0.00000000000E+00  0.00000000000E+00  0.48509392177E+03  0.48509392178E+03  0.25500000920E-02 0. -1.
        2   -1    0    0  501    0  0.00000000000E+00  0.00000000000E+00 -0.63609722506E+03  0.63609722507E+03  0.25500000920E-02 0.  1.
    10030    2    1    2    0    0  0.00000000000E+00  0.00000000000E+00 -0.15100330329E+03  0.11211911468E+04  0.11109759629E+04 0.  0.
        4    1    3    3  502    0 -0.42349515946E+03 -0.23951863002E+03 -0.34601096329E+03  0.59702807625E+03  0.12699999809E+01 0.  1.
       -4    1    3    3    0  502  0.42349515946E+03  0.23951863002E+03  0.19500766000E+03  0.52416307059E+03  0.12699999809E+01 0. -1.
</event>
<event>
 5   0  0.5958706E-03  0.1104643E+04  0.7818609E-02  0.9200678E-01
       -1   -1    0    0    0  501  0.00000000000E+00  0.00000000000E+00  0.41133425918E+03  0.41133425921E+03  0.50400001928E-02 0. -1.
        1   -1    0    0  501    0  0.00000000000E+00  0.00000000000E+00 -0.74163283108E+03  0.74163283110E+03  0.50400001928E-02 0.  1.
    10030    2    1    2    0    0  0.00000000000E+00  0.00000000000E+00 -0.33029857190E+03  0.11529670903E+04  0.11046429128E+04 0.  0.
        2    1    3    3  502    0  0.19549055528E+03  0.13700230256E+03 -0.68500710160E+03  0.72541086107E+03  0.25500000920E-02 0.  1.
       -2    1    3    3    0  502 -0.19549055528E+03 -0.13700230256E+03  0.35470852970E+03  0.42755622924E+03  0.25500000920E-02 0. -1.
</event>
<event>
 5   0  0.5998641E-03  0.6822253E+03  0.7818609E-02  0.9748122E-01
        1   -1    0    0  501    0  0.00000000000E+00  0.00000000000E+00  0.18092563233E+04  0.18092563233E+04  0.50400001928E-02 0. -1.
       -1   -1    0    0    0  501  0.00000000000E+00  0.00000000000E+00 -0.64312520120E+02  0.64312520318E+02  0.50400001928E-02 0.  1.
    10030    2    1    2    0    0  0.00000000000E+00  0.00000000000E+00  0.17449438032E+04  0.18735688436E+04  0.68222528211E+03 0.  0.
        3    1    3    3  502    0  0.19907433468E+03  0.27153068179E+03  0.72209505697E+03  0.79673131191E+03  0.10100000352E+00 0.  1.
       -3    1    3    3    0  502 -0.19907433468E+03 -0.27153068179E+03  0.10228487462E+04  0.10768375317E+04  0.10100000352E+00 0. -1.
</event>
<event>
 5   0  0.5958706E-03  0.1090009E+04  0.7818609E-02  0.9214985E-01
       -1   -1    0    0    0  501  0.00000000000E+00  0.00000000000E+00  0.37409336248E+03  0.37409336252E+03  0.50400001928E-02 0.  1.
        1   -1    0    0  501    0  0.00000000000E+00  0.00000000000E+00 -0.79399915071E+03  0.79399915073E+03  0.50400001928E-02 0. -1.
    10030    2    1    2    0    0  0.00000000000E+00  0.00000000000E+00 -0.41990578823E+03  0.11680925132E+04  0.10900088296E+04 0.  0.
        2    1    3    3  502    0 -0.24734241761E+03 -0.13345296174E+03  0.29044693318E+03  0.40416257316E+03  0.25500000920E-02 0.  1.
       -2    1    3    3    0  502  0.24734241761E+03  0.13345296174E+03 -0.71035272141E+03  0.76392994009E+03  0.25500000920E-02 0. -1.
</event>
<event>
 5   0  0.9719260E-03  0.1107737E+04  0.7818609E-02  0.9197684E-01
       -2   -1    0    0    0  501  0.00000000000E+00  0.00000000000E+00  0.17243866497E+03  0.17243866499E+03  0.25500000920E-02 0. -1.
        2   -1    0    0  501    0  0.00000000000E+00  0.00000000000E+00 -0.17790111741E+04  0.17790111741E+04  0.25500000920E-02 0.  1.
    10030    2    1    2    0    0  0.00000000000E+00  0.00000000000E+00 -0.16065725091E+04  0.19514498391E+04  0.11077369938E+04 0.  0.
        3    1    3    3  502    0 -0.33469653073E+03  0.35434794323E+03 -0.12666585466E+04  0.13572059963E+04  0.10100000352E+00 0.  1.
       -3    1    3    3    0  502  0.33469653073E+03 -0.35434794323E+03 -0.33991396252E+03  0.59424384277E+03  0.10100000352E+00 0. -1.
</event>
<event>
 5   0  0.5712664E-03  0.1114639E+04  0.7818609E-02  0.9191040E-01
       -1   -1    0    0    0  501  0.00000000000E+00  0.00000000000E+00  0.45563674820E+03  0.45563674822E+03  0.50400001928E-02 0. -1.
        1   -1    0    0  501    0  0.00000000000E+00  0.00000000000E+00 -0.68169415583E+03  0.68169415585E+03  0.50400001928E-02 0.  1.
    10030    2    1    2    0    0  0.00000000000E+00  0.00000000000E+00 -0.22605740764E+03  0.11373309041E+04  0.11146387907E+04 0.  0.
        5    1    3    3  502    0  0.31254747581E+03  0.38192919611E+03 -0.37719507043E+03  0.62117151145E+03  0.46999998093E+01 0.  1.
       -5    1    3    3    0  502 -0.31254747581E+03 -0.38192919611E+03  0.15113766280E+03  0.51615939262E+03  0.46999998093E+01 0. -1.
</event>
<event>
 5   0  0.5854579E-03  0.1118128E+04  0.7818609E-02  0.9187701E-01
        1   -1    0    0  501    0  0.00000000000E+00  0.00000000000E+00  0.49001512988E+03  0.49001512991E+03  0.50400001928E-02 0. -1.
       -1   -1    0    0    0  501  0.00000000000E+00  0.00000000000E+00 -0.63784240785E+03  0.63784240787E+03  0.50400001928E-02 0.  1.
    10030    2    1    2    0    0  0.00000000000E+00  0.00000000000E+00 -0.14782727797E+03  0.11278575378E+04  0.11181277751E+04 0.  0.
        4    1    3    3  502    0 -0.11517059323E+03 -0.24854957315E+03 -0.56550410446E+03  0.62836109119E+03  0.12699999809E+01 0.  1.
       -4    1    3    3    0  502  0.11517059323E+03  0.24854957315E+03  0.41767682649E+03  0.49949644658E+03  0.12699999809E+01 0. -1.
</event>
<event>
 5   0  0.5789905E-03  0.1082261E+04  0.7818609E-02  0.9222656E-01
        1   -1    0    0  501    0  0.00000000000E+00  0.00000000000E+00  0.71919838925E+03  0.71919838926E+03  0.50400001928E-02 0. -1.
       -1   -1    0    0    0  501  0.00000000000E+00  0.00000000000E+00 -0.40715093630E+03  0.40715093633E+03  0.50400001928E-02 0.  1.
    10030    2    1    2    0    0  0.00000000000E+00  0.00000000000E+00  0.31204745295E+03  0.11263493256E+04  0.10822611470E+04 0.  0.
        1    1    3    3  502    0  0.49314335407E+03 -0.14093075517E+02  0.38741709260E+03  0.62728062787E+03  0.50400001928E-02 0. -1.
       -1    1    3    3    0  502 -0.49314335407E+03  0.14093075517E+02 -0.75369639652E+02  0.49906869772E+03  0.50400001928E-02 0.  1.
</event>
<event>
 5   0  0.1019384E-02  0.1093074E+04  0.7818609E-02  0.9211969E-01
        2   -1    0    0  501    0  0.00000000000E+00  0.00000000000E+00  0.93410812450E+03  0.93410812450E+03  0.25500000920E-02 0. -1.
       -2   -1    0    0    0  501  0.00000000000E+00  0.00000000000E+00 -0.31977296068E+03  0.31977296069E+03  0.25500000920E-02 0.  1.
    10030    2    1    2    0    0  0.00000000000E+00  0.00000000000E+00  0.61433516382E+03  0.12538810852E+04  0.10930736857E+04 0.  0.
        1    1    3    3  502    0  0.21996615627E+02  0.33289207126E+03 -0.18941729295E+03  0.38364031735E+03  0.50400001928E-02 0.  1.
       -1    1    3    3    0  502 -0.21996615627E+02 -0.33289207126E+03  0.80375245677E+03  0.87024076783E+03  0.50400001928E-02 0. -1.
</event>
<event>
 5   0  0.5789905E-03  0.1107147E+04  0.7818609E-02  0.9198254E-01
        1   -1    0    0  501    0  0.00000000000E+00  0.00000000000E+00  0.64147110961E+03  0.64147110963E+03  0.50400001928E-02 0.  1.
       -1   -1    0    0    0  501  0.00000000000E+00  0.00000000000E+00 -0.47771968361E+03  0.47771968363E+03  0.50400001928E-02 0. -1.
    10030    2    1    2    0    0  0.00000000000E+00  0.00000000000E+00  0.16375142600E+03  0.11191907933E+04  0.11071465586E+04 0.  0.
        1    1    3    3  502    0  0.14835393455E+03 -0.39809282724E+03 -0.27688878120E+03  0.50710372329E+03  0.50400001928E-02 0. -1.
       -1    1    3    3    0  502 -0.14835393455E+03  0.39809282724E+03  0.44064020721E+03  0.61208706997E+03  0.50400001928E-02 0.  1.
</event>
<event>
 5   0  0.9719260E-03  0.1138829E+04  0.7818609E-02  0.9168152E-01
        2   -1    0    0  501    0  0.00000000000E+00  0.00000000000E+00  0.14122842535E+04  0.14122842535E+04  0.25500000920E-02 0. -1.
       -2   -1    0    0    0  501  0.00000000000E+00  0.00000000000E+00 -0.22958027206E+03  0.22958027208E+03  0.25500000920E-02 0.  1.
    10030    2    1    2    0    0  0.00000000000E+00  0.00000000000E+00  0.11827039814E+04  0.16418645256E+04  0.11388285265E+04 0.  0.
        3    1    3    3  502    0 -0.20019149985E+03 -0.17953489748E+03 -0.13227214608E+03  0.29967540248E+03  0.10100000352E+00 0.  1.
       -3    1    3    3    0  502  0.20019149985E+03  0.17953489748E+03  0.13149761275E+04  0.13421891231E+04  0.10100000352E+00 0. -1.
</event>
<event>
 5   0  0.9719260E-03  0.1107188E+04  0.7818609E-02  0.9198214E-01
       -2   -1    0    0    0  501  0.00000000000E+00  0.00000000000E+00  0.25582963501E+03  0.25582963502E+03  0.25500000920E-02 0.  1.
        2   -1    0    0  501    0  0.00000000000E+00  0.00000000000E+00 -0.11979308482E+04  0.11979308482E+04  0.25500000920E-02 0. -1.
    10030    2    1    2    0    0  0.00000000000E+00  0.00000000000E+00 -0.94210121321E+03  0.14537604832E+04  0.11071878100E+04 0.  0.
        3    1    3    3  502    0  0.36335173326E+03  0.16326900835E+03  0.33711412428E+02  0.39977208592E+03  0.10100000352E+00 0.  1.
       -3    1    3    3    0  502 -0.36335173326E+03 -0.16326900835E+03 -0.97581262564E+03  0.10539883973E+04  0.10100000352E+00 0. -1.
</event>
<event>
 5   0  0.9925021E-03  0.1084773E+04  0.7818609E-02  0.9220162E-01
        2   -1    0    0  501    0  0.00000000000E+00  0.00000000000E+00  0.38670462251E+03  0.38670462252E+03  0.25500000920E-02 0.  1.
       -2   -1    0    0    0  501  0.00000000000E+00  0.00000000000E+00 -0.76074351242E+03  0.76074351242E+03  0.25500000920E-02 0. -1.
    10030    2    1    2    0    0  0.00000000000E+00  0.00000000000E+00 -0.37403888990E+03  0.11474481349E+04  0.10847728478E+04 0.  0.
        4    1    3    3  502    0  0.90930840287E+02  0.53235790924E+03 -0.13404540395E+03  0.55645587827E+03  0.12699999809E+01 0.  1.
       -4    1    3    3    0  502 -0.90930840287E+02 -0.53235790924E+03 -0.23999348595E+03  0.59099225667E+03  0.12699999809E+01 0. -1.
</event>
<event>
 5   0  0.5998641E-03  0.1194727E+04  0.7818609E-02  0.9117484E-01
        1   -1    0    0  501    0  0.00000000000E+00  0.00000000000E+00  0.63484838356E+03  0.63484838358E+03  0.50400001928E-02 0.  1.
       -1   -1    0    0    0  501  0.00000000000E+00  0.00000000000E+00 -0.56209201019E+03  0.56209201021E+03  0.50400001928E-02 0. -1.
    10030    2    1    2    0    0  0.00000000000E+00  0.00000000000E+00  0.72756373370E+02  0.11969403938E+04  0.11947270887E+04 0.  0.
        3    1    3    3  502    0 -0.19485490636E+03  0.45969943605E+03  0.36493571180E+03  0.61844166256E+03  0.10100000352E+00 0.  1.
       -3    1    3    3    0  502  0.19485490636E+03 -0.45969943605E+03 -0.29217933843E+03  0.57849873124E+03  0.10100000352E+00 0. -1.
</event>
<event>
 5   0  0.9925021E-03  0.1110633E+04  0.7818609E-02  0.9194890E-01
       -2   -1    0    0    0  501  0.00000000000E+00  0.00000000000E+00  0.55423148369E+03  0.55423148370E+03  0.25500000920E-02 0. -1.
        2   -1    0    0  501    0  0.00000000000E+00  0.00000000000E+00 -0.55640384594E+03  0.55640384595E+03  0.25500000920E-02 0.  1.
    10030    2    1    2    0    0  0.00000000000E+00  0.00000000000E+00 -0.21723622493E+01  0.11106353296E+04  0.11106332051E+04 0.  0.
        4    1    3    3  502    0 -0.41195812603E+03  0.22955927397E+03  0.29211730999E+03  0.55474416947E+03  0.12699999809E+01 0. -1.
       -4    1    3    3    0  502  0.41195812603E+03 -0.22955927397E+03 -0.29428967224E+03  0.55589116017E+03  0.12699999809E+01 0.  1.
</event>
<event>
 5   0  0.5712664E-03  0.1194422E+04  0.7818609E-02  0.9117753E-01
        1   -1    0    0  501    0  0.00000000000E+00  0.00000000000E+00  0.19988609666E+04  0.19988609666E+04  0.50400001928E-02 0. -1.
       -1   -1    0    0    0  501  0.00000000000E+00  0.00000000000E+00 -0.17843211816E+03  0.17843211823E+03  0.50400001928E-02 0.  1.
    10030    2    1    2    0    0  0.00000000000E+00  0.00000000000E+00  0.18204288484E+04  0.21772930848E+04  0.11944220297E+04 0.  0.
        5    1    3    3  502    0  0.25401047653E+03 -0.35102518982E+03  0.16593708331E+04  0.17150141859E+04  0.46999998093E+01 0. -1.
       -5    1    3    3    0  502 -0.25401047653E+03  0.35102518982E+03  0.16105801529E+03  0.46227889889E+03  0.46999998093E+01 0.  1.
</event>
<event>
 5   0  0.1019384E-02  0.1094848E+04  0.7818609E-02  0.9210228E-01
        2   -1    0    0  501    0  0.00000000000E+00  0.00000000000E+00  0.63786812874E+03  0.63786812875E+03  0.25500000920E-02 0.  1.
       -2   -1    0    0    0  501  0.00000000000E+00  0.00000000000E+00 -0.46980400449E+03  0.46980400449E+03  0.25500000920E-02 0. -1.
    10030    2    1    2    0    0  0.00000000000E+00  0.00000000000E+00  0.16806412425E+03  0.11076721332E+04  0.10948479369E+04 0.  0.
        1    1    3    3  502    0  0.29856956491E+03 -0.41894376622E+03  0.27334773959E+03  0.58256042700E+03  0.50400001928E-02 0.  1.
       -1    1    3    3    0  502 -0.29856956491E+03  0.41894376622E+03 -0.10528361534E+03  0.52511170624E+03  0.50400001928E-02 0. -1.
</event>
<event>
 5   0  0.5958706E-03  0.1120171E+04  0.7818609E-02  0.9185752E-01
       -1   -1    0    0    0  501  0.00000000000E+00  0.00000000000E+00  0.15747137439E+03  0.15747137447E+03  0.50400001928E-02 0. -1.
        1   -1    0    0  501    0  0.00000000000E+00  0.00000000000E+00 -0.19920814406E+04  0.19920814406E+04  0.50400001928E-02 0.  1.
    10030    2    1    2    0    0  0.00000000000E+00  0.00000000000E+00 -0.18346100662E+04  0.21495528151E+04  0.11201710627E+04 0.  0.
        2    1    3    3  502    0 -0.17359274768E+03 -0.12696257341E+03  0.75076027534E+02  0.22779452806E+03  0.25500000920E-02 0. -1.
       -2    1    3    3    0  502  0.17359274768E+03  0.12696257341E+03 -0.19096860937E+04  0.19217582870E+04  0.25500000920E-02 0.  1.
</event>
<event>
 5   0  0.9692981E-03  0.1078273E+04  0.7818609E-02  0.9226631E-01
       -2   -1    0    0    0  501  0.00000000000E+00  0.00000000000E+00  0.50536662341E+03  0.50536662341E+03  0.25500000920E-02 0.  1.
        2   -1    0    0  501    0  0.00000000000E+00  0.00000000000E+00 -0.57516254556E+03  0.57516254557E+03  0.25500000920E-02 0. -1.
    10030    2    1    2    0    0  0.00000000000E+00  0.00000000000E+00 -0.69795922153E+02  0.10805291690E+04  0.10782726067E+04 0.  0.
        5    1    3    3  502    0  0.34073103835E+03 -0.19332952894E+02 -0.45311349450E+03  0.56727888420E+03  0.46999998093E+01 0. -1.
       -5    1    3    3    0  502 -0.34073103835E+03  0.19332952894E+02  0.38331757235E+03  0.51325028478E+03  0.46999998093E+01 0.  1.
</event>
<event>
 5   0  0.5998641E-03  0.1096297E+04  0.7818609E-02  0.9208809E-01
       -1   -1    0    0    0  501  0.00000000000E+00  0.00000000000E+00  0.21255488407E+03  0.21255488413E+03  0.50400001928E-02 0. -1.
        1   -1    0    0  501    0  0.00000000000E+00  0.00000000000E+00 -0.14135951702E+04  0.14135951702E+04  0.50400001928E-02 0.  1.
    10030    2    1    2    0    0  0.00000000000E+00  0.00000000000E+00 -0.12010402861E+04  0.16261500543E+04  0.10962965978E+04 0.  0.
        3    1    3    3  502    0 -0.10064152065E+02  0.30652479647E+03 -0.12744203876E+04  0.13108035980E+04  0.10100000352E+00 0.  1.
       -3    1    3    3    0  502  0.10064152065E+02 -0.30652479647E+03  0.73380101504E+02  0.31534645631E+03  0.10100000352E+00 0. -1.
</event>
<event>
 5   0  0.5789905E-03  0.1117332E+04  0.7818609E-02  0.9188462E-01
       -1   -1    0    0    0  501  0.00000000000E+00  0.00000000000E+00  0.21690558557E+03  0.21690558563E+03  0.50400001928E-02 0.  1.
        1   -1    0    0  501    0  0.00000000000E+00  0.00000000000E+00 -0.14389104164E+04  0.14389104164E+04  0.50400001928E-02 0. -1.
    10030    2    1    2    0    0  0.00000000000E+00  0.00000000000E+00 -0.12220048308E+04  0.16558160020E+04  0.11173320124E+04 0.  0.
        1    1    3    3  502    0 -0.30829307689E+03 -0.19979181017E+03 -0.12347313600E+04  0.12882247165E+04  0.50400001928E-02 0. -1.
       -1    1    3    3    0  502  0.30829307689E+03  0.19979181017E+03  0.12726529179E+02  0.36759128558E+03  0.50400001928E-02 0.  1.
</event>
<event>
 5   0  0.5712664E-03  0.1067442E+04  0.7818609E-02  0.9237519E-01
       -1   -1    0    0    0  501  0.00000000000E+00  0.00000000000E+00  0.37725634634E+03  0.37725634637E+03  0.50400001928E-02 0. -1.
        1   -1    0    0  501    0  0.00000000000E+00  0.00000000000E+00 -0.75507828720E+03  0.75507828721E+03  0.50400001928E-02 0.  1.
    10030    2    1    2    0    0  0.00000000000E+00  0.00000000000E+00 -0.37782194086E+03  0.11323346336E+04  0.10674419438E+04 0.  0.
        5    1    3    3  502    0 -0.45000518169E+03  0.17830157170E+03  0.49566631062E+02  0.48659537085E+03  0.46999998093E+01 0. -1.
       -5    1    3    3    0  502  0.45000518169E+03 -0.17830157170E+03 -0.42738857192E+03  0.64573926273E+03  0.46999998093E+01 0.  1.
</event>
<event>
 5   0  0.5789905E-03  0.1109081E+04  0.7818609E-02  0.9196386E-01
       -1   -1    0    0    0  501  0.00000000000E+00  0.00000000000E+00  0.16640093118E+03  0.16640093125E+03  0.50400001928E-02 0.  1.
        1   -1    0    0  501    0  0.00000000000E+00  0.00000000000E+00 -0.18480380076E+04  0.18480380076E+04  0.50400001928E-02 0. -1.
    10030    2    1    2    0    0  0.00000000000E+00  0.00000000000E+00 -0.16816370764E+04  0.20144389389E+04  0.11090811429E+04 0.  0.
        1    1    3    3  502    0  0.22194688040E+03  0.49982683161E+03 -0.67407378578E+03  0.86802232000E+03  0.50400001928E-02 0.  1.
       -1    1    3    3    0  502 -0.22194688040E+03 -0.49982683161E+03 -0.10075632906E+04  0.11464166189E+04  0.50400001928E-02 0. -1.
</event>
<event>
 5   0  0.5958706E-03  0.1149536E+04  0.7818609E-02  0.9158212E-01
       -1   -1    0    0    0  501  0.00000000000E+00  0.00000000000E+00  0.17621297939E+03  0.17621297946E+03  0.50400001928E-02 0.  1.
        1   -1    0    0  501    0  0.00000000000E+00  0.00000000000E+00 -0.18747666553E+04  0.18747666553E+04  0.50400001928E-02 0. -1.
    10030    2    1    2    0    0  0.00000000000E+00  0.00000000000E+00 -0.16985536759E+04  0.20509796348E+04  0.11495359378E+04 0.  0.
        2    1    3    3  502    0  0.18896464561E+03 -0.24579933623E+03 -0.17127783113E+04  0.17406132525E+04  0.25500000920E-02 0. -1.
       -2    1    3    3    0  502 -0.18896464561E+03  0.24579933623E+03  0.14224635431E+02  0.31036638227E+03  0.25500000920E-02 0.  1.
</event>
<event>
 5   0  0.5998641E-03  0.1110744E+04  0.7818609E-02  0.9194783E-01
       -1   -1    0    0    0  501  0.00000000000E+00  0.00000000000E+00  0.69378071058E+03  0.69378071060E+03  0.50400001928E-02 0.  1.
        1   -1    0    0  501    0  0.00000000000E+00  0.00000000000E+00 -0.44457593912E+03  0.44457593915E+03  0.50400001928E-02 0. -1.
    10030    2    1    2    0    0  0.00000000000E+00  0.00000000000E+00  0.24920477147E+03  0.11383566497E+04  0.11107442748E+04 0.  0.
        3    1    3    3  502    0  0.51871075957E+03  0.13900591556E+03 -0.20532693686E+02  0.53740589722E+03  0.10100000352E+00 0.  1.
       -3    1    3    3    0  502 -0.51871075957E+03 -0.13900591556E+03  0.26973746515E+03  0.60095075253E+03  0.10100000352E+00 0. -1.
</event>
<event>
 5   0  0.9692981E-03  0.1002537E+04  0.7818609E-02  0.9305767E-01
        2   -1    0    0  501    0  0.00000000000E+00  0.00000000000E+00  0.33481917088E+03  0.33481917089E+03  0.25500000920E-02 0.  1.
       -2   -1    0    0    0  501  0.00000000000E+00  0.00000000000E+00 -0.75046505984E+03  0.75046505984E+03  0.25500000920E-02 0. -1.
    10030    2    1    2    0    0  0.00000000000E+00  0.00000000000E+00 -0.41564588896E+03  0.10852842307E+04  0.10025369601E+04 0.  0.
        5    1    3    3  502    0 -0.35267922297E+03  0.31790498367E+03 -0.33935595702E+02  0.47604614021E+03  0.46999998093E+01 0. -1.
       -5    1    3    3    0  502  0.35267922297E+03 -0.31790498367E+03 -0.38171029326E+03  0.60923809052E+03  0.46999998093E+01 0.  1.
</event>
<event>
 5   0  0.5712664E-03  0.1079980E+04  0.7818609E-02  0.9224927E-01
       -1   -1    0    0    0  501  0.00000000000E+00  0.00000000000E+00  0.42664113415E+03  0.42664113418E+03  0.50400001928E-02 0. -1.
        1   -1    0    0  501    0  0.00000000000E+00  0.00000000000E+00 -0.68345360741E+03  0.68345360743E+03  0.50400001928E-02 0.  1.
    10030    2    1    2    0    0  0.00000000000E+00  0.00000000000E+00 -0.25681247327E+03  0.11100947416E+04  0.10799804114E+04 0.  0.
        5    1    3    3  502    0  0.38588806576E+03  0.27131366403E+03  0.14168805533E+03  0.49256298948E+03  0.46999998093E+01 0. -1.
       -5    1    3    3    0  502 -0.38588806576E+03 -0.27131366403E+03 -0.39850052860E+03  0.61753175212E+03  0.46999998093E+01 0.  1.
</event>
<event>
 5   0  0.1019384E-02  0.1133370E+04  0.7818609E-02  0.9173264E-01
       -2   -1    0    0    0  501  0.00000000000E+00  0.00000000000E+00  0.32835654661E+03  0.32835654662E+03  0.25500000920E-02 0. -1.
        2   -1    0    0  501    0  0.00000000000E+00  0.00000000000E+00 -0.97799683680E+03  0.97799683680E+03  0.25500000920E-02 0.  1.
    10030    2    1    2    0    0  0.00000000000E+00  0.00000000000E+00 -0.64964029019E+03  0.13063533834E+04  0.11333696025E+04 0.  0.
        1    1    3    3  502    0 -0.29975935130E+03  0.32856575006E+03 -0.72958875782E+03  0.85446525755E+03  0.50400001928E-02 0.  1.
       -1    1    3    3    0  502  0.29975935130E+03 -0.32856575006E+03  0.79948467633E+02  0.45188812587E+03  0.50400001928E-02 0. -1.
</event>
<event>
 5   0  0.5789905E-03  0.1122961E+04  0.7818609E-02  0.9183097E-01
       -1   -1    0    0    0  501  0.00000000000E+00  0.00000000000E+00  0.42035821689E+03  0.42035821692E+03  0.50400001928E-02 0. -1.
        1   -1    0    0  501    0  0.00000000000E+00  0.00000000000E+00 -0.74998087568E+03  0.74998087570E+03  0.50400001928E-02 0.  1.
    10030    2    1    2    0    0  0.00000000000E+00  0.00000000000E+00 -0.32962265880E+03  0.11703390926E+04  0.11229614840E+04 0.  0.
        1    1    3    3  502    0 -0.37539619560E+03 -0.27191289730E+03  0.16541931810E+03  0.49216102875E+03  0.50400001928E-02 0. -1.
       -1    1    3    3    0  502  0.37539619560E+03  0.27191289730E+03 -0.49504197690E+03  0.67817806387E+03  0.50400001928E-02 0.  1.
</event>
<event>
 5   0  0.9925021E-03  0.1090455E+04  0.7818609E-02  0.9214545E-01
        2   -1    0    0  501    0  0.00000000000E+00  0.00000000000E+00  0.18802678997E+04  0.18802678998E+04  0.25500000920E-02 0.  1.
       -2   -1    0    0    0  501  0.00000000000E+00  0.00000000000E+00 -0.15810139374E+03  0.15810139376E+03  0.25500000920E-02 0. -1.
    10030    2    1    2    0    0  0.00000000000E+00  0.00000000000E+00  0.17221665060E+04  0.20383692935E+04  0.10904549061E+04 0.  0.
        4    1    3    3  502    0 -0.35104884835E+03 -0.39575633767E+03  0.61441580978E+03  0.81078158153E+03  0.12699999809E+01 0. -1.
       -4    1    3    3    0  502  0.35104884835E+03  0.39575633767E+03  0.11077506962E+04  0.12275877120E+04  0.12699999809E+01 0.  1.
</event>
<event>
 5   0  0.9719260E-03  0.1171250E+04  0.7818609E-02  0.9138400E-01
       -2   -1    0    0    0  501  0.00000000000E+00  0.00000000000E+00  0.48868762883E+03  0.48868762884E+03  0.25500000920E-02 0.  1.
        2   -1    0    0  501    0  0.00000000000E+00  0.00000000000E+00 -0.70179134116E+03  0.70179134117E+03  0.25500000920E-02 0. -1.
    10030    2    1    2    0    0  0.00000000000E+00  0.00000000000E+00 -0.21310371233E+03  0.11904789700E+04  0.11712501807E+04 0.  0.
        3    1    3    3  502    0 -0.51690646746E+03 -0.99363448053E+02  0.15435545223E+03  0.54853532862E+03  0.10100000352E+00 0.  1.
       -3    1    3    3    0  502  0.51690646746E+03  0.99363448053E+02 -0.36745916456E+03  0.64194364139E+03  0.10100000352E+00 0. -1.
</event>
<event>
 5   0  0.5789905E-03  0.1092852E+04  0.7818609E-02  0.9212187E-01
        1   -1    0    0  501    0  0.00000000000E+00  0.00000000000E+00  0.14015056101E+04  0.14015056101E+04  0.50400001928E-02 0. -1.
       -1   -1    0    0    0  501  0.00000000000E+00  0.00000000000E+00 -0.21304318841E+03  0.21304318847E+03  0.50400001928E-02 0.  1.
    10030    2    1    2    0    0  0.00000000000E+00  0.00000000000E+00  0.11884624216E+04  0.16145487985E+04  0.10928517261E+04 0.  0.
        1    1    3    3  502    0 -0.14263578743E+03 -0.39377632917E+03  0.75725206487E+02  0.42560436111E+03  0.50400001928E-02 0.  1.
       -1    1    3    3    0  502  0.14263578743E+03  0.39377632917E+03  0.11127372152E+04  0.11889444374E+04  0.50400001928E-02 0. -1.
</event>
<event>
 5   0  0.5712664E-03  0.1075042E+04  0.7818609E-02  0.9229864E-01
       -1   -1    0    0    0  501  0.00000000000E+00  0.00000000000E+00  0.16178568607E+03  0.16178568615E+03  0.50400001928E-02 0. -1.
        1   -1    0    0  501    0  0.00000000000E+00  0.00000000000E+00 -0.17858754326E+04  0.17858754326E+04  0.50400001928E-02 0.  1.
    10030    2    1    2    0    0  0.00000000000E+00  0.00000000000E+00 -0.16240897465E+04  0.19476611187E+04  0.10750424776E+04 0.  0.
        5    1    3    3  502    0 -0.81655035370E+02  0.31850644316E+03 -0.41711546141E+02  0.33147525129E+03  0.46999998093E+01 0. -1.
       -5    1    3    3    0  502  0.81655035370E+02 -0.31850644316E+03 -0.15823782004E+04  0.16161858675E+04  0.46999998093E+01 0.  1.
</event>
<event>
 5   0  0.5712664E-03  0.1096886E+04  0.7818609E-02  0.9208232E-01
        1   -1    0    0  501    0  0.00000000000E+00  0.00000000000E+00  0.25255286219E+04  0.25255286219E+04  0.50400001928E-02 0. -1.
       -1   -1    0    0    0  501  0.00000000000E+00  0.00000000000E+00 -0.11909976164E+03  0.11909976175E+03  0.50400001928E-02 0.  1.
    10030    2    1    2    0    0  0.00000000000E+00  0.00000000000E+00  0.24064288602E+04  0.26446283836E+04  0.10968862421E+04 0.  0.
        5    1    3    3  502    0 -0.52539613497E+03  0.10342613291E+02  0.15815214783E+04  0.16665474324E+04  0.46999998093E+01 0.  1.
       -5    1    3    3    0  502  0.52539613497E+03 -0.10342613291E+02  0.82490738193E+03  0.97808095118E+03  0.46999998093E+01 0. -1.
</event>
<event>
 5   0  0.5958706E-03  0.1102226E+04  0.7818609E-02  0.9203025E-01
       -1   -1    0    0    0  501  0.00000000000E+00  0.00000000000E+00  0.56198458281E+03  0.56198458283E+03  0.50400001928E-02 0.  1.
        1   -1    0    0  501    0  0.00000000000E+00  0.00000000000E+00 -0.54045145421E+03  0.54045145423E+03  0.50400001928E-02 0. -1.
    10030    2    1    2    0    0  0.00000000000E+00  0.00000000000E+00  0.21533128601E+02  0.11024360371E+04  0.11022257211E+04 0.  0.
        2    1    3    3  502    0 -0.33260829750E+03  0.41979560089E+01 -0.42872538417E+03  0.54263372309E+03  0.25500000920E-02 0. -1.
       -2    1    3    3    0  502  0.33260829750E+03 -0.41979560089E+01  0.45025851277E+03  0.55980231397E+03  0.25500000920E-02 0.  1.
</event>
<event>
 5   0  0.9719260E-03  0.1101265E+04  0.7818609E-02  0.9203960E-01
       -2   -1    0    0    0  501  0.00000000000E+00  0.00000000000E+00  0.31676982650E+03  0.31676982651E+03  0.25500000920E-02 0. -1.
        2   -1    0    0  501    0  0.00000000000E+00  0.00000000000E+00 -0.95714932856E+03  0.95714932856E+03  0.25500000920E-02 0.  1.
    10030    2    1    2    0    0  0.00000000000E+00  0.00000000000E+00 -0.64037950206E+03  0.12739191551E+04  0.11012647761E+04 0.  0.
        3    1    3    3  502    0 -0.15359887311E+03  0.51600749234E+03 -0.18658476326E+03  0.56979841177E+03  0.10100000352E+00 0. -1.
       -3    1    3    3    0  502  0.15359887311E+03 -0.51600749234E+03 -0.45379473881E+03  0.70412074330E+03  0.10100000352E+00 0.  1.
</event>
<event>
 5   0  0.1028016E-02  0.1087145E+04  0.7818609E-02  0.9217813E-01
       -2   -1    0    0    0  501  0.00000000000E+00  0.00000000000E+00  0.34625459787E+03  0.34625459788E+03  0.25500000920E-02 0. -1.
        2   -1    0    0  501    0  0.00000000000E+00  0.00000000000E+00 -0.85333417542E+03  0.85333417542E+03  0.25500000920E-02 0.  1.
    10030    2    1    2    0    0  0.00000000000E+00  0.00000000000E+00 -0.50707957755E+03  0.11995887733E+04  0.10871446670E+04 0.  0.
        2    1    3    3  502    0  0.53837215032E+03  0.72002886174E+02 -0.27673530567E+03  0.60959939081E+03  0.25500000920E-02 0. -1.
       -2    1    3    3    0  502 -0.53837215032E+03 -0.72002886174E+02 -0.23034427188E+03  0.58998938249E+03  0.25500000920E-02 0.  1.
</event>
<event>
 5   0  0.9719260E-03  0.1095964E+04  0.7818609E-02  0.9209134E-01
       -2   -1    0    0    0  501  0.00000000000E+00  0.00000000000E+00  0.28129169035E+03  0.28129169037E+03  0.25500000920E-02 0.  1.
        2   -1    0    0  501    0  0.00000000000E+00  0.00000000000E+00 -0.10675200267E+04  0.10675200267E+04  0.25500000920E-02 0. -1.
    10030    2    1    2    0    0  0.00000000000E+00  0.00000000000E+00 -0.78622833633E+03  0.13488117171E+04  0.10959644388E+04 0.  0.
        3    1    3    3  502    0 -0.50150160290E+03 -0.20033041750E+03 -0.50756579390E+03  0.74112021914E+03  0.10100000352E+00 0. -1.
       -3    1    3    3    0  502  0.50150160290E+03  0.20033041750E+03 -0.27866254243E+03  0.60769149792E+03  0.10100000352E+00 0.  1.
</event>
<event>
 5   0  0.1028016E-02  0.1130853E+04  0.7818609E-02  0.9175632E-01
        2   -1    0    0  501    0  0.00000000000E+00  0.00000000000E+00  0.19369077672E+04  0.19369077672E+04  0.25500000920E-02 0.  1.
       -2   -1    0    0    0  501  0.00000000000E+00  0.00000000000E+00 -0.16506054926E+03  0.16506054928E+03  0.25500000920E-02 0. -1.
    10030    2    1    2    0    0  0.00000000000E+00  0.00000000000E+00  0.17718472179E+04  0.21019683165E+04  0.11308528816E+04 0.  0.
        2    1    3    3  502    0 -0.18943997530E+03 -0.28068285674E+02  0.18747900013E+04  0.18845458025E+04  0.25500000920E-02 0.  1.
       -2    1    3    3    0  502  0.18943997530E+03  0.28068285674E+02 -0.10294278338E+03  0.21742251392E+03  0.25500000920E-02 0. -1.
</event>
<event>
 5   0  0.9719260E-03  0.1095666E+04  0.7818609E-02  0.9209427E-01
       -2   -1    0    0    0  501  0.00000000000E+00  0.00000000000E+00  0.33854501352E+03  0.33854501353E+03  0.25500000920E-02 0.  1.
        2   -1    0    0  501    0  0.00000000000E+00  0.00000000000E+00 -0.88650184214E+03  0.88650184215E+03  0.25500000920E-02 0. -1.
    10030    2    1    2    0    0  0.00000000000E+00  0.00000000000E+00 -0.54795682862E+03  0.12250468557E+04  0.10956656025E+04 0.  0.
        3    1    3    3  502    0 -0.45663412073E+03  0.21059308232E+02 -0.61156323652E+03  0.76352329182E+03  0.10100000352E+00 0.  1.
       -3    1    3    3    0  502  0.45663412073E+03 -0.21059308232E+02  0.63606407905E+02  0.46152356386E+03  0.10100000352E+00 0. -1.
</event>
<event>
 5   0  0.9692981E-03  0.1073712E+04  0.7818609E-02  0.9231200E-01
       -2   -1    0    0    0  501  0.00000000000E+00  0.00000000000E+00  0.33562981297E+03  0.33562981298E+03  0.25500000920E-02 0.  1.
        2   -1    0    0  501    0  0.00000000000E+00  0.00000000000E+00 -0.85872661630E+03  0.85872661631E+03  0.25500000920E-02 0. -1.
    10030    2    1    2    0    0  0.00000000000E+00  0.00000000000E+00 -0.52309680333E+03  0.11943564293E+04  0.10737117930E+04 0.  0.
        5    1    3    3  502    0 -0.24894878456E+03 -0.40937351815E+03  0.77948722010E+01  0.47921292212E+03  0.46999998093E+01 0. -1.
       -5    1    3    3    0  502  0.24894878456E+03  0.40937351815E+03 -0.53089167553E+03  0.71514350717E+03  0.46999998093E+01 0.  1.
</event>
<event>
 5   0  0.9925021E-03  0.1115689E+04  0.7818609E-02  0.9190033E-01
        2   -1    0    0  501    0  0.00000000000E+00  0.00000000000E+00  0.19640573553E+04  0.19640573553E+04  0.25500000920E-02 0.  1.
       -2   -1    0    0    0  501  0.00000000000E+00  0.00000000000E+00 -0.15844279297E+03  0.15844279299E+03  0.25500000920E-02 0. -1.
    10030    2    1    2    0    0  0.00000000000E+00  0.00000000000E+00  0.18056145623E+04  0.21225001483E+04  0.11156894424E+04 0.  0.
        4    1    3    3  502    0  0.38415166040E+03 -0.40088336052E+03  0.80019775179E+03  0.97395996930E+03  0.12699999809E+01 0.  1.
       -4    1    3    3    0  502 -0.38415166040E+03  0.40088336052E+03  0.10054168105E+04  0.11485401790E+04  0.12699999809E+01 0. -1.
</event>
<event>
 5   0  0.9925021E-03  0.1089151E+04  0.7818609E-02  0.9215831E-01
       -2   -1    0    0    0  501  0.00000000000E+00  0.00000000000E+00  0.19297490016E+03  0.19297490018E+03  0.25500000920E-02 0.  1.
        2   -1    0    0  501    0  0.00000000000E+00  0.00000000000E+00 -0.15367934365E+04  0.15367934366E+04  0.25500000920E-02 0. -1.
    10030    2    1    2    0    0  0.00000000000E+00  0.00000000000E+00 -0.13438185364E+04  0.17297683367E+04  0.10891511557E+04 0.  0.
        4    1    3    3  502    0  0.51784564308E+03  0.49153687260E+02 -0.41591770884E+03  0.66601002129E+03  0.12699999809E+01 0.  1.
       -4    1    3    3    0  502 -0.51784564308E+03 -0.49153687260E+02 -0.92790082754E+03  0.10637583154E+04  0.12699999809E+01 0. -1.
</event>
<event>
 5   0  0.5789905E-03  0.1065037E+04  0.7818609E-02  0.9239956E-01
       -1   -1    0    0    0  501  0.00000000000E+00  0.00000000000E+00  0.11419318247E+03  0.11419318258E+03  0.50400001928E-02 0. -1.
        1   -1    0    0  501    0  0.00000000000E+00  0.00000000000E+00 -0.24832982488E+04  0.24832982488E+04  0.50400001928E-02 0.  1.
    10030    2    1    2    0    0  0.00000000000E+00  0.00000000000E+00 -0.23691050664E+04  0.25974914314E+04  0.10650365819E+04 0.  0.
        1    1    3    3  502    0 -0.24973561392E+03 -0.21252438840E+03 -0.16126706900E+03  0.36543338667E+03  0.50400001928E-02 0. -1.
       -1    1    3    3    0  502  0.24973561392E+03  0.21252438840E+03 -0.22078379974E+04  0.22320580447E+04  0.50400001928E-02 0.  1.
</event>
<event>
 5   0  0.1028016E-02  0.1075162E+04  0.7818609E-02  0.9229745E-01
       -2   -1    0    0    0  501  0.00000000000E+00  0.00000000000E+00  0.15654363965E+03  0.15654363967E+03  0.25500000920E-02 0. -1.
        2   -1    0    0  501    0  0.00000000000E+00  0.00000000000E+00 -0.18460876910E+04  0.18460876910E+04  0.25500000920E-02 0.  1.
    10030    2    1    2    0    0  0.00000000000E+00  0.00000000000E+00 -0.16895440513E+04  0.20026313306E+04  0.10751619158E+04 0.  0.
        2    1    3    3  502    0  0.37779868726E+03 -0.27447786820E+03 -0.13408177581E+04  0.14198106243E+04  0.25500000920E-02 0.  1.
       -2    1    3    3    0  502 -0.37779868726E+03  0.27447786820E+03 -0.34872629319E+03  0.58282070638E+03  0.25500000920E-02 0. -1.
</event>
<event>
 5   0  0.5712664E-03  0.1027969E+04  0.7818609E-02  0.9278390E-01
        1   -1    0    0  501    0  0.00000000000E+00  0.00000000000E+00  0.10127492882E+04  0.10127492882E+04  0.50400001928E-02 0. -1.
       -1   -1    0    0    0  501  0.00000000000E+00  0.00000000000E+00 -0.26085451372E+03  0.26085451377E+03  0.50400001928E-02 0.  1.
    10030    2    1    2    0    0  0.00000000000E+00  0.00000000000E+00  0.75189477445E+03  0.12736038020E+04  0.10279693052E+04 0.  0.
        5    1    3    3  502    0 -0.28955027609E+03  0.38776402614E+03  0.59038915637E+03  0.76340143326E+03  0.46999998093E+01 0. -1.
       -5    1    3    3    0  502  0.28955027609E+03 -0.38776402614E+03  0.16150561809E+03  0.51020236869E+03  0.46999998093E+01 0.  1.
</event>
<event>
 5   0  0.5854579E-03  0.1115364E+04  0.7818609E-02  0.9190345E-01
       -1   -1    0    0    0  501  0.00000000000E+00  0.00000000000E+00  0.43852339200E+03  0.43852339203E+03  0.50400001928E-02 0. -1.
        1   -1    0    0  501    0  0.00000000000E+00  0.00000000000E+00 -0.70921912690E+03  0.70921912692E+03  0.50400001928E-02 0.  1.
    10030    2    1    2    0    0  0.00000000000E+00  0.00000000000E+00 -0.27069573490E+03  0.11477425189E+04  0.11153639356E+04 0.  0.
        4    1    3    3  502    0 -0.50736146120E+01 -0.54198389431E+03 -0.27044217759E+03  0.60573333042E+03  0.12699999809E+01 0.  1.
       -4    1    3    3    0  502  0.50736146120E+01  0.54198389431E+03 -0.25355731414E+00  0.54200918853E+03  0.12699999809E+01 0. -1.
</event>
<event>
 5   0  0.5712664E-03  0.8396028E+03  0.7818609E-02  0.9504399E-01
        1   -1    0    0  501    0  0.00000000000E+00  0.00000000000E+00  0.17997155702E+03  0.17997155709E+03  0.50400001928E-02 0.  1.
       -1   -1    0    0    0  501  0.00000000000E+00  0.00000000000E+00 -0.97922818398E+03  0.97922818399E+03  0.50400001928E-02 0. -1.
    10030    2    1    2    0    0  0.00000000000E+00  0.00000000000E+00 -0.79925662696E+03  0.11591997411E+04  0.83960281322E+03 0.  0.
        5    1    3    3  502    0 -0.24743402182E+03 -0.33547301054E+03 -0.46790287255E+03  0.62667449612E+03  0.46999998093E+01 0.  1.
       -5    1    3    3    0  502  0.24743402182E+03  0.33547301054E+03 -0.33135375441E+03  0.53252524496E+03  0.46999998093E+01 0. -1.
</event>
<event>
 5   0  0.1019384E-02  0.1094708E+04  0.7818609E-02  0.9210366E-01
        2   -1    0    0  501    0  0.00000000000E+00  0.00000000000E+00  0.18775731417E+03  0.18775731419E+03  0.25500000920E-02 0.  1.
       -2   -1    0    0    0  501  0.00000000000E+00  0.00000000000E+00 -0.15956565178E+04  0.15956565178E+04  0.25500000920E-02 0. -1.
    10030    2    1    2    0    0  0.00000000000E+00  0.00000000000E+00 -0.14078992036E+04  0.17834138320E+04  0.10947075996E+04 0.  0.
        1    1    3    3  502    0  0.35131176222E+03  0.98456291341E+02 -0.13686690799E+04  0.14164634290E+04  0.50400001928E-02 0. -1.
       -1    1    3    3    0  502 -0.35131176222E+03 -0.98456291341E+02 -0.39230123733E+02  0.36695040293E+03  0.50400001928E-02 0.  1.
</event>
<event>
 5   0  0.9719260E-03  0.1142457E+04  0.7818609E-02  0.9164771E-01
       -2   -1    0    0    0  501  0.00000000000E+00  0.00000000000E+00  0.42068140158E+03  0.42068140159E+03  0.25500000920E-02 0.  1.
        2   -1    0    0  501    0  0.00000000000E+00  0.00000000000E+00 -0.77565044218E+03  0.77565044219E+03  0.25500000920E-02 0. -1.
    10030    2    1    2    0    0  0.00000000000E+00  0.00000000000E+00 -0.35496904060E+03  0.11963318438E+04  0.11424565027E+04 0.  0.
        3    1    3    3  502    0 -0.14369908500E+03 -0.17788984557E+03  0.37065762957E+03  0.43552418159E+03  0.10100000352E+00 0.  1.
       -3    1    3    3    0  502  0.14369908500E+03  0.17788984557E+03 -0.72562667017E+03  0.76080766219E+03  0.10100000352E+00 0. -1.
</event>
<event>
 5   0  0.9692981E-03  0.1104278E+04  0.7818609E-02  0.9201033E-01
        2   -1    0    0  501    0  0.00000000000E+00  0.00000000000E+00  0.46804988858E+03  0.46804988858E+03  0.25500000920E-02 0.  1.
       -2   -1    0    0    0  501  0.00000000000E+00  0.00000000000E+00 -0.65133498485E+03  0.65133498486E+03  0.25500000920E-02 0. -1.
    10030    2    1    2    0    0  0.00000000000E+00  0.00000000000E+00 -0.18328509628E+03  0.11193848734E+04  0.11042776229E+04 0.  0.
        5    1    3    3  502    0 -0.51034824243E+03  0.87541191790E+02 -0.28587918024E+03  0.59149622526E+03  0.46999998093E+01 0.  1.
       -5    1    3    3    0  502  0.51034824243E+03 -0.87541191790E+02  0.10259408396E+03  0.52788864818E+03  0.46999998093E+01 0. -1.
</event>
<event>
 5   0  0.5712664E-03  0.1113189E+04  0.7818609E-02  0.9192432E-01
        1   -1    0    0  501    0  0.00000000000E+00  0.00000000000E+00  0.12906898975E+04  0.12906898975E+04  0.50400001928E-02 0. -1.
       -1   -1    0    0    0  501  0.00000000000E+00  0.00000000000E+00 -0.24002456907E+03  0.24002456912E+03  0.50400001928E-02 0.  1.
    10030    2    1    2    0    0  0.00000000000E+00  0.00000000000E+00  0.10506653284E+04  0.15307144666E+04  0.11131887288E+04 0.  0.
        5    1    3    3  502    0 -0.34526132361E+02  0.28132245913E+03  0.11839918094E+04  0.12174535205E+04  0.46999998093E+01 0. -1.
       -5    1    3    3    0  502  0.34526132361E+02 -0.28132245913E+03 -0.13332648100E+03  0.31326094612E+03  0.46999998093E+01 0.  1.
</event>
<event>
 5   0  0.9719260E-03  0.1192506E+04  0.7818609E-02  0.9119442E-01
        2   -1    0    0  501    0  0.00000000000E+00  0.00000000000E+00  0.93189666113E+03  0.93189666113E+03  0.25500000920E-02 0.  1.
       -2   -1    0    0    0  501  0.00000000000E+00  0.00000000000E+00 -0.38149885101E+03  0.38149885102E+03  0.25500000920E-02 0. -1.
    10030    2    1    2    0    0  0.00000000000E+00  0.00000000000E+00  0.55039781012E+03  0.13133955121E+04  0.11925057744E+04 0.  0.
        3    1    3    3  502    0 -0.32080460319E+02  0.25019652577E+03 -0.31983905717E+03  0.40733829937E+03  0.10100000352E+00 0. -1.
       -3    1    3    3    0  502  0.32080460319E+02 -0.25019652577E+03  0.87023686729E+03  0.90605721278E+03  0.10100000352E+00 0.  1.
</event>
<event>
 5   0  0.9925021E-03  0.1046676E+04  0.7818609E-02  0.9258783E-01
       -2   -1    0    0    0  501  0.00000000000E+00  0.00000000000E+00  0.13102684636E+04  0.13102684636E+04  0.25500000920E-02 0. -1.
        2   -1    0    0  501    0  0.00000000000E+00  0.00000000000E+00 -0.20902770774E+03  0.20902770776E+03  0.25500000920E-02 0.  1.
    10030    2    1    2    0    0  0.00000000000E+00  0.00000000000E+00  0.11012407559E+04  0.15192961714E+04  0.10466755247E+04 0.  0.
        4    1    3    3  502    0  0.26322604120E+03  0.47847073464E+02 -0.10225769493E+03  0.28641847056E+03  0.12699999809E+01 0.  1.
       -4    1    3    3    0  502 -0.26322604120E+03 -0.47847073464E+02  0.12034984508E+04  0.12328777009E+04  0.12699999809E+01 0. -1.
</event>
<event>
 5   0  0.9692981E-03  0.1090598E+04  0.7818609E-02  0.9214405E-01
       -2   -1    0    0    0  501  0.00000000000E+00  0.00000000000E+00  0.48487123117E+03  0.48487123118E+03  0.25500000920E-02 0.  1.
        2   -1    0    0  501    0  0.00000000000E+00  0.00000000000E+00 -0.61325733274E+03  0.61325733275E+03  0.25500000920E-02 0. -1.
    10030    2    1    2    0    0  0.00000000000E+00  0.00000000000E+00 -0.12838610157E+03  0.10981285639E+04  0.10905977039E+04 0.  0.
        5    1    3    3  502    0  0.44473097604E+03  0.31336686505E+03 -0.10111113018E+03  0.55338050544E+03  0.46999998093E+01 0.  1.
       -5    1    3    3    0  502 -0.44473097604E+03 -0.31336686505E+03 -0.27274971392E+02  0.54474805849E+03  0.46999998093E+01 0. -1.
</event>
<event>
 5   0  0.5712664E-03  0.1098673E+04  0.7818609E-02  0.9206487E-01
       -1   -1    0    0    0  501  0.00000000000E+00  0.00000000000E+00  0.33629094229E+03  0.33629094233E+03  0.50400001928E-02 0. -1.
        1   -1    0    0  501    0  0.00000000000E+00  0.00000000000E+00 -0.89734921490E+03  0.89734921492E+03  0.50400001928E-02 0.  1.
    10030    2    1    2    0    0  0.00000000000E+00  0.00000000000E+00 -0.56105827261E+03  0.12336401572E+04  0.10986726775E+04 0.  0.
        5    1    3    3  502    0  0.30959625875E+03 -0.30785003434E+03  0.93779328280E+02  0.44658497454E+03  0.46999998093E+01 0. -1.
       -5    1    3    3    0  502 -0.30959625875E+03  0.30785003434E+03 -0.65483760090E+03  0.78705518270E+03  0.46999998093E+01 0.  1.
</event>
<event>
 5   0  0.9719260E-03  0.1129271E+04  0.7818609E-02  0.9177122E-01
        2   -1    0    0  501    0  0.00000000000E+00  0.00000000000E+00  0.53954723586E+03  0.53954723586E+03  0.25500000920E-02 0. -1.
       -2   -1    0    0    0  501  0.00000000000E+00  0.00000000000E+00 -0.59089077195E+03  0.59089077196E+03  0.25500000920E-02 0.  1.
    10030    2    1    2    0    0  0.00000000000E+00  0.00000000000E+00 -0.51343536095E+02  0.11304380078E+04  0.11292714159E+04 0.  0.
        3    1    3    3  502    0  0.26661152191E+03  0.49772608423E+03 -0.26389423787E+02  0.56525159922E+03  0.10100000352E+00 0. -1.
       -3    1    3    3    0  502 -0.26661152191E+03 -0.49772608423E+03 -0.24954112308E+02  0.56518640859E+03  0.10100000352E+00 0.  1.
</event>
<event>
 5   0  0.1019384E-02  0.1103839E+04  0.7818609E-02  0.9201458E-01
        2   -1    0    0  501    0  0.00000000000E+00  0.00000000000E+00  0.25737534873E+03  0.25737534874E+03  0.25500000920E-02 0. -1.
       -2   -1    0    0    0  501  0.00000000000E+00  0.00000000000E+00 -0.11835439445E+04  0.11835439445E+04  0.25500000920E-02 0.  1.
    10030    2    1    2    0    0  0.00000000000E+00  0.00000000000E+00 -0.92616859576E+03  0.14409192932E+04  0.11038388206E+04 0.  0.
        1    1    3    3  502    0 -0.23623045226E+03  0.13296897334E+03 -0.10906535341E+04  0.11238374909E+04  0.50400001928E-02 0.  1.
       -1    1    3    3    0  502  0.23623045226E+03 -0.13296897334E+03  0.16448493831E+03  0.31708180238E+03  0.50400001928E-02 0. -1.
</event>
<event>
 5   0  0.9925021E-03  0.1073938E+04  0.7818609E-02  0.9230973E-01
        2   -1    0    0  501    0  0.00000000000E+00  0.00000000000E+00  0.44528321609E+03  0.44528321609E+03  0.25500000920E-02 0. -1.
       -2   -1    0    0    0  501  0.00000000000E+00  0.00000000000E+00 -0.64753311781E+03  0.64753311782E+03  0.25500000920E-02 0.  1.
    10030    2    1    2    0    0  0.00000000000E+00  0.00000000000E+00 -0.20224990172E+03  0.10928163339E+04  0.10739378552E+04 0.  0.
        4    1    3    3  502    0  0.52059860411E+03  0.90309274558E+02 -0.19849051302E+03  0.56442782384E+03  0.12699999809E+01 0. -1.
       -4    1    3    3    0  502 -0.52059860411E+03 -0.90309274558E+02 -0.37593887091E+01  0.52838851007E+03  0.12699999809E+01 0.  1.
</event>
<event>
 5   0  0.1019384E-02  0.1090360E+04  0.7818609E-02  0.9214639E-01
       -2   -1    0    0    0  501  0.00000000000E+00  0.00000000000E+00  0.34506883619E+03  0.34506883620E+03  0.25500000920E-02 0.  1.
        2   -1    0    0  501    0  0.00000000000E+00  0.00000000000E+00 -0.86133845630E+03  0.86133845630E+03  0.25500000920E-02 0. -1.
    10030    2    1    2    0    0  0.00000000000E+00  0.00000000000E+00 -0.51626962011E+03  0.12064072925E+04  0.10903596814E+04 0.  0.
        1    1    3    3  502    0  0.51188620697E+03 -0.63226115112E+01 -0.50686912219E+02  0.51442844730E+03  0.50400001928E-02 0.  1.
       -1    1    3    3    0  502 -0.51188620697E+03  0.63226115112E+01 -0.46558270789E+03  0.69197884520E+03  0.50400001928E-02 0. -1.
</event>
<event>
 5   0  0.9719260E-03  0.1085116E+04  0.7818609E-02  0.9219821E-01
       -2   -1    0    0    0  501  0.00000000000E+00  0.00000000000E+00  0.47931688219E+03  0.47931688220E+03  0.25500000920E-02 0. -1.
        2   -1    0    0  501    0  0.00000000000E+00  0.00000000000E+00 -0.61414343414E+03  0.61414343414E+03  0.25500000920E-02 0.  1.
    10030    2    1    2    0    0  0.00000000000E+00  0.00000000000E+00 -0.13482655195E+03  0.10934603163E+04  0.10851162446E+04 0.  0.
        3    1    3    3  502    0  0.29408162166E+03  0.12410405329E+03 -0.50951631783E+03  0.60124263370E+03  0.10100000352E+00 0.  1.
       -3    1    3    3    0  502 -0.29408162166E+03 -0.12410405329E+03  0.37468976588E+03  0.49221768264E+03  0.10100000352E+00 0. -1.
</event>
<event>
 5   0  0.1028016E-02  0.1121249E+04  0.7818609E-02  0.9184725E-01
        2   -1    0    0  501    0  0.00000000000E+00  0.00000000000E+00  0.97773827785E+03  0.97773827785E+03  0.25500000920E-02 0.  1.
       -2   -1    0    0    0  501  0.00000000000E+00  0.00000000000E+00 -0.32145602597E+03  0.32145602598E+03  0.25500000920E-02 0. -1.
    10030    2    1    2    0    0  0.00000000000E+00  0.00000000000E+00  0.65628225188E+03  0.12991943038E+04  0.11212490557E+04 0.  0.
        2    1    3    3  502    0  0.23778974915E+03 -0.17964312702E+03  0.87835320072E+03  0.92753434606E+03  0.25500000920E-02 0.  1.
       -2    1    3    3    0  502 -0.23778974915E+03  0.17964312702E+03 -0.22207094885E+03  0.37165995778E+03  0.25500000920E-02 0. -1.
</event>
<event>
 5   0  0.1019384E-02  0.1126452E+04  0.7818609E-02  0.9179787E-01
       -2   -1    0    0    0  501  0.00000000000E+00  0.00000000000E+00  0.22503050913E+03  0.22503050914E+03  0.25500000920E-02 0. -1.
        2   -1    0    0  501    0  0.00000000000E+00  0.00000000000E+00 -0.14096907648E+04  0.14096907648E+04  0.25500000920E-02 0.  1.
    10030    2    1    2    0    0  0.00000000000E+00  0.00000000000E+00 -0.11846602557E+04  0.16347212740E+04  0.11264518286E+04 0.  0.
        1    1    3    3  502    0  0.14717669415E+03  0.17715142903E+03  0.15357039585E+03  0.27681668053E+03  0.50400001928E-02 0. -1.
       -1    1    3    3    0  502 -0.14717669415E+03 -0.17715142903E+03 -0.13382306515E+04  0.13579045934E+04  0.50400001928E-02 0.  1.
</event>
<event>
 5   0  0.1028016E-02  0.1126789E+04  0.7818609E-02  0.9179468E-01
        2   -1    0    0  501    0  0.00000000000E+00  0.00000000000E+00  0.97017025983E+03  0.97017025984E+03  0.25500000920E-02 0.  1.
       -2   -1    0    0    0  501  0.00000000000E+00  0.00000000000E+00 -0.32717286104E+03  0.32717286105E+03  0.25500000920E-02 0. -1.
    10030    2    1    2    0    0  0.00000000000E+00  0.00000000000E+00  0.64299739879E+03  0.12973431209E+04  0.11267890301E+04 0.  0.
        2    1    3    3  502    0 -0.81219179072E+02 -0.40353846214E+03  0.76439725739E+03  0.86818374356E+03  0.25500000920E-02 0.  1.
       -2    1    3    3    0  502  0.81219179072E+02  0.40353846214E+03 -0.12139985859E+03  0.42915937733E+03  0.25500000920E-02 0. -1.
</event>
<event>
 5   0  0.5789905E-03  0.9944220E+03  0.7818609E-02  0.9314684E-01
       -1   -1    0    0    0  501  0.00000000000E+00  0.00000000000E+00  0.28541359046E+03  0.28541359050E+03  0.50400001928E-02 0. -1.
        1   -1    0    0  501    0  0.00000000000E+00  0.00000000000E+00 -0.86617732943E+03  0.86617732944E+03  0.50400001928E-02 0.  1.
    10030    2    1    2    0    0  0.00000000000E+00  0.00000000000E+00 -0.58076373897E+03  0.11515909199E+04  0.99442200619E+03 0.  0.
        1    1    3    3  502    0  0.24253510925E+03 -0.41759270728E+03 -0.15330158899E+03  0.50666391781E+03  0.50400001928E-02 0.  1.
       -1    1    3    3    0  502 -0.24253510925E+03  0.41759270728E+03 -0.42746214998E+03  0.64492700214E+03  0.50400001928E-02 0. -1.
</event>
<event>
 5   0  0.5958706E-03  0.1060288E+04  0.7818609E-02  0.9244786E-01
       -1   -1    0    0    0  501  0.00000000000E+00  0.00000000000E+00  0.27925676515E+03  0.27925676519E+03  0.50400001928E-02 0. -1.
        1   -1    0    0  501    0  0.00000000000E+00  0.00000000000E+00 -0.10064318952E+04  0.10064318952E+04  0.50400001928E-02 0.  1.
    10030    2    1    2    0    0  0.00000000000E+00  0.00000000000E+00 -0.72717513007E+03  0.12856886604E+04  0.10602884804E+04 0.  0.
        2    1    3    3  502    0 -0.11919170998E+03  0.30196119834E+03 -0.87181164577E+03  0.93029176860E+03  0.25500000920E-02 0.  1.
       -2    1    3    3    0  502  0.11919170998E+03 -0.30196119834E+03  0.14463651570E+03  0.35539689182E+03  0.25500000920E-02 0. -1.
</event>
<event>
 5   0  0.5854579E-03  0.9496607E+03  0.7818609E-02  0.9365547E-01
        1   -1    0    0  501    0  0.00000000000E+00  0.00000000000E+00  0.54190782855E+03  0.54190782857E+03  0.50400001928E-02 0. -1.
       -1   -1    0    0    0  501  0.00000000000E+00  0.00000000000E+00 -0.41605572109E+03  0.41605572112E+03  0.50400001928E-02 0.  1.
    10030    2    1    2    0    0  0.00000000000E+00  0.00000000000E+00  0.12585210745E+03  0.95796354969E+03  0.94966068129E+03 0.  0.
        4    1    3    3  502    0  0.29379683845E+03  0.14177806979E+03 -0.28511898165E+03  0.43325748690E+03  0.12699999809E+01 0.  1.
       -4    1    3    3    0  502 -0.29379683845E+03 -0.14177806979E+03  0.41097108910E+03  0.52470606280E+03  0.12699999809E+01 0. -1.
</event>
<event>
 5   0  0.5712664E-03  0.1063584E+04  0.7818609E-02  0.9241431E-01
        1   -1    0    0  501    0  0.00000000000E+00  0.00000000000E+00  0.12642909372E+04  0.12642909372E+04  0.50400001928E-02 0. -1.
       -1   -1    0    0    0  501  0.00000000000E+00  0.00000000000E+00 -0.22368481304E+03  0.22368481310E+03  0.50400001928E-02 0.  1.
    10030    2    1    2    0    0  0.00000000000E+00  0.00000000000E+00  0.10406061241E+04  0.14879757503E+04  0.10635839073E+04 0.  0.
        5    1    3    3  502    0 -0.11921509467E+03 -0.24211569294E+02  0.12445339313E+04  0.12504740041E+04  0.46999998093E+01 0. -1.
       -5    1    3    3    0  502  0.11921509467E+03  0.24211569294E+02 -0.20392780717E+03  0.23750174614E+03  0.46999998093E+01 0.  1.
</event>
<event>
 5   0  0.9719260E-03  0.9252751E+03  0.7818609E-02  0.9394526E-01
        2   -1    0    0  501    0  0.00000000000E+00  0.00000000000E+00  0.89473247006E+03  0.89473247006E+03  0.25500000920E-02 0. -1.
       -2   -1    0    0    0  501  0.00000000000E+00  0.00000000000E+00 -0.23921510821E+03  0.23921510823E+03  0.25500000920E-02 0.  1.
    10030    2    1    2    0    0  0.00000000000E+00  0.00000000000E+00  0.65551736184E+03  0.11339475783E+04  0.92527514752E+03 0.  0.
        3    1    3    3  502    0 -0.86713615796E+02  0.34544392512E+03  0.68961601730E+03  0.77615785642E+03  0.10100000352E+00 0. -1.
       -3    1    3    3    0  502  0.86713615796E+02 -0.34544392512E+03 -0.34098655461E+02  0.35778972186E+03  0.10100000352E+00 0.  1.
</event>
<event>
 5   0  0.3949750E-03  0.1106231E+04  0.7818609E-02  0.9199140E-01
       -3   -1    0    0    0  501  0.00000000000E+00  0.00000000000E+00  0.12496284248E+04  0.12496284289E+04  0.10100000352E+00 0. -1.
        3   -1    0    0  501    0  0.00000000000E+00  0.00000000000E+00 -0.24482231218E+03  0.24482233302E+03  0.10100000352E+00 0.  1.
    10030    2    1    2    0    0  0.00000000000E+00  0.00000000000E+00  0.10048061126E+04  0.14944507619E+04  0.11062313301E+04 0.  0.
        2    1    3    3  502    0  0.10355857863E+03  0.12574257214E+03  0.12164880697E+04  0.12273462418E+04  0.25500000920E-02 0. -1.
       -2    1    3    3    0  502 -0.10355857863E+03 -0.12574257214E+03 -0.21168195710E+03  0.26710452003E+03  0.25500000920E-02 0.  1.
</event>
<event>
 5   0  0.9719260E-03  0.1076324E+04  0.7818609E-02  0.9228581E-01
       -2   -1    0    0    0  501  0.00000000000E+00  0.00000000000E+00  0.14898251816E+03  0.14898251818E+03  0.25500000920E-02 0.  1.
        2   -1    0    0  501    0  0.00000000000E+00  0.00000000000E+00 -0.19439744804E+04  0.19439744804E+04  0.25500000920E-02 0. -1.
    10030    2    1    2    0    0  0.00000000000E+00  0.00000000000E+00 -0.17949919623E+04  0.20929569986E+04  0.10763237679E+04 0.  0.
        3    1    3    3  502    0 -0.65523521062E+02  0.44473157941E+03 -0.14728264911E+04  0.15399017477E+04  0.10100000352E+00 0. -1.
       -3    1    3    3    0  502  0.65523521062E+02 -0.44473157941E+03 -0.32216547119E+03  0.55305525092E+03  0.10100000352E+00 0.  1.
</event>
<event>
 5   0  0.5998641E-03  0.1105896E+04  0.7818609E-02  0.9199465E-01
       -1   -1    0    0    0  501  0.00000000000E+00  0.00000000000E+00  0.64870144453E+03  0.64870144455E+03  0.50400001928E-02 0.  1.
        1   -1    0    0  501    0  0.00000000000E+00  0.00000000000E+00 -0.47132821787E+03  0.47132821790E+03  0.50400001928E-02 0. -1.
    10030    2    1    2    0    0  0.00000000000E+00  0.00000000000E+00  0.17737322666E+03  0.11200296624E+04  0.11058956475E+04 0.  0.
        3    1    3    3  502    0 -0.40683080590E+03  0.29307739845E+03  0.32478751603E+03  0.59740489359E+03  0.10100000352E+00 0.  1.
       -3    1    3    3    0  502  0.40683080590E+03 -0.29307739845E+03 -0.14741428937E+03  0.52262476886E+03  0.10100000352E+00 0. -1.
</event>
<event>
 5   0  0.5958706E-03  0.1109179E+04  0.7818609E-02  0.9196291E-01
       -1   -1    0    0    0  501  0.00000000000E+00  0.00000000000E+00  0.23742201629E+03  0.23742201634E+03  0.50400001928E-02 0. -1.
        1   -1    0    0  501    0  0.00000000000E+00  0.00000000000E+00 -0.12954546156E+04  0.12954546156E+04  0.50400001928E-02 0.  1.
    10030    2    1    2    0    0  0.00000000000E+00  0.00000000000E+00 -0.10580325993E+04  0.15328766319E+04  0.11091788799E+04 0.  0.
        2    1    3    3  502    0  0.45167721572E+03 -0.31740479895E+03 -0.45574029528E+03  0.71586125076E+03  0.25500000920E-02 0. -1.
       -2    1    3    3    0  502 -0.45167721572E+03  0.31740479895E+03 -0.60229230403E+03  0.81701538118E+03  0.25500000920E-02 0.  1.
</event>
<event>
 5   0  0.5712664E-03  0.1073537E+04  0.7818609E-02  0.9231376E-01
        1   -1    0    0  501    0  0.00000000000E+00  0.00000000000E+00  0.54143375051E+03  0.54143375053E+03  0.50400001928E-02 0.  1.
       -1   -1    0    0    0  501  0.00000000000E+00  0.00000000000E+00 -0.53214317933E+03  0.53214317935E+03  0.50400001928E-02 0. -1.
    10030    2    1    2    0    0  0.00000000000E+00  0.00000000000E+00  0.92905711770E+01  0.10735769299E+04  0.10735367295E+04 0.  0.
        5    1    3    3  502    0 -0.98526896529E+02  0.17041054745E+03  0.50401444608E+03  0.54110992957E+03  0.46999998093E+01 0.  1.
       -5    1    3    3    0  502  0.98526896529E+02 -0.17041054745E+03 -0.49472387491E+03  0.53246700031E+03  0.46999998093E+01 0. -1.
</event>
<event>
 5   0  0.9925021E-03  0.1116133E+04  0.7818609E-02  0.9189608E-01
       -2   -1    0    0    0  501  0.00000000000E+00  0.00000000000E+00  0.32399933531E+03  0.32399933532E+03  0.25500000920E-02 0.  1.
        2   -1    0    0  501    0  0.00000000000E+00  0.00000000000E+00 -0.96123170185E+03  0.96123170185E+03  0.25500000920E-02 0. -1.
    10030    2    1    2    0    0  0.00000000000E+00  0.00000000000E+00 -0.63723236654E+03  0.12852310372E+04  0.11161333836E+04 0.  0.
        4    1    3    3  502    0  0.23095606218E+03 -0.25667691771E+03  0.18622708787E+03  0.39230840407E+03  0.12699999809E+01 0.  1.
       -4    1    3    3    0  502 -0.23095606218E+03  0.25667691771E+03 -0.82345945441E+03  0.89292263310E+03  0.12699999809E+01 0. -1.
</event>
<event>
 5   0  0.9925021E-03  0.1121018E+04  0.7818609E-02  0.9184945E-01
        2   -1    0    0  501    0  0.00000000000E+00  0.00000000000E+00  0.19103376710E+04  0.19103376710E+04  0.25500000920E-02 0.  1.
       -2   -1    0    0    0  501  0.00000000000E+00  0.00000000000E+00 -0.16445801592E+03  0.16445801594E+03  0.25500000920E-02 0. -1.
    10030    2    1    2    0    0  0.00000000000E+00  0.00000000000E+00  0.17458796551E+04  0.20747956870E+04  0.11210180072E+04 0.  0.
        4    1    3    3  502    0  0.29105815184E+03  0.21335666727E+03  0.16667055789E+04  0.17053284185E+04  0.12699999809E+01 0.  1.
       -4    1    3    3    0  502 -0.29105815184E+03 -0.21335666727E+03  0.79174076159E+02  0.36946726845E+03  0.12699999809E+01 0. -1.
</event>
<event>
 5   0  0.9719260E-03  0.9346966E+03  0.7818609E-02  0.9383219E-01
       -2   -1    0    0    0  501  0.00000000000E+00  0.00000000000E+00  0.51595952534E+03  0.51595952535E+03  0.25500000920E-02 0. -1.
        2   -1    0    0  501    0  0.00000000000E+00  0.00000000000E+00 -0.42331702228E+03  0.42331702229E+03  0.25500000920E-02 0.  1.
    10030    2    1    2    0    0  0.00000000000E+00  0.00000000000E+00  0.92642503062E+02  0.93927654763E+03  0.93469663504E+03 0.  0.
        3    1    3    3  502    0 -0.21575694727E+03  0.36515472280E+03  0.24356190008E+03  0.48909246697E+03  0.10100000352E+00 0.  1.
       -3    1    3    3    0  502  0.21575694727E+03 -0.36515472280E+03 -0.15091939702E+03  0.45018408066E+03  0.10100000352E+00 0. -1.
</event>
<event>
 5   0  0.5854579E-03  0.1068719E+04  0.7818609E-02  0.9236229E-01
       -1   -1    0    0    0  501  0.00000000000E+00  0.00000000000E+00  0.31284497706E+03  0.31284497710E+03  0.50400001928E-02 0. -1.
        1   -1    0    0  501    0  0.00000000000E+00  0.00000000000E+00 -0.91272014084E+03  0.91272014085E+03  0.50400001928E-02 0.  1.
    10030    2    1    2    0    0  0.00000000000E+00  0.00000000000E+00 -0.59987516378E+03  0.12255651180E+04  0.10687186937E+04 0.  0.
        4    1    3    3  502    0 -0.38882478713E+03  0.22208235897E+03  0.34462796585E+02  0.44910420450E+03  0.12699999809E+01 0. -1.
       -4    1    3    3    0  502  0.38882478713E+03 -0.22208235897E+03 -0.63433796036E+03  0.77646091345E+03  0.12699999809E+01 0.  1.
</event>
<event>
 5   0  0.9925021E-03  0.1134241E+04  0.7818609E-02  0.9172447E-01
        2   -1    0    0  501    0  0.00000000000E+00  0.00000000000E+00  0.13918662969E+04  0.13918662969E+04  0.25500000920E-02 0.  1.
       -2   -1    0    0    0  501  0.00000000000E+00  0.00000000000E+00 -0.23107492528E+03  0.23107492529E+03  0.25500000920E-02 0. -1.
    10030    2    1    2    0    0  0.00000000000E+00  0.00000000000E+00  0.11607913716E+04  0.16229412222E+04  0.11342405398E+04 0.  0.
        4    1    3    3  502    0 -0.51355792828E+03  0.29042394902E+02  0.92212480163E+03  0.10558887106E+04  0.12699999809E+01 0.  1.
       -4    1    3    3    0  502  0.51355792828E+03 -0.29042394902E+02  0.23866656998E+03  0.56705251162E+03  0.12699999809E+01 0. -1.
</event>
<event>
 5   0  0.5854579E-03  0.1110896E+04  0.7818609E-02  0.9194636E-01
       -1   -1    0    0    0  501  0.00000000000E+00  0.00000000000E+00  0.30059431630E+03  0.30059431634E+03  0.50400001928E-02 0. -1.
        1   -1    0    0  501    0  0.00000000000E+00  0.00000000000E+00 -0.10263758631E+04  0.10263758631E+04  0.50400001928E-02 0.  1.
    10030    2    1    2    0    0  0.00000000000E+00  0.00000000000E+00 -0.72578154676E+03  0.13269701794E+04  0.11108964864E+04 0.  0.
        4    1    3    3  502    0 -0.20774131354E+03 -0.47161429558E+03 -0.11535267098E+03  0.52809501868E+03  0.12699999809E+01 0. -1.
       -4    1    3    3    0  502  0.20774131354E+03  0.47161429558E+03 -0.61042887578E+03  0.79887516073E+03  0.12699999809E+01 0.  1.
</event>
<event>
 5   0  0.1019384E-02  0.1096894E+04  0.7818609E-02  0.9208225E-01
        2   -1    0    0  501    0  0.00000000000E+00  0.00000000000E+00  0.54382059491E+03  0.54382059491E+03  0.25500000920E-02 0.  1.
       -2   -1    0    0    0  501  0.00000000000E+00  0.00000000000E+00 -0.55311235416E+03  0.55311235417E+03  0.25500000920E-02 0. -1.
    10030    2    1    2    0    0  0.00000000000E+00  0.00000000000E+00 -0.92917592529E+01  0.10969329491E+04  0.10968935947E+04 0.  0.
        1    1    3    3  502    0  0.37778169915E+03 -0.20280770651E+03  0.33733701912E+03  0.54556964957E+03  0.50400001928E-02 0.  1.
       -1    1    3    3    0  502 -0.37778169915E+03  0.20280770651E+03 -0.34662877838E+03  0.55136329952E+03  0.50400001928E-02 0. -1.
</event>
<event>
 5   0  0.9692981E-03  0.1083631E+04  0.7818609E-02  0.9221295E-01
       -2   -1    0    0    0  501  0.00000000000E+00  0.00000000000E+00  0.24346820917E+03  0.24346820918E+03  0.25500000920E-02 0.  1.
        2   -1    0    0  501    0  0.00000000000E+00  0.00000000000E+00 -0.12057586478E+04  0.12057586478E+04  0.25500000920E-02 0. -1.
    10030    2    1    2    0    0  0.00000000000E+00  0.00000000000E+00 -0.96229043865E+03  0.14492268570E+04  0.10836307465E+04 0.  0.
        5    1    3    3  502    0 -0.54109471273E+03 -0.26347798206E+00 -0.51797181610E+03  0.74906638546E+03  0.46999998093E+01 0. -1.
       -5    1    3    3    0  502  0.54109471273E+03  0.26347798206E+00 -0.44431862256E+03  0.70016047154E+03  0.46999998093E+01 0.  1.
</event>
<event>
 5   0  0.5854579E-03  0.1096504E+04  0.7818609E-02  0.9208606E-01
        1   -1    0    0  501    0  0.00000000000E+00  0.00000000000E+00  0.12926593143E+04  0.12926593143E+04  0.50400001928E-02 0. -1.
       -1   -1    0    0    0  501  0.00000000000E+00  0.00000000000E+00 -0.23252862452E+03  0.23252862457E+03  0.50400001928E-02 0.  1.
    10030    2    1    2    0    0  0.00000000000E+00  0.00000000000E+00  0.10601306898E+04  0.15251879389E+04  0.10965040673E+04 0.  0.
        4    1    3    3  502    0 -0.54603456956E+03  0.81964941437E+01  0.46252525929E+03  0.71564807136E+03  0.12699999809E+01 0.  1.
       -4    1    3    3    0  502  0.54603456956E+03 -0.81964941437E+01  0.59760543053E+03  0.80953986756E+03  0.12699999809E+01 0. -1.
</event>
<event>
 5   0  0.5854579E-03  0.1125779E+04  0.7818609E-02  0.9180424E-01
        1   -1    0    0  501    0  0.00000000000E+00  0.00000000000E+00  0.24381905270E+03  0.24381905275E+03  0.50400001928E-02 0. -1.
       -1   -1    0    0    0  501  0.00000000000E+00  0.00000000000E+00 -0.12995061338E+04  0.12995061338E+04  0.50400001928E-02 0.  1.
    10030    2    1    2    0    0  0.00000000000E+00  0.00000000000E+00 -0.10556870811E+04  0.15433251865E+04  0.11257785831E+04 0.  0.
        4    1    3    3  502    0  0.48015417987E+03 -0.18982634376E+03 -0.83518317769E+03  0.98189339056E+03  0.12699999809E+01 0.  1.
       -4    1    3    3    0  502 -0.48015417987E+03  0.18982634376E+03 -0.22050390340E+03  0.56143179598E+03  0.12699999809E+01 0. -1.
</event>
<event>
 5   0  0.5854579E-03  0.7764718E+03  0.7818609E-02  0.9594712E-01
       -1   -1    0    0    0  501  0.00000000000E+00  0.00000000000E+00  0.18319452390E+03  0.18319452396E+03  0.50400001928E-02 0. -1.
        1   -1    0    0  501    0  0.00000000000E+00  0.00000000000E+00 -0.82277082985E+03  0.82277082987E+03  0.50400001928E-02 0.  1.
    10030    2    1    2    0    0  0.00000000000E+00  0.00000000000E+00 -0.63957630596E+03  0.10059653538E+04  0.77647179084E+03 0.  0.
        4    1    3    3  502    0 -0.31324545087E+03  0.18909387220E+03 -0.15163325925E+03  0.39607254791E+03  0.12699999809E+01 0. -1.
       -4    1    3    3    0  502  0.31324545087E+03 -0.18909387220E+03 -0.48794304671E+03  0.60989280593E+03  0.12699999809E+01 0.  1.
</event>
<event>
 5   0  0.9925021E-03  0.1075985E+04  0.7818609E-02  0.9228919E-01
        2   -1    0    0  501    0  0.00000000000E+00  0.00000000000E+00  0.88355795655E+03  0.88355795655E+03  0.25500000920E-02 0.  1.
       -2   -1    0    0    0  501  0.00000000000E+00  0.00000000000E+00 -0.32758032083E+03  0.32758032084E+03  0.25500000920E-02 0. -1.
    10030    2    1    2    0    0  0.00000000000E+00  0.00000000000E+00  0.55597763572E+03  0.12111382774E+04  0.10759854997E+04 0.  0.
        4    1    3    3  502    0  0.18494608217E+03 -0.20468473769E+03 -0.24190785106E+03  0.36690859414E+03  0.12699999809E+01 0. -1.
       -4    1    3    3    0  502 -0.18494608217E+03  0.20468473769E+03  0.79788548678E+03  0.84422968324E+03  0.12699999809E+01 0.  1.
</event>
<event>
 5   0  0.5789905E-03  0.8643389E+03  0.7818609E-02  0.9471291E-01
        1   -1    0    0  501    0  0.00000000000E+00  0.00000000000E+00  0.36827171274E+03  0.36827171278E+03  0.50400001928E-02 0. -1.
       -1   -1    0    0    0  501  0.00000000000E+00  0.00000000000E+00 -0.50715394717E+03  0.50715394719E+03  0.50400001928E-02 0.  1.
    10030    2    1    2    0    0  0.00000000000E+00  0.00000000000E+00 -0.13888223443E+03  0.87542565997E+03  0.86433894457E+03 0.  0.
        1    1    3    3  502    0  0.13371310658E+03  0.18350759332E+03 -0.44187534579E+03  0.49679779883E+03  0.50400001928E-02 0.  1.
       -1    1    3    3    0  502 -0.13371310658E+03 -0.18350759332E+03  0.30299311136E+03  0.37862786115E+03  0.50400001928E-02 0. -1.
</event>
<event>
 5   0  0.1019384E-02  0.1073705E+04  0.7818609E-02  0.9231207E-01
        2   -1    0    0  501    0  0.00000000000E+00  0.00000000000E+00  0.20344598327E+04  0.20344598327E+04  0.25500000920E-02 0. -1.
       -2   -1    0    0    0  501  0.00000000000E+00  0.00000000000E+00 -0.14166444312E+03  0.14166444315E+03  0.25500000920E-02 0.  1.
    10030    2    1    2    0    0  0.00000000000E+00  0.00000000000E+00  0.18927953896E+04  0.21761242759E+04  0.10737050233E+04 0.  0.
        1    1    3    3  502    0 -0.30050337259E+03 -0.44019394337E+03  0.81602856301E+03  0.97466691767E+03  0.50400001928E-02 0.  1.
       -1    1    3    3    0  502  0.30050337259E+03  0.44019394337E+03  0.10767668266E+04  0.12014573582E+04  0.50400001928E-02 0. -1.
</event>
<event>
 5   0  0.5712664E-03  0.1090130E+04  0.7818609E-02  0.9214866E-01
        1   -1    0    0  501    0  0.00000000000E+00  0.00000000000E+00  0.38208138456E+03  0.38208138459E+03  0.50400001928E-02 0.  1.
       -1   -1    0    0    0  501  0.00000000000E+00  0.00000000000E+00 -0.77757160930E+03  0.77757160932E+03  0.50400001928E-02 0. -1.
    10030    2    1    2    0    0  0.00000000000E+00  0.00000000000E+00 -0.39549022474E+03  0.11596529939E+04  0.10901296017E+04 0.  0.
        5    1    3    3  502    0  0.30136736080E+03  0.41313068162E+03  0.28951594945E+01  0.51139976359E+03  0.46999998093E+01 0.  1.
       -5    1    3    3    0  502 -0.30136736080E+03 -0.41313068162E+03 -0.39838538424E+03  0.64825323032E+03  0.46999998093E+01 0. -1.
</event>
<event>
 5   0  0.5712664E-03  0.1133664E+04  0.7818609E-02  0.9172988E-01
        1   -1    0    0  501    0  0.00000000000E+00  0.00000000000E+00  0.41154818603E+03  0.41154818606E+03  0.50400001928E-02 0. -1.
       -1   -1    0    0    0  501  0.00000000000E+00  0.00000000000E+00 -0.78070701008E+03  0.78070701010E+03  0.50400001928E-02 0.  1.
    10030    2    1    2    0    0  0.00000000000E+00  0.00000000000E+00 -0.36915882405E+03  0.11922551962E+04  0.11336640664E+04 0.  0.
        5    1    3    3  502    0  0.20589980756E+03  0.36215123683E+03  0.21963944301E+03  0.47096902660E+03  0.46999998093E+01 0. -1.
       -5    1    3    3    0  502 -0.20589980756E+03 -0.36215123683E+03 -0.58879826706E+03  0.72128616955E+03  0.46999998093E+01 0.  1.
</event>
<event>
 5   0  0.9719260E-03  0.1083657E+04  0.7818609E-02  0.9221269E-01
        2   -1    0    0  501    0  0.00000000000E+00  0.00000000000E+00  0.11760623251E+04  0.11760623251E+04  0.25500000920E-02 0.  1.
       -2   -1    0    0    0  501  0.00000000000E+00  0.00000000000E+00 -0.24962818238E+03  0.24962818239E+03  0.25500000920E-02 0. -1.
    10030    2    1    2    0    0  0.00000000000E+00  0.00000000000E+00  0.92643414274E+03  0.14256905075E+04  0.10836573270E+04 0.  0.
        3    1    3    3  502    0 -0.26013500186E+03 -0.18739983633E+03 -0.11144214476E+03  0.33942345186E+03  0.10100000352E+00 0. -1.
       -3    1    3    3    0  502  0.26013500186E+03  0.18739983633E+03  0.10378762875E+04  0.10862670557E+04  0.10100000352E+00 0.  1.
</event>
<event>
 5   0  0.5789905E-03  0.1034851E+04  0.7818609E-02  0.9271126E-01
       -1   -1    0    0    0  501  0.00000000000E+00  0.00000000000E+00  0.69119430247E+03  0.69119430249E+03  0.50400001928E-02 0. -1.
        1   -1    0    0  501    0  0.00000000000E+00  0.00000000000E+00 -0.38734285248E+03  0.38734285251E+03  0.50400001928E-02 0.  1.
    10030    2    1    2    0    0  0.00000000000E+00  0.00000000000E+00  0.30385144999E+03  0.10785371550E+04  0.10348510478E+04 0.  0.
        1    1    3    3  502    0  0.46972330162E+03 -0.16151350685E+03  0.88516455013E+00  0.49671659578E+03  0.50400001928E-02 0.  1.
       -1    1    3    3    0  502 -0.46972330162E+03  0.16151350685E+03  0.30296628544E+03  0.58182055921E+03  0.50400001928E-02 0. -1.
</event>
<event>
 5   0  0.5712664E-03  0.1127603E+04  0.7818609E-02  0.9178698E-01
        1   -1    0    0  501    0  0.00000000000E+00  0.00000000000E+00  0.60466479686E+03  0.60466479688E+03  0.50400001928E-02 0.  1.
       -1   -1    0    0    0  501  0.00000000000E+00  0.00000000000E+00 -0.52570001626E+03  0.52570001628E+03  0.50400001928E-02 0. -1.
    10030    2    1    2    0    0  0.00000000000E+00  0.00000000000E+00  0.78964780604E+02  0.11303648132E+04  0.11276032876E+04 0.  0.
        5    1    3    3  502    0 -0.26115987245E+03  0.13650906588E+03 -0.44233073449E+03  0.53152400954E+03  0.46999998093E+01 0. -1.
       -5    1    3    3    0  502  0.26115987245E+03 -0.13650906588E+03  0.52129551509E+03  0.59884080363E+03  0.46999998093E+01 0.  1.
</event>
<event>
 5   0  0.3949750E-03  0.1062598E+04  0.7818609E-02  0.9242434E-01
       -3   -1    0    0    0  501  0.00000000000E+00  0.00000000000E+00  0.19741104763E+03  0.19741107346E+03  0.10100000352E+00 0. -1.
        3   -1    0    0  501    0  0.00000000000E+00  0.00000000000E+00 -0.14299018520E+04  0.14299018555E+04  0.10100000352E+00 0.  1.
    10030    2    1    2    0    0  0.00000000000E+00  0.00000000000E+00 -0.12324908043E+04  0.16273129290E+04  0.10625976596E+04 0.  0.
        4    1    3    3  502    0 -0.12586643542E+03  0.15612514018E+03 -0.13697106208E+04  0.13843143489E+04  0.12699999809E+01 0.  1.
       -4    1    3    3    0  502  0.12586643542E+03 -0.15612514018E+03  0.13721981651E+03  0.24299858004E+03  0.12699999809E+01 0. -1.
</event>
<event>
 5   0  0.9692981E-03  0.1030432E+04  0.7818609E-02  0.9275783E-01
       -2   -1    0    0    0  501  0.00000000000E+00  0.00000000000E+00  0.34048935342E+03  0.34048935343E+03  0.25500000920E-02 0. -1.
        2   -1    0    0  501    0  0.00000000000E+00  0.00000000000E+00 -0.77960574680E+03  0.77960574680E+03  0.25500000920E-02 0.  1.
    10030    2    1    2    0    0  0.00000000000E+00  0.00000000000E+00 -0.43911639338E+03  0.11200951002E+04  0.10304318641E+04 0.  0.
        5    1    3    3  502    0 -0.27318452492E+03  0.42081948852E+03 -0.92295964095E+02  0.51015631090E+03  0.46999998093E+01 0.  1.
       -5    1    3    3    0  502  0.27318452492E+03 -0.42081948852E+03 -0.34682042928E+03  0.60993878933E+03  0.46999998093E+01 0. -1.
</event>
<event>
 5   0  0.5789905E-03  0.1074685E+04  0.7818609E-02  0.9230223E-01
       -1   -1    0    0    0  501  0.00000000000E+00  0.00000000000E+00  0.80955367684E+03  0.80955367685E+03  0.50400001928E-02 0. -1.
        1   -1    0    0  501    0  0.00000000000E+00  0.00000000000E+00 -0.35666159379E+03  0.35666159382E+03  0.50400001928E-02 0.  1.
    10030    2    1    2    0    0  0.00000000000E+00  0.00000000000E+00  0.45289208305E+03  0.11662152707E+04  0.10746845205E+04 0.  0.
        1    1    3    3  502    0  0.34239474464E+03  0.36758811344E+03  0.43343070340E+03  0.66348877683E+03  0.50400001928E-02 0. -1.
       -1    1    3    3    0  502 -0.34239474464E+03 -0.36758811344E+03  0.19461379650E+02  0.50272649385E+03  0.50400001928E-02 0.  1.
</event>
<event>
 5   0  0.5712664E-03  0.1083829E+04  0.7818609E-02  0.9221098E-01
       -1   -1    0    0    0  501  0.00000000000E+00  0.00000000000E+00  0.22096842239E+03  0.22096842245E+03  0.50400001928E-02 0. -1.
        1   -1    0    0  501    0  0.00000000000E+00  0.00000000000E+00 -0.13290201409E+04  0.13290201409E+04  0.50400001928E-02 0.  1.
    10030    2    1    2    0    0  0.00000000000E+00  0.00000000000E+00 -0.11080517185E+04  0.15499885633E+04  0.10838292927E+04 0.  0.
        5    1    3    3  502    0  0.23066203896E+03  0.45364799439E+03 -0.28782701773E+03  0.58469475896E+03  0.46999998093E+01 0.  1.
       -5    1    3    3    0  502 -0.23066203896E+03 -0.45364799439E+03 -0.82022470075E+03  0.96529380436E+03  0.46999998093E+01 0. -1.
</event>
<event>
 5   0  0.5789905E-03  0.9980197E+03  0.7818609E-02  0.9310719E-01
        1   -1    0    0  501    0  0.00000000000E+00  0.00000000000E+00  0.12186299258E+04  0.12186299258E+04  0.50400001928E-02 0. -1.
       -1   -1    0    0    0  501  0.00000000000E+00  0.00000000000E+00 -0.20433672788E+03  0.20433672795E+03  0.50400001928E-02 0.  1.
    10030    2    1    2    0    0  0.00000000000E+00  0.00000000000E+00  0.10142931979E+04  0.14229666537E+04  0.99801974246E+03 0.  0.
        1    1    3    3  502    0  0.18400364563E+03 -0.19203421855E+03 -0.94861702817E+02  0.28237072331E+03  0.50400001928E-02 0.  1.
       -1    1    3    3    0  502 -0.18400364563E+03  0.19203421855E+03  0.11091549007E+04  0.11405959304E+04  0.50400001928E-02 0. -1.
</event>
<event>
 5   0  0.9925021E-03  0.1133274E+04  0.7818609E-02  0.9173354E-01
       -2   -1    0    0    0  501  0.00000000000E+00  0.00000000000E+00  0.69622497302E+03  0.69622497303E+03  0.25500000920E-02 0. -1.
        2   -1    0    0  501    0  0.00000000000E+00  0.00000000000E+00 -0.46116949804E+03  0.46116949804E+03  0.25500000920E-02 0.  1.
    10030    2    1    2    0    0  0.00000000000E+00  0.00000000000E+00  0.23505547499E+03  0.11573944711E+04  0.11332744087E+04 0.  0.
        4    1    3    3  502    0 -0.54972019873E+02  0.56338020381E+03  0.14370392189E+03  0.58401336207E+03  0.12699999809E+01 0.  1.
       -4    1    3    3    0  502  0.54972019873E+02 -0.56338020381E+03  0.91351553094E+02  0.57338110900E+03  0.12699999809E+01 0. -1.
</event>
<event>
 5   0  0.5958706E-03  0.1090482E+04  0.7818609E-02  0.9214518E-01
       -1   -1    0    0    0  501  0.00000000000E+00  0.00000000000E+00  0.39485640413E+03  0.39485640417E+03  0.50400001928E-02 0.  1.
        1   -1    0    0  501    0  0.00000000000E+00  0.00000000000E+00 -0.75290150280E+03  0.75290150281E+03  0.50400001928E-02 0. -1.
    10030    2    1    2    0    0  0.00000000000E+00  0.00000000000E+00 -0.35804509866E+03  0.11477579070E+04  0.10904824255E+04 0.  0.
        2    1    3    3  502    0 -0.23888406226E+03  0.58946321518E+02 -0.69114583310E+03  0.73363671299E+03  0.25500000920E-02 0. -1.
       -2    1    3    3    0  502  0.23888406226E+03 -0.58946321518E+02  0.33310073444E+03  0.41412119399E+03  0.25500000920E-02 0.  1.
</event>
<event>
 5   0  0.5712664E-03  0.1123440E+04  0.7818609E-02  0.9182642E-01
        1   -1    0    0  501    0  0.00000000000E+00  0.00000000000E+00  0.97214365184E+03  0.97214365186E+03  0.50400001928E-02 0.  1.
       -1   -1    0    0    0  501  0.00000000000E+00  0.00000000000E+00 -0.32457061396E+03  0.32457061400E+03  0.50400001928E-02 0. -1.
    10030    2    1    2    0    0  0.00000000000E+00  0.00000000000E+00  0.64757303788E+03  0.12967142659E+04  0.11234398283E+04 0.  0.
        5    1    3    3  502    0 -0.19748176679E+03  0.24438025455E+03  0.86120240986E+03  0.91674011463E+03  0.46999998093E+01 0.  1.
       -5    1    3    3    0  502  0.19748176679E+03 -0.24438025455E+03 -0.21362937198E+03  0.37997415123E+03  0.46999998093E+01 0. -1.
</event>
<event>
 5   0  0.1019384E-02  0.1092682E+04  0.7818609E-02  0.9212354E-01
       -2   -1    0    0    0  501  0.00000000000E+00  0.00000000000E+00  0.46495250770E+03  0.46495250771E+03  0.25500000920E-02 0.  1.
        2   -1    0    0  501    0  0.00000000000E+00  0.00000000000E+00 -0.64197613482E+03  0.64197613483E+03  0.25500000920E-02 0. -1.
    10030    2    1    2    0    0  0.00000000000E+00  0.00000000000E+00 -0.17702362712E+03  0.11069286425E+04  0.10926818636E+04 0.  0.
        1    1    3    3  502    0  0.53240017966E+03  0.74515203726E+02 -0.18717752107E+03  0.56924326198E+03  0.50400001928E-02 0. -1.
       -1    1    3    3    0  502 -0.53240017966E+03 -0.74515203726E+02  0.10153893953E+02  0.53768538056E+03  0.50400001928E-02 0.  1.
</event>
<event>
 5   0  0.9925021E-03  0.1099631E+04  0.7818609E-02  0.9205552E-01
       -2   -1    0    0    0  501  0.00000000000E+00  0.00000000000E+00  0.26795792842E+03  0.26795792843E+03  0.25500000920E-02 0.  1.
        2   -1    0    0  501    0  0.00000000000E+00  0.00000000000E+00 -0.11281503667E+04  0.11281503667E+04  0.25500000920E-02 0. -1.
    10030    2    1    2    0    0  0.00000000000E+00  0.00000000000E+00 -0.86019243828E+03  0.13961082951E+04  0.10996305474E+04 0.  0.
        4    1    3    3  502    0  0.10952839659E+03  0.42015594368E+03 -0.18615060237E+01  0.43420336799E+03  0.12699999809E+01 0.  1.
       -4    1    3    3    0  502 -0.10952839659E+03 -0.42015594368E+03 -0.85833093225E+03  0.96190492713E+03  0.12699999809E+01 0. -1.
</event>
<event>
 5   0  0.9925021E-03  0.1088037E+04  0.7818609E-02  0.9216931E-01
       -2   -1    0    0    0  501  0.00000000000E+00  0.00000000000E+00  0.98742397418E+03  0.98742397418E+03  0.25500000920E-02 0. -1.
        2   -1    0    0  501    0  0.00000000000E+00  0.00000000000E+00 -0.29972538696E+03  0.29972538697E+03  0.25500000920E-02 0.  1.
    10030    2    1    2    0    0  0.00000000000E+00  0.00000000000E+00  0.68769858722E+03  0.12871493612E+04  0.10880368243E+04 0.  0.
        4    1    3    3  502    0 -0.43778982303E+03  0.20683215616E+03  0.63725981869E+03  0.80033815315E+03  0.12699999809E+01 0.  1.
       -4    1    3    3    0  502  0.43778982303E+03 -0.20683215616E+03  0.50438768533E+02  0.48681120801E+03  0.12699999809E+01 0. -1.
</event>
<event>
 5   0  0.1028016E-02  0.1094573E+04  0.7818609E-02  0.9210498E-01
       -2   -1    0    0    0  501  0.00000000000E+00  0.00000000000E+00  0.13533942734E+03  0.13533942736E+03  0.25500000920E-02 0.  1.
        2   -1    0    0  501    0  0.00000000000E+00  0.00000000000E+00 -0.22131197792E+04  0.22131197792E+04  0.25500000920E-02 0. -1.
    10030    2    1    2    0    0  0.00000000000E+00  0.00000000000E+00 -0.20777803519E+04  0.23484592066E+04  0.10945727268E+04 0.  0.
        2    1    3    3  502    0 -0.39377629678E+02  0.28222216605E+03 -0.36382835581E+02  0.28726931521E+03  0.25500000920E-02 0.  1.
       -2    1    3    3    0  502  0.39377629678E+02 -0.28222216605E+03 -0.20413975163E+04  0.20611898914E+04  0.25500000920E-02 0. -1.
</event>
<event>
 5   0  0.9719260E-03  0.1079391E+04  0.7818609E-02  0.9225515E-01
        2   -1    0    0  501    0  0.00000000000E+00  0.00000000000E+00  0.10225281671E+04  0.10225281671E+04  0.25500000920E-02 0.  1.
       -2   -1    0    0    0  501  0.00000000000E+00  0.00000000000E+00 -0.28485406721E+03  0.28485406722E+03  0.25500000920E-02 0. -1.
    10030    2    1    2    0    0  0.00000000000E+00  0.00000000000E+00  0.73767409991E+03  0.13073822343E+04  0.10793911381E+04 0.  0.
        3    1    3    3  502    0 -0.21852706601E+03 -0.24243446231E+03 -0.15176686895E+03  0.35994685692E+03  0.10100000352E+00 0. -1.
       -3    1    3    3    0  502  0.21852706601E+03  0.24243446231E+03  0.88944096886E+03  0.94743537742E+03  0.10100000352E+00 0.  1.
</event>
<event>
 5   0  0.5998641E-03  0.1092759E+04  0.7818609E-02  0.9212278E-01
        1   -1    0    0  501    0  0.00000000000E+00  0.00000000000E+00  0.75130134012E+03  0.75130134013E+03  0.50400001928E-02 0. -1.
       -1   -1    0    0    0  501  0.00000000000E+00  0.00000000000E+00 -0.39735136183E+03  0.39735136186E+03  0.50400001928E-02 0.  1.
    10030    2    1    2    0    0  0.00000000000E+00  0.00000000000E+00  0.35394997828E+03  0.11486527020E+04  0.10927590964E+04 0.  0.
        3    1    3    3  502    0  0.25466341520E+03  0.32997975029E+03  0.54830075691E+03  0.68874800970E+03  0.10100000352E+00 0. -1.
       -3    1    3    3    0  502 -0.25466341520E+03 -0.32997975029E+03 -0.19435077862E+03  0.45990469230E+03  0.10100000352E+00 0.  1.
</event>
<event>
 5   0  0.5854579E-03  0.1113408E+04  0.7818609E-02  0.9192222E-01
       -1   -1    0    0    0  501  0.00000000000E+00  0.00000000000E+00  0.28101115964E+03  0.28101115969E+03  0.50400001928E-02 0.  1.
        1   -1    0    0  501    0  0.00000000000E+00  0.00000000000E+00 -0.11028711811E+04  0.11028711812E+04  0.50400001928E-02 0. -1.
    10030    2    1    2    0    0  0.00000000000E+00  0.00000000000E+00 -0.82186002150E+03  0.13838823408E+04  0.11134075796E+04 0.  0.
        4    1    3    3  502    0  0.39183094286E+03  0.11399988172E+03 -0.88158696574E+03  0.97145491500E+03  0.12699999809E+01 0. -1.
       -4    1    3    3    0  502 -0.39183094286E+03 -0.11399988172E+03  0.59726944242E+02  0.41242742584E+03  0.12699999809E+01 0.  1.
</event>
<event>
 5   0  0.9719260E-03  0.1024171E+04  0.7818609E-02  0.9282425E-01
       -2   -1    0    0    0  501  0.00000000000E+00  0.00000000000E+00  0.14887848285E+03  0.14887848287E+03  0.25500000920E-02 0.  1.
        2   -1    0    0  501    0  0.00000000000E+00  0.00000000000E+00 -0.17613799778E+04  0.17613799778E+04  0.25500000920E-02 0. -1.
    10030    2    1    2    0    0  0.00000000000E+00  0.00000000000E+00 -0.16125014949E+04  0.19102584606E+04  0.10241710381E+04 0.  0.
        3    1    3    3  502    0  0.16022721769E+03  0.48575533334E+03 -0.76054202298E+03  0.91654524388E+03  0.10100000352E+00 0.  1.
       -3    1    3    3    0  502 -0.16022721769E+03 -0.48575533334E+03 -0.85195947194E+03  0.99371321677E+03  0.10100000352E+00 0. -1.
</event>
<event>
 5   0  0.1028016E-02  0.1044272E+04  0.7818609E-02  0.9261277E-01
       -2   -1    0    0    0  501  0.00000000000E+00  0.00000000000E+00  0.16660521707E+03  0.16660521709E+03  0.25500000920E-02 0. -1.
        2   -1    0    0  501    0  0.00000000000E+00  0.00000000000E+00 -0.16363607272E+04  0.16363607272E+04  0.25500000920E-02 0.  1.
    10030    2    1    2    0    0  0.00000000000E+00  0.00000000000E+00 -0.14697555102E+04  0.18029659443E+04  0.10442724437E+04 0.  0.
        2    1    3    3  502    0 -0.49289101007E+03 -0.39303518218E+02 -0.44525336418E+03  0.66538475536E+03  0.25500000920E-02 0. -1.
       -2    1    3    3    0  502  0.49289101007E+03  0.39303518218E+02 -0.10245021460E+04  0.11375811890E+04  0.25500000920E-02 0.  1.
</event>
<event>
 5   0  0.5789905E-03  0.1042741E+04  0.7818609E-02  0.9262871E-01
       -1   -1    0    0    0  501  0.00000000000E+00  0.00000000000E+00  0.47906492039E+03  0.47906492042E+03  0.50400001928E-02 0.  1.
        1   -1    0    0  501    0  0.00000000000E+00  0.00000000000E+00 -0.56741215227E+03  0.56741215229E+03  0.50400001928E-02 0. -1.
    10030    2    1    2    0    0  0.00000000000E+00  0.00000000000E+00 -0.88347231880E+02  0.10464770727E+04  0.10427411138E+04 0.  0.
        1    1    3    3  502    0  0.25724816623E+03  0.42145949038E+03 -0.21217271088E+03  0.53742160389E+03  0.50400001928E-02 0. -1.
       -1    1    3    3    0  502 -0.25724816623E+03 -0.42145949038E+03  0.12382547900E+03  0.50905546882E+03  0.50400001928E-02 0.  1.
</event>
<event>
 5   0  0.1019384E-02  0.1079705E+04  0.7818609E-02  0.9225202E-01
       -2   -1    0    0    0  501  0.00000000000E+00  0.00000000000E+00  0.10457027105E+04  0.10457027105E+04  0.25500000920E-02 0.  1.
        2   -1    0    0  501    0  0.00000000000E+00  0.00000000000E+00 -0.27870316613E+03  0.27870316614E+03  0.25500000920E-02 0. -1.
    10030    2    1    2    0    0  0.00000000000E+00  0.00000000000E+00  0.76699954433E+03  0.13244058766E+04  0.10797048786E+04 0.  0.
        1    1    3    3  502    0 -0.45945944911E+02 -0.20905321321E+03  0.99142972208E+03  0.10142717435E+04  0.50400001928E-02 0.  1.
       -1    1    3    3    0  502  0.45945944911E+02  0.20905321321E+03 -0.22443017775E+03  0.31013413311E+03  0.50400001928E-02 0. -1.
</event>
<event>
 5   0  0.5958706E-03  0.1088253E+04  0.7818609E-02  0.9216718E-01
        1   -1    0    0  501    0  0.00000000000E+00  0.00000000000E+00  0.91432854113E+03  0.91432854114E+03  0.50400001928E-02 0.  1.
       -1   -1    0    0    0  501  0.00000000000E+00  0.00000000000E+00 -0.32381524653E+03  0.32381524657E+03  0.50400001928E-02 0. -1.
    10030    2    1    2    0    0  0.00000000000E+00  0.00000000000E+00  0.59051329460E+03  0.12381437877E+04  0.10882527684E+04 0.  0.
        2    1    3    3  502    0  0.23926811410E+03 -0.10507673907E+03  0.83825950986E+03  0.87804860765E+03  0.25500000920E-02 0.  1.
       -2    1    3    3    0  502 -0.23926811410E+03  0.10507673907E+03 -0.24774621527E+03  0.36009518006E+03  0.25500000920E-02 0. -1.
</event>
<event>
 5   0  0.9692981E-03  0.1091670E+04  0.7818609E-02  0.9213349E-01
       -2   -1    0    0    0  501  0.00000000000E+00  0.00000000000E+00  0.26862326265E+03  0.26862326267E+03  0.25500000920E-02 0.  1.
        2   -1    0    0  501    0  0.00000000000E+00  0.00000000000E+00 -0.11091213642E+04  0.11091213642E+04  0.25500000920E-02 0. -1.
    10030    2    1    2    0    0  0.00000000000E+00  0.00000000000E+00 -0.84049810154E+03  0.13777446269E+04  0.10916699126E+04 0.  0.
        5    1    3    3  502    0  0.31579563424E+03 -0.28478156773E+03  0.11598438991E+02  0.42542218761E+03  0.46999998093E+01 0.  1.
       -5    1    3    3    0  502 -0.31579563424E+03  0.28478156773E+03 -0.85209654053E+03  0.95232243925E+03  0.46999998093E+01 0. -1.
</event>
<event>
 5   0  0.3949750E-03  0.1076317E+04  0.7818609E-02  0.9228587E-01
       -4   -1    0    0    0  501  0.00000000000E+00  0.00000000000E+00  0.12375740897E+04  0.12375747413E+04  0.12699999809E+01 0. -1.
        4   -1    0    0  501    0  0.00000000000E+00  0.00000000000E+00 -0.23401548354E+03  0.23401892965E+03  0.12699999809E+01 0.  1.
    10030    2    1    2    0    0  0.00000000000E+00  0.00000000000E+00  0.10035586061E+04  0.14715936710E+04  0.10763168941E+04 0.  0.
        5    1    3    3  502    0 -0.82782686944E+01 -0.14059147250E+03 -0.20834580152E+03  0.25152446180E+03  0.46999998093E+01 0.  1.
       -5    1    3    3    0  502  0.82782686944E+01  0.14059147250E+03  0.12119044076E+04  0.12200692092E+04  0.46999998093E+01 0. -1.
</event>
<event>
 5   0  0.5789905E-03  0.1100802E+04  0.7818609E-02  0.9204411E-01
        1   -1    0    0  501    0  0.00000000000E+00  0.00000000000E+00  0.20768271837E+04  0.20768271837E+04  0.50400001928E-02 0.  1.
       -1   -1    0    0    0  501  0.00000000000E+00  0.00000000000E+00 -0.14586723589E+03  0.14586723597E+03  0.50400001928E-02 0. -1.
    10030    2    1    2    0    0  0.00000000000E+00  0.00000000000E+00  0.19309599478E+04  0.22226944197E+04  0.11008016003E+04 0.  0.
        1    1    3    3  502    0  0.19323964280E+03  0.43728535117E+03  0.15161630399E+04  0.15897516792E+04  0.50400001928E-02 0.  1.
       -1    1    3    3    0  502 -0.19323964280E+03 -0.43728535117E+03  0.41479690790E+03  0.63294274048E+03  0.50400001928E-02 0. -1.
</event>
<event>
 5   0  0.5712664E-03  0.1103918E+04  0.7818609E-02  0.9201381E-01
       -1   -1    0    0    0  501  0.00000000000E+00  0.00000000000E+00  0.35500135327E+03  0.35500135330E+03  0.50400001928E-02 0.  1.
        1   -1    0    0  501    0  0.00000000000E+00  0.00000000000E+00 -0.85819055680E+03  0.85819055682E+03  0.50400001928E-02 0. -1.
    10030    2    1    2    0    0  0.00000000000E+00  0.00000000000E+00 -0.50318920354E+03  0.12131919101E+04  0.11039181293E+04 0.  0.
        5    1    3    3  502    0 -0.37952219890E+03 -0.34510766968E+03 -0.27713032989E+02  0.51373777876E+03  0.46999998093E+01 0.  1.
       -5    1    3    3    0  502  0.37952219890E+03  0.34510766968E+03 -0.47547617055E+03  0.69945413136E+03  0.46999998093E+01 0. -1.
</event>
<event>
 5   0  0.1019384E-02  0.1093134E+04  0.7818609E-02  0.9211910E-01
        2   -1    0    0  501    0  0.00000000000E+00  0.00000000000E+00  0.28608060442E+03  0.28608060443E+03  0.25500000920E-02 0. -1.
       -2   -1    0    0    0  501  0.00000000000E+00  0.00000000000E+00 -0.10442350991E+04  0.10442350992E+04  0.25500000920E-02 0.  1.
    10030    2    1    2    0    0  0.00000000000E+00  0.00000000000E+00 -0.75815449473E+03  0.13303157036E+04  0.10931338588E+04 0.  0.
        1    1    3    3  502    0  0.17888385448E+03 -0.10925064204E+03  0.23522388384E+03  0.31506413908E+03  0.50400001928E-02 0. -1.
       -1    1    3    3    0  502 -0.17888385448E+03  0.10925064204E+03 -0.99337837857E+03  0.10152515645E+04  0.50400001928E-02 0.  1.
</event>
<event>
 5   0  0.5998641E-03  0.1138334E+04  0.7818609E-02  0.9168613E-01
        1   -1    0    0  501    0  0.00000000000E+00  0.00000000000E+00  0.18302778037E+04  0.18302778037E+04  0.50400001928E-02 0. -1.
       -1   -1    0    0    0  501  0.00000000000E+00  0.00000000000E+00 -0.17699572081E+03  0.17699572088E+03  0.50400001928E-02 0.  1.
    10030    2    1    2    0    0  0.00000000000E+00  0.00000000000E+00  0.16532820829E+04  0.20072735246E+04  0.11383344662E+04 0.  0.
        3    1    3    3  502    0  0.30807888000E+03 -0.45411536667E+03  0.10930048033E+04  0.12230261129E+04  0.10100000352E+00 0. -1.
       -3    1    3    3    0  502 -0.30807888000E+03  0.45411536667E+03  0.56027727962E+03  0.78424741173E+03  0.10100000352E+00 0.  1.
</event>
<event>
 5   0  0.1028016E-02  0.1050132E+04  0.7818609E-02  0.9255208E-01
       -2   -1    0    0    0  501  0.00000000000E+00  0.00000000000E+00  0.66598133231E+03  0.66598133232E+03  0.25500000920E-02 0.  1.
        2   -1    0    0  501    0  0.00000000000E+00  0.00000000000E+00 -0.41396663634E+03  0.41396663635E+03  0.25500000920E-02 0. -1.
    10030    2    1    2    0    0  0.00000000000E+00  0.00000000000E+00  0.25201469597E+03  0.10799479687E+04  0.10501315194E+04 0.  0.
        2    1    3    3  502    0 -0.14644328143E+03  0.23420223670E+03 -0.33321101128E+03  0.43281162230E+03  0.25500000920E-02 0. -1.
       -2    1    3    3    0  502  0.14644328143E+03 -0.23420223670E+03  0.58522570725E+03  0.64713634636E+03  0.25500000920E-02 0.  1.
</event>
<event>
 5   0  0.5854579E-03  0.1106985E+04  0.7818609E-02  0.9198411E-01
       -1   -1    0    0    0  501  0.00000000000E+00  0.00000000000E+00  0.61736100232E+03  0.61736100234E+03  0.50400001928E-02 0. -1.
        1   -1    0    0  501    0  0.00000000000E+00  0.00000000000E+00 -0.49623135731E+03  0.49623135733E+03  0.50400001928E-02 0.  1.
    10030    2    1    2    0    0  0.00000000000E+00  0.00000000000E+00  0.12112964502E+03  0.11135923597E+04  0.11069848927E+04 0.  0.
        4    1    3    3  502    0 -0.16292027424E+03  0.92264600292E+02  0.58453509328E+03  0.61379040429E+03  0.12699999809E+01 0. -1.
       -4    1    3    3    0  502  0.16292027424E+03 -0.92264600292E+02 -0.46340544826E+03  0.49980195539E+03  0.12699999809E+01 0.  1.
</event>
<event>
 5   0  0.5712664E-03  0.1114783E+04  0.7818609E-02  0.9190902E-01
        1   -1    0    0  501    0  0.00000000000E+00  0.00000000000E+00  0.39442252794E+03  0.39442252798E+03  0.50400001928E-02 0. -1.
       -1   -1    0    0    0  501  0.00000000000E+00  0.00000000000E+00 -0.78769723089E+03  0.78769723090E+03  0.50400001928E-02 0.  1.
    10030    2    1    2    0    0  0.00000000000E+00  0.00000000000E+00 -0.39327470294E+03  0.11821197589E+04  0.11147834464E+04 0.  0.
        5    1    3    3  502    0  0.34786249508E+03  0.38842126537E+03 -0.40546958547E+03  0.66053544160E+03  0.46999998093E+01 0.  1.
       -5    1    3    3    0  502 -0.34786249508E+03 -0.38842126537E+03  0.12194882527E+02  0.52158431728E+03  0.46999998093E+01 0. -1.
</event>
<event>
 5   0  0.9692981E-03  0.1103714E+04  0.7818609E-02  0.9201580E-01
       -2   -1    0    0    0  501  0.00000000000E+00  0.00000000000E+00  0.21413072624E+03  0.21413072626E+03  0.25500000920E-02 0. -1.
        2   -1    0    0  501    0  0.00000000000E+00  0.00000000000E+00 -0.14222436127E+04  0.14222436127E+04  0.25500000920E-02 0.  1.
    10030    2    1    2    0    0  0.00000000000E+00  0.00000000000E+00 -0.12081128864E+04  0.16363743389E+04  0.11037138355E+04 0.  0.
        5    1    3    3  502    0  0.12175151957E+03 -0.35353523227E+03 -0.12057711223E+04  0.12624249214E+04  0.46999998093E+01 0.  1.
       -5    1    3    3    0  502 -0.12175151957E+03  0.35353523227E+03 -0.23417641519E+01  0.37394941748E+03  0.46999998093E+01 0. -1.
</event>
<event>
 5   0  0.5712664E-03  0.8098658E+03  0.7818609E-02  0.9545846E-01
        1   -1    0    0  501    0  0.00000000000E+00  0.00000000000E+00  0.30683164038E+03  0.30683164043E+03  0.50400001928E-02 0.  1.
       -1   -1    0    0    0  501  0.00000000000E+00  0.00000000000E+00 -0.53439941596E+03  0.53439941599E+03  0.50400001928E-02 0. -1.
    10030    2    1    2    0    0  0.00000000000E+00  0.00000000000E+00 -0.22756777558E+03  0.84123105641E+03  0.80986578999E+03 0.  0.
        5    1    3    3  502    0 -0.52824816910E+02 -0.17448919965E+03 -0.48932659932E+03  0.52220642746E+03  0.46999998093E+01 0. -1.
       -5    1    3    3    0  502  0.52824816910E+02  0.17448919965E+03  0.26175882374E+03  0.31902462896E+03  0.46999998093E+01 0.  1.
</event>
<event>
 5   0  0.3949750E-03  0.1032928E+04  0.7818609E-02  0.9273150E-01
       -4   -1    0    0    0  501  0.00000000000E+00  0.00000000000E+00  0.25969137654E+03  0.25969448194E+03  0.12699999809E+01 0.  1.
        4   -1    0    0  501    0  0.00000000000E+00  0.00000000000E+00 -0.10271134591E+04  0.10271142443E+04  0.12699999809E+01 0. -1.
    10030    2    1    2    0    0  0.00000000000E+00  0.00000000000E+00 -0.76742208257E+03  0.12868087262E+04  0.10329278993E+04 0.  0.
        1    1    3    3  502    0  0.10979168611E+03  0.44935807345E+03 -0.66985767420E+03  0.81405540120E+03  0.50400001928E-02 0. -1.
       -1    1    3    3    0  502 -0.10979168611E+03 -0.44935807345E+03 -0.97564408368E+02  0.47275332502E+03  0.50400001928E-02 0.  1.
</event>
<event>
 5   0  0.1019384E-02  0.1108214E+04  0.7818609E-02  0.9197222E-01
        2   -1    0    0  501    0  0.00000000000E+00  0.00000000000E+00  0.10743021551E+04  0.10743021551E+04  0.25500000920E-02 0.  1.
       -2   -1    0    0    0  501  0.00000000000E+00  0.00000000000E+00 -0.28579924690E+03  0.28579924691E+03  0.25500000920E-02 0. -1.
    10030    2    1    2    0    0  0.00000000000E+00  0.00000000000E+00  0.78850290818E+03  0.13601014020E+04  0.11082143238E+04 0.  0.
        1    1    3    3  502    0 -0.35554961929E+02  0.35805600306E+03  0.91141515460E+03  0.97987031831E+03  0.50400001928E-02 0.  1.
       -1    1    3    3    0  502  0.35554961929E+02 -0.35805600306E+03 -0.12291224642E+03  0.38023108367E+03  0.50400001928E-02 0. -1.
</event>
<event>
 5   0  0.5854579E-03  0.8302856E+03  0.7818609E-02  0.9517186E-01
        1   -1    0    0  501    0  0.00000000000E+00  0.00000000000E+00  0.49743399154E+03  0.49743399157E+03  0.50400001928E-02 0.  1.
       -1   -1    0    0    0  501  0.00000000000E+00  0.00000000000E+00 -0.34646518195E+03  0.34646518198E+03  0.50400001928E-02 0. -1.
    10030    2    1    2    0    0  0.00000000000E+00  0.00000000000E+00  0.15096880960E+03  0.84389917355E+03  0.83028563377E+03 0.  0.
        4    1    3    3  502    0  0.33805269995E+03  0.64602673676E+02 -0.16046144536E+03  0.37974020295E+03  0.12699999809E+01 0. -1.
       -4    1    3    3    0  502 -0.33805269995E+03 -0.64602673676E+02  0.31143025495E+03  0.46415897060E+03  0.12699999809E+01 0.  1.
</event>
<event>
 5   0  0.1019384E-02  0.1110462E+04  0.7818609E-02  0.9195054E-01
       -2   -1    0    0    0  501  0.00000000000E+00  0.00000000000E+00  0.16776900594E+03  0.16776900596E+03  0.25500000920E-02 0. -1.
        2   -1    0    0  501    0  0.00000000000E+00  0.00000000000E+00 -0.18375364248E+04  0.18375364248E+04  0.25500000920E-02 0.  1.
    10030    2    1    2    0    0  0.00000000000E+00  0.00000000000E+00 -0.16697674189E+04  0.20053054308E+04  0.11104623531E+04 0.  0.
        1    1    3    3  502    0 -0.42947244297E+03 -0.22263718997E+03 -0.13270103301E+04  0.14124341804E+04  0.50400001928E-02 0.  1.
       -1    1    3    3    0  502  0.42947244297E+03  0.22263718997E+03 -0.34275708876E+03  0.59287125040E+03  0.50400001928E-02 0. -1.
</event>
<event>
 5   0  0.1019384E-02  0.1161385E+04  0.7818609E-02  0.9147344E-01
        2   -1    0    0  501    0  0.00000000000E+00  0.00000000000E+00  0.44029168603E+03  0.44029168604E+03  0.25500000920E-02 0.  1.
       -2   -1    0    0    0  501  0.00000000000E+00  0.00000000000E+00 -0.76586450861E+03  0.76586450862E+03  0.25500000920E-02 0. -1.
    10030    2    1    2    0    0  0.00000000000E+00  0.00000000000E+00 -0.32557282258E+03  0.12061561947E+04  0.11613849935E+04 0.  0.
        1    1    3    3  502    0  0.38033210427E+03 -0.29217188929E+03 -0.50280143136E+03  0.69485696502E+03  0.50400001928E-02 0. -1.
       -1    1    3    3    0  502 -0.38033210427E+03  0.29217188929E+03  0.17722860878E+03  0.51129922964E+03  0.50400001928E-02 0.  1.
</event>
<event>
 5   0  0.5854579E-03  0.1095424E+04  0.7818609E-02  0.9209664E-01
        1   -1    0    0  501    0  0.00000000000E+00  0.00000000000E+00  0.84768943417E+03  0.84768943418E+03  0.50400001928E-02 0.  1.
       -1   -1    0    0    0  501  0.00000000000E+00  0.00000000000E+00 -0.35388950859E+03  0.35388950862E+03  0.50400001928E-02 0. -1.
    10030    2    1    2    0    0  0.00000000000E+00  0.00000000000E+00  0.49379992558E+03  0.12015789428E+04  0.10954239313E+04 0.  0.
        4    1    3    3  502    0 -0.41341364906E+03 -0.31402627118E+03  0.43835180843E+03  0.67946836944E+03  0.12699999809E+01 0.  1.
       -4    1    3    3    0  502  0.41341364906E+03  0.31402627118E+03  0.55448117154E+02  0.52211057336E+03  0.12699999809E+01 0. -1.
</event>
<event>
 5   0  0.5998641E-03  0.1110609E+04  0.7818609E-02  0.9194913E-01
       -1   -1    0    0    0  501  0.00000000000E+00  0.00000000000E+00  0.52537513895E+03  0.52537513897E+03  0.50400001928E-02 0.  1.
        1   -1    0    0  501    0  0.00000000000E+00  0.00000000000E+00 -0.58693894476E+03  0.58693894478E+03  0.50400001928E-02 0. -1.
    10030    2    1    2    0    0  0.00000000000E+00  0.00000000000E+00 -0.61563805806E+02  0.11123140838E+04  0.11106090756E+04 0.  0.
        3    1    3    3  502    0 -0.25546496803E+02 -0.16146181253E+02 -0.58611470034E+03  0.58689332491E+03  0.10100000352E+00 0. -1.
       -3    1    3    3    0  502  0.25546496803E+02  0.16146181253E+02  0.52455089453E+03  0.52542075884E+03  0.10100000352E+00 0.  1.
</event>
<event>
 5   0  0.3949750E-03  0.1085569E+04  0.7818609E-02  0.9219373E-01
       -3   -1    0    0    0  501  0.00000000000E+00  0.00000000000E+00  0.16014704751E+04  0.16014704783E+04  0.10100000352E+00 0. -1.
        3   -1    0    0  501    0  0.00000000000E+00  0.00000000000E+00 -0.18396523190E+03  0.18396525963E+03  0.10100000352E+00 0.  1.
    10030    2    1    2    0    0  0.00000000000E+00  0.00000000000E+00  0.14175052432E+04  0.17854357379E+04  0.10855688185E+04 0.  0.
        1    1    3    3  502    0 -0.39239429869E+03 -0.50786333882E+02  0.13198698639E+04  0.13779002122E+04  0.50400001928E-02 0. -1.
       -1    1    3    3    0  502  0.39239429869E+03  0.50786333882E+02  0.97635379332E+02  0.40753552566E+03  0.50400001928E-02 0.  1.
</event>
<event>
 5   0  0.9925021E-03  0.1105314E+04  0.7818609E-02  0.9200028E-01
       -2   -1    0    0    0  501  0.00000000000E+00  0.00000000000E+00  0.18560308743E+03  0.18560308744E+03  0.25500000920E-02 0. -1.
        2   -1    0    0  501    0  0.00000000000E+00  0.00000000000E+00 -0.16456082769E+04  0.16456082769E+04  0.25500000920E-02 0.  1.
    10030    2    1    2    0    0  0.00000000000E+00  0.00000000000E+00 -0.14600051895E+04  0.18312113643E+04  0.11053143931E+04 0.  0.
        4    1    3    3  502    0  0.29252355555E+03 -0.11712046227E+03  0.22200258675E+02  0.31588241106E+03  0.12699999809E+01 0. -1.
       -4    1    3    3    0  502 -0.29252355555E+03  0.11712046227E+03 -0.14822054482E+04  0.15153289533E+04  0.12699999809E+01 0.  1.
</event>
<event>
 5   0  0.5854579E-03  0.9572760E+03  0.7818609E-02  0.9356686E-01
       -1   -1    0    0    0  501  0.00000000000E+00  0.00000000000E+00  0.19942030252E+03  0.19942030258E+03  0.50400001928E-02 0.  1.
        1   -1    0    0  501    0  0.00000000000E+00  0.00000000000E+00 -0.11488013476E+04  0.11488013477E+04  0.50400001928E-02 0. -1.
    10030    2    1    2    0    0  0.00000000000E+00  0.00000000000E+00 -0.94938104512E+03  0.13482216502E+04  0.95727595254E+03 0.  0.
        4    1    3    3  502    0 -0.42417867864E+03 -0.16406334720E+03 -0.68476495991E+03  0.82203953465E+03  0.12699999809E+01 0. -1.
       -4    1    3    3    0  502  0.42417867864E+03  0.16406334720E+03 -0.26461608522E+03  0.52618211559E+03  0.12699999809E+01 0.  1.
</event>
<event>
 5   0  0.5789905E-03  0.1086907E+04  0.7818609E-02  0.9218048E-01
        1   -1    0    0  501    0  0.00000000000E+00  0.00000000000E+00  0.34532905502E+03  0.34532905505E+03  0.50400001928E-02 0.  1.
       -1   -1    0    0    0  501  0.00000000000E+00  0.00000000000E+00 -0.85524679596E+03  0.85524679598E+03  0.50400001928E-02 0. -1.
    10030    2    1    2    0    0  0.00000000000E+00  0.00000000000E+00 -0.50991774095E+03  0.12005758510E+04  0.10869067446E+04 0.  0.
        1    1    3    3  502    0 -0.49920298951E+03  0.12017905842E+03 -0.58309633086E+02  0.51676556014E+03  0.50400001928E-02 0.  1.
       -1    1    3    3    0  502  0.49920298951E+03 -0.12017905842E+03 -0.45160810786E+03  0.68381029089E+03  0.50400001928E-02 0. -1.
</event>
<event>
 5   0  0.5712664E-03  0.1089335E+04  0.7818609E-02  0.9215649E-01
       -1   -1    0    0    0  501  0.00000000000E+00  0.00000000000E+00  0.20440860633E+03  0.20440860639E+03  0.50400001928E-02 0. -1.
        1   -1    0    0  501    0  0.00000000000E+00  0.00000000000E+00 -0.14513229286E+04  0.14513229286E+04  0.50400001928E-02 0.  1.
    10030    2    1    2    0    0  0.00000000000E+00  0.00000000000E+00 -0.12469143223E+04  0.16557315350E+04  0.10893353886E+04 0.  0.
        5    1    3    3  502    0 -0.15364618520E+03  0.29853815196E+03  0.28365359076E+02  0.33698495811E+03  0.46999998093E+01 0. -1.
       -5    1    3    3    0  502  0.15364618520E+03 -0.29853815196E+03 -0.12752796813E+04  0.13187465769E+04  0.46999998093E+01 0.  1.
</event>
<event>
 5   0  0.9925021E-03  0.1050074E+04  0.7818609E-02  0.9255268E-01
       -2   -1    0    0    0  501  0.00000000000E+00  0.00000000000E+00  0.22190435990E+03  0.22190435991E+03  0.25500000920E-02 0. -1.
        2   -1    0    0  501    0  0.00000000000E+00  0.00000000000E+00 -0.12422641502E+04  0.12422641502E+04  0.25500000920E-02 0.  1.
    10030    2    1    2    0    0  0.00000000000E+00  0.00000000000E+00 -0.10203597903E+04  0.14641685101E+04  0.10500739614E+04 0.  0.
        4    1    3    3  502    0  0.18558957191E+03 -0.44860787451E+03 -0.78894386353E+03  0.92635120066E+03  0.12699999809E+01 0. -1.
       -4    1    3    3    0  502 -0.18558957191E+03  0.44860787451E+03 -0.23141592678E+03  0.53781730945E+03  0.12699999809E+01 0.  1.
</event>
<event>
 5   0  0.1028016E-02  0.1080591E+04  0.7818609E-02  0.9224318E-01
       -2   -1    0    0    0  501  0.00000000000E+00  0.00000000000E+00  0.32058990040E+03  0.32058990041E+03  0.25500000920E-02 0.  1.
        2   -1    0    0  501    0  0.00000000000E+00  0.00000000000E+00 -0.91056891707E+03  0.91056891708E+03  0.25500000920E-02 0. -1.
    10030    2    1    2    0    0  0.00000000000E+00  0.00000000000E+00 -0.58997901667E+03  0.12311588175E+04  0.10805909466E+04 0.  0.
        2    1    3    3  502    0 -0.24835916171E+03  0.41392981306E+03 -0.57149696354E+03  0.74808351318E+03  0.25500000920E-02 0.  1.
       -2    1    3    3    0  502  0.24835916171E+03 -0.41392981306E+03 -0.18482053131E+02  0.48307530431E+03  0.25500000920E-02 0. -1.
</event>
<event>
 5   0  0.5712664E-03  0.1118032E+04  0.7818609E-02  0.9187793E-01
       -1   -1    0    0    0  501  0.00000000000E+00  0.00000000000E+00  0.98309010590E+03  0.98309010591E+03  0.50400001928E-02 0.  1.
        1   -1    0    0  501    0  0.00000000000E+00  0.00000000000E+00 -0.31787394258E+03  0.31787394262E+03  0.50400001928E-02 0. -1.
    10030    2    1    2    0    0  0.00000000000E+00  0.00000000000E+00  0.66521616332E+03  0.13009640485E+04  0.11180317132E+04 0.  0.
        5    1    3    3  502    0  0.35558101001E+03 -0.34626219511E+03  0.63186724365E+03  0.80350088117E+03  0.46999998093E+01 0.  1.
       -5    1    3    3    0  502 -0.35558101001E+03  0.34626219511E+03  0.33348919669E+02  0.49746316737E+03  0.46999998093E+01 0. -1.
</event>
<event>
 5   0  0.5789905E-03  0.1079474E+04  0.7818609E-02  0.9225432E-01
        1   -1    0    0  501    0  0.00000000000E+00  0.00000000000E+00  0.82780413498E+03  0.82780413500E+03  0.50400001928E-02 0. -1.
       -1   -1    0    0    0  501  0.00000000000E+00  0.00000000000E+00 -0.35191398247E+03  0.35191398251E+03  0.50400001928E-02 0.  1.
    10030    2    1    2    0    0  0.00000000000E+00  0.00000000000E+00  0.47589015251E+03  0.11797181175E+04  0.10794736678E+04 0.  0.
        1    1    3    3  502    0  0.34406341477E+03 -0.33254210545E+03  0.51083736712E+03  0.69994192685E+03  0.50400001928E-02 0. -1.
       -1    1    3    3    0  502 -0.34406341477E+03  0.33254210545E+03 -0.34947214613E+02  0.47977619065E+03  0.50400001928E-02 0.  1.
</event>
<event>
 5   0  0.9719260E-03  0.1117641E+04  0.7818609E-02  0.9188167E-01
        2   -1    0    0  501    0  0.00000000000E+00  0.00000000000E+00  0.12296201421E+04  0.12296201421E+04  0.25500000920E-02 0. -1.
       -2   -1    0    0    0  501  0.00000000000E+00  0.00000000000E+00 -0.25396471183E+03  0.25396471184E+03  0.25500000920E-02 0.  1.
    10030    2    1    2    0    0  0.00000000000E+00  0.00000000000E+00  0.97565543028E+03  0.14835848540E+04  0.11176405953E+04 0.  0.
        3    1    3    3  502    0  0.20048338303E+03  0.50656782458E+03  0.65296057757E+03  0.85038936602E+03  0.10100000352E+00 0. -1.
       -3    1    3    3    0  502 -0.20048338303E+03 -0.50656782458E+03  0.32269485271E+03  0.63319548793E+03  0.10100000352E+00 0.  1.
</event>
<event>
 5   0  0.9925021E-03  0.1047089E+04  0.7818609E-02  0.9258354E-01
        2   -1    0    0  501    0  0.00000000000E+00  0.00000000000E+00  0.12973595246E+04  0.12973595246E+04  0.25500000920E-02 0.  1.
       -2   -1    0    0    0  501  0.00000000000E+00  0.00000000000E+00 -0.21127447382E+03  0.21127447383E+03  0.25500000920E-02 0. -1.
    10030    2    1    2    0    0  0.00000000000E+00  0.00000000000E+00  0.10860850508E+04  0.15086339984E+04  0.10470892052E+04 0.  0.
        4    1    3    3  502    0 -0.13164371339E+03 -0.75847173287E+02 -0.17881185008E+03  0.23464473487E+03  0.12699999809E+01 0. -1.
       -4    1    3    3    0  502  0.13164371339E+03  0.75847173287E+02  0.12648969009E+04  0.12739892636E+04  0.12699999809E+01 0.  1.
</event>
<event>
 5   0  0.9925021E-03  0.1111159E+04  0.7818609E-02  0.9194383E-01
        2   -1    0    0  501    0  0.00000000000E+00  0.00000000000E+00  0.56031805226E+03  0.56031805227E+03  0.25500000920E-02 0. -1.
       -2   -1    0    0    0  501  0.00000000000E+00  0.00000000000E+00 -0.55088150302E+03  0.55088150303E+03  0.25500000920E-02 0.  1.
    10030    2    1    2    0    0  0.00000000000E+00  0.00000000000E+00  0.94365492381E+01  0.11111995553E+04  0.11111594860E+04 0.  0.
        4    1    3    3  502    0 -0.11273673134E+03  0.22474571764E+03 -0.49072570010E+03  0.55139235924E+03  0.12699999809E+01 0.  1.
       -4    1    3    3    0  502  0.11273673134E+03 -0.22474571764E+03  0.50016224934E+03  0.55980719605E+03  0.12699999809E+01 0. -1.
</event>
<event>
 5   0  0.5998641E-03  0.1016645E+04  0.7818609E-02  0.9290475E-01
       -1   -1    0    0    0  501  0.00000000000E+00  0.00000000000E+00  0.13145538195E+03  0.13145538204E+03  0.50400001928E-02 0.  1.
        1   -1    0    0  501    0  0.00000000000E+00  0.00000000000E+00 -0.19656240948E+04  0.19656240948E+04  0.50400001928E-02 0. -1.
    10030    2    1    2    0    0  0.00000000000E+00  0.00000000000E+00 -0.18341687128E+04  0.20970794768E+04  0.10166452011E+04 0.  0.
        3    1    3    3  502    0  0.16401075106E+03 -0.41792357944E+03 -0.14088325264E+04  0.14786374614E+04  0.10100000352E+00 0. -1.
       -3    1    3    3    0  502 -0.16401075106E+03  0.41792357944E+03 -0.42533618644E+03  0.61844201540E+03  0.10100000352E+00 0.  1.
</event>
<event>
 5   0  0.5998641E-03  0.7897326E+03  0.7818609E-02  0.9574999E-01
        1   -1    0    0  501    0  0.00000000000E+00  0.00000000000E+00  0.12450523651E+03  0.12450523661E+03  0.50400001928E-02 0. -1.
       -1   -1    0    0    0  501  0.00000000000E+00  0.00000000000E+00 -0.12523120205E+04  0.12523120206E+04  0.50400001928E-02 0.  1.
    10030    2    1    2    0    0  0.00000000000E+00  0.00000000000E+00 -0.11278067840E+04  0.13768172572E+04  0.78973262406E+03 0.  0.
        3    1    3    3  502    0 -0.27837439246E+03 -0.27262794379E+03 -0.67555016960E+03  0.77986302641E+03  0.10100000352E+00 0.  1.
       -3    1    3    3    0  502  0.27837439246E+03  0.27262794379E+03 -0.45225661444E+03  0.59695423076E+03  0.10100000352E+00 0. -1.
</event>
<event>
 5   0  0.5789905E-03  0.1122480E+04  0.7818609E-02  0.9183554E-01
       -1   -1    0    0    0  501  0.00000000000E+00  0.00000000000E+00  0.41041175158E+03  0.41041175161E+03  0.50400001928E-02 0. -1.
        1   -1    0    0  501    0  0.00000000000E+00  0.00000000000E+00 -0.76749876955E+03  0.76749876957E+03  0.50400001928E-02 0.  1.
    10030    2    1    2    0    0  0.00000000000E+00  0.00000000000E+00 -0.35708701797E+03  0.11779105212E+04  0.11224803150E+04 0.  0.
        1    1    3    3  502    0  0.36043823437E+03 -0.29013726238E+03  0.15478214480E+03  0.48790661421E+03  0.50400001928E-02 0. -1.
       -1    1    3    3    0  502 -0.36043823437E+03  0.29013726238E+03 -0.51186916277E+03  0.69000390697E+03  0.50400001928E-02 0.  1.
</event>
<event>
 5   0  0.3949750E-03  0.1115295E+04  0.7818609E-02  0.9190412E-01
       -4   -1    0    0    0  501  0.00000000000E+00  0.00000000000E+00  0.95755578013E+03  0.95755662232E+03  0.12699999809E+01 0.  1.
        4   -1    0    0  501    0  0.00000000000E+00  0.00000000000E+00 -0.32475222814E+03  0.32475471141E+03  0.12699999809E+01 0. -1.
    10030    2    1    2    0    0  0.00000000000E+00  0.00000000000E+00  0.63280355198E+03  0.12823113337E+04  0.11152945894E+04 0.  0.
        4    1    3    3  502    0  0.38079764504E+03 -0.37109426088E+03  0.50965267901E+03  0.73652241177E+03  0.12699999809E+01 0.  1.
       -4    1    3    3    0  502 -0.38079764504E+03  0.37109426088E+03  0.12315087297E+03  0.54578892196E+03  0.12699999809E+01 0. -1.
</event>
<event>
 5   0  0.9719260E-03  0.1113800E+04  0.7818609E-02  0.9191845E-01
        2   -1    0    0  501    0  0.00000000000E+00  0.00000000000E+00  0.55911103172E+03  0.55911103172E+03  0.25500000920E-02 0. -1.
       -2   -1    0    0    0  501  0.00000000000E+00  0.00000000000E+00 -0.55469788066E+03  0.55469788067E+03  0.25500000920E-02 0.  1.
    10030    2    1    2    0    0  0.00000000000E+00  0.00000000000E+00  0.44131510522E+01  0.11138089124E+04  0.11138001694E+04 0.  0.
        3    1    3    3  502    0  0.92200153083E+01  0.17537082194E+03  0.53069701545E+03  0.55899844926E+03  0.10100000352E+00 0. -1.
       -3    1    3    3    0  502 -0.92200153083E+01 -0.17537082194E+03 -0.52628386440E+03  0.55481046313E+03  0.10100000352E+00 0.  1.
</event>
<event>
 5   0  0.9719260E-03  0.1082484E+04  0.7818609E-02  0.9222434E-01
       -2   -1    0    0    0  501  0.00000000000E+00  0.00000000000E+00  0.18753891180E+03  0.18753891181E+03  0.25500000920E-02 0.  1.
        2   -1    0    0  501    0  0.00000000000E+00  0.00000000000E+00 -0.15620382405E+04  0.15620382405E+04  0.25500000920E-02 0. -1.
    10030    2    1    2    0    0  0.00000000000E+00  0.00000000000E+00 -0.13744993287E+04  0.17495771524E+04  0.10824840910E+04 0.  0.
        3    1    3    3  502    0 -0.44504506217E+03 -0.21232253979E+03 -0.10479221808E+04  0.11581394025E+04  0.10100000352E+00 0. -1.
       -3    1    3    3    0  502  0.44504506217E+03  0.21232253979E+03 -0.32657714791E+03  0.59143774990E+03  0.10100000352E+00 0.  1.
</event>
<event>
 5   0  0.3949750E-03  0.1113645E+04  0.7818609E-02  0.9191994E-01
       -3   -1    0    0    0  501  0.00000000000E+00  0.00000000000E+00  0.20260577603E+04  0.20260577628E+04  0.10100000352E+00 0. -1.
        3   -1    0    0  501    0  0.00000000000E+00  0.00000000000E+00 -0.15303178906E+03  0.15303182239E+03  0.10100000352E+00 0.  1.
    10030    2    1    2    0    0  0.00000000000E+00  0.00000000000E+00  0.18730259713E+04  0.21790895852E+04  0.11136449755E+04 0.  0.
        3    1    3    3  502    0  0.23774332375E+02  0.43288423399E+03  0.16202378001E+04  0.16772371681E+04  0.10100000352E+00 0.  1.
       -3    1    3    3    0  502 -0.23774332375E+02 -0.43288423399E+03  0.25278817117E+03  0.50185241715E+03  0.10100000352E+00 0. -1.
</event>
<event>
 5   0  0.5998641E-03  0.1084779E+04  0.7818609E-02  0.9220156E-01
       -1   -1    0    0    0  501  0.00000000000E+00  0.00000000000E+00  0.40033236897E+03  0.40033236900E+03  0.50400001928E-02 0.  1.
        1   -1    0    0  501    0  0.00000000000E+00  0.00000000000E+00 -0.73485480350E+03  0.73485480352E+03  0.50400001928E-02 0. -1.
    10030    2    1    2    0    0  0.00000000000E+00  0.00000000000E+00 -0.33452243454E+03  0.11351871725E+04  0.10847786214E+04 0.  0.
        3    1    3    3  502    0 -0.48845599129E+02 -0.21624701129E+03  0.35075412964E+03  0.41494232383E+03  0.10100000352E+00 0.  1.
       -3    1    3    3    0  502  0.48845599129E+02  0.21624701129E+03 -0.68527656418E+03  0.72024484869E+03  0.10100000352E+00 0. -1.
</event>
<event>
 5   0  0.1028016E-02  0.1088756E+04  0.7818609E-02  0.9216220E-01
        2   -1    0    0  501    0  0.00000000000E+00  0.00000000000E+00  0.20337445434E+04  0.20337445434E+04  0.25500000920E-02 0. -1.
       -2   -1    0    0    0  501  0.00000000000E+00  0.00000000000E+00 -0.14571524857E+03  0.14571524859E+03  0.25500000920E-02 0.  1.
    10030    2    1    2    0    0  0.00000000000E+00  0.00000000000E+00  0.18880292949E+04  0.21794597920E+04  0.10887563395E+04 0.  0.
        2    1    3    3  502    0 -0.36255536939E+03  0.36726500649E+03  0.59719297676E+03  0.78928412651E+03  0.25500000920E-02 0.  1.
       -2    1    3    3    0  502  0.36255536939E+03 -0.36726500649E+03  0.12908363181E+04  0.13901756655E+04  0.25500000920E-02 0. -1.
</event>
<event>
 5   0  0.1019384E-02  0.9847526E+03  0.7818609E-02  0.9325428E-01
       -2   -1    0    0    0  501  0.00000000000E+00  0.00000000000E+00  0.12270833395E+03  0.12270833398E+03  0.25500000920E-02 0.  1.
        2   -1    0    0  501    0  0.00000000000E+00  0.00000000000E+00 -0.19756966021E+04  0.19756966021E+04  0.25500000920E-02 0. -1.
    10030    2    1    2    0    0  0.00000000000E+00  0.00000000000E+00 -0.18529882681E+04  0.20984049361E+04  0.98475263588E+03 0.  0.
        1    1    3    3  502    0 -0.59146236024E+02 -0.41620170758E+03 -0.14727366261E+04  0.15315597632E+04  0.50400001928E-02 0. -1.
       -1    1    3    3    0  502  0.59146236024E+02  0.41620170758E+03 -0.38025164208E+03  0.56684517283E+03  0.50400001928E-02 0.  1.
</event>
<event>
 5   0  0.9925021E-03  0.1055936E+04  0.7818609E-02  0.9249237E-01
        2   -1    0    0  501    0  0.00000000000E+00  0.00000000000E+00  0.13589108529E+04  0.13589108529E+04  0.25500000920E-02 0.  1.
       -2   -1    0    0    0  501  0.00000000000E+00  0.00000000000E+00 -0.20512762196E+03  0.20512762197E+03  0.25500000920E-02 0. -1.
    10030    2    1    2    0    0  0.00000000000E+00  0.00000000000E+00  0.11537832309E+04  0.15640384748E+04  0.10559358914E+04 0.  0.
        4    1    3    3  502    0 -0.78441380707E+02 -0.20832070094E+03  0.12860043225E+04  0.13051280761E+04  0.12699999809E+01 0.  1.
       -4    1    3    3    0  502  0.78441380707E+02  0.20832070094E+03 -0.13222109154E+03  0.25891039878E+03  0.12699999809E+01 0. -1.
</event>
<event>
 5   0  0.3949750E-03  0.1109850E+04  0.7818609E-02  0.9195644E-01
        3   -1    0    0  501    0  0.00000000000E+00  0.00000000000E+00  0.12791018016E+04  0.12791018056E+04  0.10100000352E+00 0. -1.
       -3   -1    0    0    0  501  0.00000000000E+00  0.00000000000E+00 -0.24074861413E+03  0.24074863532E+03  0.10100000352E+00 0.  1.
    10030    2    1    2    0    0  0.00000000000E+00  0.00000000000E+00  0.10383531875E+04  0.15198504409E+04  0.11098504497E+04 0.  0.
        3    1    3    3  502    0  0.54112126545E+03 -0.95052461902E+02  0.41226713254E+03  0.68688528388E+03  0.10100000352E+00 0.  1.
       -3    1    3    3    0  502 -0.54112126545E+03  0.95052461902E+02  0.62608605492E+03  0.83296515702E+03  0.10100000352E+00 0. -1.
</event>
<event>
 5   0  0.5712664E-03  0.1084490E+04  0.7818609E-02  0.9220442E-01
        1   -1    0    0  501    0  0.00000000000E+00  0.00000000000E+00  0.15371814388E+04  0.15371814388E+04  0.50400001928E-02 0. -1.
       -1   -1    0    0    0  501  0.00000000000E+00  0.00000000000E+00 -0.19127840879E+03  0.19127840886E+03  0.50400001928E-02 0.  1.
    10030    2    1    2    0    0  0.00000000000E+00  0.00000000000E+00  0.13459030300E+04  0.17284598477E+04  0.10844899625E+04 0.  0.
        5    1    3    3  502    0 -0.34640075029E+03 -0.26147231136E+03  0.11909886154E+04  0.12676108320E+04  0.46999998093E+01 0. -1.
       -5    1    3    3    0  502  0.34640075029E+03  0.26147231136E+03  0.15491441465E+03  0.46084901570E+03  0.46999998093E+01 0.  1.
</event>
<event>
 5   0  0.1019384E-02  0.1105983E+04  0.7818609E-02  0.9199380E-01
        2   -1    0    0  501    0  0.00000000000E+00  0.00000000000E+00  0.14942900504E+04  0.14942900504E+04  0.25500000920E-02 0. -1.
       -2   -1    0    0    0  501  0.00000000000E+00  0.00000000000E+00 -0.20464550192E+03  0.20464550193E+03  0.25500000920E-02 0.  1.
    10030    2    1    2    0    0  0.00000000000E+00  0.00000000000E+00  0.12896445485E+04  0.16989355523E+04  0.11059832501E+04 0.  0.
        1    1    3    3  502    0 -0.47192633303E+03 -0.89055967477E+02  0.10659417196E+04  0.11691352269E+04  0.50400001928E-02 0. -1.
       -1    1    3    3    0  502  0.47192633303E+03  0.89055967477E+02  0.22370282885E+03  0.52980032541E+03  0.50400001928E-02 0.  1.
</event>
<event>
 5   0  0.9719260E-03  0.1113045E+04  0.7818609E-02  0.9192570E-01
        2   -1    0    0  501    0  0.00000000000E+00  0.00000000000E+00  0.15865377368E+04  0.15865377368E+04  0.25500000920E-02 0. -1.
       -2   -1    0    0    0  501  0.00000000000E+00  0.00000000000E+00 -0.19521570351E+03  0.19521570353E+03  0.25500000920E-02 0.  1.
    10030    2    1    2    0    0  0.00000000000E+00  0.00000000000E+00  0.13913220333E+04  0.17817534403E+04  0.11130446181E+04 0.  0.
        3    1    3    3  502    0 -0.52934544511E+03  0.96072448434E+02  0.92362957145E+03  0.10688910660E+04  0.10100000352E+00 0. -1.
       -3    1    3    3    0  502  0.52934544511E+03 -0.96072448434E+02  0.46769246182E+03  0.71286237427E+03  0.10100000352E+00 0.  1.
</event>
<event>
 5   0  0.5854579E-03  0.1006791E+04  0.7818609E-02  0.9301128E-01
       -1   -1    0    0    0  501  0.00000000000E+00  0.00000000000E+00  0.26120881622E+03  0.26120881627E+03  0.50400001928E-02 0.  1.
        1   -1    0    0  501    0  0.00000000000E+00  0.00000000000E+00 -0.97013103190E+03  0.97013103192E+03  0.50400001928E-02 0. -1.
    10030    2    1    2    0    0  0.00000000000E+00  0.00000000000E+00 -0.70892221568E+03  0.12313398482E+04  0.10067905015E+04 0.  0.
        4    1    3    3  502    0 -0.98752376404E+02  0.36223098261E+03  0.55651210161E+02  0.37955498508E+03  0.12699999809E+01 0.  1.
       -4    1    3    3    0  502  0.98752376404E+02 -0.36223098261E+03 -0.76457342585E+03  0.85178486311E+03  0.12699999809E+01 0. -1.
</event>
<event>
 5   0  0.9692981E-03  0.1110382E+04  0.7818609E-02  0.9195132E-01
        2   -1    0    0  501    0  0.00000000000E+00  0.00000000000E+00  0.60671562968E+03  0.60671562969E+03  0.25500000920E-02 0. -1.
       -2   -1    0    0    0  501  0.00000000000E+00  0.00000000000E+00 -0.50804200523E+03  0.50804200524E+03  0.25500000920E-02 0.  1.
    10030    2    1    2    0    0  0.00000000000E+00  0.00000000000E+00  0.98673624450E+02  0.11147576349E+04  0.11103819615E+04 0.  0.
        5    1    3    3  502    0 -0.52708773817E+03  0.63044814022E+01  0.22424651887E+03  0.57286108389E+03  0.46999998093E+01 0. -1.
       -5    1    3    3    0  502  0.52708773817E+03 -0.63044814022E+01 -0.12557289442E+03  0.54189655104E+03  0.46999998093E+01 0.  1.
</event>
<event>
 5   0  0.1028016E-02  0.1107394E+04  0.7818609E-02  0.9198015E-01
        2   -1    0    0  501    0  0.00000000000E+00  0.00000000000E+00  0.15050079523E+04  0.15050079523E+04  0.25500000920E-02 0.  1.
       -2   -1    0    0    0  501  0.00000000000E+00  0.00000000000E+00 -0.20370671827E+03  0.20370671828E+03  0.25500000920E-02 0. -1.
    10030    2    1    2    0    0  0.00000000000E+00  0.00000000000E+00  0.13013012340E+04  0.17087146706E+04  0.11073937528E+04 0.  0.
        2    1    3    3  502    0 -0.35296666981E+02 -0.50441255500E+03  0.99877656724E+03  0.11194786785E+04  0.25500000920E-02 0.  1.
       -2    1    3    3    0  502  0.35296666981E+02  0.50441255500E+03  0.30252466679E+03  0.58923599208E+03  0.25500000920E-02 0. -1.
</event>
<event>
 5   0  0.1028016E-02  0.1211771E+04  0.7818609E-02  0.9102615E-01
        2   -1    0    0  501    0  0.00000000000E+00  0.00000000000E+00  0.13336938325E+04  0.13336938325E+04  0.25500000920E-02 0.  1.
       -2   -1    0    0    0  501  0.00000000000E+00  0.00000000000E+00 -0.27524844316E+03  0.27524844317E+03  0.25500000920E-02 0. -1.
    10030    2    1    2    0    0  0.00000000000E+00  0.00000000000E+00  0.10584453894E+04  0.16089422757E+04  0.12117708547E+04 0.  0.
        2    1    3    3  502    0 -0.48473408071E+03 -0.46884653985E+01  0.46625730498E+02  0.48699391111E+03  0.25500000920E-02 0. -1.
       -2    1    3    3    0  502  0.48473408071E+03  0.46884653985E+01  0.10118196589E+04  0.11219483646E+04  0.25500000920E-02 0.  1.
</event>
<event>
 5   0  0.5998641E-03  0.5541255E+03  0.7818609E-02  0.1000544E+00
        1   -1    0    0  501    0  0.00000000000E+00  0.00000000000E+00  0.10636994763E+04  0.10636994764E+04  0.50400001928E-02 0. -1.
       -1   -1    0    0    0  501  0.00000000000E+00  0.00000000000E+00 -0.72166792185E+02  0.72166792361E+02  0.50400001928E-02 0.  1.
    10030    2    1    2    0    0  0.00000000000E+00  0.00000000000E+00  0.99153268416E+03  0.11358662687E+04  0.55412554232E+03 0.  0.
        3    1    3    3  502    0 -0.63958816678E+02  0.23252046610E+01  0.10483391861E+04  0.10502910055E+04  0.10100000352E+00 0. -1.
       -3    1    3    3    0  502  0.63958816678E+02 -0.23252046610E+01 -0.56806501985E+02  0.85575263227E+02  0.10100000352E+00 0.  1.
</event>
<event>
 5   0  0.5958706E-03  0.1059953E+04  0.7818609E-02  0.9245128E-01
       -1   -1    0    0    0  501  0.00000000000E+00  0.00000000000E+00  0.50922207556E+03  0.50922207558E+03  0.50400001928E-02 0. -1.
        1   -1    0    0  501    0  0.00000000000E+00  0.00000000000E+00 -0.55157716888E+03  0.55157716891E+03  0.50400001928E-02 0.  1.
    10030    2    1    2    0    0  0.00000000000E+00  0.00000000000E+00 -0.42355093326E+02  0.10607992445E+04  0.10599533401E+04 0.  0.
        2    1    3    3  502    0  0.39086198075E+03 -0.16016075100E+03  0.29915713010E+03  0.51760944993E+03  0.25500000920E-02 0. -1.
       -2    1    3    3    0  502 -0.39086198075E+03  0.16016075100E+03 -0.34151222342E+03  0.54318979456E+03  0.25500000920E-02 0.  1.
</event>
<event>
 5   0  0.1019384E-02  0.1090962E+04  0.7818609E-02  0.9214046E-01
        2   -1    0    0  501    0  0.00000000000E+00  0.00000000000E+00  0.14178987933E+04  0.14178987933E+04  0.25500000920E-02 0. -1.
       -2   -1    0    0    0  501  0.00000000000E+00  0.00000000000E+00 -0.20985224857E+03  0.20985224858E+03  0.25500000920E-02 0.  1.
    10030    2    1    2    0    0  0.00000000000E+00  0.00000000000E+00  0.12080465447E+04  0.16277510419E+04  0.10909615026E+04 0.  0.
        1    1    3    3  502    0  0.33026389217E+02  0.38891444351E+03  0.35474218620E+02  0.39192296050E+03  0.50400001928E-02 0.  1.
       -1    1    3    3    0  502 -0.33026389217E+02 -0.38891444351E+03  0.11725723261E+04  0.12358280814E+04  0.50400001928E-02 0. -1.
</event>
<event>
 5   0  0.3949750E-03  0.1186395E+04  0.7818609E-02  0.9124849E-01
       -4   -1    0    0    0  501  0.00000000000E+00  0.00000000000E+00  0.33453597569E+03  0.33453838633E+03  0.12699999809E+01 0. -1.
        4   -1    0    0  501    0  0.00000000000E+00  0.00000000000E+00 -0.10518473496E+04  0.10518481163E+04  0.12699999809E+01 0.  1.
    10030    2    1    2    0    0  0.00000000000E+00  0.00000000000E+00 -0.71731137394E+03  0.13863865027E+04  0.11863945076E+04 0.  0.
        2    1    3    3  502    0 -0.29293301354E+03 -0.40281573631E+03  0.17857738640E+02  0.49838656350E+03  0.25500000920E-02 0.  1.
       -2    1    3    3    0  502  0.29293301354E+03  0.40281573631E+03 -0.73516911257E+03  0.88799993915E+03  0.25500000920E-02 0. -1.
</event>
<event>
 5   0  0.5712664E-03  0.1067551E+04  0.7818609E-02  0.9237409E-01
       -1   -1    0    0    0  501  0.00000000000E+00  0.00000000000E+00  0.87007229245E+03  0.87007229246E+03  0.50400001928E-02 0.  1.
        1   -1    0    0  501    0  0.00000000000E+00  0.00000000000E+00 -0.32746264446E+03  0.32746264450E+03  0.50400001928E-02 0. -1.
    10030    2    1    2    0    0  0.00000000000E+00  0.00000000000E+00  0.54260964799E+03  0.11975349370E+04  0.10675507928E+04 0.  0.
        5    1    3    3  502    0 -0.32555009167E+03 -0.37042801545E+02  0.74396236785E+03  0.81293119396E+03  0.46999998093E+01 0.  1.
       -5    1    3    3    0  502  0.32555009167E+03  0.37042801545E+02 -0.20135271986E+03  0.38460374300E+03  0.46999998093E+01 0. -1.
</event>
<event>
 5   0  0.9692981E-03  0.7596496E+03  0.7818609E-02  0.9620332E-01
       -2   -1    0    0    0  501  0.00000000000E+00  0.00000000000E+00  0.14586127367E+03  0.14586127369E+03  0.25500000920E-02 0. -1.
        2   -1    0    0  501    0  0.00000000000E+00  0.00000000000E+00 -0.98906909766E+03  0.98906909767E+03  0.25500000920E-02 0.  1.
    10030    2    1    2    0    0  0.00000000000E+00  0.00000000000E+00 -0.84320782399E+03  0.11349303714E+04  0.75964959909E+03 0.  0.
        5    1    3    3  502    0 -0.31934103798E+03 -0.16977456011E+03 -0.24838353738E+03  0.43876938298E+03  0.46999998093E+01 0. -1.
       -5    1    3    3    0  502  0.31934103798E+03  0.16977456011E+03 -0.59482428661E+03  0.69616098838E+03  0.46999998093E+01 0.  1.
</event>
<event>
 5   0  0.3949750E-03  0.1087922E+04  0.7818609E-02  0.9217044E-01
       -4   -1    0    0    0  501  0.00000000000E+00  0.00000000000E+00  0.11174508926E+04  0.11174516142E+04  0.12699999809E+01 0.  1.
        4   -1    0    0  501    0  0.00000000000E+00  0.00000000000E+00 -0.26479102665E+03  0.26479407225E+03  0.12699999809E+01 0. -1.
    10030    2    1    2    0    0  0.00000000000E+00  0.00000000000E+00  0.85265986590E+03  0.13822456865E+04  0.10879220059E+04 0.  0.
        4    1    3    3  502    0  0.19348877933E+03 -0.50531565811E+03  0.35547382463E+03  0.64741414485E+03  0.12699999809E+01 0.  1.
       -4    1    3    3    0  502 -0.19348877933E+03  0.50531565811E+03  0.49718604127E+03  0.73483154164E+03  0.12699999809E+01 0. -1.
</event>
<event>
 5   0  0.5998641E-03  0.1106188E+04  0.7818609E-02  0.9199182E-01
       -1   -1    0    0    0  501  0.00000000000E+00  0.00000000000E+00  0.18826398901E+03  0.18826398908E+03  0.50400001928E-02 0. -1.
        1   -1    0    0  501    0  0.00000000000E+00  0.00000000000E+00 -0.16249148337E+04  0.16249148337E+04  0.50400001928E-02 0.  1.
    10030    2    1    2    0    0  0.00000000000E+00  0.00000000000E+00 -0.14366508446E+04  0.18131788227E+04  0.11061879559E+04 0.  0.
        3    1    3    3  502    0 -0.76475565280E+02 -0.13089906728E+03 -0.15901941589E+04  0.15974043167E+04  0.10100000352E+00 0.  1.
       -3    1    3    3    0  502  0.76475565280E+02  0.13089906728E+03  0.15354331425E+03  0.21577450603E+03  0.10100000352E+00 0. -1.
</event>
<event>
 5   0  0.5998641E-03  0.1041276E+04  0.7818609E-02  0.9264397E-01
       -1   -1    0    0    0  501  0.00000000000E+00  0.00000000000E+00  0.42869434556E+03  0.42869434559E+03  0.50400001928E-02 0. -1.
        1   -1    0    0  501    0  0.00000000000E+00  0.00000000000E+00 -0.63230170678E+03  0.63230170681E+03  0.50400001928E-02 0.  1.
    10030    2    1    2    0    0  0.00000000000E+00  0.00000000000E+00 -0.20360736122E+03  0.10609960524E+04  0.10412764598E+04 0.  0.
        3    1    3    3  502    0  0.15650289543E+03  0.51371557346E+02 -0.60505169853E+03  0.62707237323E+03  0.10100000352E+00 0.  1.
       -3    1    3    3    0  502 -0.15650289543E+03 -0.51371557346E+02  0.40144433730E+03  0.43392367916E+03  0.10100000352E+00 0. -1.
</event>
<event>
 5   0  0.1028016E-02  0.1111085E+04  0.7818609E-02  0.9194454E-01
       -2   -1    0    0    0  501  0.00000000000E+00  0.00000000000E+00  0.74159271248E+03  0.74159271249E+03  0.25500000920E-02 0. -1.
        2   -1    0    0  501    0  0.00000000000E+00  0.00000000000E+00 -0.41616849510E+03  0.41616849511E+03  0.25500000920E-02 0.  1.
    10030    2    1    2    0    0  0.00000000000E+00  0.00000000000E+00  0.32542421738E+03  0.11577612076E+04  0.11110850969E+04 0.  0.
        2    1    3    3  502    0  0.50454609313E+03  0.48840598092E+02 -0.74159725386E+02  0.51230052605E+03  0.25500000920E-02 0.  1.
       -2    1    3    3    0  502 -0.50454609313E+03 -0.48840598092E+02  0.39958394276E+03  0.64546068155E+03  0.25500000920E-02 0. -1.
</event>
<event>
 5   0  0.1019384E-02  0.1359173E+04  0.7818609E-02  0.8983913E-01
       -2   -1    0    0    0  501  0.00000000000E+00  0.00000000000E+00  0.26767995831E+03  0.26767995832E+03  0.25500000920E-02 0. -1.
        2   -1    0    0  501    0  0.00000000000E+00  0.00000000000E+00 -0.17253366737E+04  0.17253366737E+04  0.25500000920E-02 0.  1.
    10030    2    1    2    0    0  0.00000000000E+00  0.00000000000E+00 -0.14576567154E+04  0.19930166320E+04  0.13591733501E+04 0.  0.
        1    1    3    3  502    0  0.57663147421E+02 -0.66207515769E+03 -0.93707767875E+03  0.11488181445E+04  0.50400001928E-02 0.  1.
       -1    1    3    3    0  502 -0.57663147421E+02  0.66207515769E+03 -0.52057903666E+03  0.84419848758E+03  0.50400001928E-02 0. -1.
</event>
<event>
 5   0  0.5789905E-03  0.1037142E+04  0.7818609E-02  0.9268720E-01
        1   -1    0    0  501    0  0.00000000000E+00  0.00000000000E+00  0.10864670222E+04  0.10864670222E+04  0.50400001928E-02 0.  1.
       -1   -1    0    0    0  501  0.00000000000E+00  0.00000000000E+00 -0.24751420185E+03  0.24751420190E+03  0.50400001928E-02 0. -1.
    10030    2    1    2    0    0  0.00000000000E+00  0.00000000000E+00  0.83895282032E+03  0.13339812241E+04  0.10371422619E+04 0.  0.
        1    1    3    3  502    0 -0.24280075547E+03  0.86949969529E+02  0.99813234178E+03  0.10309125452E+04  0.50400001928E-02 0.  1.
       -1    1    3    3    0  502  0.24280075547E+03 -0.86949969529E+02 -0.15917952146E+03  0.30306867891E+03  0.50400001928E-02 0. -1.
</event>
<event>
 5   0  0.1019384E-02  0.1058659E+04  0.7818609E-02  0.9246449E-01
        2   -1    0    0  501    0  0.00000000000E+00  0.00000000000E+00  0.87928838351E+03  0.87928838351E+03  0.25500000920E-02 0.  1.
       -2   -1    0    0    0  501  0.00000000000E+00  0.00000000000E+00 -0.31865530674E+03  0.31865530675E+03  0.25500000920E-02 0. -1.
    10030    2    1    2    0    0  0.00000000000E+00  0.00000000000E+00  0.56063307677E+03  0.11979436903E+04  0.10586593589E+04 0.  0.
        1    1    3    3  502    0  0.22982685688E+03 -0.31206418141E+03  0.68828592082E+03  0.78989995967E+03  0.50400001928E-02 0.  1.
       -1    1    3    3    0  502 -0.22982685688E+03  0.31206418141E+03 -0.12765284405E+03  0.40804373060E+03  0.50400001928E-02 0. -1.
</event>
<event>
 5   0  0.1019384E-02  0.1057211E+04  0.7818609E-02  0.9247931E-01
        2   -1    0    0  501    0  0.00000000000E+00  0.00000000000E+00  0.78955024201E+03  0.78955024201E+03  0.25500000920E-02 0. -1.
       -2   -1    0    0    0  501  0.00000000000E+00  0.00000000000E+00 -0.35390229510E+03  0.35390229511E+03  0.25500000920E-02 0.  1.
    10030    2    1    2    0    0  0.00000000000E+00  0.00000000000E+00  0.43564794691E+03  0.11434525371E+04  0.10572107505E+04 0.  0.
        1    1    3    3  502    0  0.27412636580E+03 -0.21999293339E+03  0.64484950555E+03  0.73442020669E+03  0.50400001928E-02 0. -1.
       -1    1    3    3    0  502 -0.27412636580E+03  0.21999293339E+03 -0.20920155863E+03  0.40903233042E+03  0.50400001928E-02 0.  1.
</event>
<event>
 5   0  0.9692981E-03  0.8917765E+03  0.7818609E-02  0.9435920E-01
        2   -1    0    0  501    0  0.00000000000E+00  0.00000000000E+00  0.59059880509E+03  0.59059880510E+03  0.25500000920E-02 0. -1.
       -2   -1    0    0    0  501  0.00000000000E+00  0.00000000000E+00 -0.33663513654E+03  0.33663513655E+03  0.25500000920E-02 0.  1.
    10030    2    1    2    0    0  0.00000000000E+00  0.00000000000E+00  0.25396366855E+03  0.92723394165E+03  0.89177645046E+03 0.  0.
        5    1    3    3  502    0  0.18542279478E+03 -0.36411443447E+03 -0.58531038674E+02  0.41280613694E+03  0.46999998093E+01 0.  1.
       -5    1    3    3    0  502 -0.18542279478E+03  0.36411443447E+03  0.31249470722E+03  0.51442780470E+03  0.46999998093E+01 0. -1.
</event>
<event>
 5   0  0.9719260E-03  0.1096774E+04  0.7818609E-02  0.9208342E-01
       -2   -1    0    0    0  501  0.00000000000E+00  0.00000000000E+00  0.13478177546E+03  0.13478177548E+03  0.25500000920E-02 0.  1.
        2   -1    0    0  501    0  0.00000000000E+00  0.00000000000E+00 -0.22312232955E+04  0.22312232955E+04  0.25500000920E-02 0. -1.
    10030    2    1    2    0    0  0.00000000000E+00  0.00000000000E+00 -0.20964415200E+04  0.23660050710E+04  0.10967738823E+04 0.  0.
        3    1    3    3  502    0 -0.24881410113E+01  0.21078903399E+03  0.43884296848E+02  0.21532312789E+03  0.10100000352E+00 0.  1.
       -3    1    3    3    0  502  0.24881410113E+01 -0.21078903399E+03 -0.21403258169E+04  0.21506819431E+04  0.10100000352E+00 0. -1.
</event>
<event>
 5   0  0.5854579E-03  0.1114841E+04  0.7818609E-02  0.9190846E-01
       -1   -1    0    0    0  501  0.00000000000E+00  0.00000000000E+00  0.43925368182E+03  0.43925368185E+03  0.50400001928E-02 0. -1.
        1   -1    0    0  501    0  0.00000000000E+00  0.00000000000E+00 -0.70737622136E+03  0.70737622137E+03  0.50400001928E-02 0.  1.
    10030    2    1    2    0    0  0.00000000000E+00  0.00000000000E+00 -0.26812253954E+03  0.11466299032E+04  0.11148409926E+04 0.  0.
        4    1    3    3  502    0 -0.12988111176E+03 -0.31257009869E+03  0.32145194207E+03  0.46679988619E+03  0.12699999809E+01 0. -1.
       -4    1    3    3    0  502  0.12988111176E+03  0.31257009869E+03 -0.58957448161E+03  0.67983001703E+03  0.12699999809E+01 0.  1.
</event>
<event>
 5   0  0.5789905E-03  0.1025647E+04  0.7818609E-02  0.9280855E-01
       -1   -1    0    0    0  501  0.00000000000E+00  0.00000000000E+00  0.21485755568E+03  0.21485755574E+03  0.50400001928E-02 0. -1.
        1   -1    0    0  501    0  0.00000000000E+00  0.00000000000E+00 -0.12240101545E+04  0.12240101545E+04  0.50400001928E-02 0.  1.
    10030    2    1    2    0    0  0.00000000000E+00  0.00000000000E+00 -0.10091525988E+04  0.14388677103E+04  0.10256467813E+04 0.  0.
        1    1    3    3  502    0 -0.81530535991E+02  0.44459396563E+03 -0.16475055017E+03  0.48109642108E+03  0.50400001928E-02 0.  1.
       -1    1    3    3    0  502  0.81530535991E+02 -0.44459396563E+03 -0.84440204865E+03  0.95777128917E+03  0.50400001928E-02 0. -1.
</event>
<event>
 5   0  0.5789905E-03  0.1254817E+04  0.7818609E-02  0.9066183E-01
       -1   -1    0    0    0  501  0.00000000000E+00  0.00000000000E+00  0.27697765482E+03  0.27697765486E+03  0.50400001928E-02 0. -1.
        1   -1    0    0  501    0  0.00000000000E+00  0.00000000000E+00 -0.14212031171E+04  0.14212031171E+04  0.50400001928E-02 0.  1.
    10030    2    1    2    0    0  0.00000000000E+00  0.00000000000E+00 -0.11442254622E+04  0.16981807719E+04  0.12548171284E+04 0.  0.
        1    1    3    3  502    0  0.47201102878E+02 -0.51171149393E+01  0.27454307019E+03  0.27861806545E+03  0.50400001928E-02 0. -1.
       -1    1    3    3    0  502 -0.47201102878E+02  0.51171149393E+01 -0.14187685324E+04  0.14195627065E+04  0.50400001928E-02 0.  1.
</event>
<event>
 5   0  0.9692981E-03  0.1069622E+04  0.7818609E-02  0.9235317E-01
        2   -1    0    0  501    0  0.00000000000E+00  0.00000000000E+00  0.10334545983E+04  0.10334545983E+04  0.25500000920E-02 0.  1.
       -2   -1    0    0    0  501  0.00000000000E+00  0.00000000000E+00 -0.27676380469E+03  0.27676380470E+03  0.25500000920E-02 0. -1.
    10030    2    1    2    0    0  0.00000000000E+00  0.00000000000E+00  0.75669079364E+03  0.13102184030E+04  0.10696220391E+04 0.  0.
        5    1    3    3  502    0  0.21639121949E+03  0.39614318410E+03  0.72963973703E+03  0.85799231817E+03  0.46999998093E+01 0.  1.
       -5    1    3    3    0  502 -0.21639121949E+03 -0.39614318410E+03  0.27051056606E+02  0.45222608487E+03  0.46999998093E+01 0. -1.
</event>
<event>
 5   0  0.1019384E-02  0.1044897E+04  0.7818609E-02  0.9260629E-01
        2   -1    0    0  501    0  0.00000000000E+00  0.00000000000E+00  0.10926782147E+04  0.10926782147E+04  0.25500000920E-02 0. -1.
       -2   -1    0    0    0  501  0.00000000000E+00  0.00000000000E+00 -0.24980110833E+03  0.24980110835E+03  0.25500000920E-02 0.  1.
    10030    2    1    2    0    0  0.00000000000E+00  0.00000000000E+00  0.84287710637E+03  0.13424793230E+04  0.10448966056E+04 0.  0.
        1    1    3    3  502    0  0.63823706830E+02  0.51215389588E+03  0.52563506375E+03  0.73665955427E+03  0.50400001928E-02 0. -1.
       -1    1    3    3    0  502 -0.63823706830E+02 -0.51215389588E+03  0.31724204261E+03  0.60581976878E+03  0.50400001928E-02 0.  1.
</event>
<event>
 5   0  0.5998641E-03  0.1085482E+04  0.7818609E-02  0.9219458E-01
       -1   -1    0    0    0  501  0.00000000000E+00  0.00000000000E+00  0.32743699043E+03  0.32743699047E+03  0.50400001928E-02 0. -1.
        1   -1    0    0  501    0  0.00000000000E+00  0.00000000000E+00 -0.89961735797E+03  0.89961735799E+03  0.50400001928E-02 0.  1.
    10030    2    1    2    0    0  0.00000000000E+00  0.00000000000E+00 -0.57218036755E+03  0.12270543485E+04  0.10854823817E+04 0.  0.
        3    1    3    3  502    0 -0.31483915104E+03 -0.67418224531E+02 -0.77999463476E+03  0.84383680204E+03  0.10100000352E+00 0.  1.
       -3    1    3    3    0  502  0.31483915104E+03  0.67418224531E+02  0.20781426721E+03  0.38321754642E+03  0.10100000352E+00 0. -1.
</event>
<event>
 5   0  0.5998641E-03  0.1098617E+04  0.7818609E-02  0.9206541E-01
       -1   -1    0    0    0  501  0.00000000000E+00  0.00000000000E+00  0.28073518985E+03  0.28073518989E+03  0.50400001928E-02 0.  1.
        1   -1    0    0  501    0  0.00000000000E+00  0.00000000000E+00 -0.10748199610E+04  0.10748199610E+04  0.50400001928E-02 0. -1.
    10030    2    1    2    0    0  0.00000000000E+00  0.00000000000E+00 -0.79408477116E+03  0.13555551509E+04  0.10986169229E+04 0.  0.
        3    1    3    3  502    0  0.56691863643E+02 -0.45498419544E+03 -0.23777187077E+02  0.45911866694E+03  0.10100000352E+00 0. -1.
       -3    1    3    3    0  502 -0.56691863643E+02  0.45498419544E+03 -0.77030758408E+03  0.89643648398E+03  0.10100000352E+00 0.  1.
</event>
<event>
 5   0  0.1019384E-02  0.1100035E+04  0.7818609E-02  0.9205158E-01
       -2   -1    0    0    0  501  0.00000000000E+00  0.00000000000E+00  0.70465788234E+03  0.70465788234E+03  0.25500000920E-02 0.  1.
        2   -1    0    0  501    0  0.00000000000E+00  0.00000000000E+00 -0.42931375145E+03  0.42931375146E+03  0.25500000920E-02 0. -1.
    10030    2    1    2    0    0  0.00000000000E+00  0.00000000000E+00  0.27534413089E+03  0.11339716338E+04  0.11000351248E+04 0.  0.
        1    1    3    3  502    0 -0.23740555503E+03  0.45922981146E+03  0.33125770346E+03  0.61399111021E+03  0.50400001928E-02 0.  1.
       -1    1    3    3    0  502  0.23740555503E+03 -0.45922981146E+03 -0.55913572569E+02  0.51998052359E+03  0.50400001928E-02 0. -1.
</event>
<event>
 5   0  0.5789905E-03  0.1126945E+04  0.7818609E-02  0.9179320E-01
        1   -1    0    0  501    0  0.00000000000E+00  0.00000000000E+00  0.92164758960E+03  0.92164758962E+03  0.50400001928E-02 0. -1.
       -1   -1    0    0    0  501  0.00000000000E+00  0.00000000000E+00 -0.34449318337E+03  0.34449318340E+03  0.50400001928E-02 0.  1.
    10030    2    1    2    0    0  0.00000000000E+00  0.00000000000E+00  0.57715440624E+03  0.12661407730E+04  0.11269450956E+04 0.  0.
        1    1    3    3  502    0  0.41323476072E+03 -0.25403701453E+03  0.61070225119E+03  0.77990705335E+03  0.50400001928E-02 0. -1.
       -1    1    3    3    0  502 -0.41323476072E+03  0.25403701453E+03 -0.33547844957E+02  0.48623371967E+03  0.50400001928E-02 0.  1.
</event>
<event>
 5   0  0.5958706E-03  0.1089980E+04  0.7818609E-02  0.9215013E-01
       -1   -1    0    0    0  501  0.00000000000E+00  0.00000000000E+00  0.43499481850E+03  0.43499481853E+03  0.50400001928E-02 0. -1.
        1   -1    0    0  501    0  0.00000000000E+00  0.00000000000E+00 -0.68279962715E+03  0.68279962717E+03  0.50400001928E-02 0.  1.
    10030    2    1    2    0    0  0.00000000000E+00  0.00000000000E+00 -0.24780480864E+03  0.11177944457E+04  0.10899803666E+04 0.  0.
        2    1    3    3  502    0  0.42208019766E+03 -0.30668853081E+03  0.37611797022E+02  0.52309100113E+03  0.25500000920E-02 0. -1.
       -2    1    3    3    0  502 -0.42208019766E+03  0.30668853081E+03 -0.28541660566E+03  0.59470344457E+03  0.25500000920E-02 0.  1.
</event>
<event>
 5   0  0.5854579E-03  0.1114836E+04  0.7818609E-02  0.9190851E-01
       -1   -1    0    0    0  501  0.00000000000E+00  0.00000000000E+00  0.11173934417E+04  0.11173934417E+04  0.50400001928E-02 0.  1.
        1   -1    0    0  501    0  0.00000000000E+00  0.00000000000E+00 -0.27807107200E+03  0.27807107205E+03  0.50400001928E-02 0. -1.
    10030    2    1    2    0    0  0.00000000000E+00  0.00000000000E+00  0.83932236967E+03  0.13954645137E+04  0.11148359381E+04 0.  0.
        4    1    3    3  502    0 -0.24535840703E+03 -0.39172270814E+03  0.80963984871E+03  0.93229057997E+03  0.12699999809E+01 0.  1.
       -4    1    3    3    0  502  0.24535840703E+03  0.39172270814E+03  0.29682520958E+02  0.46317393376E+03  0.12699999809E+01 0. -1.
</event>
<event>
 5   0  0.5958706E-03  0.1100346E+04  0.7818609E-02  0.9204855E-01
        1   -1    0    0  501    0  0.00000000000E+00  0.00000000000E+00  0.67134179006E+03  0.67134179008E+03  0.50400001928E-02 0. -1.
       -1   -1    0    0    0  501  0.00000000000E+00  0.00000000000E+00 -0.45087369999E+03  0.45087370002E+03  0.50400001928E-02 0.  1.
    10030    2    1    2    0    0  0.00000000000E+00  0.00000000000E+00  0.22046809007E+03  0.11222154901E+04  0.11003460490E+04 0.  0.
        2    1    3    3  502    0 -0.27688439314E+03  0.24537039323E+03 -0.30506774405E+03  0.47951843083E+03  0.25500000920E-02 0.  1.
       -2    1    3    3    0  502  0.27688439314E+03 -0.24537039323E+03  0.52553583412E+03  0.64269705926E+03  0.25500000920E-02 0. -1.
</event>
<event>
 5   0  0.5789905E-03  0.1106561E+04  0.7818609E-02  0.9198821E-01
        1   -1    0    0  501    0  0.00000000000E+00  0.00000000000E+00  0.76627530537E+03  0.76627530539E+03  0.50400001928E-02 0.  1.
       -1   -1    0    0    0  501  0.00000000000E+00  0.00000000000E+00 -0.39948998609E+03  0.39948998612E+03  0.50400001928E-02 0. -1.
    10030    2    1    2    0    0  0.00000000000E+00  0.00000000000E+00  0.36678531929E+03  0.11657652915E+04  0.11065609990E+04 0.  0.
        1    1    3    3  502    0 -0.98291978004E+02  0.37278183440E+03 -0.23469235345E+03  0.45134034806E+03  0.50400001928E-02 0. -1.
       -1    1    3    3    0  502  0.98291978004E+02 -0.37278183440E+03  0.60147767273E+03  0.71442494345E+03  0.50400001928E-02 0.  1.
</event>
<event>
 5   0  0.5998641E-03  0.1091367E+04  0.7818609E-02  0.9213647E-01
        1   -1    0    0  501    0  0.00000000000E+00  0.00000000000E+00  0.60075995949E+03  0.60075995951E+03  0.50400001928E-02 0. -1.
       -1   -1    0    0    0  501  0.00000000000E+00  0.00000000000E+00 -0.49565618693E+03  0.49565618696E+03  0.50400001928E-02 0.  1.
    10030    2    1    2    0    0  0.00000000000E+00  0.00000000000E+00  0.10510377256E+03  0.10964161465E+04  0.10913668326E+04 0.  0.
        3    1    3    3  502    0  0.45283360613E+03  0.92982431630E+02 -0.23873157534E+03  0.52028528972E+03  0.10100000352E+00 0.  1.
       -3    1    3    3    0  502 -0.45283360613E+03 -0.92982431630E+02  0.34383534790E+03  0.57613085675E+03  0.10100000352E+00 0. -1.
</event>
<event>
 5   0  0.5854579E-03  0.1126729E+04  0.7818609E-02  0.9179525E-01
       -1   -1    0    0    0  501  0.00000000000E+00  0.00000000000E+00  0.40279989196E+03  0.40279989200E+03  0.50400001928E-02 0. -1.
        1   -1    0    0  501    0  0.00000000000E+00  0.00000000000E+00 -0.78793332719E+03  0.78793332720E+03  0.50400001928E-02 0.  1.
    10030    2    1    2    0    0  0.00000000000E+00  0.00000000000E+00 -0.38513343522E+03  0.11907332192E+04  0.11267288211E+04 0.  0.
        4    1    3    3  502    0 -0.16467250232E+03 -0.31724737667E+03  0.26761707005E+03  0.44652372849E+03  0.12699999809E+01 0. -1.
       -4    1    3    3    0  502  0.16467250232E+03  0.31724737667E+03 -0.65275050527E+03  0.74420949071E+03  0.12699999809E+01 0.  1.
</event>
<event>
 5   0  0.9719260E-03  0.1153290E+04  0.7818609E-02  0.9154754E-01
        2   -1    0    0  501    0  0.00000000000E+00  0.00000000000E+00  0.19567421859E+03  0.19567421861E+03  0.25500000920E-02 0.  1.
       -2   -1    0    0    0  501  0.00000000000E+00  0.00000000000E+00 -0.16993518170E+04  0.16993518170E+04  0.25500000920E-02 0. -1.
    10030    2    1    2    0    0  0.00000000000E+00  0.00000000000E+00 -0.15036775984E+04  0.18950260356E+04  0.11532897969E+04 0.  0.
        3    1    3    3  502    0  0.11702973459E+03  0.16630916749E+03 -0.16384761859E+04  0.16510478248E+04  0.10100000352E+00 0. -1.
       -3    1    3    3    0  502 -0.11702973459E+03 -0.16630916749E+03  0.13479858745E+03  0.24397821081E+03  0.10100000352E+00 0.  1.
</event>
<event>
 5   0  0.5958706E-03  0.1094406E+04  0.7818609E-02  0.9210661E-01
       -1   -1    0    0    0  501  0.00000000000E+00  0.00000000000E+00  0.15631580250E+03  0.15631580258E+03  0.50400001928E-02 0. -1.
        1   -1    0    0  501    0  0.00000000000E+00  0.00000000000E+00 -0.19155538828E+04  0.19155538828E+04  0.50400001928E-02 0.  1.
    10030    2    1    2    0    0  0.00000000000E+00  0.00000000000E+00 -0.17592380803E+04  0.20718696854E+04  0.10944064008E+04 0.  0.
        2    1    3    3  502    0  0.44296800027E+03  0.31131791754E+03 -0.72945259345E+03  0.90842753213E+03  0.25500000920E-02 0. -1.
       -2    1    3    3    0  502 -0.44296800027E+03 -0.31131791754E+03 -0.10297854869E+04  0.11634421533E+04  0.25500000920E-02 0.  1.
</event>
<event>
 5   0  0.5998641E-03  0.1093432E+04  0.7818609E-02  0.9211617E-01
       -1   -1    0    0    0  501  0.00000000000E+00  0.00000000000E+00  0.17447770638E+04  0.17447770638E+04  0.50400001928E-02 0.  1.
        1   -1    0    0  501    0  0.00000000000E+00  0.00000000000E+00 -0.17131036996E+03  0.17131037004E+03  0.50400001928E-02 0. -1.
    10030    2    1    2    0    0  0.00000000000E+00  0.00000000000E+00  0.15734666938E+04  0.19160874339E+04  0.10934320361E+04 0.  0.
        3    1    3    3  502    0 -0.24778367975E+03 -0.40830967399E+03  0.32051034758E+03  0.57518730421E+03  0.10100000352E+00 0. -1.
       -3    1    3    3    0  502  0.24778367975E+03  0.40830967399E+03  0.12529563463E+04  0.13409001296E+04  0.10100000352E+00 0.  1.
</event>
<event>
 5   0  0.3949750E-03  0.1094035E+04  0.7818609E-02  0.9211026E-01
        4   -1    0    0  501    0  0.00000000000E+00  0.00000000000E+00  0.12686084958E+04  0.12686091315E+04  0.12699999809E+01 0. -1.
       -4   -1    0    0    0  501  0.00000000000E+00  0.00000000000E+00 -0.23586853364E+03  0.23587195268E+03  0.12699999809E+01 0.  1.
    10030    2    1    2    0    0  0.00000000000E+00  0.00000000000E+00  0.10327399621E+04  0.15044810842E+04  0.10940345073E+04 0.  0.
        4    1    3    3  502    0 -0.10286360614E+03  0.35643865408E+03  0.10691751895E+04  0.11317096069E+04  0.12699999809E+01 0. -1.
       -4    1    3    3    0  502  0.10286360614E+03 -0.35643865408E+03 -0.36435227330E+02  0.37277147729E+03  0.12699999809E+01 0.  1.
</event>
<event>
 5   0  0.1019384E-02  0.1090802E+04  0.7818609E-02  0.9214204E-01
       -2   -1    0    0    0  501  0.00000000000E+00  0.00000000000E+00  0.76630518505E+03  0.76630518506E+03  0.25500000920E-02 0. -1.
        2   -1    0    0  501    0  0.00000000000E+00  0.00000000000E+00 -0.38817700583E+03  0.38817700584E+03  0.25500000920E-02 0.  1.
    10030    2    1    2    0    0  0.00000000000E+00  0.00000000000E+00  0.37812817922E+03  0.11544821909E+04  0.10908016360E+04 0.  0.
        1    1    3    3  502    0  0.22891376455E+03 -0.70248615927E+02  0.70769781503E+03  0.74710948131E+03  0.50400001928E-02 0. -1.
       -1    1    3    3    0  502 -0.22891376455E+03  0.70248615927E+02 -0.32956963581E+03  0.40737270959E+03  0.50400001928E-02 0.  1.
</event>
<event>
 5   0  0.3949750E-03  0.1091011E+04  0.7818609E-02  0.9213998E-01
        3   -1    0    0  501    0  0.00000000000E+00  0.00000000000E+00  0.17925177771E+03  0.17925180616E+03  0.10100000352E+00 0. -1.
       -3   -1    0    0    0  501  0.00000000000E+00  0.00000000000E+00 -0.16601011418E+04  0.16601011448E+04  0.10100000352E+00 0.  1.
    10030    2    1    2    0    0  0.00000000000E+00  0.00000000000E+00 -0.14808493641E+04  0.18393529510E+04  0.10910107421E+04 0.  0.
        1    1    3    3  502    0 -0.35605480148E+03  0.39933708318E+03 -0.91988557497E+03  0.10641591040E+04  0.50400001928E-02 0.  1.
       -1    1    3    3    0  502  0.35605480148E+03 -0.39933708318E+03 -0.56096378909E+03  0.77519384695E+03  0.50400001928E-02 0. -1.
</event>
<event>
 5   0  0.5789905E-03  0.1109764E+04  0.7818609E-02  0.9195728E-01
       -1   -1    0    0    0  501  0.00000000000E+00  0.00000000000E+00  0.49932007514E+03  0.49932007517E+03  0.50400001928E-02 0.  1.
        1   -1    0    0  501    0  0.00000000000E+00  0.00000000000E+00 -0.61662617022E+03  0.61662617024E+03  0.50400001928E-02 0. -1.
    10030    2    1    2    0    0  0.00000000000E+00  0.00000000000E+00 -0.11730609508E+03  0.11159462454E+04  0.11097636247E+04 0.  0.
        1    1    3    3  502    0  0.19097701649E+03  0.50998265907E+03  0.48426311902E+02  0.54671714907E+03  0.50400001928E-02 0.  1.
       -1    1    3    3    0  502 -0.19097701649E+03 -0.50998265907E+03 -0.16573240698E+03  0.56922909635E+03  0.50400001928E-02 0. -1.
</event>
<event>
 5   0  0.1028016E-02  0.6268741E+03  0.7818609E-02  0.9851168E-01
       -2   -1    0    0    0  501  0.00000000000E+00  0.00000000000E+00  0.69242298672E+02  0.69242298719E+02  0.25500000920E-02 0. -1.
        2   -1    0    0  501    0  0.00000000000E+00  0.00000000000E+00 -0.14188263325E+04  0.14188263325E+04  0.25500000920E-02 0.  1.
    10030    2    1    2    0    0  0.00000000000E+00  0.00000000000E+00 -0.13495840338E+04  0.14880686312E+04  0.62687413956E+03 0.  0.
        2    1    3    3  502    0  0.24367754131E+03 -0.93527525239E+02 -0.26284062790E+03  0.37042048782E+03  0.25500000920E-02 0. -1.
       -2    1    3    3    0  502 -0.24367754131E+03  0.93527525239E+02 -0.10867434059E+04  0.11176481434E+04  0.25500000920E-02 0.  1.
</event>
<event>
 5   0  0.5712664E-03  0.8494740E+03  0.7818609E-02  0.9491043E-01
       -1   -1    0    0    0  501  0.00000000000E+00  0.00000000000E+00  0.59254309695E+03  0.59254309697E+03  0.50400001928E-02 0.  1.
        1   -1    0    0  501    0  0.00000000000E+00  0.00000000000E+00 -0.30445299515E+03  0.30445299519E+03  0.50400001928E-02 0. -1.
    10030    2    1    2    0    0  0.00000000000E+00  0.00000000000E+00  0.28809010180E+03  0.89699609216E+03  0.84947400349E+03 0.  0.
        5    1    3    3  502    0 -0.25988251193E+02  0.40831792377E+03  0.23739293098E+02  0.40985919546E+03  0.46999998093E+01 0.  1.
       -5    1    3    3    0  502  0.25988251193E+02 -0.40831792377E+03  0.26435080870E+03  0.48713689670E+03  0.46999998093E+01 0. -1.
</event>
<event>
 5   0  0.5854579E-03  0.1112589E+04  0.7818609E-02  0.9193008E-01
       -1   -1    0    0    0  501  0.00000000000E+00  0.00000000000E+00  0.19796309898E+03  0.19796309905E+03  0.50400001928E-02 0.  1.
        1   -1    0    0  501    0  0.00000000000E+00  0.00000000000E+00 -0.15632390852E+04  0.15632390852E+04  0.50400001928E-02 0. -1.
    10030    2    1    2    0    0  0.00000000000E+00  0.00000000000E+00 -0.13652759862E+04  0.17612021842E+04  0.11125891494E+04 0.  0.
        4    1    3    3  502    0 -0.54236426430E+03  0.90961854609E+02 -0.81535322096E+03  0.98348133791E+03  0.12699999809E+01 0. -1.
       -4    1    3    3    0  502  0.54236426430E+03 -0.90961854609E+02 -0.54992276524E+03  0.77772084633E+03  0.12699999809E+01 0.  1.
</event>
<event>
 5   0  0.5998641E-03  0.1089681E+04  0.7818609E-02  0.9215308E-01
       -1   -1    0    0    0  501  0.00000000000E+00  0.00000000000E+00  0.82671708650E+03  0.82671708652E+03  0.50400001928E-02 0.  1.
        1   -1    0    0  501    0  0.00000000000E+00  0.00000000000E+00 -0.35907244531E+03  0.35907244535E+03  0.50400001928E-02 0. -1.
    10030    2    1    2    0    0  0.00000000000E+00  0.00000000000E+00  0.46764464119E+03  0.11857895319E+04  0.10896812853E+04 0.  0.
        3    1    3    3  502    0  0.40337607584E+03 -0.29760456584E+03  0.46612295484E+03  0.68450811201E+03  0.10100000352E+00 0.  1.
       -3    1    3    3    0  502 -0.40337607584E+03  0.29760456584E+03  0.15216863503E+01  0.50128141986E+03  0.10100000352E+00 0. -1.
</event>
<event>
 5   0  0.3949750E-03  0.1065518E+04  0.7818609E-02  0.9239468E-01
       -3   -1    0    0    0  501  0.00000000000E+00  0.00000000000E+00  0.37969151832E+03  0.37969153176E+03  0.10100000352E+00 0. -1.
        3   -1    0    0  501    0  0.00000000000E+00  0.00000000000E+00 -0.74753365047E+03  0.74753365729E+03  0.10100000352E+00 0.  1.
    10030    2    1    2    0    0  0.00000000000E+00  0.00000000000E+00 -0.36784213215E+03  0.11272251891E+04  0.10655180865E+04 0.  0.
        2    1    3    3  502    0  0.28134527315E+02  0.48944448521E+03  0.36685436748E+02  0.49162310462E+03  0.25500000920E-02 0.  1.
       -2    1    3    3    0  502 -0.28134527315E+02 -0.48944448521E+03 -0.40452756889E+03  0.63560208443E+03  0.25500000920E-02 0. -1.
</event>
<event>
 5   0  0.9719260E-03  0.1101430E+04  0.7818609E-02  0.9203799E-01
        2   -1    0    0  501    0  0.00000000000E+00  0.00000000000E+00  0.86514757829E+03  0.86514757830E+03  0.25500000920E-02 0. -1.
       -2   -1    0    0    0  501  0.00000000000E+00  0.00000000000E+00 -0.35056097733E+03  0.35056097734E+03  0.25500000920E-02 0.  1.
    10030    2    1    2    0    0  0.00000000000E+00  0.00000000000E+00  0.51458660096E+03  0.12157085556E+04  0.11014299444E+04 0.  0.
        3    1    3    3  502    0 -0.36178399405E+03 -0.39018669353E+03  0.10060032885E+03  0.54152908558E+03  0.10100000352E+00 0.  1.
       -3    1    3    3    0  502  0.36178399405E+03  0.39018669353E+03  0.41398627211E+03  0.67417947006E+03  0.10100000352E+00 0. -1.
</event>
<event>
 5   0  0.9925021E-03  0.8987594E+03  0.7818609E-02  0.9427134E-01
        2   -1    0    0  501    0  0.00000000000E+00  0.00000000000E+00  0.51437474856E+03  0.51437474856E+03  0.25500000920E-02 0.  1.
       -2   -1    0    0    0  501  0.00000000000E+00  0.00000000000E+00 -0.39259728216E+03  0.39259728217E+03  0.25500000920E-02 0. -1.
    10030    2    1    2    0    0  0.00000000000E+00  0.00000000000E+00  0.12177746639E+03  0.90697203073E+03  0.89875943011E+03 0.  0.
        4    1    3    3  502    0 -0.37214451783E+03  0.10732261564E+03  0.29085443275E+03  0.48436308687E+03  0.12699999809E+01 0.  1.
       -4    1    3    3    0  502  0.37214451783E+03 -0.10732261564E+03 -0.16907696635E+03  0.42260894386E+03  0.12699999809E+01 0. -1.
</event>
<event>
 5   0  0.5854579E-03  0.9440545E+03  0.7818609E-02  0.9372127E-01
        1   -1    0    0  501    0  0.00000000000E+00  0.00000000000E+00  0.12148363255E+04  0.12148363255E+04  0.50400001928E-02 0. -1.
       -1   -1    0    0    0  501  0.00000000000E+00  0.00000000000E+00 -0.18340719557E+03  0.18340719564E+03  0.50400001928E-02 0.  1.
    10030    2    1    2    0    0  0.00000000000E+00  0.00000000000E+00  0.10314291299E+04  0.13982435211E+04  0.94405449754E+03 0.  0.
        4    1    3    3  502    0 -0.35504301757E+03 -0.18545785830E+03  0.88556970769E+03  0.97194932050E+03  0.12699999809E+01 0. -1.
       -4    1    3    3    0  502  0.35504301757E+03  0.18545785830E+03  0.14585942220E+03  0.42629420061E+03  0.12699999809E+01 0.  1.
</event>
<event>
 5   0  0.5712664E-03  0.1106688E+04  0.7818609E-02  0.9198698E-01
        1   -1    0    0  501    0  0.00000000000E+00  0.00000000000E+00  0.32455862806E+03  0.32455862810E+03  0.50400001928E-02 0. -1.
       -1   -1    0    0    0  501  0.00000000000E+00  0.00000000000E+00 -0.94340303608E+03  0.94340303609E+03  0.50400001928E-02 0.  1.
    10030    2    1    2    0    0  0.00000000000E+00  0.00000000000E+00 -0.61884440802E+03  0.12679616642E+04  0.11066880231E+04 0.  0.
        5    1    3    3  502    0 -0.20024590683E+03 -0.49248832622E+03 -0.13369477743E+03  0.54821488321E+03  0.46999998093E+01 0.  1.
       -5    1    3    3    0  502  0.20024590683E+03  0.49248832622E+03 -0.48514963059E+03  0.71974678097E+03  0.46999998093E+01 0. -1.
</event>
<event>
 5   0  0.9719260E-03  0.1105513E+04  0.7818609E-02  0.9199835E-01
        2   -1    0    0  501    0  0.00000000000E+00  0.00000000000E+00  0.10551467710E+04  0.10551467710E+04  0.25500000920E-02 0. -1.
       -2   -1    0    0    0  501  0.00000000000E+00  0.00000000000E+00 -0.28957092708E+03  0.28957092709E+03  0.25500000920E-02 0.  1.
    10030    2    1    2    0    0  0.00000000000E+00  0.00000000000E+00  0.76557584397E+03  0.13447176981E+04  0.11055131455E+04 0.  0.
        3    1    3    3  502    0 -0.33838611969E+03 -0.19476906327E+03 -0.93154404505E+02  0.40139495175E+03  0.10100000352E+00 0.  1.
       -3    1    3    3    0  502  0.33838611969E+03  0.19476906327E+03  0.85873024848E+03  0.94332274639E+03  0.10100000352E+00 0. -1.
</event>
<event>
 5   0  0.5958706E-03  0.1091823E+04  0.7818609E-02  0.9213198E-01
       -1   -1    0    0    0  501  0.00000000000E+00  0.00000000000E+00  0.41741546632E+03  0.41741546635E+03  0.50400001928E-02 0. -1.
        1   -1    0    0  501    0  0.00000000000E+00  0.00000000000E+00 -0.71396363456E+03  0.71396363458E+03  0.50400001928E-02 0.  1.
    10030    2    1    2    0    0  0.00000000000E+00  0.00000000000E+00 -0.29654816823E+03  0.11313791009E+04  0.10918231789E+04 0.  0.
        2    1    3    3  502    0 -0.41838941679E+03  0.11492145265E+02 -0.51145386525E+03  0.66088337077E+03  0.25500000920E-02 0.  1.
       -2    1    3    3    0  502  0.41838941679E+03 -0.11492145265E+02  0.21490569701E+03  0.47049573016E+03  0.25500000920E-02 0. -1.
</event>
<event>
 5   0  0.9719260E-03  0.1126696E+04  0.7818609E-02  0.9179556E-01
       -2   -1    0    0    0  501  0.00000000000E+00  0.00000000000E+00  0.11139470098E+04  0.11139470099E+04  0.25500000920E-02 0. -1.
        2   -1    0    0  501    0  0.00000000000E+00  0.00000000000E+00 -0.28489750811E+03  0.28489750813E+03  0.25500000920E-02 0.  1.
    10030    2    1    2    0    0  0.00000000000E+00  0.00000000000E+00  0.82904950173E+03  0.13988445180E+04  0.11266955707E+04 0.  0.
        3    1    3    3  502    0 -0.34274433032E+03 -0.36049638848E+03  0.74284127680E+03  0.89400475099E+03  0.10100000352E+00 0. -1.
       -3    1    3    3    0  502  0.34274433032E+03  0.36049638848E+03  0.86208224932E+02  0.50483976698E+03  0.10100000352E+00 0.  1.
</event>
<event>
 5   0  0.5712664E-03  0.1127053E+04  0.7818609E-02  0.9179218E-01
        1   -1    0    0  501    0  0.00000000000E+00  0.00000000000E+00  0.95937630163E+03  0.95937630164E+03  0.50400001928E-02 0.  1.
       -1   -1    0    0    0  501  0.00000000000E+00  0.00000000000E+00 -0.33100902221E+03  0.33100902225E+03  0.50400001928E-02 0. -1.
    10030    2    1    2    0    0  0.00000000000E+00  0.00000000000E+00  0.62836727942E+03  0.12903853239E+04  0.11270531692E+04 0.  0.
        5    1    3    3  502    0 -0.48564184381E+03  0.23348909905E+03  0.12544558217E+03  0.55328459577E+03  0.46999998093E+01 0.  1.
       -5    1    3    3    0  502  0.48564184381E+03 -0.23348909905E+03  0.50292169725E+03  0.73710072812E+03  0.46999998093E+01 0. -1.
</event>
<event>
 5   0  0.5958706E-03  0.1059503E+04  0.7818609E-02  0.9245588E-01
       -1   -1    0    0    0  501  0.00000000000E+00  0.00000000000E+00  0.40895037795E+03  0.40895037798E+03  0.50400001928E-02 0. -1.
        1   -1    0    0  501    0  0.00000000000E+00  0.00000000000E+00 -0.68623596706E+03  0.68623596708E+03  0.50400001928E-02 0.  1.
    10030    2    1    2    0    0  0.00000000000E+00  0.00000000000E+00 -0.27728558912E+03  0.10951863451E+04  0.10595026345E+04 0.  0.
        2    1    3    3  502    0  0.10985854981E+03 -0.20242934726E+03  0.35448841315E+03  0.42273937203E+03  0.25500000920E-02 0. -1.
       -2    1    3    3    0  502 -0.10985854981E+03  0.20242934726E+03 -0.63177400226E+03  0.67244697303E+03  0.25500000920E-02 0.  1.
</event>
<event>
 5   0  0.9692981E-03  0.1096666E+04  0.7818609E-02  0.9208447E-01
       -2   -1    0    0    0  501  0.00000000000E+00  0.00000000000E+00  0.13983369734E+04  0.13983369734E+04  0.25500000920E-02 0. -1.
        2   -1    0    0  501    0  0.00000000000E+00  0.00000000000E+00 -0.21501919568E+03  0.21501919569E+03  0.25500000920E-02 0.  1.
    10030    2    1    2    0    0  0.00000000000E+00  0.00000000000E+00  0.11833177777E+04  0.16133561691E+04  0.10966663874E+04 0.  0.
        5    1    3    3  502    0 -0.25267480713E+03  0.42981728170E+03  0.92732442267E+03  0.10528723231E+04  0.46999998093E+01 0. -1.
       -5    1    3    3    0  502  0.25267480713E+03 -0.42981728170E+03  0.25599335502E+03  0.56048384599E+03  0.46999998093E+01 0.  1.
</event>
<event>
 5   0  0.5789905E-03  0.1127986E+04  0.7818609E-02  0.9178336E-01
        1   -1    0    0  501    0  0.00000000000E+00  0.00000000000E+00  0.67072952950E+03  0.67072952952E+03  0.50400001928E-02 0. -1.
       -1   -1    0    0    0  501  0.00000000000E+00  0.00000000000E+00 -0.47424165058E+03  0.47424165060E+03  0.50400001928E-02 0.  1.
    10030    2    1    2    0    0  0.00000000000E+00  0.00000000000E+00  0.19648787892E+03  0.11449711801E+04  0.11279856013E+04 0.  0.
        1    1    3    3  502    0 -0.44668903805E+03 -0.12920528257E+03 -0.22572155507E+03  0.51689004847E+03  0.50400001928E-02 0.  1.
       -1    1    3    3    0  502  0.44668903805E+03  0.12920528257E+03  0.42220943399E+03  0.62808113165E+03  0.50400001928E-02 0. -1.
</event>
<event>
 5   0  0.5789905E-03  0.1099708E+04  0.7818609E-02  0.9205476E-01
        1   -1    0    0  501    0  0.00000000000E+00  0.00000000000E+00  0.11818898346E+04  0.11818898346E+04  0.50400001928E-02 0. -1.
       -1   -1    0    0    0  501  0.00000000000E+00  0.00000000000E+00 -0.25581017507E+03  0.25581017512E+03  0.50400001928E-02 0.  1.
    10030    2    1    2    0    0  0.00000000000E+00  0.00000000000E+00  0.92607965948E+03  0.14377000097E+04  0.10997080440E+04 0.  0.
        1    1    3    3  502    0  0.28943431369E+02 -0.44584812917E+03  0.88204641682E+03  0.98874878405E+03  0.50400001928E-02 0. -1.
       -1    1    3    3    0  502 -0.28943431369E+02  0.44584812917E+03  0.44033242658E+02  0.44895122563E+03  0.50400001928E-02 0.  1.
</event>
<event>
 5   0  0.9719260E-03  0.1115374E+04  0.7818609E-02  0.9190336E-01
       -2   -1    0    0    0  501  0.00000000000E+00  0.00000000000E+00  0.28236448996E+03  0.28236448998E+03  0.25500000920E-02 0.  1.
        2   -1    0    0  501    0  0.00000000000E+00  0.00000000000E+00 -0.11014647623E+04  0.11014647623E+04  0.25500000920E-02 0. -1.
    10030    2    1    2    0    0  0.00000000000E+00  0.00000000000E+00 -0.81910027234E+03  0.13838292523E+04  0.11153735443E+04 0.  0.
        3    1    3    3  502    0 -0.21945002090E+03 -0.95208486979E+02 -0.10345799786E+04  0.10618750915E+04  0.10100000352E+00 0. -1.
       -3    1    3    3    0  502  0.21945002090E+03  0.95208486979E+02  0.21547970622E+03  0.32195416081E+03  0.10100000352E+00 0.  1.
</event>
<event>
 5   0  0.5958706E-03  0.8342238E+03  0.7818609E-02  0.9511759E-01
        1   -1    0    0  501    0  0.00000000000E+00  0.00000000000E+00  0.17624515738E+04  0.17624515738E+04  0.50400001928E-02 0. -1.
       -1   -1    0    0    0  501  0.00000000000E+00  0.00000000000E+00 -0.98716098417E+02  0.98716098546E+02  0.50400001928E-02 0.  1.
    10030    2    1    2    0    0  0.00000000000E+00  0.00000000000E+00  0.16637354754E+04  0.18611676723E+04  0.83422381443E+03 0.  0.
        2    1    3    3  502    0  0.79224186411E+02 -0.35454380872E+02  0.17420813525E+04  0.17442422204E+04  0.25500000920E-02 0. -1.
       -2    1    3    3    0  502 -0.79224186411E+02  0.35454380872E+02 -0.78345877121E+02  0.11692545191E+03  0.25500000920E-02 0.  1.
</event>
<event>
 5   0  0.5789905E-03  0.1111580E+04  0.7818609E-02  0.9193978E-01
        1   -1    0    0  501    0  0.00000000000E+00  0.00000000000E+00  0.21584933661E+04  0.21584933661E+04  0.50400001928E-02 0. -1.
       -1   -1    0    0    0  501  0.00000000000E+00  0.00000000000E+00 -0.14311025099E+03  0.14311025108E+03  0.50400001928E-02 0.  1.
    10030    2    1    2    0    0  0.00000000000E+00  0.00000000000E+00  0.20153831151E+04  0.23016036172E+04  0.11115800061E+04 0.  0.
        1    1    3    3  502    0 -0.34186764337E+03 -0.14199967689E+03  0.18660796706E+04  0.19024433582E+04  0.50400001928E-02 0. -1.
       -1    1    3    3    0  502  0.34186764337E+03  0.14199967689E+03  0.14930344445E+03  0.39916025900E+03  0.50400001928E-02 0.  1.
</event>
<event>
 5   0  0.9692981E-03  0.1019505E+04  0.7818609E-02  0.9287407E-01
       -2   -1    0    0    0  501  0.00000000000E+00  0.00000000000E+00  0.45199810609E+03  0.45199810610E+03  0.25500000920E-02 0.  1.
        2   -1    0    0  501    0  0.00000000000E+00  0.00000000000E+00 -0.57488638231E+03  0.57488638232E+03  0.25500000920E-02 0. -1.
    10030    2    1    2    0    0  0.00000000000E+00  0.00000000000E+00 -0.12288827622E+03  0.10268844884E+04  0.10195048917E+04 0.  0.
        5    1    3    3  502    0 -0.68834967137E+01  0.18680562691E+03 -0.53909369309E+03  0.57060303601E+03  0.46999998093E+01 0. -1.
       -5    1    3    3    0  502  0.68834967137E+01 -0.18680562691E+03  0.41620541688E+03  0.45628145240E+03  0.46999998093E+01 0.  1.
</event>
<event>
 5   0  0.5712664E-03  0.1119425E+04  0.7818609E-02  0.9186463E-01
       -1   -1    0    0    0  501  0.00000000000E+00  0.00000000000E+00  0.16468189797E+03  0.16468189805E+03  0.50400001928E-02 0.  1.
        1   -1    0    0  501    0  0.00000000000E+00  0.00000000000E+00 -0.19023241039E+04  0.19023241039E+04  0.50400001928E-02 0. -1.
    10030    2    1    2    0    0  0.00000000000E+00  0.00000000000E+00 -0.17376422060E+04  0.20670060020E+04  0.11194254671E+04 0.  0.
        5    1    3    3  502    0  0.23141910663E+03 -0.36501264896E+03 -0.21216870274E+03  0.48148383694E+03  0.46999998093E+01 0.  1.
       -5    1    3    3    0  502 -0.23141910663E+03  0.36501264896E+03 -0.15254735032E+04  0.15855221651E+04  0.46999998093E+01 0. -1.
</event>
<event>
 5   0  0.9719260E-03  0.1125435E+04  0.7818609E-02  0.9180750E-01
       -2   -1    0    0    0  501  0.00000000000E+00  0.00000000000E+00  0.77293431317E+03  0.77293431318E+03  0.25500000920E-02 0. -1.
        2   -1    0    0  501    0  0.00000000000E+00  0.00000000000E+00 -0.40967390905E+03  0.40967390906E+03  0.25500000920E-02 0.  1.
    10030    2    1    2    0    0  0.00000000000E+00  0.00000000000E+00  0.36326040412E+03  0.11826082222E+04  0.11254350653E+04 0.  0.
        3    1    3    3  502    0  0.36166955648E+03  0.34147496376E+03  0.45813463197E+03  0.67623765806E+03  0.10100000352E+00 0.  1.
       -3    1    3    3    0  502 -0.36166955648E+03 -0.34147496376E+03 -0.94874227851E+02  0.50637056418E+03  0.10100000352E+00 0. -1.
</event>
<event>
 5   0  0.5958706E-03  0.1093115E+04  0.7818609E-02  0.9211929E-01
       -1   -1    0    0    0  501  0.00000000000E+00  0.00000000000E+00  0.44929935870E+03  0.44929935872E+03  0.50400001928E-02 0. -1.
        1   -1    0    0  501    0  0.00000000000E+00  0.00000000000E+00 -0.66486861745E+03  0.66486861747E+03  0.50400001928E-02 0.  1.
    10030    2    1    2    0    0  0.00000000000E+00  0.00000000000E+00 -0.21556925875E+03  0.11141679762E+04  0.10931148951E+04 0.  0.
        2    1    3    3  502    0 -0.12844454089E+03 -0.21832964754E+03 -0.60142549264E+03  0.65259363947E+03  0.25500000920E-02 0.  1.
       -2    1    3    3    0  502  0.12844454089E+03  0.21832964754E+03  0.38585623389E+03  0.46157433672E+03  0.25500000920E-02 0. -1.
</event>
<event>
 5   0  0.5958706E-03  0.1139763E+04  0.7818609E-02  0.9167280E-01
        1   -1    0    0  501    0  0.00000000000E+00  0.00000000000E+00  0.21953225498E+04  0.21953225498E+04  0.50400001928E-02 0.  1.
       -1   -1    0    0    0  501  0.00000000000E+00  0.00000000000E+00 -0.14793493860E+03  0.14793493868E+03  0.50400001928E-02 0. -1.
    10030    2    1    2    0    0  0.00000000000E+00  0.00000000000E+00  0.20473876112E+04  0.23432574885E+04  0.11397629696E+04 0.  0.
        2    1    3    3  502    0  0.19911114871E+03 -0.47393276720E+03  0.51797433063E+03  0.72976360869E+03  0.25500000920E-02 0. -1.
       -2    1    3    3    0  502 -0.19911114871E+03  0.47393276720E+03  0.15294132806E+04  0.16134938798E+04  0.25500000920E-02 0.  1.
</event>
<event>
 5   0  0.5854579E-03  0.1110327E+04  0.7818609E-02  0.9195185E-01
        1   -1    0    0  501    0  0.00000000000E+00  0.00000000000E+00  0.83971312365E+03  0.83971312366E+03  0.50400001928E-02 0. -1.
       -1   -1    0    0    0  501  0.00000000000E+00  0.00000000000E+00 -0.36703773040E+03  0.36703773043E+03  0.50400001928E-02 0.  1.
    10030    2    1    2    0    0  0.00000000000E+00  0.00000000000E+00  0.47267539325E+03  0.12067508541E+04  0.11103267972E+04 0.  0.
        4    1    3    3  502    0 -0.22639147516E+03 -0.43964417237E+03 -0.37893021315E+02  0.49596128103E+03  0.12699999809E+01 0.  1.
       -4    1    3    3    0  502  0.22639147516E+03  0.43964417237E+03  0.51056841456E+03  0.71078957306E+03  0.12699999809E+01 0. -1.
</event>
<event>
 5   0  0.5854579E-03  0.1005747E+04  0.7818609E-02  0.9302264E-01
       -1   -1    0    0    0  501  0.00000000000E+00  0.00000000000E+00  0.18139062902E+03  0.18139062909E+03  0.50400001928E-02 0. -1.
        1   -1    0    0  501    0  0.00000000000E+00  0.00000000000E+00 -0.13941280388E+04  0.13941280388E+04  0.50400001928E-02 0.  1.
    10030    2    1    2    0    0  0.00000000000E+00  0.00000000000E+00 -0.12127374098E+04  0.15755186679E+04  0.10057470098E+04 0.  0.
        4    1    3    3  502    0 -0.48684146302E+03  0.10686913108E+03 -0.71080407599E+03  0.86814726207E+03  0.12699999809E+01 0.  1.
       -4    1    3    3    0  502  0.48684146302E+03 -0.10686913108E+03 -0.50193333378E+03  0.70737140581E+03  0.12699999809E+01 0. -1.
</event>
<event>
 5   0  0.1028016E-02  0.1047703E+04  0.7818609E-02  0.9257719E-01
       -2   -1    0    0    0  501  0.00000000000E+00  0.00000000000E+00  0.64521048044E+03  0.64521048045E+03  0.25500000920E-02 0.  1.
        2   -1    0    0  501    0  0.00000000000E+00  0.00000000000E+00 -0.42531889695E+03  0.42531889695E+03  0.25500000920E-02 0. -1.
    10030    2    1    2    0    0  0.00000000000E+00  0.00000000000E+00  0.21989158349E+03  0.10705293774E+04  0.10477026484E+04 0.  0.
        2    1    3    3  502    0  0.78557136039E+02  0.16079483083E+03 -0.39311617967E+03  0.43193348096E+03  0.25500000920E-02 0. -1.
       -2    1    3    3    0  502 -0.78557136039E+02 -0.16079483083E+03  0.61300776317E+03  0.63859589644E+03  0.25500000920E-02 0.  1.
</event>
<event>
 5   0  0.1019384E-02  0.1065032E+04  0.7818609E-02  0.9239960E-01
        2   -1    0    0  501    0  0.00000000000E+00  0.00000000000E+00  0.33854719195E+03  0.33854719196E+03  0.25500000920E-02 0. -1.
       -2   -1    0    0    0  501  0.00000000000E+00  0.00000000000E+00 -0.83761889202E+03  0.83761889202E+03  0.25500000920E-02 0.  1.
    10030    2    1    2    0    0  0.00000000000E+00  0.00000000000E+00 -0.49907170007E+03  0.11761660840E+04  0.10650324386E+04 0.  0.
        1    1    3    3  502    0 -0.74541866865E+02 -0.17893408276E+03 -0.79727406400E+03  0.82049974347E+03  0.50400001928E-02 0.  1.
       -1    1    3    3    0  502  0.74541866865E+02  0.17893408276E+03  0.29820236393E+03  0.35566634051E+03  0.50400001928E-02 0. -1.
</event>
<event>
 5   0  0.9719260E-03  0.6166126E+03  0.7818609E-02  0.9871527E-01
       -2   -1    0    0    0  501  0.00000000000E+00  0.00000000000E+00  0.29937165271E+03  0.29937165272E+03  0.25500000920E-02 0.  1.
        2   -1    0    0  501    0  0.00000000000E+00  0.00000000000E+00 -0.31750754964E+03  0.31750754965E+03  0.25500000920E-02 0. -1.
    10030    2    1    2    0    0  0.00000000000E+00  0.00000000000E+00 -0.18135896930E+02  0.61687920236E+03  0.61661255222E+03 0.  0.
        3    1    3    3  502    0 -0.21262117700E+03 -0.15220477535E+03  0.15433881451E+03  0.30363553549E+03  0.10100000352E+00 0.  1.
       -3    1    3    3    0  502  0.21262117700E+03  0.15220477535E+03 -0.17247471144E+03  0.31324366687E+03  0.10100000352E+00 0. -1.
</event>
<event>
 5   0  0.1019384E-02  0.1113802E+04  0.7818609E-02  0.9191843E-01
       -2   -1    0    0    0  501  0.00000000000E+00  0.00000000000E+00  0.15117461117E+03  0.15117461119E+03  0.25500000920E-02 0. -1.
        2   -1    0    0  501    0  0.00000000000E+00  0.00000000000E+00 -0.20515264078E+04  0.20515264078E+04  0.25500000920E-02 0.  1.
    10030    2    1    2    0    0  0.00000000000E+00  0.00000000000E+00 -0.19003517966E+04  0.22027010190E+04  0.11138019699E+04 0.  0.
        1    1    3    3  502    0  0.25062062522E+03 -0.37963011545E+03 -0.15855160815E+04  0.16494820299E+04  0.50400001928E-02 0.  1.
       -1    1    3    3    0  502 -0.25062062522E+03  0.37963011545E+03 -0.31483571518E+03  0.55321898911E+03  0.50400001928E-02 0. -1.
</event>
<event>
 5   0  0.9925021E-03  0.9577818E+03  0.7818609E-02  0.9356101E-01
        2   -1    0    0  501    0  0.00000000000E+00  0.00000000000E+00  0.77664843220E+03  0.77664843220E+03  0.25500000920E-02 0.  1.
       -2   -1    0    0    0  501  0.00000000000E+00  0.00000000000E+00 -0.29528997534E+03  0.29528997535E+03  0.25500000920E-02 0. -1.
    10030    2    1    2    0    0  0.00000000000E+00  0.00000000000E+00  0.48135845686E+03  0.10719384076E+04  0.95778180480E+03 0.  0.
        4    1    3    3  502    0 -0.21848538990E+03 -0.21882526139E+03  0.64993285737E+03  0.71974626961E+03  0.12699999809E+01 0.  1.
       -4    1    3    3    0  502  0.21848538990E+03  0.21882526139E+03 -0.16857440051E+03  0.35219213795E+03  0.12699999809E+01 0. -1.
</event>
<event>
 5   0  0.5998641E-03  0.1264668E+04  0.7818609E-02  0.9058063E-01
       -1   -1    0    0    0  501  0.00000000000E+00  0.00000000000E+00  0.24596275777E+03  0.24596275783E+03  0.50400001928E-02 0. -1.
        1   -1    0    0  501    0  0.00000000000E+00  0.00000000000E+00 -0.16256364842E+04  0.16256364842E+04  0.50400001928E-02 0.  1.
    10030    2    1    2    0    0  0.00000000000E+00  0.00000000000E+00 -0.13796737264E+04  0.18715992420E+04  0.12646675972E+04 0.  0.
        3    1    3    3  502    0  0.55144627519E+03 -0.30464659375E+03 -0.77012790596E+03  0.99498720758E+03  0.10100000352E+00 0.  1.
       -3    1    3    3    0  502 -0.55144627519E+03  0.30464659375E+03 -0.60954582045E+03  0.87661203445E+03  0.10100000352E+00 0. -1.
</event>
<event>
 5   0  0.5789905E-03  0.1051721E+04  0.7818609E-02  0.9253570E-01
        1   -1    0    0  501    0  0.00000000000E+00  0.00000000000E+00  0.99232824610E+03  0.99232824612E+03  0.50400001928E-02 0. -1.
       -1   -1    0    0    0  501  0.00000000000E+00  0.00000000000E+00 -0.27866687120E+03  0.27866687125E+03  0.50400001928E-02 0.  1.
    10030    2    1    2    0    0  0.00000000000E+00  0.00000000000E+00  0.71366137490E+03  0.12709951174E+04  0.10517205096E+04 0.  0.
        1    1    3    3  502    0 -0.19060301980E+03 -0.33019706712E+03  0.79451380364E+03  0.88125580764E+03  0.50400001928E-02 0. -1.
       -1    1    3    3    0  502  0.19060301980E+03  0.33019706712E+03 -0.80852428742E+02  0.38973930973E+03  0.50400001928E-02 0.  1.
</event>
<event>
 5   0  0.5712664E-03  0.1067890E+04  0.7818609E-02  0.9237066E-01
       -1   -1    0    0    0  501  0.00000000000E+00  0.00000000000E+00  0.22188008632E+03  0.22188008638E+03  0.50400001928E-02 0. -1.
        1   -1    0    0  501    0  0.00000000000E+00  0.00000000000E+00 -0.12849165783E+04  0.12849165783E+04  0.50400001928E-02 0.  1.
    10030    2    1    2    0    0  0.00000000000E+00  0.00000000000E+00 -0.10630364920E+04  0.15067966647E+04  0.10678902591E+04 0.  0.
        5    1    3    3  502    0 -0.17140727419E+03  0.23028040208E+03  0.10369310851E+03  0.30526032820E+03  0.46999998093E+01 0. -1.
       -5    1    3    3    0  502  0.17140727419E+03 -0.23028040208E+03 -0.11667296005E+04  0.12015363365E+04  0.46999998093E+01 0.  1.
</event>
<event>
 5   0  0.5854579E-03  0.1092489E+04  0.7818609E-02  0.9212543E-01
       -1   -1    0    0    0  501  0.00000000000E+00  0.00000000000E+00  0.22934722333E+03  0.22934722339E+03  0.50400001928E-02 0.  1.
        1   -1    0    0  501    0  0.00000000000E+00  0.00000000000E+00 -0.13010108308E+04  0.13010108308E+04  0.50400001928E-02 0. -1.
    10030    2    1    2    0    0  0.00000000000E+00  0.00000000000E+00 -0.10716636075E+04  0.15303580542E+04  0.10924893073E+04 0.  0.
        4    1    3    3  502    0  0.50824642826E+03 -0.14025937285E+03 -0.33578471653E+03  0.62509208303E+03  0.12699999809E+01 0.  1.
       -4    1    3    3    0  502 -0.50824642826E+03  0.14025937285E+03 -0.73587889094E+03  0.90526597116E+03  0.12699999809E+01 0. -1.
</event>
<event>
 5   0  0.5854579E-03  0.1094193E+04  0.7818609E-02  0.9210870E-01
        1   -1    0    0  501    0  0.00000000000E+00  0.00000000000E+00  0.88849643969E+03  0.88849643971E+03  0.50400001928E-02 0.  1.
       -1   -1    0    0    0  501  0.00000000000E+00  0.00000000000E+00 -0.33687761149E+03  0.33687761152E+03  0.50400001928E-02 0. -1.
    10030    2    1    2    0    0  0.00000000000E+00  0.00000000000E+00  0.55161882821E+03  0.12253740512E+04  0.10941929600E+04 0.  0.
        4    1    3    3  502    0  0.28823445175E+03  0.25576735446E+03 -0.15910097058E+03  0.41690618912E+03  0.12699999809E+01 0. -1.
       -4    1    3    3    0  502 -0.28823445175E+03 -0.25576735446E+03  0.71071979879E+03  0.80846786212E+03  0.12699999809E+01 0.  1.
</event>
<event>
 5   0  0.5998641E-03  0.1052004E+04  0.7818609E-02  0.9253278E-01
        1   -1    0    0  501    0  0.00000000000E+00  0.00000000000E+00  0.15910679315E+04  0.15910679315E+04  0.50400001928E-02 0.  1.
       -1   -1    0    0    0  501  0.00000000000E+00  0.00000000000E+00 -0.17389454730E+03  0.17389454738E+03  0.50400001928E-02 0. -1.
    10030    2    1    2    0    0  0.00000000000E+00  0.00000000000E+00  0.14171733842E+04  0.17649624789E+04  0.10520038740E+04 0.  0.
        3    1    3    3  502    0  0.36171083278E+03 -0.23597646157E+03  0.12123438864E+04  0.12869721544E+04  0.10100000352E+00 0.  1.
       -3    1    3    3    0  502 -0.36171083278E+03  0.23597646157E+03  0.20482949775E+03  0.47799032450E+03  0.10100000352E+00 0. -1.
</event>
<event>
 5   0  0.9925021E-03  0.9589786E+03  0.7818609E-02  0.9354717E-01
        2   -1    0    0  501    0  0.00000000000E+00  0.00000000000E+00  0.11383915434E+04  0.11383915434E+04  0.25500000920E-02 0.  1.
       -2   -1    0    0    0  501  0.00000000000E+00  0.00000000000E+00 -0.20196038794E+03  0.20196038795E+03  0.25500000920E-02 0. -1.
    10030    2    1    2    0    0  0.00000000000E+00  0.00000000000E+00  0.93643115543E+03  0.13403519313E+04  0.95897861860E+03 0.  0.
        4    1    3    3  502    0  0.11745928409E+02 -0.47801626175E+03  0.51804211882E+03  0.70498706591E+03  0.12699999809E+01 0. -1.
       -4    1    3    3    0  502 -0.11745928409E+02  0.47801626175E+03  0.41838903661E+03  0.63536486540E+03  0.12699999809E+01 0.  1.
</event>
<event>
 5   0  0.5958706E-03  0.1080634E+04  0.7818609E-02  0.9224275E-01
       -1   -1    0    0    0  501  0.00000000000E+00  0.00000000000E+00  0.35768052093E+03  0.35768052097E+03  0.50400001928E-02 0.  1.
        1   -1    0    0  501    0  0.00000000000E+00  0.00000000000E+00 -0.81621057088E+03  0.81621057090E+03  0.50400001928E-02 0. -1.
    10030    2    1    2    0    0  0.00000000000E+00  0.00000000000E+00 -0.45853004995E+03  0.11738910919E+04  0.10806342993E+04 0.  0.
        2    1    3    3  502    0 -0.29666085938E+03  0.39056584058E+03 -0.47552976295E+03  0.68313827061E+03  0.25500000920E-02 0. -1.
       -2    1    3    3    0  502  0.29666085938E+03 -0.39056584058E+03  0.16999713002E+02  0.49075282125E+03  0.25500000920E-02 0.  1.
</event>
<event>
 5   0  0.5998641E-03  0.1333607E+04  0.7818609E-02  0.9003331E-01
        1   -1    0    0  501    0  0.00000000000E+00  0.00000000000E+00  0.14687564266E+04  0.14687564266E+04  0.50400001928E-02 0.  1.
       -1   -1    0    0    0  501  0.00000000000E+00  0.00000000000E+00 -0.30272324946E+03  0.30272324950E+03  0.50400001928E-02 0. -1.
    10030    2    1    2    0    0  0.00000000000E+00  0.00000000000E+00  0.11660331772E+04  0.17714796761E+04  0.13336067159E+04 0.  0.
        3    1    3    3  502    0  0.45092631372E+03  0.89884349402E+02 -0.58465820221E+02  0.46349972924E+03  0.10100000352E+00 0. -1.
       -3    1    3    3    0  502 -0.45092631372E+03 -0.89884349402E+02  0.12244989974E+04  0.13079799469E+04  0.10100000352E+00 0.  1.
</event>
<event>
 5   0  0.9692981E-03  0.1073626E+04  0.7818609E-02  0.9231286E-01
        2   -1    0    0  501    0  0.00000000000E+00  0.00000000000E+00  0.51830629472E+03  0.51830629473E+03  0.25500000920E-02 0. -1.
       -2   -1    0    0    0  501  0.00000000000E+00  0.00000000000E+00 -0.55598053349E+03  0.55598053349E+03  0.25500000920E-02 0.  1.
    10030    2    1    2    0    0  0.00000000000E+00  0.00000000000E+00 -0.37674238764E+02  0.10742868282E+04  0.10736260248E+04 0.  0.
        5    1    3    3  502    0 -0.12320546334E+03 -0.52223677164E+03 -0.34185674199E+02  0.53768167364E+03  0.46999998093E+01 0. -1.
       -5    1    3    3    0  502  0.12320546334E+03  0.52223677164E+03 -0.34885645655E+01  0.53660515459E+03  0.46999998093E+01 0.  1.
</event>
<event>
 5   0  0.5958706E-03  0.1041099E+04  0.7818609E-02  0.9264583E-01
        1   -1    0    0  501    0  0.00000000000E+00  0.00000000000E+00  0.89607616102E+03  0.89607616103E+03  0.50400001928E-02 0. -1.
       -1   -1    0    0    0  501  0.00000000000E+00  0.00000000000E+00 -0.30239794991E+03  0.30239794995E+03  0.50400001928E-02 0.  1.
    10030    2    1    2    0    0  0.00000000000E+00  0.00000000000E+00  0.59367821110E+03  0.11984741110E+04  0.10410986391E+04 0.  0.
        2    1    3    3  502    0  0.46080858252E+03  0.69121276759E+00  0.57556929413E+03  0.73730932440E+03  0.25500000920E-02 0. -1.
       -2    1    3    3    0  502 -0.46080858252E+03 -0.69121276759E+00  0.18108916978E+02  0.46116478658E+03  0.25500000920E-02 0.  1.
</event>
<event>
 5   0  0.5998641E-03  0.1136791E+04  0.7818609E-02  0.9170057E-01
        1   -1    0    0  501    0  0.00000000000E+00  0.00000000000E+00  0.13026673726E+04  0.13026673726E+04  0.50400001928E-02 0. -1.
       -1   -1    0    0    0  501  0.00000000000E+00  0.00000000000E+00 -0.24800899203E+03  0.24800899208E+03  0.50400001928E-02 0.  1.
    10030    2    1    2    0    0  0.00000000000E+00  0.00000000000E+00  0.10546583805E+04  0.15506763647E+04  0.11367906088E+04 0.  0.
        3    1    3    3  502    0  0.21505545536E+03 -0.33799995299E+03 -0.22686118004E+02  0.40125738281E+03  0.10100000352E+00 0.  1.
       -3    1    3    3    0  502 -0.21505545536E+03  0.33799995299E+03  0.10773444985E+04  0.11494189819E+04  0.10100000352E+00 0. -1.
</event>
<event>
 5   0  0.5712664E-03  0.1130100E+04  0.7818609E-02  0.9176341E-01
       -1   -1    0    0    0  501  0.00000000000E+00  0.00000000000E+00  0.37092801893E+03  0.37092801896E+03  0.50400001928E-02 0.  1.
        1   -1    0    0  501    0  0.00000000000E+00  0.00000000000E+00 -0.86076453079E+03  0.86076453080E+03  0.50400001928E-02 0. -1.
    10030    2    1    2    0    0  0.00000000000E+00  0.00000000000E+00 -0.48983651186E+03  0.12316925498E+04  0.11301003180E+04 0.  0.
        5    1    3    3  502    0  0.66537654552E+01 -0.39468006702E+03  0.19570603201E+03  0.44061271982E+03  0.46999998093E+01 0.  1.
       -5    1    3    3    0  502 -0.66537654552E+01  0.39468006702E+03 -0.68554254387E+03  0.79107982995E+03  0.46999998093E+01 0. -1.
</event>
<event>
 5   0  0.1028016E-02  0.1115249E+04  0.7818609E-02  0.9190455E-01
        2   -1    0    0  501    0  0.00000000000E+00  0.00000000000E+00  0.90845116846E+03  0.90845116847E+03  0.25500000920E-02 0.  1.
       -2   -1    0    0    0  501  0.00000000000E+00  0.00000000000E+00 -0.34228038145E+03  0.34228038146E+03  0.25500000920E-02 0. -1.
    10030    2    1    2    0    0  0.00000000000E+00  0.00000000000E+00  0.56617078701E+03  0.12507315499E+04  0.11152488735E+04 0.  0.
        2    1    3    3  502    0 -0.20212203805E+03  0.50570800780E+03  0.41743456227E+03  0.68618184266E+03  0.25500000920E-02 0.  1.
       -2    1    3    3    0  502  0.20212203805E+03 -0.50570800780E+03  0.14873622474E+03  0.56454970727E+03  0.25500000920E-02 0. -1.
</event>
<event>
 5   0  0.1028016E-02  0.1133459E+04  0.7818609E-02  0.9173181E-01
        2   -1    0    0  501    0  0.00000000000E+00  0.00000000000E+00  0.67481485148E+03  0.67481485148E+03  0.25500000920E-02 0. -1.
       -2   -1    0    0    0  501  0.00000000000E+00  0.00000000000E+00 -0.47595600869E+03  0.47595600869E+03  0.25500000920E-02 0.  1.
    10030    2    1    2    0    0  0.00000000000E+00  0.00000000000E+00  0.19885884279E+03  0.11507708602E+04  0.11334587479E+04 0.  0.
        2    1    3    3  502    0 -0.91066955676E+02  0.27072053414E+03 -0.39753578882E+03  0.48950740690E+03  0.25500000920E-02 0.  1.
       -2    1    3    3    0  502  0.91066955676E+02 -0.27072053414E+03  0.59639463160E+03  0.66126345327E+03  0.25500000920E-02 0. -1.
</event>
<event>
 5   0  0.9719260E-03  0.1309890E+04  0.7818609E-02  0.9021759E-01
        2   -1    0    0  501    0  0.00000000000E+00  0.00000000000E+00  0.94043037191E+03  0.94043037191E+03  0.25500000920E-02 0.  1.
       -2   -1    0    0    0  501  0.00000000000E+00  0.00000000000E+00 -0.45612400820E+03  0.45612400821E+03  0.25500000920E-02 0. -1.
    10030    2    1    2    0    0  0.00000000000E+00  0.00000000000E+00  0.48430636371E+03  0.13965543801E+04  0.13098898743E+04 0.  0.
        3    1    3    3  502    0 -0.45259067109E+03 -0.44616180436E+03  0.41091074404E+03  0.75680005351E+03  0.10100000352E+00 0.  1.
       -3    1    3    3    0  502  0.45259067109E+03  0.44616180436E+03  0.73395619666E+02  0.63975432661E+03  0.10100000352E+00 0. -1.
</event>
<event>
 5   0  0.9925021E-03  0.1107883E+04  0.7818609E-02  0.9197542E-01
        2   -1    0    0  501    0  0.00000000000E+00  0.00000000000E+00  0.14017550637E+04  0.14017550637E+04  0.25500000920E-02 0.  1.
       -2   -1    0    0    0  501  0.00000000000E+00  0.00000000000E+00 -0.21890500743E+03  0.21890500744E+03  0.25500000920E-02 0. -1.
    10030    2    1    2    0    0  0.00000000000E+00  0.00000000000E+00  0.11828500562E+04  0.16206600711E+04  0.11078830311E+04 0.  0.
        4    1    3    3  502    0 -0.19834402625E+03  0.16751340682E+03  0.13072454398E+04  0.13327765555E+04  0.12699999809E+01 0.  1.
       -4    1    3    3    0  502  0.19834402625E+03 -0.16751340682E+03 -0.12439538354E+03  0.28788351560E+03  0.12699999809E+01 0. -1.
</event>
<event>
 5   0  0.5789905E-03  0.1107150E+04  0.7818609E-02  0.9198251E-01
       -1   -1    0    0    0  501  0.00000000000E+00  0.00000000000E+00  0.37158506090E+03  0.37158506094E+03  0.50400001928E-02 0. -1.
        1   -1    0    0  501    0  0.00000000000E+00  0.00000000000E+00 -0.82469794627E+03  0.82469794629E+03  0.50400001928E-02 0.  1.
    10030    2    1    2    0    0  0.00000000000E+00  0.00000000000E+00 -0.45311288537E+03  0.11962830072E+04  0.11071502818E+04 0.  0.
        1    1    3    3  502    0  0.38626383674E+03 -0.15251562762E+03 -0.62206411411E+03  0.74794687667E+03  0.50400001928E-02 0.  1.
       -1    1    3    3    0  502 -0.38626383674E+03  0.15251562762E+03  0.16895122874E+03  0.44833613055E+03  0.50400001928E-02 0. -1.
</event>
<event>
 5   0  0.9925021E-03  0.1115981E+04  0.7818609E-02  0.9189755E-01
       -2   -1    0    0    0  501  0.00000000000E+00  0.00000000000E+00  0.17292407212E+03  0.17292407214E+03  0.25500000920E-02 0. -1.
        2   -1    0    0  501    0  0.00000000000E+00  0.00000000000E+00 -0.18005197590E+04  0.18005197590E+04  0.25500000920E-02 0.  1.
    10030    2    1    2    0    0  0.00000000000E+00  0.00000000000E+00 -0.16275956869E+04  0.19734438312E+04  0.11159806606E+04 0.  0.
        4    1    3    3  502    0 -0.27061509628E+03 -0.15064172240E+03 -0.16345599513E+04  0.16636445853E+04  0.12699999809E+01 0.  1.
       -4    1    3    3    0  502  0.27061509628E+03  0.15064172240E+03  0.69642644071E+01  0.30979924587E+03  0.12699999809E+01 0. -1.
</event>
<event>
 5   0  0.5854579E-03  0.1052040E+04  0.7818609E-02  0.9253240E-01
       -1   -1    0    0    0  501  0.00000000000E+00  0.00000000000E+00  0.26332840412E+03  0.26332840417E+03  0.50400001928E-02 0. -1.
        1   -1    0    0  501    0  0.00000000000E+00  0.00000000000E+00 -0.10507687669E+04  0.10507687669E+04  0.50400001928E-02 0.  1.
    10030    2    1    2    0    0  0.00000000000E+00  0.00000000000E+00 -0.78744036278E+03  0.13140971711E+04  0.10520404223E+04 0.  0.
        4    1    3    3  502    0 -0.39731829809E+02 -0.22087702807E+03  0.20052609621E+03  0.30096114033E+03  0.12699999809E+01 0. -1.
       -4    1    3    3    0  502  0.39731829809E+02  0.22087702807E+03 -0.98796645899E+03  0.10131360308E+04  0.12699999809E+01 0.  1.
</event>
<event>
 5   0  0.1019384E-02  0.1198750E+04  0.7818609E-02  0.9113952E-01
        2   -1    0    0  501    0  0.00000000000E+00  0.00000000000E+00  0.83283546631E+03  0.83283546631E+03  0.25500000920E-02 0. -1.
       -2   -1    0    0    0  501  0.00000000000E+00  0.00000000000E+00 -0.43135792041E+03  0.43135792042E+03  0.25500000920E-02 0.  1.
    10030    2    1    2    0    0  0.00000000000E+00  0.00000000000E+00  0.40147754589E+03  0.12641933867E+04  0.11987496399E+04 0.  0.
        1    1    3    3  502    0  0.81603434303E+02 -0.12380611220E+03 -0.41170953444E+03  0.43759777728E+03  0.50400001928E-02 0.  1.
       -1    1    3    3    0  502 -0.81603434303E+02  0.12380611220E+03  0.81318708034E+03  0.82659560945E+03  0.50400001928E-02 0. -1.
</event>
<event>
 5   0  0.5998641E-03  0.1082752E+04  0.7818609E-02  0.9222167E-01
        1   -1    0    0  501    0  0.00000000000E+00  0.00000000000E+00  0.12439811695E+04  0.12439811695E+04  0.50400001928E-02 0.  1.
       -1   -1    0    0    0  501  0.00000000000E+00  0.00000000000E+00 -0.23560499927E+03  0.23560499932E+03  0.50400001928E-02 0. -1.
    10030    2    1    2    0    0  0.00000000000E+00  0.00000000000E+00  0.10083761703E+04  0.14795861689E+04  0.10827523864E+04 0.  0.
        3    1    3    3  502    0  0.13834177141E+03  0.13341847062E+03  0.11957923261E+04  0.12111392287E+04  0.10100000352E+00 0.  1.
       -3    1    3    3    0  502 -0.13834177141E+03 -0.13341847062E+03 -0.18741615581E+03  0.26844694016E+03  0.10100000352E+00 0. -1.
</event>
<event>
 5   0  0.9719260E-03  0.1112156E+04  0.7818609E-02  0.9193424E-01
        2   -1    0    0  501    0  0.00000000000E+00  0.00000000000E+00  0.13937782505E+04  0.13937782505E+04  0.25500000920E-02 0.  1.
       -2   -1    0    0    0  501  0.00000000000E+00  0.00000000000E+00 -0.22185934514E+03  0.22185934516E+03  0.25500000920E-02 0. -1.
    10030    2    1    2    0    0  0.00000000000E+00  0.00000000000E+00  0.11719189054E+04  0.16156375957E+04  0.11121559782E+04 0.  0.
        3    1    3    3  502    0  0.17460979395E+03 -0.51137478159E+03  0.39527269242E+03  0.66950224717E+03  0.10100000352E+00 0. -1.
       -3    1    3    3    0  502 -0.17460979395E+03  0.51137478159E+03  0.77664621295E+03  0.94613534850E+03  0.10100000352E+00 0.  1.
</event>
<event>
 5   0  0.5712664E-03  0.1118112E+04  0.7818609E-02  0.9187716E-01
        1   -1    0    0  501    0  0.00000000000E+00  0.00000000000E+00  0.80060425035E+03  0.80060425037E+03  0.50400001928E-02 0. -1.
       -1   -1    0    0    0  501  0.00000000000E+00  0.00000000000E+00 -0.39038457835E+03  0.39038457838E+03  0.50400001928E-02 0.  1.
    10030    2    1    2    0    0  0.00000000000E+00  0.00000000000E+00  0.41021967201E+03  0.11909888287E+04  0.11181118955E+04 0.  0.
        5    1    3    3  502    0  0.64556791708E+02  0.49857715724E+03 -0.55314237961E+02  0.50579493473E+03  0.46999998093E+01 0. -1.
       -5    1    3    3    0  502 -0.64556791708E+02 -0.49857715724E+03  0.46553390997E+03  0.68519389402E+03  0.46999998093E+01 0.  1.
</event>
<event>
 5   0  0.1019384E-02  0.1083030E+04  0.7818609E-02  0.9221892E-01
        2   -1    0    0  501    0  0.00000000000E+00  0.00000000000E+00  0.33450344257E+03  0.33450344258E+03  0.25500000920E-02 0. -1.
       -2   -1    0    0    0  501  0.00000000000E+00  0.00000000000E+00 -0.87663771801E+03  0.87663771801E+03  0.25500000920E-02 0.  1.
    10030    2    1    2    0    0  0.00000000000E+00  0.00000000000E+00 -0.54213427544E+03  0.12111411606E+04  0.10830297033E+04 0.  0.
        1    1    3    3  502    0 -0.43098824624E+03 -0.31585529494E+03 -0.17279179475E+03  0.56158030601E+03  0.50400001928E-02 0.  1.
       -1    1    3    3    0  502  0.43098824624E+03  0.31585529494E+03 -0.36934248069E+03  0.64956085458E+03  0.50400001928E-02 0. -1.
</event>
<event>
 5   0  0.9719260E-03  0.1114634E+04  0.7818609E-02  0.9191045E-01
        2   -1    0    0  501    0  0.00000000000E+00  0.00000000000E+00  0.23750246046E+04  0.23750246046E+04  0.25500000920E-02 0.  1.
       -2   -1    0    0    0  501  0.00000000000E+00  0.00000000000E+00 -0.13077860545E+03  0.13077860547E+03  0.25500000920E-02 0. -1.
    10030    2    1    2    0    0  0.00000000000E+00  0.00000000000E+00  0.22442459991E+04  0.25058032101E+04  0.11146343001E+04 0.  0.
        3    1    3    3  502    0 -0.28974111077E+03  0.43513359249E+03  0.15563675778E+04  0.16418194792E+04  0.10100000352E+00 0. -1.
       -3    1    3    3    0  502  0.28974111077E+03 -0.43513359249E+03  0.68787842128E+03  0.86398373089E+03  0.10100000352E+00 0.  1.
</event>
<event>
 5   0  0.5712664E-03  0.1094009E+04  0.7818609E-02  0.9211051E-01
       -1   -1    0    0    0  501  0.00000000000E+00  0.00000000000E+00  0.15199801540E+03  0.15199801548E+03  0.50400001928E-02 0.  1.
        1   -1    0    0  501    0  0.00000000000E+00  0.00000000000E+00 -0.19685370579E+04  0.19685370579E+04  0.50400001928E-02 0. -1.
    10030    2    1    2    0    0  0.00000000000E+00  0.00000000000E+00 -0.18165390425E+04  0.21205350734E+04  0.10940086401E+04 0.  0.
        5    1    3    3  502    0  0.27331183537E+03  0.93655288430E+02 -0.80034478273E+01  0.28906196149E+03  0.46999998093E+01 0.  1.
       -5    1    3    3    0  502 -0.27331183537E+03 -0.93655288430E+02 -0.18085355946E+04  0.18314731119E+04  0.46999998093E+01 0. -1.
</event>
<event>
 5   0  0.5854579E-03  0.1077066E+04  0.7818609E-02  0.9227838E-01
        1   -1    0    0  501    0  0.00000000000E+00  0.00000000000E+00  0.66383948651E+03  0.66383948653E+03  0.50400001928E-02 0.  1.
       -1   -1    0    0    0  501  0.00000000000E+00  0.00000000000E+00 -0.43687939335E+03  0.43687939338E+03  0.50400001928E-02 0. -1.
    10030    2    1    2    0    0  0.00000000000E+00  0.00000000000E+00  0.22696009316E+03  0.11007188799E+04  0.10770660002E+04 0.  0.
        4    1    3    3  502    0  0.86182788763E+02 -0.41607535271E+03 -0.22464837102E+03  0.48063986072E+03  0.12699999809E+01 0. -1.
       -4    1    3    3    0  502 -0.86182788763E+02  0.41607535271E+03  0.45160846418E+03  0.62007901919E+03  0.12699999809E+01 0.  1.
</event>
<event>
 5   0  0.5958706E-03  0.1089548E+04  0.7818609E-02  0.9215439E-01
       -1   -1    0    0    0  501  0.00000000000E+00  0.00000000000E+00  0.16385343536E+03  0.16385343544E+03  0.50400001928E-02 0. -1.
        1   -1    0    0  501    0  0.00000000000E+00  0.00000000000E+00 -0.18112455507E+04  0.18112455507E+04  0.50400001928E-02 0.  1.
    10030    2    1    2    0    0  0.00000000000E+00  0.00000000000E+00 -0.16473921153E+04  0.19750989861E+04  0.10895481740E+04 0.  0.
        2    1    3    3  502    0  0.32397426663E+03 -0.70219515518E+02 -0.16073673727E+04  0.16411946797E+04  0.25500000920E-02 0.  1.
       -2    1    3    3    0  502 -0.32397426663E+03  0.70219515518E+02 -0.40024742565E+02  0.33390430639E+03  0.25500000920E-02 0. -1.
</event>
<event>
 5   0  0.9925021E-03  0.1090319E+04  0.7818609E-02  0.9214679E-01
       -2   -1    0    0    0  501  0.00000000000E+00  0.00000000000E+00  0.21549958089E+03  0.21549958091E+03  0.25500000920E-02 0.  1.
        2   -1    0    0  501    0  0.00000000000E+00  0.00000000000E+00 -0.13791158071E+04  0.13791158071E+04  0.25500000920E-02 0. -1.
    10030    2    1    2    0    0  0.00000000000E+00  0.00000000000E+00 -0.11636162262E+04  0.15946153880E+04  0.10903189963E+04 0.  0.
        4    1    3    3  502    0  0.11145664832E+03  0.20534851988E+03 -0.13021749930E+04  0.13229708706E+04  0.12699999809E+01 0. -1.
       -4    1    3    3    0  502 -0.11145664832E+03 -0.20534851988E+03  0.13855876683E+03  0.27164451741E+03  0.12699999809E+01 0.  1.
</event>
<event>
 5   0  0.1019384E-02  0.1080977E+04  0.7818609E-02  0.9223933E-01
        2   -1    0    0  501    0  0.00000000000E+00  0.00000000000E+00  0.82137727239E+03  0.82137727239E+03  0.25500000920E-02 0. -1.
       -2   -1    0    0    0  501  0.00000000000E+00  0.00000000000E+00 -0.35565639777E+03  0.35565639778E+03  0.25500000920E-02 0.  1.
    10030    2    1    2    0    0  0.00000000000E+00  0.00000000000E+00  0.46572087461E+03  0.11770336702E+04  0.10809774871E+04 0.  0.
        1    1    3    3  502    0 -0.22989005024E+03 -0.48771384640E+03  0.19191796942E+03  0.57231699099E+03  0.50400001928E-02 0.  1.
       -1    1    3    3    0  502  0.22989005024E+03  0.48771384640E+03  0.27380290519E+03  0.60471667918E+03  0.50400001928E-02 0. -1.
</event>
<event>
 5   0  0.5789905E-03  0.1124617E+04  0.7818609E-02  0.9181525E-01
       -1   -1    0    0    0  501  0.00000000000E+00  0.00000000000E+00  0.54514708284E+03  0.54514708286E+03  0.50400001928E-02 0.  1.
        1   -1    0    0  501    0  0.00000000000E+00  0.00000000000E+00 -0.58001035697E+03  0.58001035700E+03  0.50400001928E-02 0. -1.
    10030    2    1    2    0    0  0.00000000000E+00  0.00000000000E+00 -0.34863274136E+02  0.11251574399E+04  0.11246171867E+04 0.  0.
        1    1    3    3  502    0  0.31343545364E+03 -0.10747223349E+02 -0.48438239204E+03  0.57704730148E+03  0.50400001928E-02 0. -1.
       -1    1    3    3    0  502 -0.31343545364E+03  0.10747223349E+02  0.44951911790E+03  0.54811013837E+03  0.50400001928E-02 0.  1.
</event>
<event>
 5   0  0.9692981E-03  0.1097573E+04  0.7818609E-02  0.9207561E-01
       -2   -1    0    0    0  501  0.00000000000E+00  0.00000000000E+00  0.13127712490E+03  0.13127712493E+03  0.25500000920E-02 0.  1.
        2   -1    0    0  501    0  0.00000000000E+00  0.00000000000E+00 -0.22941276817E+04  0.22941276817E+04  0.25500000920E-02 0. -1.
    10030    2    1    2    0    0  0.00000000000E+00  0.00000000000E+00 -0.21628505568E+04  0.24254048066E+04  0.10975727515E+04 0.  0.
        5    1    3    3  502    0  0.46741983983E+02  0.87205053921E+02 -0.22742099570E+04  0.22763660850E+04  0.46999998093E+01 0. -1.
       -5    1    3    3    0  502 -0.46741983983E+02 -0.87205053921E+02  0.11135940026E+03  0.14903872155E+03  0.46999998093E+01 0.  1.
</event>
<event>
 5   0  0.5854579E-03  0.1094420E+04  0.7818609E-02  0.9210647E-01
       -1   -1    0    0    0  501  0.00000000000E+00  0.00000000000E+00  0.52110871070E+03  0.52110871073E+03  0.50400001928E-02 0.  1.
        1   -1    0    0  501    0  0.00000000000E+00  0.00000000000E+00 -0.57461881263E+03  0.57461881265E+03  0.50400001928E-02 0. -1.
    10030    2    1    2    0    0  0.00000000000E+00  0.00000000000E+00 -0.53510101925E+02  0.10957275234E+04  0.10944201545E+04 0.  0.
        4    1    3    3  502    0 -0.27145162943E+03  0.45523843956E+03  0.10945610700E+03  0.54121185892E+03  0.12699999809E+01 0.  1.
       -4    1    3    3    0  502  0.27145162943E+03 -0.45523843956E+03 -0.16296620893E+03  0.55451566446E+03  0.12699999809E+01 0. -1.
</event>
<event>
 5   0  0.5998641E-03  0.1083917E+04  0.7818609E-02  0.9221011E-01
       -1   -1    0    0    0  501  0.00000000000E+00  0.00000000000E+00  0.29593142244E+03  0.29593142248E+03  0.50400001928E-02 0. -1.
        1   -1    0    0  501    0  0.00000000000E+00  0.00000000000E+00 -0.99252324487E+03  0.99252324488E+03  0.50400001928E-02 0.  1.
    10030    2    1    2    0    0  0.00000000000E+00  0.00000000000E+00 -0.69659182243E+03  0.12884546674E+04  0.10839166309E+04 0.  0.
        3    1    3    3  502    0  0.34997831018E+03  0.35717783763E+02  0.14175856470E+03  0.37928363864E+03  0.10100000352E+00 0. -1.
       -3    1    3    3    0  502 -0.34997831018E+03 -0.35717783763E+02 -0.83835038713E+03  0.90917102873E+03  0.10100000352E+00 0.  1.
</event>
<event>
 5   0  0.3949750E-03  0.1099399E+04  0.7818609E-02  0.9205778E-01
       -3   -1    0    0    0  501  0.00000000000E+00  0.00000000000E+00  0.69365523814E+03  0.69365524549E+03  0.10100000352E+00 0. -1.
        3   -1    0    0  501    0  0.00000000000E+00  0.00000000000E+00 -0.43561901301E+03  0.43561902472E+03  0.10100000352E+00 0.  1.
    10030    2    1    2    0    0  0.00000000000E+00  0.00000000000E+00  0.25803622513E+03  0.11292742702E+04  0.10993987829E+04 0.  0.
        2    1    3    3  502    0  0.21092739752E+02  0.43226811576E+03 -0.21911490207E+03  0.48508964933E+03  0.25500000920E-02 0.  1.
       -2    1    3    3    0  502 -0.21092739752E+02 -0.43226811576E+03  0.47715112720E+03  0.64418462087E+03  0.25500000920E-02 0. -1.
</event>
<event>
 5   0  0.5958706E-03  0.1090335E+04  0.7818609E-02  0.9214663E-01
        1   -1    0    0  501    0  0.00000000000E+00  0.00000000000E+00  0.96233583536E+03  0.96233583537E+03  0.50400001928E-02 0.  1.
       -1   -1    0    0    0  501  0.00000000000E+00  0.00000000000E+00 -0.30883996832E+03  0.30883996836E+03  0.50400001928E-02 0. -1.
    10030    2    1    2    0    0  0.00000000000E+00  0.00000000000E+00  0.65349586704E+03  0.12711758037E+04  0.10903353043E+04 0.  0.
        2    1    3    3  502    0  0.18126929034E+03 -0.22046398774E+03 -0.21477363044E+03  0.35719831726E+03  0.25500000920E-02 0. -1.
       -2    1    3    3    0  502 -0.18126929034E+03  0.22046398774E+03  0.86826949748E+03  0.91397748647E+03  0.25500000920E-02 0.  1.
</event>
<event>
 5   0  0.3949750E-03  0.1096319E+04  0.7818609E-02  0.9208787E-01
       -3   -1    0    0    0  501  0.00000000000E+00  0.00000000000E+00  0.15112468621E+04  0.15112468654E+04  0.10100000352E+00 0. -1.
        3   -1    0    0  501    0  0.00000000000E+00  0.00000000000E+00 -0.19882826072E+03  0.19882828638E+03  0.10100000352E+00 0.  1.
    10030    2    1    2    0    0  0.00000000000E+00  0.00000000000E+00  0.13124186013E+04  0.17100751518E+04  0.10963185850E+04 0.  0.
        4    1    3    3  502    0  0.24281724258E+03 -0.48229881497E+03  0.80340208670E+03  0.96800252377E+03  0.12699999809E+01 0. -1.
       -4    1    3    3    0  502 -0.24281724258E+03  0.48229881497E+03  0.50901651464E+03  0.74207262804E+03  0.12699999809E+01 0.  1.
</event>
<event>
 5   0  0.9925021E-03  0.1104906E+04  0.7818609E-02  0.9200424E-01
        2   -1    0    0  501    0  0.00000000000E+00  0.00000000000E+00  0.32803646322E+03  0.32803646323E+03  0.25500000920E-02 0.  1.
       -2   -1    0    0    0  501  0.00000000000E+00  0.00000000000E+00 -0.93039672743E+03  0.93039672744E+03  0.25500000920E-02 0. -1.
    10030    2    1    2    0    0  0.00000000000E+00  0.00000000000E+00 -0.60236026422E+03  0.12584331907E+04  0.11049055197E+04 0.  0.
        4    1    3    3  502    0  0.50653419838E+03  0.10080120729E+03 -0.52455585866E+03  0.73613737799E+03  0.12699999809E+01 0.  1.
       -4    1    3    3    0  502 -0.50653419838E+03 -0.10080120729E+03 -0.77804405555E+02  0.52229581268E+03  0.12699999809E+01 0. -1.
</event>
<event>
 5   0  0.5789905E-03  0.1076450E+04  0.7818609E-02  0.9228454E-01
        1   -1    0    0  501    0  0.00000000000E+00  0.00000000000E+00  0.54646436397E+03  0.54646436399E+03  0.50400001928E-02 0.  1.
       -1   -1    0    0    0  501  0.00000000000E+00  0.00000000000E+00 -0.53011002645E+03  0.53011002647E+03  0.50400001928E-02 0. -1.
    10030    2    1    2    0    0  0.00000000000E+00  0.00000000000E+00  0.16354337517E+02  0.10765743905E+04  0.10764501632E+04 0.  0.
        1    1    3    3  502    0 -0.15083464043E+03  0.15382770145E+01  0.52489217480E+03  0.54613665894E+03  0.50400001928E-02 0.  1.
       -1    1    3    3    0  502  0.15083464043E+03 -0.15382770145E+01 -0.50853783728E+03  0.53043773152E+03  0.50400001928E-02 0. -1.
</event>
<event>
 5   0  0.5998641E-03  0.1014868E+04  0.7818609E-02  0.9292387E-01
        1   -1    0    0  501    0  0.00000000000E+00  0.00000000000E+00  0.41623909826E+03  0.41623909829E+03  0.50400001928E-02 0.  1.
       -1   -1    0    0    0  501  0.00000000000E+00  0.00000000000E+00 -0.61860870373E+03  0.61860870375E+03  0.50400001928E-02 0. -1.
    10030    2    1    2    0    0  0.00000000000E+00  0.00000000000E+00 -0.20236960548E+03  0.10348478020E+04  0.10148677333E+04 0.  0.
        3    1    3    3  502    0  0.30792229213E+03  0.18014846028E+03 -0.46914858171E+03  0.58938103775E+03  0.10100000352E+00 0. -1.
       -3    1    3    3    0  502 -0.30792229213E+03 -0.18014846028E+03  0.26677897624E+03  0.44546676430E+03  0.10100000352E+00 0.  1.
</event>
<event>
 5   0  0.1028016E-02  0.1120215E+04  0.7818609E-02  0.9185710E-01
       -2   -1    0    0    0  501  0.00000000000E+00  0.00000000000E+00  0.15798972802E+03  0.15798972804E+03  0.25500000920E-02 0. -1.
        2   -1    0    0  501    0  0.00000000000E+00  0.00000000000E+00 -0.19857028075E+04  0.19857028075E+04  0.25500000920E-02 0.  1.
    10030    2    1    2    0    0  0.00000000000E+00  0.00000000000E+00 -0.18277130795E+04  0.21436925356E+04  0.11202154195E+04 0.  0.
        2    1    3    3  502    0  0.12831836836E+03 -0.18214720837E+03 -0.18972483742E+04  0.19102865237E+04  0.25500000920E-02 0.  1.
       -2    1    3    3    0  502 -0.12831836836E+03  0.18214720837E+03  0.69535294678E+02  0.23340601189E+03  0.25500000920E-02 0. -1.
</event>
<event>
 5   0  0.9925021E-03  0.1093255E+04  0.7818609E-02  0.9211791E-01
        2   -1    0    0  501    0  0.00000000000E+00  0.00000000000E+00  0.20460811549E+04  0.20460811549E+04  0.25500000920E-02 0.  1.
       -2   -1    0    0    0  501  0.00000000000E+00  0.00000000000E+00 -0.14603593470E+03  0.14603593472E+03  0.25500000920E-02 0. -1.
    10030    2    1    2    0    0  0.00000000000E+00  0.00000000000E+00  0.19000452202E+04  0.21921170896E+04  0.10932545430E+04 0.  0.
        4    1    3    3  502    0  0.43358236287E+03  0.32062726834E+03  0.11294144943E+04  0.12515487299E+04  0.12699999809E+01 0.  1.
       -4    1    3    3    0  502 -0.43358236287E+03 -0.32062726834E+03  0.77063072587E+03  0.94056835963E+03  0.12699999809E+01 0. -1.
</event>
<event>
 5   0  0.5712664E-03  0.9741713E+03  0.7818609E-02  0.9337336E-01
        1   -1    0    0  501    0  0.00000000000E+00  0.00000000000E+00  0.75615731187E+03  0.75615731189E+03  0.50400001928E-02 0.  1.
       -1   -1    0    0    0  501  0.00000000000E+00  0.00000000000E+00 -0.31376067095E+03  0.31376067099E+03  0.50400001928E-02 0. -1.
    10030    2    1    2    0    0  0.00000000000E+00  0.00000000000E+00  0.44239664092E+03  0.10699179829E+04  0.97417128997E+03 0.  0.
        5    1    3    3  502    0  0.37772651701E+03 -0.20018488406E+03 -0.35149617550E+02  0.42896258004E+03  0.46999998093E+01 0. -1.
       -5    1    3    3    0  502 -0.37772651701E+03  0.20018488406E+03  0.47754625846E+03  0.64095540284E+03  0.46999998093E+01 0.  1.
</event>
<event>
 5   0  0.9925021E-03  0.1122633E+04  0.7818609E-02  0.9183409E-01
        2   -1    0    0  501    0  0.00000000000E+00  0.00000000000E+00  0.16341390954E+04  0.16341390954E+04  0.25500000920E-02 0.  1.
       -2   -1    0    0    0  501  0.00000000000E+00  0.00000000000E+00 -0.19280875874E+03  0.19280875876E+03  0.25500000920E-02 0. -1.
    10030    2    1    2    0    0  0.00000000000E+00  0.00000000000E+00  0.14413303367E+04  0.18269478542E+04  0.11226332092E+04 0.  0.
        4    1    3    3  502    0 -0.86707762253E+02  0.52375667240E+03  0.42398472718E+03  0.67941441676E+03  0.12699999809E+01 0. -1.
       -4    1    3    3    0  502  0.86707762253E+02 -0.52375667240E+03  0.10173456095E+04  0.11475334374E+04  0.12699999809E+01 0.  1.
</event>
<event>
 5   0  0.5958706E-03  0.1058853E+04  0.7818609E-02  0.9246251E-01
       -1   -1    0    0    0  501  0.00000000000E+00  0.00000000000E+00  0.38256554040E+03  0.38256554043E+03  0.50400001928E-02 0. -1.
        1   -1    0    0  501    0  0.00000000000E+00  0.00000000000E+00 -0.73266516085E+03  0.73266516087E+03  0.50400001928E-02 0.  1.
    10030    2    1    2    0    0  0.00000000000E+00  0.00000000000E+00 -0.35009962045E+03  0.11152307013E+04  0.10588530459E+04 0.  0.
        2    1    3    3  502    0  0.19677852637E+03 -0.15223395207E+02  0.34236957256E+03  0.39518408928E+03  0.25500000920E-02 0. -1.
       -2    1    3    3    0  502 -0.19677852637E+03  0.15223395207E+02 -0.69246919301E+03  0.72004661202E+03  0.25500000920E-02 0.  1.
</event>
<event>
 5   0  0.9692981E-03  0.1097279E+04  0.7818609E-02  0.9207848E-01
       -2   -1    0    0    0  501  0.00000000000E+00  0.00000000000E+00  0.13644333310E+04  0.13644333310E+04  0.25500000920E-02 0. -1.
        2   -1    0    0  501    0  0.00000000000E+00  0.00000000000E+00 -0.22060836798E+03  0.22060836800E+03  0.25500000920E-02 0.  1.
    10030    2    1    2    0    0  0.00000000000E+00  0.00000000000E+00  0.11438249631E+04  0.15850416990E+04  0.10972791995E+04 0.  0.
        5    1    3    3  502    0 -0.39817352956E+03  0.11816239535E+03  0.54139604530E+02  0.41887670990E+03  0.46999998093E+01 0.  1.
       -5    1    3    3    0  502  0.39817352956E+03 -0.11816239535E+03  0.10896853585E+04  0.11661649891E+04  0.46999998093E+01 0. -1.
</event>
<event>
 5   0  0.5958706E-03  0.1086678E+04  0.7818609E-02  0.9218275E-01
        1   -1    0    0  501    0  0.00000000000E+00  0.00000000000E+00  0.47647122459E+03  0.47647122461E+03  0.50400001928E-02 0. -1.
       -1   -1    0    0    0  501  0.00000000000E+00  0.00000000000E+00 -0.61959047668E+03  0.61959047670E+03  0.50400001928E-02 0.  1.
    10030    2    1    2    0    0  0.00000000000E+00  0.00000000000E+00 -0.14311925210E+03  0.10960617013E+04  0.10866775661E+04 0.  0.
        2    1    3    3  502    0 -0.25832282255E+03 -0.98246594987E+01 -0.55358808615E+03  0.61097215462E+03  0.25500000920E-02 0.  1.
       -2    1    3    3    0  502  0.25832282255E+03  0.98246594987E+01  0.41046883405E+03  0.48508954670E+03  0.25500000920E-02 0. -1.
</event>
<event>
 5   0  0.9719260E-03  0.1100432E+04  0.7818609E-02  0.9204771E-01
        2   -1    0    0  501    0  0.00000000000E+00  0.00000000000E+00  0.57644790970E+03  0.57644790971E+03  0.25500000920E-02 0.  1.
       -2   -1    0    0    0  501  0.00000000000E+00  0.00000000000E+00 -0.52517780925E+03  0.52517780925E+03  0.25500000920E-02 0. -1.
    10030    2    1    2    0    0  0.00000000000E+00  0.00000000000E+00  0.51270100451E+02  0.11016257190E+04  0.11004320067E+04 0.  0.
        3    1    3    3  502    0 -0.41449686432E+03  0.36027026878E+03 -0.80960559924E+01  0.54924300034E+03  0.10100000352E+00 0. -1.
       -3    1    3    3    0  502  0.41449686432E+03 -0.36027026878E+03  0.59366156444E+02  0.55238271862E+03  0.10100000352E+00 0.  1.
</event>
<event>
 5   0  0.9692981E-03  0.1113242E+04  0.7818609E-02  0.9192381E-01
        2   -1    0    0  501    0  0.00000000000E+00  0.00000000000E+00  0.20120870220E+04  0.20120870220E+04  0.25500000920E-02 0.  1.
       -2   -1    0    0    0  501  0.00000000000E+00  0.00000000000E+00 -0.15398289507E+03  0.15398289509E+03  0.25500000920E-02 0. -1.
    10030    2    1    2    0    0  0.00000000000E+00  0.00000000000E+00  0.18581041269E+04  0.21660699171E+04  0.11132420847E+04 0.  0.
        5    1    3    3  502    0 -0.44938142676E+03  0.27899458363E+03  0.59191095607E+03  0.79382763515E+03  0.46999998093E+01 0.  1.
       -5    1    3    3    0  502  0.44938142676E+03 -0.27899458363E+03  0.12661931708E+04  0.13722422819E+04  0.46999998093E+01 0. -1.
</event>
<event>
 5   0  0.1028016E-02  0.1101098E+04  0.7818609E-02  0.9204122E-01
       -2   -1    0    0    0  501  0.00000000000E+00  0.00000000000E+00  0.26375288539E+03  0.26375288541E+03  0.25500000920E-02 0. -1.
        2   -1    0    0  501    0  0.00000000000E+00  0.00000000000E+00 -0.11491982367E+04  0.11491982367E+04  0.25500000920E-02 0.  1.
    10030    2    1    2    0    0  0.00000000000E+00  0.00000000000E+00 -0.88544535133E+03  0.14129511221E+04  0.11010982714E+04 0.  0.
        2    1    3    3  502    0 -0.44824671702E+03 -0.21920530400E+03 -0.14417539757E+03  0.51938678255E+03  0.25500000920E-02 0.  1.
       -2    1    3    3    0  502  0.44824671702E+03  0.21920530400E+03 -0.74126995376E+03  0.89356433958E+03  0.25500000920E-02 0. -1.
</event>
<event>
 5   0  0.5712664E-03  0.1167054E+04  0.7818609E-02  0.9142193E-01
       -1   -1    0    0    0  501  0.00000000000E+00  0.00000000000E+00  0.23486925635E+03  0.23486925640E+03  0.50400001928E-02 0. -1.
        1   -1    0    0  501    0  0.00000000000E+00  0.00000000000E+00 -0.14497593399E+04  0.14497593399E+04  0.50400001928E-02 0.  1.
    10030    2    1    2    0    0  0.00000000000E+00  0.00000000000E+00 -0.12148900836E+04  0.16846285963E+04  0.11670542371E+04 0.  0.
        5    1    3    3  502    0  0.51919829765E+03  0.14883613832E+03 -0.92620016823E+03  0.10721883743E+04  0.46999998093E+01 0.  1.
       -5    1    3    3    0  502 -0.51919829765E+03 -0.14883613832E+03 -0.28868991533E+03  0.61244022203E+03  0.46999998093E+01 0. -1.
</event>
<event>
 5   0  0.9925021E-03  0.1077943E+04  0.7818609E-02  0.9226961E-01
       -2   -1    0    0    0  501  0.00000000000E+00  0.00000000000E+00  0.21880950055E+03  0.21880950056E+03  0.25500000920E-02 0.  1.
        2   -1    0    0  501    0  0.00000000000E+00  0.00000000000E+00 -0.13275950200E+04  0.13275950200E+04  0.25500000920E-02 0. -1.
    10030    2    1    2    0    0  0.00000000000E+00  0.00000000000E+00 -0.11087855194E+04  0.15464045205E+04  0.10779432328E+04 0.  0.
        4    1    3    3  502    0  0.33992015959E+03 -0.41100845956E+03 -0.44313010258E+03  0.69342596536E+03  0.12699999809E+01 0.  1.
       -4    1    3    3    0  502 -0.33992015959E+03  0.41100845956E+03 -0.66565541685E+03  0.85297855518E+03  0.12699999809E+01 0. -1.
</event>
<event>
 5   0  0.9692981E-03  0.9745180E+03  0.7818609E-02  0.9336943E-01
        2   -1    0    0  501    0  0.00000000000E+00  0.00000000000E+00  0.59936997672E+03  0.59936997672E+03  0.25500000920E-02 0. -1.
       -2   -1    0    0    0  501  0.00000000000E+00  0.00000000000E+00 -0.39611816144E+03  0.39611816144E+03  0.25500000920E-02 0.  1.
    10030    2    1    2    0    0  0.00000000000E+00  0.00000000000E+00  0.20325181528E+03  0.99548813817E+03  0.97451800025E+03 0.  0.
        5    1    3    3  502    0 -0.41969874844E+03 -0.35458214198E+02 -0.14858339883E+03  0.44665808042E+03  0.46999998093E+01 0.  1.
       -5    1    3    3    0  502  0.41969874844E+03  0.35458214198E+02  0.35183521411E+03  0.54883005775E+03  0.46999998093E+01 0. -1.
</event>
<event>
 5   0  0.5854579E-03  0.1089612E+04  0.7818609E-02  0.9215376E-01
        1   -1    0    0  501    0  0.00000000000E+00  0.00000000000E+00  0.98769314684E+03  0.98769314685E+03  0.50400001928E-02 0. -1.
       -1   -1    0    0    0  501  0.00000000000E+00  0.00000000000E+00 -0.30051205663E+03  0.30051205668E+03  0.50400001928E-02 0.  1.
    10030    2    1    2    0    0  0.00000000000E+00  0.00000000000E+00  0.68718109020E+03  0.12882052035E+04  0.10896122226E+04 0.  0.
        4    1    3    3  502    0 -0.40436247868E+03 -0.14106181348E+03  0.74172383125E+03  0.85648310207E+03  0.12699999809E+01 0. -1.
       -4    1    3    3    0  502  0.40436247868E+03  0.14106181348E+03 -0.54542741046E+02  0.43172210146E+03  0.12699999809E+01 0.  1.
</event>
<event>
 5   0  0.9692981E-03  0.7048072E+03  0.7818609E-02  0.9709046E-01
        2   -1    0    0  501    0  0.00000000000E+00  0.00000000000E+00  0.68767458425E+03  0.68767458426E+03  0.25500000920E-02 0.  1.
       -2   -1    0    0    0  501  0.00000000000E+00  0.00000000000E+00 -0.18059166244E+03  0.18059166246E+03  0.25500000920E-02 0. -1.
    10030    2    1    2    0    0  0.00000000000E+00  0.00000000000E+00  0.50708292181E+03  0.86826624672E+03  0.70480719746E+03 0.  0.
        5    1    3    3  502    0 -0.97835355009E+02 -0.19795234484E+03  0.59183608554E+03  0.63170319745E+03  0.46999998093E+01 0.  1.
       -5    1    3    3    0  502  0.97835355009E+02  0.19795234484E+03 -0.84753163729E+02  0.23656304927E+03  0.46999998093E+01 0. -1.
</event>
<event>
 5   0  0.9692981E-03  0.9474335E+03  0.7818609E-02  0.9368155E-01
        2   -1    0    0  501    0  0.00000000000E+00  0.00000000000E+00  0.11207639466E+04  0.11207639466E+04  0.25500000920E-02 0.  1.
       -2   -1    0    0    0  501  0.00000000000E+00  0.00000000000E+00 -0.20022732090E+03  0.20022732092E+03  0.25500000920E-02 0. -1.
    10030    2    1    2    0    0  0.00000000000E+00  0.00000000000E+00  0.92053662569E+03  0.13209912675E+04  0.94743350669E+03 0.  0.
        5    1    3    3  502    0 -0.28943393600E+03 -0.37348513299E+03  0.41355825181E+03  0.62794559120E+03  0.46999998093E+01 0.  1.
       -5    1    3    3    0  502  0.28943393600E+03  0.37348513299E+03  0.50697837388E+03  0.69304567631E+03  0.46999998093E+01 0. -1.
</event>
<event>
 5   0  0.5998641E-03  0.1101933E+04  0.7818609E-02  0.9203310E-01
       -1   -1    0    0    0  501  0.00000000000E+00  0.00000000000E+00  0.28996294400E+03  0.28996294404E+03  0.50400001928E-02 0.  1.
        1   -1    0    0  501    0  0.00000000000E+00  0.00000000000E+00 -0.10469065631E+04  0.10469065631E+04  0.50400001928E-02 0. -1.
    10030    2    1    2    0    0  0.00000000000E+00  0.00000000000E+00 -0.75694361911E+03  0.13368695072E+04  0.11019330455E+04 0.  0.
        3    1    3    3  502    0 -0.12517570489E+03  0.13131934759E+03  0.25268623735E+03  0.31106924132E+03  0.10100000352E+00 0.  1.
       -3    1    3    3    0  502  0.12517570489E+03 -0.13131934759E+03 -0.10096298565E+04  0.10258002658E+04  0.10100000352E+00 0. -1.
</event>
<event>
 5   0  0.1019384E-02  0.1038751E+04  0.7818609E-02  0.9267036E-01
       -2   -1    0    0    0  501  0.00000000000E+00  0.00000000000E+00  0.16653805198E+03  0.16653805200E+03  0.25500000920E-02 0. -1.
        2   -1    0    0  501    0  0.00000000000E+00  0.00000000000E+00 -0.16197547621E+04  0.16197547621E+04  0.25500000920E-02 0.  1.
    10030    2    1    2    0    0  0.00000000000E+00  0.00000000000E+00 -0.14532167102E+04  0.17862928141E+04  0.10387507936E+04 0.  0.
        1    1    3    3  502    0  0.95074128714E+02  0.48145033798E+03 -0.10190370858E+04  0.11310482307E+04  0.50400001928E-02 0.  1.
       -1    1    3    3    0  502 -0.95074128714E+02 -0.48145033798E+03 -0.43417962433E+03  0.65524458342E+03  0.50400001928E-02 0. -1.
</event>
<event>
 5   0  0.5789905E-03  0.1034584E+04  0.7818609E-02  0.9271406E-01
        1   -1    0    0  501    0  0.00000000000E+00  0.00000000000E+00  0.43171610282E+03  0.43171610285E+03  0.50400001928E-02 0.  1.
       -1   -1    0    0    0  501  0.00000000000E+00  0.00000000000E+00 -0.61983082450E+03  0.61983082452E+03  0.50400001928E-02 0. -1.
    10030    2    1    2    0    0  0.00000000000E+00  0.00000000000E+00 -0.18811472169E+03  0.10515469274E+04  0.10345838738E+04 0.  0.
        1    1    3    3  502    0 -0.26055442444E+03 -0.42169731395E+03  0.56265222735E+02  0.49888175754E+03  0.50400001928E-02 0.  1.
       -1    1    3    3    0  502  0.26055442444E+03  0.42169731395E+03 -0.24437994442E+03  0.55266516984E+03  0.50400001928E-02 0. -1.
</event>
<event>
 5   0  0.1019384E-02  0.1091270E+04  0.7818609E-02  0.9213743E-01
       -2   -1    0    0    0  501  0.00000000000E+00  0.00000000000E+00  0.24838658973E+03  0.24838658974E+03  0.25500000920E-02 0. -1.
        2   -1    0    0  501    0  0.00000000000E+00  0.00000000000E+00 -0.11986051828E+04  0.11986051828E+04  0.25500000920E-02 0.  1.
    10030    2    1    2    0    0  0.00000000000E+00  0.00000000000E+00 -0.95021859304E+03  0.14469917725E+04  0.10912698178E+04 0.  0.
        1    1    3    3  502    0  0.37849311500E+03  0.34790213382E+03 -0.71752821750E+03  0.88268888956E+03  0.50400001928E-02 0.  1.
       -1    1    3    3    0  502 -0.37849311500E+03 -0.34790213382E+03 -0.23269037554E+03  0.56430288295E+03  0.50400001928E-02 0. -1.
</event>
<event>
 5   0  0.1019384E-02  0.1082399E+04  0.7818609E-02  0.9222519E-01
        2   -1    0    0  501    0  0.00000000000E+00  0.00000000000E+00  0.17082032289E+04  0.17082032289E+04  0.25500000920E-02 0.  1.
       -2   -1    0    0    0  501  0.00000000000E+00  0.00000000000E+00 -0.17146482029E+03  0.17146482030E+03  0.25500000920E-02 0. -1.
    10030    2    1    2    0    0  0.00000000000E+00  0.00000000000E+00  0.15367384086E+04  0.18796680492E+04  0.10823987429E+04 0.  0.
        1    1    3    3  502    0  0.34185549947E+03 -0.20344135184E+03  0.13115407012E+03  0.41887343708E+03  0.50400001928E-02 0. -1.
       -1    1    3    3    0  502 -0.34185549947E+03  0.20344135184E+03  0.14055843385E+04  0.14607946121E+04  0.50400001928E-02 0.  1.
</event>
<event>
 5   0  0.9692981E-03  0.1064187E+04  0.7818609E-02  0.9240819E-01
        2   -1    0    0  501    0  0.00000000000E+00  0.00000000000E+00  0.73890178897E+03  0.73890178897E+03  0.25500000920E-02 0.  1.
       -2   -1    0    0    0  501  0.00000000000E+00  0.00000000000E+00 -0.38316770363E+03  0.38316770364E+03  0.25500000920E-02 0. -1.
    10030    2    1    2    0    0  0.00000000000E+00  0.00000000000E+00  0.35573408534E+03  0.11220694926E+04  0.10641866409E+04 0.  0.
        5    1    3    3  502    0  0.19137218350E+02 -0.29572256889E+03 -0.28807760530E+03  0.41331448989E+03  0.46999998093E+01 0. -1.
       -5    1    3    3    0  502 -0.19137218350E+02  0.29572256889E+03  0.64381169064E+03  0.70875500272E+03  0.46999998093E+01 0.  1.
</event>
<event>
 5   0  0.9719260E-03  0.1033019E+04  0.7818609E-02  0.9273054E-01
       -2   -1    0    0    0  501  0.00000000000E+00  0.00000000000E+00  0.22639653181E+03  0.22639653183E+03  0.25500000920E-02 0.  1.
        2   -1    0    0  501    0  0.00000000000E+00  0.00000000000E+00 -0.11783835574E+04  0.11783835574E+04  0.25500000920E-02 0. -1.
    10030    2    1    2    0    0  0.00000000000E+00  0.00000000000E+00 -0.95198702562E+03  0.14047800893E+04  0.10330187812E+04 0.  0.
        3    1    3    3  502    0  0.19535298168E+03 -0.63378043820E+02 -0.11204703292E+04  0.11391371001E+04  0.10100000352E+00 0. -1.
       -3    1    3    3    0  502 -0.19535298168E+03  0.63378043820E+02  0.16848330363E+03  0.26564298917E+03  0.10100000352E+00 0.  1.
</event>
<event>
 5   0  0.5958706E-03  0.1116153E+04  0.7818609E-02  0.9189590E-01
        1   -1    0    0  501    0  0.00000000000E+00  0.00000000000E+00  0.11266780292E+04  0.11266780292E+04  0.50400001928E-02 0. -1.
       -1   -1    0    0    0  501  0.00000000000E+00  0.00000000000E+00 -0.27643133594E+03  0.27643133599E+03  0.50400001928E-02 0.  1.
    10030    2    1    2    0    0  0.00000000000E+00  0.00000000000E+00  0.85024669329E+03  0.14031093652E+04  0.11161525215E+04 0.  0.
        2    1    3    3  502    0 -0.34851660835E+03  0.43584674828E+03  0.41910784441E+03  0.69790944938E+03  0.25500000920E-02 0. -1.
       -2    1    3    3    0  502  0.34851660835E+03 -0.43584674828E+03  0.43113884888E+03  0.70519991585E+03  0.25500000920E-02 0.  1.
</event>
<event>
 5   0  0.5998641E-03  0.1101224E+04  0.7818609E-02  0.9204000E-01
        1   -1    0    0  501    0  0.00000000000E+00  0.00000000000E+00  0.29890786062E+03  0.29890786066E+03  0.50400001928E-02 0.  1.
       -1   -1    0    0    0  501  0.00000000000E+00  0.00000000000E+00 -0.10142701727E+04  0.10142701727E+04  0.50400001928E-02 0. -1.
    10030    2    1    2    0    0  0.00000000000E+00  0.00000000000E+00 -0.71536231207E+03  0.13131780334E+04  0.11012235512E+04 0.  0.
        3    1    3    3  502    0 -0.27846305879E+03  0.28328940619E+03  0.96991242231E+02  0.40890325755E+03  0.10100000352E+00 0.  1.
       -3    1    3    3    0  502  0.27846305879E+03 -0.28328940619E+03 -0.81235355430E+03  0.90427477580E+03  0.10100000352E+00 0. -1.
</event>
<event>
 5   0  0.5712664E-03  0.1102344E+04  0.7818609E-02  0.9202910E-01
        1   -1    0    0  501    0  0.00000000000E+00  0.00000000000E+00  0.13285575957E+04  0.13285575957E+04  0.50400001928E-02 0. -1.
       -1   -1    0    0    0  501  0.00000000000E+00  0.00000000000E+00 -0.22866210761E+03  0.22866210766E+03  0.50400001928E-02 0.  1.
    10030    2    1    2    0    0  0.00000000000E+00  0.00000000000E+00  0.10998954881E+04  0.15572197034E+04  0.11023443744E+04 0.  0.
        5    1    3    3  502    0 -0.24816015466E+03  0.41110999547E+03  0.16781838816E+03  0.50870422855E+03  0.46999998093E+01 0.  1.
       -5    1    3    3    0  502  0.24816015466E+03 -0.41110999547E+03  0.93207709996E+03  0.10485154749E+04  0.46999998093E+01 0. -1.
</event>
<event>
 5   0  0.3949750E-03  0.1077810E+04  0.7818609E-02  0.9227094E-01
        3   -1    0    0  501    0  0.00000000000E+00  0.00000000000E+00  0.31757949323E+03  0.31757950929E+03  0.10100000352E+00 0.  1.
       -3   -1    0    0    0  501  0.00000000000E+00  0.00000000000E+00 -0.91447447715E+03  0.91447448272E+03  0.10100000352E+00 0. -1.
    10030    2    1    2    0    0  0.00000000000E+00  0.00000000000E+00 -0.59689498392E+03  0.12320539920E+04  0.10778095460E+04 0.  0.
        1    1    3    3  502    0 -0.21999834023E+03 -0.48453327152E+03 -0.39575686221E+03  0.66317060771E+03  0.50400001928E-02 0. -1.
       -1    1    3    3    0  502  0.21999834023E+03  0.48453327152E+03 -0.20113812171E+03  0.56888338431E+03  0.50400001928E-02 0.  1.
</event>
<event>
 5   0  0.5958706E-03  0.1108077E+04  0.7818609E-02  0.9197355E-01
       -1   -1    0    0    0  501  0.00000000000E+00  0.00000000000E+00  0.27977623100E+03  0.27977623105E+03  0.50400001928E-02 0. -1.
        1   -1    0    0  501    0  0.00000000000E+00  0.00000000000E+00 -0.10971569634E+04  0.10971569634E+04  0.50400001928E-02 0.  1.
    10030    2    1    2    0    0  0.00000000000E+00  0.00000000000E+00 -0.81738073240E+03  0.13769331945E+04  0.11080766040E+04 0.  0.
        2    1    3    3  502    0 -0.24822022552E+03 -0.42621139927E+03 -0.72228982841E+03  0.87462679667E+03  0.25500000920E-02 0.  1.
       -2    1    3    3    0  502  0.24822022552E+03  0.42621139927E+03 -0.95090903986E+02  0.50230639778E+03  0.25500000920E-02 0. -1.
</event>
<event>
 5   0  0.5789905E-03  0.1053144E+04  0.7818609E-02  0.9252104E-01
        1   -1    0    0  501    0  0.00000000000E+00  0.00000000000E+00  0.10754807087E+04  0.10754807087E+04  0.50400001928E-02 0.  1.
       -1   -1    0    0    0  501  0.00000000000E+00  0.00000000000E+00 -0.25781785714E+03  0.25781785719E+03  0.50400001928E-02 0. -1.
    10030    2    1    2    0    0  0.00000000000E+00  0.00000000000E+00  0.81766285155E+03  0.13332985659E+04  0.10531441150E+04 0.  0.
        1    1    3    3  502    0 -0.26496964876E+03  0.71236285337E+02 -0.16016494416E+03  0.31770478824E+03  0.50400001928E-02 0. -1.
       -1    1    3    3    0  502  0.26496964876E+03 -0.71236285337E+02  0.97782779570E+03  0.10155937776E+04  0.50400001928E-02 0.  1.
</event>
<event>
 5   0  0.9925021E-03  0.1125959E+04  0.7818609E-02  0.9180254E-01
       -2   -1    0    0    0  501  0.00000000000E+00  0.00000000000E+00  0.25839125371E+03  0.25839125373E+03  0.25500000920E-02 0. -1.
        2   -1    0    0  501    0  0.00000000000E+00  0.00000000000E+00 -0.12266120279E+04  0.12266120279E+04  0.25500000920E-02 0.  1.
    10030    2    1    2    0    0  0.00000000000E+00  0.00000000000E+00 -0.96822077414E+03  0.14850032816E+04  0.11259588264E+04 0.  0.
        4    1    3    3  502    0  0.39066537401E+03  0.70963591518E+01 -0.10186622741E+04  0.10910289796E+04  0.12699999809E+01 0.  1.
       -4    1    3    3    0  502 -0.39066537401E+03 -0.70963591518E+01  0.50441500005E+02  0.39397430193E+03  0.12699999809E+01 0. -1.
</event>
<event>
 5   0  0.5998641E-03  0.9939325E+03  0.7818609E-02  0.9315225E-01
       -1   -1    0    0    0  501  0.00000000000E+00  0.00000000000E+00  0.41534380211E+03  0.41534380214E+03  0.50400001928E-02 0.  1.
        1   -1    0    0  501    0  0.00000000000E+00  0.00000000000E+00 -0.59462896587E+03  0.59462896589E+03  0.50400001928E-02 0. -1.
    10030    2    1    2    0    0  0.00000000000E+00  0.00000000000E+00 -0.17928516376E+03  0.10099727680E+04  0.99393250386E+03 0.  0.
        3    1    3    3  502    0 -0.12505716675E+02  0.47258084401E+03  0.66083365433E+02  0.47734271594E+03  0.10100000352E+00 0. -1.
       -3    1    3    3    0  502  0.12505716675E+02 -0.47258084401E+03 -0.24536852919E+03  0.53263005209E+03  0.10100000352E+00 0.  1.
</event>
<event>
 5   0  0.1028016E-02  0.1024908E+04  0.7818609E-02  0.9281641E-01
       -2   -1    0    0    0  501  0.00000000000E+00  0.00000000000E+00  0.31335850642E+03  0.31335850643E+03  0.25500000920E-02 0.  1.
        2   -1    0    0  501    0  0.00000000000E+00  0.00000000000E+00 -0.83804615518E+03  0.83804615518E+03  0.25500000920E-02 0. -1.
    10030    2    1    2    0    0  0.00000000000E+00  0.00000000000E+00 -0.52468764875E+03  0.11514046616E+04  0.10249075890E+04 0.  0.
        2    1    3    3  502    0 -0.20515669200E+03 -0.41429367324E+03 -0.13967302330E+02  0.46251875799E+03  0.25500000920E-02 0.  1.
       -2    1    3    3    0  502  0.20515669200E+03  0.41429367324E+03 -0.51072034642E+03  0.68888590362E+03  0.25500000920E-02 0. -1.
</event>
<event>
 5   0  0.5712664E-03  0.1114393E+04  0.7818609E-02  0.9191276E-01
        1   -1    0    0  501    0  0.00000000000E+00  0.00000000000E+00  0.64555833749E+03  0.64555833751E+03  0.50400001928E-02 0.  1.
       -1   -1    0    0    0  501  0.00000000000E+00  0.00000000000E+00 -0.48092970649E+03  0.48092970652E+03  0.50400001928E-02 0. -1.
    10030    2    1    2    0    0  0.00000000000E+00  0.00000000000E+00  0.16462863100E+03  0.11264880440E+04  0.11143934347E+04 0.  0.
        5    1    3    3  502    0  0.44592212598E+03 -0.26811109578E+03  0.28376592265E+03  0.59268481588E+03  0.46999998093E+01 0. -1.
       -5    1    3    3    0  502 -0.44592212598E+03  0.26811109578E+03 -0.11913729165E+03  0.53380322815E+03  0.46999998093E+01 0.  1.
</event>
<event>
 5   0  0.9925021E-03  0.1077605E+04  0.7818609E-02  0.9227298E-01
        2   -1    0    0  501    0  0.00000000000E+00  0.00000000000E+00  0.15090646805E+04  0.15090646805E+04  0.25500000920E-02 0.  1.
       -2   -1    0    0    0  501  0.00000000000E+00  0.00000000000E+00 -0.19237628241E+03  0.19237628243E+03  0.25500000920E-02 0. -1.
    10030    2    1    2    0    0  0.00000000000E+00  0.00000000000E+00  0.13166883980E+04  0.17014409629E+04  0.10776052211E+04 0.  0.
        4    1    3    3  502    0  0.32802664966E+02 -0.39758736247E+03  0.12301512180E+04  0.12932228569E+04  0.12699999809E+01 0.  1.
       -4    1    3    3    0  502 -0.32802664966E+02  0.39758736247E+03  0.86537180074E+02  0.40821810599E+03  0.12699999809E+01 0. -1.
</event>
<event>
 5   0  0.1019384E-02  0.1039465E+04  0.7818609E-02  0.9266289E-01
       -2   -1    0    0    0  501  0.00000000000E+00  0.00000000000E+00  0.20729957031E+03  0.20729957033E+03  0.25500000920E-02 0.  1.
        2   -1    0    0  501    0  0.00000000000E+00  0.00000000000E+00 -0.13030510956E+04  0.13030510956E+04  0.25500000920E-02 0. -1.
    10030    2    1    2    0    0  0.00000000000E+00  0.00000000000E+00 -0.10957515253E+04  0.15103506660E+04  0.10394651167E+04 0.  0.
        1    1    3    3  502    0  0.50117021094E+03  0.10099418825E+03 -0.41195526779E+03  0.65656572335E+03  0.50400001928E-02 0.  1.
       -1    1    3    3    0  502 -0.50117021094E+03 -0.10099418825E+03 -0.68379625752E+03  0.85378494260E+03  0.50400001928E-02 0. -1.
</event>
<event>
 5   0  0.1019384E-02  0.1094952E+04  0.7818609E-02  0.9210126E-01
       -2   -1    0    0    0  501  0.00000000000E+00  0.00000000000E+00  0.28573612943E+03  0.28573612944E+03  0.25500000920E-02 0. -1.
        2   -1    0    0  501    0  0.00000000000E+00  0.00000000000E+00 -0.10489748507E+04  0.10489748507E+04  0.25500000920E-02 0.  1.
    10030    2    1    2    0    0  0.00000000000E+00  0.00000000000E+00 -0.76323872126E+03  0.13347109801E+04  0.10949520788E+04 0.  0.
        1    1    3    3  502    0  0.27478110366E+03 -0.46297323452E+03 -0.50278952880E+03  0.73664522065E+03  0.50400001928E-02 0.  1.
       -1    1    3    3    0  502 -0.27478110366E+03  0.46297323452E+03 -0.26044919246E+03  0.59806575950E+03  0.50400001928E-02 0. -1.
</event>
<event>
 5   0  0.5958706E-03  0.1109978E+04  0.7818609E-02  0.9195521E-01
       -1   -1    0    0    0  501  0.00000000000E+00  0.00000000000E+00  0.65297858610E+03  0.65297858612E+03  0.50400001928E-02 0.  1.
        1   -1    0    0  501    0  0.00000000000E+00  0.00000000000E+00 -0.47170447156E+03  0.47170447159E+03  0.50400001928E-02 0. -1.
    10030    2    1    2    0    0  0.00000000000E+00  0.00000000000E+00  0.18127411454E+03  0.11246830577E+04  0.11099782321E+04 0.  0.
        2    1    3    3  502    0 -0.48378488232E+03  0.66193574906E+02 -0.17664443022E+03  0.51926164546E+03  0.25500000920E-02 0. -1.
       -2    1    3    3    0  502  0.48378488232E+03 -0.66193574906E+02  0.35791854475E+03  0.60542141224E+03  0.25500000920E-02 0.  1.
</event>
<event>
 5   0  0.9925021E-03  0.1081991E+04  0.7818609E-02  0.9222925E-01
       -2   -1    0    0    0  501  0.00000000000E+00  0.00000000000E+00  0.48429788231E+03  0.48429788232E+03  0.25500000920E-02 0. -1.
        2   -1    0    0  501    0  0.00000000000E+00  0.00000000000E+00 -0.60433080022E+03  0.60433080022E+03  0.25500000920E-02 0.  1.
    10030    2    1    2    0    0  0.00000000000E+00  0.00000000000E+00 -0.12003291790E+03  0.10886286825E+04  0.10819909921E+04 0.  0.
        4    1    3    3  502    0 -0.40546091175E+03 -0.27714650105E+03 -0.28826888725E+03  0.56948160484E+03  0.12699999809E+01 0.  1.
       -4    1    3    3    0  502  0.40546091175E+03  0.27714650105E+03  0.16823596935E+03  0.51914707770E+03  0.12699999809E+01 0. -1.
</event>
<event>
 5   0  0.9925021E-03  0.1046324E+04  0.7818609E-02  0.9259147E-01
        2   -1    0    0  501    0  0.00000000000E+00  0.00000000000E+00  0.23661662633E+04  0.23661662633E+04  0.25500000920E-02 0.  1.
       -2   -1    0    0    0  501  0.00000000000E+00  0.00000000000E+00 -0.11567181157E+03  0.11567181159E+03  0.25500000920E-02 0. -1.
    10030    2    1    2    0    0  0.00000000000E+00  0.00000000000E+00  0.22504944517E+04  0.24818380748E+04  0.10463244968E+04 0.  0.
        4    1    3    3  502    0  0.16358919062E+03  0.39957845761E+03  0.42452418083E+03  0.60551363328E+03  0.12699999809E+01 0. -1.
       -4    1    3    3    0  502 -0.16358919062E+03 -0.39957845761E+03  0.18259702709E+04  0.18763244416E+04  0.12699999809E+01 0.  1.
</event>
<event>
 5   0  0.3949750E-03  0.1076685E+04  0.7818609E-02  0.9228219E-01
        4   -1    0    0  501    0  0.00000000000E+00  0.00000000000E+00  0.27452880092E+03  0.27453173848E+03  0.12699999809E+01 0.  1.
       -4   -1    0    0    0  501  0.00000000000E+00  0.00000000000E+00 -0.10556634854E+04  0.10556642493E+04  0.12699999809E+01 0. -1.
    10030    2    1    2    0    0  0.00000000000E+00  0.00000000000E+00 -0.78113468444E+03  0.13301959878E+04  0.10766847127E+04 0.  0.
        2    1    3    3  502    0  0.26490762941E+03 -0.24650909860E+03  0.10186620429E+03  0.37592487466E+03  0.25500000920E-02 0.  1.
       -2    1    3    3    0  502 -0.26490762941E+03  0.24650909860E+03 -0.88300088873E+03  0.95427111311E+03  0.25500000920E-02 0. -1.
</event>
<event>
 5   0  0.9925021E-03  0.1062775E+04  0.7818609E-02  0.9242254E-01
       -2   -1    0    0    0  501  0.00000000000E+00  0.00000000000E+00  0.28865511288E+03  0.28865511289E+03  0.25500000920E-02 0.  1.
        2   -1    0    0  501    0  0.00000000000E+00  0.00000000000E+00 -0.97823474214E+03  0.97823474214E+03  0.25500000920E-02 0. -1.
    10030    2    1    2    0    0  0.00000000000E+00  0.00000000000E+00 -0.68957962926E+03  0.12668898550E+04  0.10627745950E+04 0.  0.
        4    1    3    3  502    0 -0.95180986510E+02  0.11827042337E+03  0.26225207300E+03  0.30302652677E+03  0.12699999809E+01 0.  1.
       -4    1    3    3    0  502  0.95180986510E+02 -0.11827042337E+03 -0.95183170226E+03  0.96386332826E+03  0.12699999809E+01 0. -1.
</event>
<event>
 5   0  0.5998641E-03  0.1075194E+04  0.7818609E-02  0.9229712E-01
        1   -1    0    0  501    0  0.00000000000E+00  0.00000000000E+00  0.44632004048E+03  0.44632004050E+03  0.50400001928E-02 0.  1.
       -1   -1    0    0    0  501  0.00000000000E+00  0.00000000000E+00 -0.64754133928E+03  0.64754133930E+03  0.50400001928E-02 0. -1.
    10030    2    1    2    0    0  0.00000000000E+00  0.00000000000E+00 -0.20122129880E+03  0.10938613798E+04  0.10751942648E+04 0.  0.
        3    1    3    3  502    0 -0.34882921551E+03  0.40605773004E+03 -0.15092599469E+03  0.55618645056E+03  0.10100000352E+00 0. -1.
       -3    1    3    3    0  502  0.34882921551E+03 -0.40605773004E+03 -0.50295304110E+02  0.53767492924E+03  0.10100000352E+00 0.  1.
</event>
<event>
 5   0  0.5712664E-03  0.1062012E+04  0.7818609E-02  0.9243029E-01
       -1   -1    0    0    0  501  0.00000000000E+00  0.00000000000E+00  0.17944516342E+03  0.17944516349E+03  0.50400001928E-02 0.  1.
        1   -1    0    0  501    0  0.00000000000E+00  0.00000000000E+00 -0.15713303750E+04  0.15713303750E+04  0.50400001928E-02 0. -1.
    10030    2    1    2    0    0  0.00000000000E+00  0.00000000000E+00 -0.13918852116E+04  0.17507755385E+04  0.10620124971E+04 0.  0.
        5    1    3    3  502    0  0.64364386194E+01 -0.27848771994E+03 -0.14411665339E+04  0.14678487342E+04  0.46999998093E+01 0. -1.
       -5    1    3    3    0  502 -0.64364386194E+01  0.27848771994E+03  0.49281322320E+02  0.28292680436E+03  0.46999998093E+01 0.  1.
</event>
<event>
 5   0  0.5998641E-03  0.1128000E+04  0.7818609E-02  0.9178323E-01
       -1   -1    0    0    0  501  0.00000000000E+00  0.00000000000E+00  0.72165632667E+03  0.72165632669E+03  0.50400001928E-02 0. -1.
        1   -1    0    0  501    0  0.00000000000E+00  0.00000000000E+00 -0.44078573540E+03  0.44078573543E+03  0.50400001928E-02 0.  1.
    10030    2    1    2    0    0  0.00000000000E+00  0.00000000000E+00  0.28087059128E+03  0.11624420621E+04  0.11279996714E+04 0.  0.
        3    1    3    3  502    0 -0.11411109878E+03 -0.29674385187E+03  0.62051104576E+03  0.69721748730E+03  0.10100000352E+00 0. -1.
       -3    1    3    3    0  502  0.11411109878E+03  0.29674385187E+03 -0.33964045448E+03  0.46522457481E+03  0.10100000352E+00 0.  1.
</event>
<event>
 5   0  0.3949750E-03  0.1185071E+04  0.7818609E-02  0.9126025E-01
        4   -1    0    0  501    0  0.00000000000E+00  0.00000000000E+00  0.66592959829E+03  0.66593080931E+03  0.12699999809E+01 0.  1.
       -4   -1    0    0    0  501  0.00000000000E+00  0.00000000000E+00 -0.52722786279E+03  0.52722939239E+03  0.12699999809E+01 0. -1.
    10030    2    1    2    0    0  0.00000000000E+00  0.00000000000E+00  0.13870173551E+03  0.11931602017E+04  0.11850709242E+04 0.  0.
        1    1    3    3  502    0 -0.27099892214E+03 -0.60294591818E+02 -0.45769384993E+03  0.53531253851E+03  0.50400001928E-02 0. -1.
       -1    1    3    3    0  502  0.27099892214E+03  0.60294591818E+02  0.59639558543E+03  0.65784766318E+03  0.50400001928E-02 0.  1.
</event>
<event>
 5   0  0.9719260E-03  0.1069850E+04  0.7818609E-02  0.9235087E-01
       -2   -1    0    0    0  501  0.00000000000E+00  0.00000000000E+00  0.34106519150E+03  0.34106519151E+03  0.25500000920E-02 0. -1.
        2   -1    0    0  501    0  0.00000000000E+00  0.00000000000E+00 -0.83897304940E+03  0.83897304940E+03  0.25500000920E-02 0.  1.
    10030    2    1    2    0    0  0.00000000000E+00  0.00000000000E+00 -0.49790785790E+03  0.11800382409E+04  0.10698495292E+04 0.  0.
        3    1    3    3  502    0 -0.27845688625E+03 -0.16894954083E+03  0.21908803040E+03  0.39253249561E+03  0.10100000352E+00 0. -1.
       -3    1    3    3    0  502  0.27845688625E+03  0.16894954083E+03 -0.71699588829E+03  0.78750574530E+03  0.10100000352E+00 0.  1.
</event>
<event>
 5   0  0.9692981E-03  0.1160595E+04  0.7818609E-02  0.9148064E-01
        2   -1    0    0  501    0  0.00000000000E+00  0.00000000000E+00  0.59999712835E+03  0.59999712836E+03  0.25500000920E-02 0. -1.
       -2   -1    0    0    0  501  0.00000000000E+00  0.00000000000E+00 -0.56124501109E+03  0.56124501110E+03  0.25500000920E-02 0.  1.
    10030    2    1    2    0    0  0.00000000000E+00  0.00000000000E+00  0.38752117262E+02  0.11612421395E+04  0.11605953558E+04 0.  0.
        5    1    3    3  502    0 -0.57092412031E+03 -0.16356261123E+02 -0.83157518287E+02  0.57719939473E+03  0.46999998093E+01 0.  1.
       -5    1    3    3    0  502  0.57092412031E+03  0.16356261123E+02  0.12190963555E+03  0.58404274473E+03  0.46999998093E+01 0. -1.
</event>
<event>
 5   0  0.1028016E-02  0.1094498E+04  0.7818609E-02  0.9210571E-01
        2   -1    0    0  501    0  0.00000000000E+00  0.00000000000E+00  0.14641569663E+04  0.14641569663E+04  0.25500000920E-02 0. -1.
       -2   -1    0    0    0  501  0.00000000000E+00  0.00000000000E+00 -0.20454181341E+03  0.20454181343E+03  0.25500000920E-02 0.  1.
    10030    2    1    2    0    0  0.00000000000E+00  0.00000000000E+00  0.12596151529E+04  0.16686987797E+04  0.10944977314E+04 0.  0.
        2    1    3    3  502    0 -0.13772247997E+02  0.55799089246E+02 -0.19992770977E+03  0.20802476370E+03  0.25500000920E-02 0.  1.
       -2    1    3    3    0  502  0.13772247997E+02 -0.55799089246E+02  0.14595428626E+04  0.14606740160E+04  0.25500000920E-02 0. -1.
</event>
<event>
 5   0  0.5958706E-03  0.1085732E+04  0.7818609E-02  0.9219211E-01
        1   -1    0    0  501    0  0.00000000000E+00  0.00000000000E+00  0.86251944935E+03  0.86251944937E+03  0.50400001928E-02 0. -1.
       -1   -1    0    0    0  501  0.00000000000E+00  0.00000000000E+00 -0.34167746448E+03  0.34167746452E+03  0.50400001928E-02 0.  1.
    10030    2    1    2    0    0  0.00000000000E+00  0.00000000000E+00  0.52084198487E+03  0.12041969139E+04  0.10857319348E+04 0.  0.
        2    1    3    3  502    0  0.22888206598E+03 -0.67722275599E+02  0.80119652256E+03  0.83599591776E+03  0.25500000920E-02 0. -1.
       -2    1    3    3    0  502 -0.22888206598E+03  0.67722275599E+02 -0.28035453769E+03  0.36820099613E+03  0.25500000920E-02 0.  1.
</event>
<event>
 5   0  0.1019384E-02  0.1089326E+04  0.7818609E-02  0.9215659E-01
        2   -1    0    0  501    0  0.00000000000E+00  0.00000000000E+00  0.44049908764E+03  0.44049908765E+03  0.25500000920E-02 0. -1.
       -2   -1    0    0    0  501  0.00000000000E+00  0.00000000000E+00 -0.67345801766E+03  0.67345801766E+03  0.25500000920E-02 0.  1.
    10030    2    1    2    0    0  0.00000000000E+00  0.00000000000E+00 -0.23295893002E+03  0.11139571053E+04  0.10893257407E+04 0.  0.
        1    1    3    3  502    0  0.52740169254E+03  0.11764864349E+03 -0.46642553587E+02  0.54237374240E+03  0.50400001928E-02 0.  1.
       -1    1    3    3    0  502 -0.52740169254E+03 -0.11764864349E+03 -0.18631637643E+03  0.57158336292E+03  0.50400001928E-02 0. -1.
</event>
<event>
 5   0  0.5712664E-03  0.1040998E+04  0.7818609E-02  0.9264688E-01
       -1   -1    0    0    0  501  0.00000000000E+00  0.00000000000E+00  0.55195390521E+03  0.55195390523E+03  0.50400001928E-02 0.  1.
        1   -1    0    0  501    0  0.00000000000E+00  0.00000000000E+00 -0.49083656394E+03  0.49083656397E+03  0.50400001928E-02 0. -1.
    10030    2    1    2    0    0  0.00000000000E+00  0.00000000000E+00  0.61117341272E+02  0.10427904692E+04  0.10409979026E+04 0.  0.
        5    1    3    3  502    0  0.43570528200E+03  0.27898572043E+03 -0.26327702249E+02  0.51806115746E+03  0.46999998093E+01 0. -1.
       -5    1    3    3    0  502 -0.43570528200E+03 -0.27898572043E+03  0.87445043521E+02  0.52472931174E+03  0.46999998093E+01 0.  1.
</event>
<event>
 5   0  0.9692981E-03  0.1135272E+04  0.7818609E-02  0.9171480E-01
        2   -1    0    0  501    0  0.00000000000E+00  0.00000000000E+00  0.21496966872E+04  0.21496966872E+04  0.25500000920E-02 0.  1.
       -2   -1    0    0    0  501  0.00000000000E+00  0.00000000000E+00 -0.14988645334E+03  0.14988645336E+03  0.25500000920E-02 0. -1.
    10030    2    1    2    0    0  0.00000000000E+00  0.00000000000E+00  0.19998102338E+04  0.22995831405E+04  0.11352716190E+04 0.  0.
        5    1    3    3  502    0  0.23065347221E+03  0.22120032632E+03  0.19501108211E+04  0.19761287693E+04  0.46999998093E+01 0.  1.
       -5    1    3    3    0  502 -0.23065347221E+03 -0.22120032632E+03  0.49699412760E+02  0.32345437118E+03  0.46999998093E+01 0. -1.
</event>
<event>
 5   0  0.5789905E-03  0.1015134E+04  0.7818609E-02  0.9292100E-01
       -1   -1    0    0    0  501  0.00000000000E+00  0.00000000000E+00  0.15901897968E+03  0.15901897976E+03  0.50400001928E-02 0.  1.
        1   -1    0    0  501    0  0.00000000000E+00  0.00000000000E+00 -0.16200847083E+04  0.16200847083E+04  0.50400001928E-02 0. -1.
    10030    2    1    2    0    0  0.00000000000E+00  0.00000000000E+00 -0.14610657286E+04  0.17791036881E+04  0.10151339170E+04 0.  0.
        1    1    3    3  502    0 -0.19253760680E+03 -0.43012629765E+03 -0.10609528419E+04  0.11609049465E+04  0.50400001928E-02 0.  1.
       -1    1    3    3    0  502  0.19253760680E+03  0.43012629765E+03 -0.40011288671E+03  0.61819874159E+03  0.50400001928E-02 0. -1.
</event>
<event>
 5   0  0.3949750E-03  0.1097083E+04  0.7818609E-02  0.9208039E-01
       -3   -1    0    0    0  501  0.00000000000E+00  0.00000000000E+00  0.79948999623E+03  0.79949000261E+03  0.10100000352E+00 0.  1.
        3   -1    0    0  501    0  0.00000000000E+00  0.00000000000E+00 -0.37636228331E+03  0.37636229686E+03  0.10100000352E+00 0. -1.
    10030    2    1    2    0    0  0.00000000000E+00  0.00000000000E+00  0.42312771292E+03  0.11758522995E+04  0.10970832096E+04 0.  0.
        3    1    3    3  502    0 -0.45223205715E+02 -0.10852250101E+03 -0.36269982778E+03  0.38127869968E+03  0.10100000352E+00 0. -1.
       -3    1    3    3    0  502  0.45223205715E+02  0.10852250101E+03  0.78582754070E+03  0.79457359979E+03  0.10100000352E+00 0.  1.
</event>
<event>
 5   0  0.5998641E-03  0.1059361E+04  0.7818609E-02  0.9245732E-01
        1   -1    0    0  501    0  0.00000000000E+00  0.00000000000E+00  0.15073094138E+03  0.15073094146E+03  0.50400001928E-02 0.  1.
       -1   -1    0    0    0  501  0.00000000000E+00  0.00000000000E+00 -0.18613400999E+04  0.18613400999E+04  0.50400001928E-02 0. -1.
    10030    2    1    2    0    0  0.00000000000E+00  0.00000000000E+00 -0.17106091585E+04  0.20120710414E+04  0.10593612143E+04 0.  0.
        3    1    3    3  502    0  0.46138415783E+03 -0.22182753126E+03 -0.59711695143E+03  0.78653128266E+03  0.10100000352E+00 0.  1.
       -3    1    3    3    0  502 -0.46138415783E+03  0.22182753126E+03 -0.11134922071E+04  0.12255397587E+04  0.10100000352E+00 0. -1.
</event>
<event>
 5   0  0.5958706E-03  0.8659215E+03  0.7818609E-02  0.9469213E-01
       -1   -1    0    0    0  501  0.00000000000E+00  0.00000000000E+00  0.14219329496E+03  0.14219329505E+03  0.50400001928E-02 0. -1.
        1   -1    0    0  501    0  0.00000000000E+00  0.00000000000E+00 -0.13183110728E+04  0.13183110728E+04  0.50400001928E-02 0.  1.
    10030    2    1    2    0    0  0.00000000000E+00  0.00000000000E+00 -0.11761177778E+04  0.14605043679E+04  0.86592146365E+03 0.  0.
        2    1    3    3  502    0  0.23766646036E+03 -0.36179984525E+03 -0.60222280169E+03  0.74165812697E+03  0.25500000920E-02 0.  1.
       -2    1    3    3    0  502 -0.23766646036E+03  0.36179984525E+03 -0.57389497615E+03  0.71884624091E+03  0.25500000920E-02 0. -1.
</event>
<event>
 5   0  0.5998641E-03  0.1191788E+04  0.7818609E-02  0.9120075E-01
       -1   -1    0    0    0  501  0.00000000000E+00  0.00000000000E+00  0.38232405627E+03  0.38232405630E+03  0.50400001928E-02 0.  1.
        1   -1    0    0  501    0  0.00000000000E+00  0.00000000000E+00 -0.92876625112E+03  0.92876625113E+03  0.50400001928E-02 0. -1.
    10030    2    1    2    0    0  0.00000000000E+00  0.00000000000E+00 -0.54644219484E+03  0.13110903074E+04  0.11917880357E+04 0.  0.
        3    1    3    3  502    0 -0.54725256747E+03  0.10561433564E+03 -0.50515755911E+03  0.75221268949E+03  0.10100000352E+00 0.  1.
       -3    1    3    3    0  502  0.54725256747E+03 -0.10561433564E+03 -0.41284635731E+02  0.55887761795E+03  0.10100000352E+00 0. -1.
</event>
<event>
 5   0  0.5854579E-03  0.1121636E+04  0.7818609E-02  0.9184356E-01
        1   -1    0    0  501    0  0.00000000000E+00  0.00000000000E+00  0.12118708290E+04  0.12118708291E+04  0.50400001928E-02 0.  1.
       -1   -1    0    0    0  501  0.00000000000E+00  0.00000000000E+00 -0.25953020544E+03  0.25953020549E+03  0.50400001928E-02 0. -1.
    10030    2    1    2    0    0  0.00000000000E+00  0.00000000000E+00  0.95234062360E+03  0.14714010345E+04  0.11216364567E+04 0.  0.
        4    1    3    3  502    0 -0.24624060415E+03 -0.10838648437E+03 -0.16934462639E+03  0.31790136915E+03  0.12699999809E+01 0. -1.
       -4    1    3    3    0  502  0.24624060415E+03  0.10838648437E+03  0.11216852500E+04  0.11534996654E+04  0.12699999809E+01 0.  1.
</event>
<event>
 5   0  0.3949750E-03  0.1085942E+04  0.7818609E-02  0.9219003E-01
        4   -1    0    0  501    0  0.00000000000E+00  0.00000000000E+00  0.18235225773E+03  0.18235668016E+03  0.12699999809E+01 0. -1.
       -4   -1    0    0    0  501  0.00000000000E+00  0.00000000000E+00 -0.16167222727E+04  0.16167227715E+04  0.12699999809E+01 0.  1.
    10030    2    1    2    0    0  0.00000000000E+00  0.00000000000E+00 -0.14343700150E+04  0.17990794517E+04  0.10859417726E+04 0.  0.
        3    1    3    3  502    0 -0.31824149364E+03 -0.34947737263E+03 -0.11598844758E+04  0.12524951456E+04  0.10100000352E+00 0.  1.
       -3    1    3    3    0  502  0.31824149364E+03  0.34947737263E+03 -0.27448553914E+03  0.54658430608E+03  0.10100000352E+00 0. -1.
</event>
<event>
 5   0  0.1028016E-02  0.1117669E+04  0.7818609E-02  0.9188140E-01
        2   -1    0    0  501    0  0.00000000000E+00  0.00000000000E+00  0.40729069241E+03  0.40729069242E+03  0.25500000920E-02 0.  1.
       -2   -1    0    0    0  501  0.00000000000E+00  0.00000000000E+00 -0.76676397607E+03  0.76676397607E+03  0.25500000920E-02 0. -1.
    10030    2    1    2    0    0  0.00000000000E+00  0.00000000000E+00 -0.35947328366E+03  0.11740546685E+04  0.11176687000E+04 0.  0.
        2    1    3    3  502    0  0.56055531859E+02  0.23495081411E+03  0.34962298185E+03  0.42494745222E+03  0.25500000920E-02 0.  1.
       -2    1    3    3    0  502 -0.56055531859E+02 -0.23495081411E+03 -0.70909626551E+03  0.74910721627E+03  0.25500000920E-02 0. -1.
</event>
<event>
 5   0  0.5958706E-03  0.1118277E+04  0.7818609E-02  0.9187559E-01
        1   -1    0    0  501    0  0.00000000000E+00  0.00000000000E+00  0.14549232659E+04  0.14549232659E+04  0.50400001928E-02 0.  1.
       -1   -1    0    0    0  501  0.00000000000E+00  0.00000000000E+00 -0.21488135628E+03  0.21488135634E+03  0.50400001928E-02 0. -1.
    10030    2    1    2    0    0  0.00000000000E+00  0.00000000000E+00  0.12400419096E+04  0.16698046223E+04  0.11182770403E+04 0.  0.
        2    1    3    3  502    0  0.28646682215E+03 -0.79041198814E+02 -0.87200159013E+02  0.30970085412E+03  0.25500000920E-02 0. -1.
       -2    1    3    3    0  502 -0.28646682215E+03  0.79041198814E+02  0.13272420686E+04  0.13601037681E+04  0.25500000920E-02 0.  1.
</event>
<event>
 5   0  0.5712664E-03  0.1134147E+04  0.7818609E-02  0.9172534E-01
       -1   -1    0    0    0  501  0.00000000000E+00  0.00000000000E+00  0.49245618255E+03  0.49245618258E+03  0.50400001928E-02 0.  1.
        1   -1    0    0  501    0  0.00000000000E+00  0.00000000000E+00 -0.65299725044E+03  0.65299725046E+03  0.50400001928E-02 0. -1.
    10030    2    1    2    0    0  0.00000000000E+00  0.00000000000E+00 -0.16054106789E+03  0.11454534330E+04  0.11341473153E+04 0.  0.
        5    1    3    3  502    0  0.27958122570E+03 -0.40151257035E+03  0.20924445514E+03  0.53214973261E+03  0.46999998093E+01 0.  1.
       -5    1    3    3    0  502 -0.27958122570E+03  0.40151257035E+03 -0.36978552303E+03  0.61330370042E+03  0.46999998093E+01 0. -1.
</event>
<event>
 5   0  0.5712664E-03  0.1097981E+04  0.7818609E-02  0.9207162E-01
        1   -1    0    0  501    0  0.00000000000E+00  0.00000000000E+00  0.10124049194E+04  0.10124049195E+04  0.50400001928E-02 0.  1.
       -1   -1    0    0    0  501  0.00000000000E+00  0.00000000000E+00 -0.29769758371E+03  0.29769758375E+03  0.50400001928E-02 0. -1.
    10030    2    1    2    0    0  0.00000000000E+00  0.00000000000E+00  0.71470733574E+03  0.13101025032E+04  0.10979808710E+04 0.  0.
        5    1    3    3  502    0 -0.44878192738E+03  0.57247899513E+02 -0.13661788593E+02  0.45264917409E+03  0.46999998093E+01 0. -1.
       -5    1    3    3    0  502  0.44878192738E+03 -0.57247899513E+02  0.72836912433E+03  0.85745332912E+03  0.46999998093E+01 0.  1.
</event>
<event>
 5   0  0.9719260E-03  0.1101167E+04  0.7818609E-02  0.9204055E-01
        2   -1    0    0  501    0  0.00000000000E+00  0.00000000000E+00  0.78663287537E+03  0.78663287538E+03  0.25500000920E-02 0.  1.
       -2   -1    0    0    0  501  0.00000000000E+00  0.00000000000E+00 -0.38536684781E+03  0.38536684782E+03  0.25500000920E-02 0. -1.
    10030    2    1    2    0    0  0.00000000000E+00  0.00000000000E+00  0.40126602756E+03  0.11719997232E+04  0.11011670746E+04 0.  0.
        3    1    3    3  502    0  0.23894705522E+03 -0.46737704725E+03  0.23797327241E+02  0.52545534775E+03  0.10100000352E+00 0. -1.
       -3    1    3    3    0  502 -0.23894705522E+03  0.46737704725E+03  0.37746870032E+03  0.64654437544E+03  0.10100000352E+00 0.  1.
</event>
<event>
 5   0  0.9719260E-03  0.1091129E+04  0.7818609E-02  0.9213882E-01
        2   -1    0    0  501    0  0.00000000000E+00  0.00000000000E+00  0.16000506858E+04  0.16000506858E+04  0.25500000920E-02 0.  1.
       -2   -1    0    0    0  501  0.00000000000E+00  0.00000000000E+00 -0.18601940844E+03  0.18601940846E+03  0.25500000920E-02 0. -1.
    10030    2    1    2    0    0  0.00000000000E+00  0.00000000000E+00  0.14140312774E+04  0.17860700943E+04  0.10911287405E+04 0.  0.
        3    1    3    3  502    0 -0.33506716367E+03  0.13654337726E+02  0.26076621248E+01  0.33535541626E+03  0.10100000352E+00 0. -1.
       -3    1    3    3    0  502  0.33506716367E+03 -0.13654337726E+02  0.14114236153E+04  0.14507146780E+04  0.10100000352E+00 0.  1.
</event>
<event>
 5   0  0.9925021E-03  0.1103472E+04  0.7818609E-02  0.9201814E-01
       -2   -1    0    0    0  501  0.00000000000E+00  0.00000000000E+00  0.37370413030E+03  0.37370413031E+03  0.25500000920E-02 0. -1.
        2   -1    0    0  501    0  0.00000000000E+00  0.00000000000E+00 -0.81458179689E+03  0.81458179690E+03  0.25500000920E-02 0.  1.
    10030    2    1    2    0    0  0.00000000000E+00  0.00000000000E+00 -0.44087766659E+03  0.11882859272E+04  0.11034719425E+04 0.  0.
        4    1    3    3  502    0  0.16918616323E+03  0.16560856886E+03  0.31622359988E+03  0.39503054809E+03  0.12699999809E+01 0. -1.
       -4    1    3    3    0  502 -0.16918616323E+03 -0.16560856886E+03 -0.75710126647E+03  0.79325537911E+03  0.12699999809E+01 0.  1.
</event>
<event>
 5   0  0.9719260E-03  0.1098344E+04  0.7818609E-02  0.9206808E-01
        2   -1    0    0  501    0  0.00000000000E+00  0.00000000000E+00  0.62885229244E+03  0.62885229244E+03  0.25500000920E-02 0.  1.
       -2   -1    0    0    0  501  0.00000000000E+00  0.00000000000E+00 -0.47958771474E+03  0.47958771474E+03  0.25500000920E-02 0. -1.
    10030    2    1    2    0    0  0.00000000000E+00  0.00000000000E+00  0.14926457770E+03  0.11084400072E+04  0.10983439058E+04 0.  0.
        3    1    3    3  502    0 -0.37756455023E+03 -0.31634645705E+03 -0.17041600109E+03  0.52122134848E+03  0.10100000352E+00 0. -1.
       -3    1    3    3    0  502  0.37756455023E+03  0.31634645705E+03  0.31968057880E+03  0.58721865871E+03  0.10100000352E+00 0.  1.
</event>
<event>
 5   0  0.1019384E-02  0.1067779E+04  0.7818609E-02  0.9237179E-01
       -2   -1    0    0    0  501  0.00000000000E+00  0.00000000000E+00  0.22886777565E+03  0.22886777567E+03  0.25500000920E-02 0. -1.
        2   -1    0    0  501    0  0.00000000000E+00  0.00000000000E+00 -0.12454260885E+04  0.12454260885E+04  0.25500000920E-02 0.  1.
    10030    2    1    2    0    0  0.00000000000E+00  0.00000000000E+00 -0.10165583128E+04  0.14742938641E+04  0.10677788135E+04 0.  0.
        1    1    3    3  502    0 -0.31239364037E+03 -0.39245405835E+03 -0.76071874432E+03  0.91120962595E+03  0.50400001928E-02 0.  1.
       -1    1    3    3    0  502  0.31239364037E+03  0.39245405835E+03 -0.25583956850E+03  0.56308423818E+03  0.50400001928E-02 0. -1.
</event>
<event>
 5   0  0.9719260E-03  0.1093877E+04  0.7818609E-02  0.9211180E-01
        2   -1    0    0  501    0  0.00000000000E+00  0.00000000000E+00  0.10869058623E+04  0.10869058623E+04  0.25500000920E-02 0.  1.
       -2   -1    0    0    0  501  0.00000000000E+00  0.00000000000E+00 -0.27522332994E+03  0.27522332995E+03  0.25500000920E-02 0. -1.
    10030    2    1    2    0    0  0.00000000000E+00  0.00000000000E+00  0.81168253239E+03  0.13621291923E+04  0.10938772340E+04 0.  0.
        3    1    3    3  502    0  0.19991440042E+02  0.39621752461E+03  0.87467317004E+03  0.96043799856E+03  0.10100000352E+00 0. -1.
       -3    1    3    3    0  502 -0.19991440042E+02 -0.39621752461E+03 -0.62990637652E+02  0.40169119373E+03  0.10100000352E+00 0.  1.
</event>
<event>
 5   0  0.9692981E-03  0.1104166E+04  0.7818609E-02  0.9201141E-01
       -2   -1    0    0    0  501  0.00000000000E+00  0.00000000000E+00  0.27145694020E+03  0.27145694021E+03  0.25500000920E-02 0.  1.
        2   -1    0    0  501    0  0.00000000000E+00  0.00000000000E+00 -0.11228141756E+04  0.11228141756E+04  0.25500000920E-02 0. -1.
    10030    2    1    2    0    0  0.00000000000E+00  0.00000000000E+00 -0.85135723539E+03  0.13942711158E+04  0.11041661117E+04 0.  0.
        5    1    3    3  502    0 -0.44286559709E+03  0.22916266322E+03 -0.12651886203E+03  0.51446532997E+03  0.46999998093E+01 0.  1.
       -5    1    3    3    0  502  0.44286559709E+03 -0.22916266322E+03 -0.72483837336E+03  0.87980578583E+03  0.46999998093E+01 0. -1.
</event>
<event>
 5   0  0.5998641E-03  0.1097957E+04  0.7818609E-02  0.9207186E-01
       -1   -1    0    0    0  501  0.00000000000E+00  0.00000000000E+00  0.37752299350E+03  0.37752299353E+03  0.50400001928E-02 0. -1.
        1   -1    0    0  501    0  0.00000000000E+00  0.00000000000E+00 -0.79830146233E+03  0.79830146235E+03  0.50400001928E-02 0.  1.
    10030    2    1    2    0    0  0.00000000000E+00  0.00000000000E+00 -0.42077846883E+03  0.11758244559E+04  0.10979565707E+04 0.  0.
        3    1    3    3  502    0 -0.16739702152E+02  0.53952317732E+03 -0.31754378370E+03  0.62625836622E+03  0.10100000352E+00 0.  1.
       -3    1    3    3    0  502  0.16739702152E+02 -0.53952317732E+03 -0.10323468513E+03  0.54956608966E+03  0.10100000352E+00 0. -1.
</event>
<event>
 5   0  0.3949750E-03  0.1096875E+04  0.7818609E-02  0.9208243E-01
       -3   -1    0    0    0  501  0.00000000000E+00  0.00000000000E+00  0.41915899948E+03  0.41915901165E+03  0.10100000352E+00 0.  1.
        3   -1    0    0  501    0  0.00000000000E+00  0.00000000000E+00 -0.71758867366E+03  0.71758868077E+03  0.10100000352E+00 0. -1.
    10030    2    1    2    0    0  0.00000000000E+00  0.00000000000E+00 -0.29842967418E+03  0.11367476924E+04  0.10968751277E+04 0.  0.
        3    1    3    3  502    0  0.24530801525E+03 -0.63059936305E+01  0.35909180919E+03  0.43492841426E+03  0.10100000352E+00 0.  1.
       -3    1    3    3    0  502 -0.24530801525E+03  0.63059936305E+01 -0.65752148337E+03  0.70181927816E+03  0.10100000352E+00 0. -1.
</event>
<event>
 5   0  0.5789905E-03  0.1271669E+04  0.7818609E-02  0.9052339E-01
       -1   -1    0    0    0  501  0.00000000000E+00  0.00000000000E+00  0.32628271801E+03  0.32628271805E+03  0.50400001928E-02 0. -1.
        1   -1    0    0  501    0  0.00000000000E+00  0.00000000000E+00 -0.12390645601E+04  0.12390645601E+04  0.50400001928E-02 0.  1.
    10030    2    1    2    0    0  0.00000000000E+00  0.00000000000E+00 -0.91278184208E+03  0.15653472781E+04  0.12716687501E+04 0.  0.
        1    1    3    3  502    0  0.25943554814E+02  0.56848269231E+03 -0.10727314732E+03  0.57909685516E+03  0.50400001928E-02 0. -1.
       -1    1    3    3    0  502 -0.25943554814E+02 -0.56848269231E+03 -0.80550869476E+03  0.98625042299E+03  0.50400001928E-02 0.  1.
</event>
<event>
 5   0  0.5998641E-03  0.1109652E+04  0.7818609E-02  0.9195835E-01
        1   -1    0    0  501    0  0.00000000000E+00  0.00000000000E+00  0.11890739152E+04  0.11890739152E+04  0.50400001928E-02 0.  1.
       -1   -1    0    0    0  501  0.00000000000E+00  0.00000000000E+00 -0.25888376293E+03  0.25888376298E+03  0.50400001928E-02 0. -1.
    10030    2    1    2    0    0  0.00000000000E+00  0.00000000000E+00  0.93019015222E+03  0.14479576781E+04  0.11096520709E+04 0.  0.
        3    1    3    3  502    0  0.34068945108E+03  0.22849061406E+03 -0.22367418234E+02  0.41082547924E+03  0.10100000352E+00 0. -1.
       -3    1    3    3    0  502 -0.34068945108E+03 -0.22849061406E+03  0.95255757045E+03  0.10371321989E+04  0.10100000352E+00 0.  1.
</event>
<event>
 5   0  0.5854579E-03  0.1109439E+04  0.7818609E-02  0.9196040E-01
       -1   -1    0    0    0  501  0.00000000000E+00  0.00000000000E+00  0.24057205532E+03  0.24057205537E+03  0.50400001928E-02 0. -1.
        1   -1    0    0  501    0  0.00000000000E+00  0.00000000000E+00 -0.12790917994E+04  0.12790917994E+04  0.50400001928E-02 0.  1.
    10030    2    1    2    0    0  0.00000000000E+00  0.00000000000E+00 -0.10385197441E+04  0.15196638548E+04  0.11094390351E+04 0.  0.
        4    1    3    3  502    0 -0.48396836424E+03  0.19290231905E+03 -0.78014569770E+03  0.93811811880E+03  0.12699999809E+01 0.  1.
       -4    1    3    3    0  502  0.48396836424E+03 -0.19290231905E+03 -0.25837404636E+03  0.58154573596E+03  0.12699999809E+01 0. -1.
</event>
<event>
 5   0  0.5854579E-03  0.1117000E+04  0.7818609E-02  0.9188779E-01
       -1   -1    0    0    0  501  0.00000000000E+00  0.00000000000E+00  0.15145698735E+03  0.15145698743E+03  0.50400001928E-02 0.  1.
        1   -1    0    0  501    0  0.00000000000E+00  0.00000000000E+00 -0.20594779336E+04  0.20594779336E+04  0.50400001928E-02 0. -1.
    10030    2    1    2    0    0  0.00000000000E+00  0.00000000000E+00 -0.19080209462E+04  0.22109349210E+04  0.11170001315E+04 0.  0.
        4    1    3    3  502    0 -0.49186388199E+03  0.23479496838E+03 -0.11953123530E+04  0.13137092485E+04  0.12699999809E+01 0. -1.
       -4    1    3    3    0  502  0.49186388199E+03 -0.23479496838E+03 -0.71270859329E+03  0.89722567252E+03  0.12699999809E+01 0.  1.
</event>
<event>
 5   0  0.9925021E-03  0.1088510E+04  0.7818609E-02  0.9216464E-01
        2   -1    0    0  501    0  0.00000000000E+00  0.00000000000E+00  0.30391075485E+03  0.30391075486E+03  0.25500000920E-02 0.  1.
       -2   -1    0    0    0  501  0.00000000000E+00  0.00000000000E+00 -0.97467277305E+03  0.97467277306E+03  0.25500000920E-02 0. -1.
    10030    2    1    2    0    0  0.00000000000E+00  0.00000000000E+00 -0.67076201820E+03  0.12785835279E+04  0.10885100610E+04 0.  0.
        4    1    3    3  502    0  0.29360567166E+02 -0.30360561811E+03  0.19407538853E+03  0.36153185694E+03  0.12699999809E+01 0.  1.
       -4    1    3    3    0  502 -0.29360567166E+02  0.30360561811E+03 -0.86483740673E+03  0.91705167097E+03  0.12699999809E+01 0. -1.
</event>
<event>
 5   0  0.9692981E-03  0.1112919E+04  0.7818609E-02  0.9192691E-01
       -2   -1    0    0    0  501  0.00000000000E+00  0.00000000000E+00  0.22406838698E+03  0.22406838700E+03  0.25500000920E-02 0.  1.
        2   -1    0    0  501    0  0.00000000000E+00  0.00000000000E+00 -0.13819316176E+04  0.13819316176E+04  0.25500000920E-02 0. -1.
    10030    2    1    2    0    0  0.00000000000E+00  0.00000000000E+00 -0.11578632306E+04  0.16060000046E+04  0.11129190240E+04 0.  0.
        5    1    3    3  502    0  0.39489563352E+03 -0.15302841981E+03 -0.10997611225E+04  0.11784977197E+04  0.46999998093E+01 0. -1.
       -5    1    3    3    0  502 -0.39489563352E+03  0.15302841981E+03 -0.58102108072E+02  0.42750228491E+03  0.46999998093E+01 0.  1.
</event>
<event>
 5   0  0.5854579E-03  0.1131099E+04  0.7818609E-02  0.9175400E-01
       -1   -1    0    0    0  501  0.00000000000E+00  0.00000000000E+00  0.11108240814E+04  0.11108240814E+04  0.50400001928E-02 0. -1.
        1   -1    0    0  501    0  0.00000000000E+00  0.00000000000E+00 -0.28793591740E+03  0.28793591744E+03  0.50400001928E-02 0.  1.
    10030    2    1    2    0    0  0.00000000000E+00  0.00000000000E+00  0.82288816403E+03  0.13987599989E+04  0.11310988480E+04 0.  0.
        4    1    3    3  502    0  0.79386356059E+01 -0.37206118312E+03  0.93807191612E+03  0.10091942720E+04  0.12699999809E+01 0. -1.
       -4    1    3    3    0  502 -0.79386356059E+01  0.37206118312E+03 -0.11518375209E+03  0.38956572689E+03  0.12699999809E+01 0.  1.
</event>
<event>
 5   0  0.9719260E-03  0.1098773E+04  0.7818609E-02  0.9206388E-01
       -2   -1    0    0    0  501  0.00000000000E+00  0.00000000000E+00  0.87301631001E+03  0.87301631001E+03  0.25500000920E-02 0.  1.
        2   -1    0    0  501    0  0.00000000000E+00  0.00000000000E+00 -0.34572736372E+03  0.34572736373E+03  0.25500000920E-02 0. -1.
    10030    2    1    2    0    0  0.00000000000E+00  0.00000000000E+00  0.52728894629E+03  0.12187436737E+04  0.10987731838E+04 0.  0.
        3    1    3    3  502    0  0.13857691514E+03  0.29399005851E+02  0.85240984784E+03  0.86410093268E+03  0.10100000352E+00 0.  1.
       -3    1    3    3    0  502 -0.13857691514E+03 -0.29399005851E+02 -0.32512090155E+03  0.35464274106E+03  0.10100000352E+00 0. -1.
</event>
<event>
 5   0  0.1019384E-02  0.1138842E+04  0.7818609E-02  0.9168140E-01
        2   -1    0    0  501    0  0.00000000000E+00  0.00000000000E+00  0.86513119525E+03  0.86513119525E+03  0.25500000920E-02 0. -1.
       -2   -1    0    0    0  501  0.00000000000E+00  0.00000000000E+00 -0.37478714006E+03  0.37478714007E+03  0.25500000920E-02 0.  1.
    10030    2    1    2    0    0  0.00000000000E+00  0.00000000000E+00  0.49034405518E+03  0.12399183353E+04  0.11388415982E+04 0.  0.
        1    1    3    3  502    0 -0.51128482254E+03  0.19701972503E+03  0.76463968143E+02  0.55324106885E+03  0.50400001928E-02 0.  1.
       -1    1    3    3    0  502  0.51128482254E+03 -0.19701972503E+03  0.41388008704E+03  0.68667726647E+03  0.50400001928E-02 0. -1.
</event>
<event>
 5   0  0.1028016E-02  0.1109831E+04  0.7818609E-02  0.9195663E-01
       -2   -1    0    0    0  501  0.00000000000E+00  0.00000000000E+00  0.69606706192E+03  0.69606706192E+03  0.25500000920E-02 0. -1.
        2   -1    0    0  501    0  0.00000000000E+00  0.00000000000E+00 -0.44238707880E+03  0.44238707881E+03  0.25500000920E-02 0.  1.
    10030    2    1    2    0    0  0.00000000000E+00  0.00000000000E+00  0.25367998311E+03  0.11384541407E+04  0.11098307514E+04 0.  0.
        2    1    3    3  502    0 -0.50571852194E+03  0.33724537619E+02 -0.10491269772E+03  0.51758597548E+03  0.25500000920E-02 0.  1.
       -2    1    3    3    0  502  0.50571852194E+03 -0.33724537619E+02  0.35859268083E+03  0.62086816525E+03  0.25500000920E-02 0. -1.
</event>
<event>
 5   0  0.3949750E-03  0.1121127E+04  0.7818609E-02  0.9184842E-01
       -4   -1    0    0    0  501  0.00000000000E+00  0.00000000000E+00  0.44847803169E+03  0.44847982988E+03  0.12699999809E+01 0. -1.
        4   -1    0    0  501    0  0.00000000000E+00  0.00000000000E+00 -0.70065758015E+03  0.70065873113E+03  0.12699999809E+01 0.  1.
    10030    2    1    2    0    0  0.00000000000E+00  0.00000000000E+00 -0.25217954845E+03  0.11491385610E+04  0.11211266243E+04 0.  0.
        2    1    3    3  502    0  0.35998523342E+03 -0.42837307008E+03 -0.91507007461E+02  0.56698005950E+03  0.25500000920E-02 0. -1.
       -2    1    3    3    0  502 -0.35998523342E+03  0.42837307008E+03 -0.16067254099E+03  0.58215850151E+03  0.25500000920E-02 0.  1.
</event>
<event>
 5   0  0.5854579E-03  0.1103854E+04  0.7818609E-02  0.9201444E-01
       -1   -1    0    0    0  501  0.00000000000E+00  0.00000000000E+00  0.11165119887E+04  0.11165119888E+04  0.50400001928E-02 0.  1.
        1   -1    0    0  501    0  0.00000000000E+00  0.00000000000E+00 -0.27283467328E+03  0.27283467333E+03  0.50400001928E-02 0. -1.
    10030    2    1    2    0    0  0.00000000000E+00  0.00000000000E+00  0.84367731546E+03  0.13893466621E+04  0.11038535840E+04 0.  0.
        4    1    3    3  502    0 -0.26523143745E+03 -0.19604483663E+03  0.97883219717E+03  0.10329062767E+04  0.12699999809E+01 0.  1.
       -4    1    3    3    0  502  0.26523143745E+03  0.19604483663E+03 -0.13515488170E+03  0.35644038537E+03  0.12699999809E+01 0. -1.
</event>
<event>
 5   0  0.9692981E-03  0.1053410E+04  0.7818609E-02  0.9251831E-01
       -2   -1    0    0    0  501  0.00000000000E+00  0.00000000000E+00  0.59465749458E+03  0.59465749458E+03  0.25500000920E-02 0. -1.
        2   -1    0    0  501    0  0.00000000000E+00  0.00000000000E+00 -0.46651731587E+03  0.46651731587E+03  0.25500000920E-02 0.  1.
    10030    2    1    2    0    0  0.00000000000E+00  0.00000000000E+00  0.12814017871E+03  0.10611748105E+04  0.10534097365E+04 0.  0.
        5    1    3    3  502    0  0.27306908077E+03 -0.41341497146E+02 -0.38769984744E+03  0.47603477180E+03  0.46999998093E+01 0.  1.
       -5    1    3    3    0  502 -0.27306908077E+03  0.41341497146E+02  0.51584002615E+03  0.58514003866E+03  0.46999998093E+01 0. -1.
</event>
<event>
 5   0  0.9692981E-03  0.1098250E+04  0.7818609E-02  0.9206899E-01
       -2   -1    0    0    0  501  0.00000000000E+00  0.00000000000E+00  0.23641063127E+03  0.23641063128E+03  0.25500000920E-02 0.  1.
        2   -1    0    0  501    0  0.00000000000E+00  0.00000000000E+00 -0.12754846297E+04  0.12754846297E+04  0.25500000920E-02 0. -1.
    10030    2    1    2    0    0  0.00000000000E+00  0.00000000000E+00 -0.10390739984E+04  0.15118952610E+04  0.10982497466E+04 0.  0.
        5    1    3    3  502    0  0.93305749548E+02  0.22860123184E+03 -0.11947249357E+04  0.12199812491E+04  0.46999998093E+01 0. -1.
       -5    1    3    3    0  502 -0.93305749548E+02 -0.22860123184E+03  0.15565093725E+03  0.29191401193E+03  0.46999998093E+01 0.  1.
</event>
<event>
 5   0  0.5712664E-03  0.1105874E+04  0.7818609E-02  0.9199486E-01
       -1   -1    0    0    0  501  0.00000000000E+00  0.00000000000E+00  0.53393862014E+03  0.53393862016E+03  0.50400001928E-02 0. -1.
        1   -1    0    0  501    0  0.00000000000E+00  0.00000000000E+00 -0.57261094040E+03  0.57261094042E+03  0.50400001928E-02 0.  1.
    10030    2    1    2    0    0  0.00000000000E+00  0.00000000000E+00 -0.38672320263E+02  0.11065495606E+04  0.11058735830E+04 0.  0.
        5    1    3    3  502    0  0.26529659454E+03 -0.11949446955E+03  0.45111694308E+03  0.53683311900E+03  0.46999998093E+01 0. -1.
       -5    1    3    3    0  502 -0.26529659454E+03  0.11949446955E+03 -0.48978926334E+03  0.56971644158E+03  0.46999998093E+01 0.  1.
</event>
<event>
 5   0  0.5854579E-03  0.1081111E+04  0.7818609E-02  0.9223800E-01
       -1   -1    0    0    0  501  0.00000000000E+00  0.00000000000E+00  0.55500962714E+03  0.55500962716E+03  0.50400001928E-02 0.  1.
        1   -1    0    0  501    0  0.00000000000E+00  0.00000000000E+00 -0.52647787573E+03  0.52647787576E+03  0.50400001928E-02 0. -1.
    10030    2    1    2    0    0  0.00000000000E+00  0.00000000000E+00  0.28531751409E+02  0.10814875029E+04  0.10811110758E+04 0.  0.
        4    1    3    3  502    0 -0.12544403744E+02  0.31092503755E+03  0.45642309563E+03  0.55240872202E+03  0.12699999809E+01 0.  1.
       -4    1    3    3    0  502  0.12544403744E+02 -0.31092503755E+03 -0.42789134422E+03  0.52907878090E+03  0.12699999809E+01 0. -1.
</event>
<event>
 5   0  0.5998641E-03  0.1152847E+04  0.7818609E-02  0.9155161E-01
        1   -1    0    0  501    0  0.00000000000E+00  0.00000000000E+00  0.69696233487E+03  0.69696233489E+03  0.50400001928E-02 0. -1.
       -1   -1    0    0    0  501  0.00000000000E+00  0.00000000000E+00 -0.47673137033E+03  0.47673137036E+03  0.50400001928E-02 0.  1.
    10030    2    1    2    0    0  0.00000000000E+00  0.00000000000E+00  0.22023096454E+03  0.11736937052E+04  0.11528465796E+04 0.  0.
        3    1    3    3  502    0  0.13480817606E+03 -0.23944771593E+03  0.62598873072E+03  0.68364490358E+03  0.10100000352E+00 0. -1.
       -3    1    3    3    0  502 -0.13480817606E+03  0.23944771593E+03 -0.40575776618E+03  0.49004880167E+03  0.10100000352E+00 0.  1.
</event>
<event>
 5   0  0.3949750E-03  0.1156955E+04  0.7818609E-02  0.9151391E-01
       -3   -1    0    0    0  501  0.00000000000E+00  0.00000000000E+00  0.98991784104E+03  0.98991784619E+03  0.10100000352E+00 0. -1.
        3   -1    0    0  501    0  0.00000000000E+00  0.00000000000E+00 -0.33804442826E+03  0.33804444335E+03  0.10100000352E+00 0.  1.
    10030    2    1    2    0    0  0.00000000000E+00  0.00000000000E+00  0.65187341278E+03  0.13279622895E+04  0.11569550104E+04 0.  0.
        5    1    3    3  502    0 -0.30263446463E+03  0.44982426644E+03  0.94418828887E+02  0.55033307651E+03  0.46999998093E+01 0.  1.
       -5    1    3    3    0  502  0.30263446463E+03 -0.44982426644E+03  0.55745458389E+03  0.77762921303E+03  0.46999998093E+01 0. -1.
</event>
<event>
 5   0  0.3949750E-03  0.8566803E+03  0.7818609E-02  0.9481414E-01
       -3   -1    0    0    0  501  0.00000000000E+00  0.00000000000E+00  0.42771259335E+03  0.42771260527E+03  0.10100000352E+00 0.  1.
        3   -1    0    0  501    0  0.00000000000E+00  0.00000000000E+00 -0.42896863641E+03  0.42896864830E+03  0.10100000352E+00 0. -1.
    10030    2    1    2    0    0  0.00000000000E+00  0.00000000000E+00 -0.12560430606E+01  0.85668125357E+03  0.85668033278E+03 0.  0.
        4    1    3    3  502    0 -0.16416652765E+03 -0.36441596460E+03  0.15339824955E+03  0.42811479760E+03  0.12699999809E+01 0.  1.
       -4    1    3    3    0  502  0.16416652765E+03  0.36441596460E+03 -0.15465429261E+03  0.42856645597E+03  0.12699999809E+01 0. -1.
</event>
<event>
 5   0  0.5712664E-03  0.7964099E+03  0.7818609E-02  0.9565228E-01
       -1   -1    0    0    0  501  0.00000000000E+00  0.00000000000E+00  0.59542983297E+03  0.59542983299E+03  0.50400001928E-02 0. -1.
        1   -1    0    0  501    0  0.00000000000E+00  0.00000000000E+00 -0.26630707369E+03  0.26630707374E+03  0.50400001928E-02 0.  1.
    10030    2    1    2    0    0  0.00000000000E+00  0.00000000000E+00  0.32912275928E+03  0.86173690673E+03  0.79640988551E+03 0.  0.
        5    1    3    3  502    0  0.20277648988E+03  0.33323367407E+03  0.25100239418E+03  0.46388282817E+03  0.46999998093E+01 0.  1.
       -5    1    3    3    0  502 -0.20277648988E+03 -0.33323367407E+03  0.78120365100E+02  0.39785407856E+03  0.46999998093E+01 0. -1.
</event>
<event>
 5   0  0.5854579E-03  0.1043482E+04  0.7818609E-02  0.9262099E-01
        1   -1    0    0  501    0  0.00000000000E+00  0.00000000000E+00  0.80195727140E+03  0.80195727142E+03  0.50400001928E-02 0. -1.
       -1   -1    0    0    0  501  0.00000000000E+00  0.00000000000E+00 -0.33943690388E+03  0.33943690391E+03  0.50400001928E-02 0.  1.
    10030    2    1    2    0    0  0.00000000000E+00  0.00000000000E+00  0.46252036753E+03  0.11413941753E+04  0.10434824259E+04 0.  0.
        4    1    3    3  502    0  0.20704303934E+03  0.47796979824E+03  0.19862195713E+03  0.55747129337E+03  0.12699999809E+01 0. -1.
       -4    1    3    3    0  502 -0.20704303934E+03 -0.47796979824E+03  0.26389841040E+03  0.58392288196E+03  0.12699999809E+01 0.  1.
</event>
<event>
 5   0  0.5712664E-03  0.1131831E+04  0.7818609E-02  0.9174710E-01
       -1   -1    0    0    0  501  0.00000000000E+00  0.00000000000E+00  0.14444022271E+04  0.14444022271E+04  0.50400001928E-02 0. -1.
        1   -1    0    0  501    0  0.00000000000E+00  0.00000000000E+00 -0.22172534363E+03  0.22172534369E+03  0.50400001928E-02 0.  1.
    10030    2    1    2    0    0  0.00000000000E+00  0.00000000000E+00  0.12226768835E+04  0.16661275708E+04  0.11318314012E+04 0.  0.
        5    1    3    3  502    0 -0.52901360359E+03  0.15012312055E+03  0.80799060778E+03  0.97737569867E+03  0.46999998093E+01 0.  1.
       -5    1    3    3    0  502  0.52901360359E+03 -0.15012312055E+03  0.41468627569E+03  0.68875187212E+03  0.46999998093E+01 0. -1.
</event>
<event>
 5   0  0.1019384E-02  0.1123503E+04  0.7818609E-02  0.9182583E-01
        2   -1    0    0  501    0  0.00000000000E+00  0.00000000000E+00  0.33287606451E+03  0.33287606452E+03  0.25500000920E-02 0.  1.
       -2   -1    0    0    0  501  0.00000000000E+00  0.00000000000E+00 -0.94799428975E+03  0.94799428975E+03  0.25500000920E-02 0. -1.
    10030    2    1    2    0    0  0.00000000000E+00  0.00000000000E+00 -0.61511822524E+03  0.12808703543E+04  0.11235027519E+04 0.  0.
        1    1    3    3  502    0 -0.24034901386E+02  0.38593084134E+03 -0.77212042757E+03  0.86353358098E+03  0.50400001928E-02 0. -1.
       -1    1    3    3    0  502  0.24034901386E+02 -0.38593084134E+03  0.15700220233E+03  0.41733677329E+03  0.50400001928E-02 0.  1.
</event>
<event>
 5   0  0.5789905E-03  0.1125161E+04  0.7818609E-02  0.9181009E-01
        1   -1    0    0  501    0  0.00000000000E+00  0.00000000000E+00  0.84550278513E+03  0.84550278515E+03  0.50400001928E-02 0. -1.
       -1   -1    0    0    0  501  0.00000000000E+00  0.00000000000E+00 -0.37432974601E+03  0.37432974604E+03  0.50400001928E-02 0.  1.
    10030    2    1    2    0    0  0.00000000000E+00  0.00000000000E+00  0.47117303912E+03  0.12198325312E+04  0.11251610424E+04 0.  0.
        1    1    3    3  502    0  0.19793268695E+03  0.47590196159E+03 -0.88548456711E+01  0.51549823853E+03  0.50400001928E-02 0.  1.
       -1    1    3    3    0  502 -0.19793268695E+03 -0.47590196159E+03  0.48002788479E+03  0.70433429266E+03  0.50400001928E-02 0. -1.
</event>
<event>
 5   0  0.9925021E-03  0.1098081E+04  0.7818609E-02  0.9207064E-01
        2   -1    0    0  501    0  0.00000000000E+00  0.00000000000E+00  0.24311286862E+04  0.24311286862E+04  0.25500000920E-02 0.  1.
       -2   -1    0    0    0  501  0.00000000000E+00  0.00000000000E+00 -0.12399407058E+03  0.12399407061E+03  0.25500000920E-02 0. -1.
    10030    2    1    2    0    0  0.00000000000E+00  0.00000000000E+00  0.23071346156E+04  0.25551227568E+04  0.10980811299E+04 0.  0.
        4    1    3    3  502    0  0.39496545545E+03  0.26369459994E+03  0.17946746836E+04  0.18564459017E+04  0.12699999809E+01 0.  1.
       -4    1    3    3    0  502 -0.39496545545E+03 -0.26369459994E+03  0.51245993197E+03  0.69867685507E+03  0.12699999809E+01 0. -1.
</event>
<event>
 5   0  0.9692981E-03  0.1130613E+04  0.7818609E-02  0.9175858E-01
       -2   -1    0    0    0  501  0.00000000000E+00  0.00000000000E+00  0.49857971043E+03  0.49857971044E+03  0.25500000920E-02 0. -1.
        2   -1    0    0  501    0  0.00000000000E+00  0.00000000000E+00 -0.64096302707E+03  0.64096302707E+03  0.25500000920E-02 0.  1.
    10030    2    1    2    0    0  0.00000000000E+00  0.00000000000E+00 -0.14238331664E+03  0.11395427375E+04  0.11306125073E+04 0.  0.
        5    1    3    3  502    0 -0.58739157765E+01  0.88055250734E+02  0.49157403403E+03  0.49945505404E+03  0.46999998093E+01 0. -1.
       -5    1    3    3    0  502  0.58739157765E+01 -0.88055250734E+02 -0.63395735067E+03  0.64008768348E+03  0.46999998093E+01 0.  1.
</event>
<event>
 5   0  0.3949750E-03  0.1121036E+04  0.7818609E-02  0.9184928E-01
        4   -1    0    0  501    0  0.00000000000E+00  0.00000000000E+00  0.38169784060E+03  0.38169995339E+03  0.12699999809E+01 0. -1.
       -4   -1    0    0    0  501  0.00000000000E+00  0.00000000000E+00 -0.82310797483E+03  0.82310895459E+03  0.12699999809E+01 0.  1.
    10030    2    1    2    0    0  0.00000000000E+00  0.00000000000E+00 -0.44141013423E+03  0.12048089080E+04  0.11210359486E+04 0.  0.
        1    1    3    3  502    0  0.41017706401E+03  0.35236142386E+01 -0.63124948156E+03  0.75281707452E+03  0.50400001928E-02 0.  1.
       -1    1    3    3    0  502 -0.41017706401E+03 -0.35236142386E+01  0.18983934733E+03  0.45199183346E+03  0.50400001928E-02 0. -1.
</event>
<event>
 5   0  0.5789905E-03  0.1081557E+04  0.7818609E-02  0.9223356E-01
       -1   -1    0    0    0  501  0.00000000000E+00  0.00000000000E+00  0.84236445246E+03  0.84236445248E+03  0.50400001928E-02 0. -1.
        1   -1    0    0  501    0  0.00000000000E+00  0.00000000000E+00 -0.34716735331E+03  0.34716735335E+03  0.50400001928E-02 0.  1.
    10030    2    1    2    0    0  0.00000000000E+00  0.00000000000E+00  0.49519709915E+03  0.11895318058E+04  0.10815570952E+04 0.  0.
        1    1    3    3  502    0 -0.46993453666E+03 -0.26643054087E+03  0.27493410718E+03  0.60614558084E+03  0.50400001928E-02 0.  1.
       -1    1    3    3    0  502  0.46993453666E+03  0.26643054087E+03  0.22026299197E+03  0.58338622499E+03  0.50400001928E-02 0. -1.
</event>
<event>
 5   0  0.1028016E-02  0.1104267E+04  0.7818609E-02  0.9201043E-01
        2   -1    0    0  501    0  0.00000000000E+00  0.00000000000E+00  0.60536901217E+03  0.60536901218E+03  0.25500000920E-02 0. -1.
       -2   -1    0    0    0  501  0.00000000000E+00  0.00000000000E+00 -0.50357929882E+03  0.50357929883E+03  0.25500000920E-02 0.  1.
    10030    2    1    2    0    0  0.00000000000E+00  0.00000000000E+00  0.10178971335E+03  0.11089483110E+04  0.11042668204E+04 0.  0.
        2    1    3    3  502    0 -0.10448860402E+03  0.43034092122E+03  0.38205052728E+03  0.58487073977E+03  0.25500000920E-02 0. -1.
       -2    1    3    3    0  502  0.10448860402E+03 -0.43034092122E+03 -0.28026081392E+03  0.52407757123E+03  0.25500000920E-02 0.  1.
</event>
<event>
 5   0  0.5998641E-03  0.1106039E+04  0.7818609E-02  0.9199326E-01
       -1   -1    0    0    0  501  0.00000000000E+00  0.00000000000E+00  0.24120705722E+03  0.24120705727E+03  0.50400001928E-02 0. -1.
        1   -1    0    0  501    0  0.00000000000E+00  0.00000000000E+00 -0.12679163837E+04  0.12679163837E+04  0.50400001928E-02 0.  1.
    10030    2    1    2    0    0  0.00000000000E+00  0.00000000000E+00 -0.10267093265E+04  0.15091234410E+04  0.11060386607E+04 0.  0.
        3    1    3    3  502    0 -0.28604676689E+03 -0.43184260115E+03 -0.77764632865E+03  0.93436856095E+03  0.10100000352E+00 0. -1.
       -3    1    3    3    0  502  0.28604676689E+03  0.43184260115E+03 -0.24906299780E+03  0.57475488001E+03  0.10100000352E+00 0.  1.
</event>
<event>
 5   0  0.5998641E-03  0.1036406E+04  0.7818609E-02  0.9269492E-01
        1   -1    0    0  501    0  0.00000000000E+00  0.00000000000E+00  0.94728535838E+03  0.94728535839E+03  0.50400001928E-02 0. -1.
       -1   -1    0    0    0  501  0.00000000000E+00  0.00000000000E+00 -0.28347791571E+03  0.28347791576E+03  0.50400001928E-02 0.  1.
    10030    2    1    2    0    0  0.00000000000E+00  0.00000000000E+00  0.66380744267E+03  0.12307632741E+04  0.10364062505E+04 0.  0.
        3    1    3    3  502    0 -0.11764358758E+03  0.59926944340E+02  0.92697726554E+03  0.93633226656E+03  0.10100000352E+00 0. -1.
       -3    1    3    3    0  502  0.11764358758E+03 -0.59926944340E+02 -0.26316982288E+03  0.29443100759E+03  0.10100000352E+00 0.  1.
</event>
<event>
 5   0  0.1028016E-02  0.1118465E+04  0.7818609E-02  0.9187379E-01
       -2   -1    0    0    0  501  0.00000000000E+00  0.00000000000E+00  0.32834804619E+03  0.32834804620E+03  0.25500000920E-02 0. -1.
        2   -1    0    0  501    0  0.00000000000E+00  0.00000000000E+00 -0.95246770603E+03  0.95246770603E+03  0.25500000920E-02 0.  1.
    10030    2    1    2    0    0  0.00000000000E+00  0.00000000000E+00 -0.62411965984E+03  0.12808157522E+04  0.11184648592E+04 0.  0.
        2    1    3    3  502    0  0.11551562693E+03 -0.14263748935E+03  0.29287218947E+03  0.34563482580E+03  0.25500000920E-02 0. -1.
       -2    1    3    3    0  502 -0.11551562693E+03  0.14263748935E+03 -0.91699184931E+03  0.93518092642E+03  0.25500000920E-02 0.  1.
</event>
<event>
 5   0  0.5998641E-03  0.1065326E+04  0.7818609E-02  0.9239662E-01
        1   -1    0    0  501    0  0.00000000000E+00  0.00000000000E+00  0.94596427032E+03  0.94596427033E+03  0.50400001928E-02 0. -1.
       -1   -1    0    0    0  501  0.00000000000E+00  0.00000000000E+00 -0.29993714290E+03  0.29993714294E+03  0.50400001928E-02 0.  1.
    10030    2    1    2    0    0  0.00000000000E+00  0.00000000000E+00  0.64602712742E+03  0.12459014133E+04  0.10653259042E+04 0.  0.
        3    1    3    3  502    0  0.48231491342E+03  0.15682346726E+03  0.51342544884E+03  0.72168343289E+03  0.10100000352E+00 0. -1.
       -3    1    3    3    0  502 -0.48231491342E+03 -0.15682346726E+03  0.13260167859E+03  0.52421798038E+03  0.10100000352E+00 0.  1.
</event>
<event>
 5   0  0.9719260E-03  0.1078887E+04  0.7818609E-02  0.9226018E-01
        2   -1    0    0  501    0  0.00000000000E+00  0.00000000000E+00  0.72120917018E+03  0.72120917019E+03  0.25500000920E-02 0. -1.
       -2   -1    0    0    0  501  0.00000000000E+00  0.00000000000E+00 -0.40348830713E+03  0.40348830714E+03  0.25500000920E-02 0.  1.
    10030    2    1    2    0    0  0.00000000000E+00  0.00000000000E+00  0.31772086305E+03  0.11246974773E+04  0.10788873290E+04 0.  0.
        3    1    3    3  502    0  0.51484167362E+03  0.14731289499E+03  0.91008989119E+02  0.54318107867E+03  0.10100000352E+00 0.  1.
       -3    1    3    3    0  502 -0.51484167362E+03 -0.14731289499E+03  0.22671187393E+03  0.58151639866E+03  0.10100000352E+00 0. -1.
</event>
<event>
 5   0  0.9719260E-03  0.1109441E+04  0.7818609E-02  0.9196039E-01
        2   -1    0    0  501    0  0.00000000000E+00  0.00000000000E+00  0.74593125071E+03  0.74593125072E+03  0.25500000920E-02 0.  1.
       -2   -1    0    0    0  501  0.00000000000E+00  0.00000000000E+00 -0.41252416001E+03  0.41252416002E+03  0.25500000920E-02 0. -1.
    10030    2    1    2    0    0  0.00000000000E+00  0.00000000000E+00  0.33340709070E+03  0.11584554107E+04  0.11094406927E+04 0.  0.
        3    1    3    3  502    0 -0.36209599175E+01 -0.16510157557E+03 -0.38626132514E+03  0.42008268604E+03  0.10100000352E+00 0. -1.
       -3    1    3    3    0  502  0.36209599175E+01  0.16510157557E+03  0.71966841585E+03  0.73837272470E+03  0.10100000352E+00 0.  1.
</event>
<event>
 5   0  0.1028016E-02  0.1142488E+04  0.7818609E-02  0.9164742E-01
        2   -1    0    0  501    0  0.00000000000E+00  0.00000000000E+00  0.29178163948E+04  0.29178163948E+04  0.25500000920E-02 0. -1.
       -2   -1    0    0    0  501  0.00000000000E+00  0.00000000000E+00 -0.11183696977E+03  0.11183696980E+03  0.25500000920E-02 0.  1.
    10030    2    1    2    0    0  0.00000000000E+00  0.00000000000E+00  0.28059794250E+04  0.30296533646E+04  0.11424880638E+04 0.  0.
        2    1    3    3  502    0  0.56242931057E+03  0.20581018445E+02  0.16623983588E+04  0.17550836479E+04  0.25500000920E-02 0.  1.
       -2    1    3    3    0  502 -0.56242931057E+03 -0.20581018445E+02  0.11435810662E+04  0.12745697167E+04  0.25500000920E-02 0. -1.
</event>
<event>
 5   0  0.5854579E-03  0.1102046E+04  0.7818609E-02  0.9203200E-01
       -1   -1    0    0    0  501  0.00000000000E+00  0.00000000000E+00  0.14600064958E+03  0.14600064967E+03  0.50400001928E-02 0. -1.
        1   -1    0    0  501    0  0.00000000000E+00  0.00000000000E+00 -0.20796251116E+04  0.20796251116E+04  0.50400001928E-02 0.  1.
    10030    2    1    2    0    0  0.00000000000E+00  0.00000000000E+00 -0.19336244620E+04  0.22256257613E+04  0.11020464914E+04 0.  0.
        4    1    3    3  502    0 -0.72104918223E+01 -0.68627071603E+02 -0.20708617298E+04  0.20720114823E+04  0.12699999809E+01 0.  1.
       -4    1    3    3    0  502  0.72104918223E+01  0.68627071603E+02  0.13723726773E+03  0.15361427897E+03  0.12699999809E+01 0. -1.
</event>
<event>
 5   0  0.1019384E-02  0.5546704E+03  0.7818609E-02  0.1000419E+00
       -2   -1    0    0    0  501  0.00000000000E+00  0.00000000000E+00  0.36493130366E+03  0.36493130367E+03  0.25500000920E-02 0. -1.
        2   -1    0    0  501    0  0.00000000000E+00  0.00000000000E+00 -0.21076519722E+03  0.21076519723E+03  0.25500000920E-02 0.  1.
    10030    2    1    2    0    0  0.00000000000E+00  0.00000000000E+00  0.15416610645E+03  0.57569650091E+03  0.55467041816E+03 0.  0.
        1    1    3    3  502    0  0.41885235306E+02  0.19808673922E+03 -0.11963280746E+03  0.23516959378E+03  0.50400001928E-02 0.  1.
       -1    1    3    3    0  502 -0.41885235306E+02 -0.19808673922E+03  0.27379891391E+03  0.34052690713E+03  0.50400001928E-02 0. -1.
</event>
<event>
 5   0  0.1028016E-02  0.1099261E+04  0.7818609E-02  0.9205913E-01
        2   -1    0    0  501    0  0.00000000000E+00  0.00000000000E+00  0.79914600764E+03  0.79914600764E+03  0.25500000920E-02 0.  1.
       -2   -1    0    0    0  501  0.00000000000E+00  0.00000000000E+00 -0.37802056579E+03  0.37802056580E+03  0.25500000920E-02 0. -1.
    10030    2    1    2    0    0  0.00000000000E+00  0.00000000000E+00  0.42112544184E+03  0.11771665734E+04  0.10992608898E+04 0.  0.
        2    1    3    3  502    0 -0.27373279805E+02 -0.16503913705E+03  0.77121906770E+03  0.78915528485E+03  0.25500000920E-02 0.  1.
       -2    1    3    3    0  502  0.27373279805E+02  0.16503913705E+03 -0.35009362586E+03  0.38801128860E+03  0.25500000920E-02 0. -1.
</event>
<event>
 5   0  0.1019384E-02  0.1099346E+04  0.7818609E-02  0.9205829E-01
        2   -1    0    0  501    0  0.00000000000E+00  0.00000000000E+00  0.18099494709E+04  0.18099494709E+04  0.25500000920E-02 0.  1.
       -2   -1    0    0    0  501  0.00000000000E+00  0.00000000000E+00 -0.16693313381E+03  0.16693313383E+03  0.25500000920E-02 0. -1.
    10030    2    1    2    0    0  0.00000000000E+00  0.00000000000E+00  0.16430163371E+04  0.19768826048E+04  0.10993462371E+04 0.  0.
        1    1    3    3  502    0  0.12061852392E+03  0.46313201742E+03  0.33531775530E+03  0.58436126747E+03  0.50400001928E-02 0. -1.
       -1    1    3    3    0  502 -0.12061852392E+03 -0.46313201742E+03  0.13076985818E+04  0.13925213373E+04  0.50400001928E-02 0.  1.
</event>
<event>
 5   0  0.9719260E-03  0.7157780E+03  0.7818609E-02  0.9690624E-01
        2   -1    0    0  501    0  0.00000000000E+00  0.00000000000E+00  0.77331587773E+03  0.77331587773E+03  0.25500000920E-02 0. -1.
       -2   -1    0    0    0  501  0.00000000000E+00  0.00000000000E+00 -0.16563029823E+03  0.16563029825E+03  0.25500000920E-02 0.  1.
    10030    2    1    2    0    0  0.00000000000E+00  0.00000000000E+00  0.60768557950E+03  0.93894617598E+03  0.71577800878E+03 0.  0.
        3    1    3    3  502    0 -0.73264137846E+02 -0.29063565555E+03  0.56038902104E+03  0.63550970352E+03  0.10100000352E+00 0. -1.
       -3    1    3    3    0  502  0.73264137846E+02  0.29063565555E+03  0.47296558460E+02  0.30343647245E+03  0.10100000352E+00 0.  1.
</event>
<event>
 5   0  0.3949750E-03  0.6587632E+03  0.7818609E-02  0.9790473E-01
       -4   -1    0    0    0  501  0.00000000000E+00  0.00000000000E+00  0.44693050748E+03  0.44693231190E+03  0.12699999809E+01 0. -1.
        4   -1    0    0  501    0  0.00000000000E+00  0.00000000000E+00 -0.24274574045E+03  0.24274906263E+03  0.12699999809E+01 0.  1.
    10030    2    1    2    0    0  0.00000000000E+00  0.00000000000E+00  0.20418476703E+03  0.68968137452E+03  0.65876321943E+03 0.  0.
        4    1    3    3  502    0 -0.70291775030E+01  0.24135274721E+03  0.33663840594E+03  0.41427960024E+03  0.12699999809E+01 0. -1.
       -4    1    3    3    0  502  0.70291775030E+01 -0.24135274721E+03 -0.13245363891E+03  0.27540177429E+03  0.12699999809E+01 0.  1.
</event>
<event>
 5   0  0.1019384E-02  0.1042834E+04  0.7818609E-02  0.9262774E-01
        2   -1    0    0  501    0  0.00000000000E+00  0.00000000000E+00  0.11338903630E+04  0.11338903630E+04  0.25500000920E-02 0.  1.
       -2   -1    0    0    0  501  0.00000000000E+00  0.00000000000E+00 -0.23977259524E+03  0.23977259525E+03  0.25500000920E-02 0. -1.
    10030    2    1    2    0    0  0.00000000000E+00  0.00000000000E+00  0.89411776777E+03  0.13736629583E+04  0.10428342823E+04 0.  0.
        1    1    3    3  502    0 -0.27558830608E+03 -0.32267960819E+03  0.84617343409E+03  0.94661529915E+03  0.50400001928E-02 0.  1.
       -1    1    3    3    0  502  0.27558830608E+03  0.32267960819E+03  0.47944333681E+02  0.42704765911E+03  0.50400001928E-02 0. -1.
</event>
<event>
 5   0  0.9925021E-03  0.1092859E+04  0.7818609E-02  0.9212180E-01
        2   -1    0    0  501    0  0.00000000000E+00  0.00000000000E+00  0.80050498400E+03  0.80050498400E+03  0.25500000920E-02 0. -1.
       -2   -1    0    0    0  501  0.00000000000E+00  0.00000000000E+00 -0.37299628937E+03  0.37299628938E+03  0.25500000920E-02 0.  1.
    10030    2    1    2    0    0  0.00000000000E+00  0.00000000000E+00  0.42750869463E+03  0.11735012734E+04  0.10928593481E+04 0.  0.
        4    1    3    3  502    0  0.56539651389E+02  0.33002306512E+03  0.67744239204E+03  0.75567305306E+03  0.12699999809E+01 0. -1.
       -4    1    3    3    0  502 -0.56539651389E+02 -0.33002306512E+03 -0.24993369742E+03  0.41782822032E+03  0.12699999809E+01 0.  1.
</event>
<event>
 5   0  0.5789905E-03  0.1039494E+04  0.7818609E-02  0.9266259E-01
        1   -1    0    0  501    0  0.00000000000E+00  0.00000000000E+00  0.70281862775E+03  0.70281862777E+03  0.50400001928E-02 0.  1.
       -1   -1    0    0    0  501  0.00000000000E+00  0.00000000000E+00 -0.38436210550E+03  0.38436210554E+03  0.50400001928E-02 0. -1.
    10030    2    1    2    0    0  0.00000000000E+00  0.00000000000E+00  0.31845652224E+03  0.10871807333E+04  0.10394938145E+04 0.  0.
        1    1    3    3  502    0  0.47947597770E+03 -0.18656673184E+03  0.82141595120E+02  0.52101017293E+03  0.50400001928E-02 0. -1.
       -1    1    3    3    0  502 -0.47947597770E+03  0.18656673184E+03  0.23631492712E+03  0.56617056037E+03  0.50400001928E-02 0.  1.
</event>
<event>
 5   0  0.5958706E-03  0.1242064E+04  0.7818609E-02  0.9076814E-01
       -1   -1    0    0    0  501  0.00000000000E+00  0.00000000000E+00  0.10646877442E+04  0.10646877442E+04  0.50400001928E-02 0.  1.
        1   -1    0    0  501    0  0.00000000000E+00  0.00000000000E+00 -0.36224766782E+03  0.36224766785E+03  0.50400001928E-02 0. -1.
    10030    2    1    2    0    0  0.00000000000E+00  0.00000000000E+00  0.70244007642E+03  0.14269354121E+04  0.12420638507E+04 0.  0.
        2    1    3    3  502    0  0.82571054193E+02 -0.61114865065E+03  0.26711097525E+03  0.67206318548E+03  0.25500000920E-02 0. -1.
       -2    1    3    3    0  502 -0.82571054193E+02  0.61114865065E+03  0.43532910117E+03  0.75487222661E+03  0.25500000920E-02 0.  1.
</event>
<event>
 5   0  0.5712664E-03  0.8647423E+03  0.7818609E-02  0.9470761E-01
       -1   -1    0    0    0  501  0.00000000000E+00  0.00000000000E+00  0.49806262133E+03  0.49806262136E+03  0.50400001928E-02 0.  1.
        1   -1    0    0  501    0  0.00000000000E+00  0.00000000000E+00 -0.37534395970E+03  0.37534395973E+03  0.50400001928E-02 0. -1.
    10030    2    1    2    0    0  0.00000000000E+00  0.00000000000E+00  0.12271866163E+03  0.87340658109E+03  0.86474226564E+03 0.  0.
        5    1    3    3  502    0  0.29614750220E+03 -0.12052154629E+02  0.37927348303E+03  0.48137206236E+03  0.46999998093E+01 0.  1.
       -5    1    3    3    0  502 -0.29614750220E+03  0.12052154629E+02 -0.25655482140E+03  0.39203451873E+03  0.46999998093E+01 0. -1.
</event>
<event>
 5   0  0.5712664E-03  0.1054818E+04  0.7818609E-02  0.9250384E-01
       -1   -1    0    0    0  501  0.00000000000E+00  0.00000000000E+00  0.42817044170E+03  0.42817044173E+03  0.50400001928E-02 0.  1.
        1   -1    0    0  501    0  0.00000000000E+00  0.00000000000E+00 -0.64964880339E+03  0.64964880341E+03  0.50400001928E-02 0. -1.
    10030    2    1    2    0    0  0.00000000000E+00  0.00000000000E+00 -0.22147836169E+03  0.10778192451E+04  0.10548183069E+04 0.  0.
        5    1    3    3  502    0  0.20517918745E+03  0.23624424232E+03 -0.54452963449E+03  0.62804813019E+03  0.46999998093E+01 0. -1.
       -5    1    3    3    0  502 -0.20517918745E+03 -0.23624424232E+03  0.32305127280E+03  0.44977111495E+03  0.46999998093E+01 0.  1.
</event>
<event>
 5   0  0.5789905E-03  0.1095939E+04  0.7818609E-02  0.9209159E-01
        1   -1    0    0  501    0  0.00000000000E+00  0.00000000000E+00  0.10819007774E+04  0.10819007774E+04  0.50400001928E-02 0. -1.
       -1   -1    0    0    0  501  0.00000000000E+00  0.00000000000E+00 -0.27753994906E+03  0.27753994911E+03  0.50400001928E-02 0.  1.
    10030    2    1    2    0    0  0.00000000000E+00  0.00000000000E+00  0.80436082834E+03  0.13594407265E+04  0.10959392076E+04 0.  0.
        1    1    3    3  502    0  0.32448617021E+02  0.24212834378E+03 -0.20625443025E+03  0.31971852875E+03  0.50400001928E-02 0.  1.
       -1    1    3    3    0  502 -0.32448617021E+02 -0.24212834378E+03  0.10106152586E+04  0.10397221978E+04  0.50400001928E-02 0. -1.
</event>
<event>
 5   0  0.9925021E-03  0.9762274E+03  0.7818609E-02  0.9335009E-01
       -2   -1    0    0    0  501  0.00000000000E+00  0.00000000000E+00  0.22107202465E+03  0.22107202466E+03  0.25500000920E-02 0.  1.
        2   -1    0    0  501    0  0.00000000000E+00  0.00000000000E+00 -0.10777255110E+04  0.10777255110E+04  0.25500000920E-02 0. -1.
    10030    2    1    2    0    0  0.00000000000E+00  0.00000000000E+00 -0.85665348638E+03  0.12987975357E+04  0.97622735210E+03 0.  0.
        4    1    3    3  502    0 -0.38812196641E+02  0.38370562898E+03 -0.30271703939E+02  0.38685189062E+03  0.12699999809E+01 0.  1.
       -4    1    3    3    0  502  0.38812196641E+02 -0.38370562898E+03 -0.82638178244E+03  0.91194564507E+03  0.12699999809E+01 0. -1.
</event>
<event>
 5   0  0.5789905E-03  0.1085785E+04  0.7818609E-02  0.9219159E-01
        1   -1    0    0  501    0  0.00000000000E+00  0.00000000000E+00  0.55828155226E+03  0.55828155228E+03  0.50400001928E-02 0.  1.
       -1   -1    0    0    0  501  0.00000000000E+00  0.00000000000E+00 -0.52792750071E+03  0.52792750073E+03  0.50400001928E-02 0. -1.
    10030    2    1    2    0    0  0.00000000000E+00  0.00000000000E+00  0.30354051552E+02  0.10862090530E+04  0.10857848490E+04 0.  0.
        1    1    3    3  502    0 -0.94053929532E+02  0.46861467890E+03  0.27273892203E+03  0.55030207937E+03  0.50400001928E-02 0.  1.
       -1    1    3    3    0  502  0.94053929532E+02 -0.46861467890E+03 -0.24238487048E+03  0.53590697364E+03  0.50400001928E-02 0. -1.
</event>
<event>
 5   0  0.9692981E-03  0.9255683E+03  0.7818609E-02  0.9394172E-01
        2   -1    0    0  501    0  0.00000000000E+00  0.00000000000E+00  0.11649585009E+04  0.11649585009E+04  0.25500000920E-02 0.  1.
       -2   -1    0    0    0  501  0.00000000000E+00  0.00000000000E+00 -0.18384276046E+03  0.18384276048E+03  0.25500000920E-02 0. -1.
    10030    2    1    2    0    0  0.00000000000E+00  0.00000000000E+00  0.98111574042E+03  0.13488012614E+04  0.92556833706E+03 0.  0.
        5    1    3    3  502    0  0.61842363585E+01  0.46218401275E+03  0.52297316893E+03  0.69797946377E+03  0.46999998093E+01 0.  1.
       -5    1    3    3    0  502 -0.61842363585E+01 -0.46218401275E+03  0.45814257149E+03  0.65082179760E+03  0.46999998093E+01 0. -1.
</event>
<event>
 5   0  0.9692981E-03  0.9967193E+03  0.7818609E-02  0.9312150E-01
       -2   -1    0    0    0  501  0.00000000000E+00  0.00000000000E+00  0.66002207311E+03  0.66002207311E+03  0.25500000920E-02 0. -1.
        2   -1    0    0  501    0  0.00000000000E+00  0.00000000000E+00 -0.37629397182E+03  0.37629397183E+03  0.25500000920E-02 0.  1.
    10030    2    1    2    0    0  0.00000000000E+00  0.00000000000E+00  0.28372810129E+03  0.10363160449E+04  0.99671927319E+03 0.  0.
        5    1    3    3  502    0  0.40022852485E+03  0.43630338230E+02 -0.16349330168E+03  0.43455566756E+03  0.46999998093E+01 0. -1.
       -5    1    3    3    0  502 -0.40022852485E+03 -0.43630338230E+02  0.44722140297E+03  0.60176037738E+03  0.46999998093E+01 0.  1.
</event>
<event>
 5   0  0.9692981E-03  0.1098835E+04  0.7818609E-02  0.9206328E-01
       -2   -1    0    0    0  501  0.00000000000E+00  0.00000000000E+00  0.43682008713E+03  0.43682008713E+03  0.25500000920E-02 0. -1.
        2   -1    0    0  501    0  0.00000000000E+00  0.00000000000E+00 -0.69103887177E+03  0.69103887177E+03  0.25500000920E-02 0.  1.
    10030    2    1    2    0    0  0.00000000000E+00  0.00000000000E+00 -0.25421878464E+03  0.11278589589E+04  0.10988351290E+04 0.  0.
        5    1    3    3  502    0  0.49242076487E+03 -0.98899505145E+02  0.10143356775E+03  0.51241602284E+03  0.46999998093E+01 0. -1.
       -5    1    3    3    0  502 -0.49242076487E+03  0.98899505145E+02 -0.35565235240E+03  0.61544293607E+03  0.46999998093E+01 0.  1.
</event>
<event>
 5   0  0.1028016E-02  0.1115004E+04  0.7818609E-02  0.9190690E-01
       -2   -1    0    0    0  501  0.00000000000E+00  0.00000000000E+00  0.17895116599E+03  0.17895116601E+03  0.25500000920E-02 0.  1.
        2   -1    0    0  501    0  0.00000000000E+00  0.00000000000E+00 -0.17368340307E+04  0.17368340307E+04  0.25500000920E-02 0. -1.
    10030    2    1    2    0    0  0.00000000000E+00  0.00000000000E+00 -0.15578828647E+04  0.19157851968E+04  0.11150039909E+04 0.  0.
        2    1    3    3  502    0  0.53808885750E+03 -0.62561737499E+02 -0.55259103246E+03  0.77382842978E+03  0.25500000920E-02 0.  1.
       -2    1    3    3    0  502 -0.53808885750E+03  0.62561737499E+02 -0.10052918323E+04  0.11419567670E+04  0.25500000920E-02 0. -1.
</event>
<event>
 5   0  0.5854579E-03  0.1130063E+04  0.7818609E-02  0.9176376E-01
        1   -1    0    0  501    0  0.00000000000E+00  0.00000000000E+00  0.33993971096E+03  0.33993971100E+03  0.50400001928E-02 0. -1.
       -1   -1    0    0    0  501  0.00000000000E+00  0.00000000000E+00 -0.93916767126E+03  0.93916767127E+03  0.50400001928E-02 0.  1.
    10030    2    1    2    0    0  0.00000000000E+00  0.00000000000E+00 -0.59922796029E+03  0.12791073823E+04  0.11300626297E+04 0.  0.
        4    1    3    3  502    0  0.29557724046E+03  0.47548680526E+03 -0.38585459481E+03  0.67995513697E+03  0.12699999809E+01 0.  1.
       -4    1    3    3    0  502 -0.29557724046E+03 -0.47548680526E+03 -0.21337336548E+03  0.59915224530E+03  0.12699999809E+01 0. -1.
</event>
<event>
 5   0  0.1019384E-02  0.1065214E+04  0.7818609E-02  0.9239776E-01
       -2   -1    0    0    0  501  0.00000000000E+00  0.00000000000E+00  0.33225258988E+03  0.33225258989E+03  0.25500000920E-02 0.  1.
        2   -1    0    0  501    0  0.00000000000E+00  0.00000000000E+00 -0.85377854117E+03  0.85377854117E+03  0.25500000920E-02 0. -1.
    10030    2    1    2    0    0  0.00000000000E+00  0.00000000000E+00 -0.52152595129E+03  0.11860311311E+04  0.10652138405E+04 0.  0.
        1    1    3    3  502    0  0.35826972956E+03  0.39200074134E+03 -0.30596773421E+03  0.61289316747E+03  0.50400001928E-02 0.  1.
       -1    1    3    3    0  502 -0.35826972956E+03 -0.39200074134E+03 -0.21555821709E+03  0.57313796359E+03  0.50400001928E-02 0. -1.
</event>
<event>
 5   0  0.9692981E-03  0.1110594E+04  0.7818609E-02  0.9194928E-01
       -2   -1    0    0    0  501  0.00000000000E+00  0.00000000000E+00  0.23169971543E+03  0.23169971545E+03  0.25500000920E-02 0.  1.
        2   -1    0    0  501    0  0.00000000000E+00  0.00000000000E+00 -0.13308370184E+04  0.13308370184E+04  0.25500000920E-02 0. -1.
    10030    2    1    2    0    0  0.00000000000E+00  0.00000000000E+00 -0.10991373029E+04  0.15625367338E+04  0.11105936403E+04 0.  0.
        5    1    3    3  502    0 -0.36339825636E+03  0.27308548333E+03 -0.99824411048E+03  0.10968807447E+04  0.46999998093E+01 0. -1.
       -5    1    3    3    0  502  0.36339825636E+03 -0.27308548333E+03 -0.10089319244E+03  0.46565598913E+03  0.46999998093E+01 0.  1.
</event>
<event>
 5   0  0.9925021E-03  0.1086194E+04  0.7818609E-02  0.9218754E-01
       -2   -1    0    0    0  501  0.00000000000E+00  0.00000000000E+00  0.21083994920E+03  0.21083994922E+03  0.25500000920E-02 0.  1.
        2   -1    0    0  501    0  0.00000000000E+00  0.00000000000E+00 -0.13989479931E+04  0.13989479931E+04  0.25500000920E-02 0. -1.
    10030    2    1    2    0    0  0.00000000000E+00  0.00000000000E+00 -0.11881080439E+04  0.16097879424E+04  0.10861935809E+04 0.  0.
        4    1    3    3  502    0 -0.14112090677E+03 -0.16911721765E+03 -0.13297767792E+04  0.13478960045E+04  0.12699999809E+01 0. -1.
       -4    1    3    3    0  502  0.14112090677E+03  0.16911721765E+03  0.14166873528E+03  0.26189193781E+03  0.12699999809E+01 0.  1.
</event>
<event>
 5   0  0.9719260E-03  0.1077888E+04  0.7818609E-02  0.9227016E-01
       -2   -1    0    0    0  501  0.00000000000E+00  0.00000000000E+00  0.26292713366E+03  0.26292713367E+03  0.25500000920E-02 0. -1.
        2   -1    0    0  501    0  0.00000000000E+00  0.00000000000E+00 -0.11047184366E+04  0.11047184366E+04  0.25500000920E-02 0.  1.
    10030    2    1    2    0    0  0.00000000000E+00  0.00000000000E+00 -0.84179130297E+03  0.13676455703E+04  0.10778876603E+04 0.  0.
        3    1    3    3  502    0  0.68501959084E+02 -0.40216012987E+03 -0.86775665561E+03  0.95886751536E+03  0.10100000352E+00 0.  1.
       -3    1    3    3    0  502 -0.68501959084E+02  0.40216012987E+03  0.25965352643E+02  0.40877805493E+03  0.10100000352E+00 0. -1.
</event>
<event>
 5   0  0.9692981E-03  0.1104343E+04  0.7818609E-02  0.9200969E-01
       -2   -1    0    0    0  501  0.00000000000E+00  0.00000000000E+00  0.37138721896E+03  0.37138721897E+03  0.25500000920E-02 0. -1.
        2   -1    0    0  501    0  0.00000000000E+00  0.00000000000E+00 -0.82095849166E+03  0.82095849166E+03  0.25500000920E-02 0.  1.
    10030    2    1    2    0    0  0.00000000000E+00  0.00000000000E+00 -0.44957127270E+03  0.11923457106E+04  0.11043432276E+04 0.  0.
        5    1    3    3  502    0 -0.10946498340E+03 -0.37895352904E+03  0.19237503593E+03  0.43888336059E+03  0.46999998093E+01 0. -1.
       -5    1    3    3    0  502  0.10946498340E+03  0.37895352904E+03 -0.64194630863E+03  0.75346235004E+03  0.46999998093E+01 0.  1.
</event>
<event>
 5   0  0.5854579E-03  0.1089622E+04  0.7818609E-02  0.9215367E-01
       -1   -1    0    0    0  501  0.00000000000E+00  0.00000000000E+00  0.62910152817E+03  0.62910152819E+03  0.50400001928E-02 0.  1.
        1   -1    0    0  501    0  0.00000000000E+00  0.00000000000E+00 -0.47181383506E+03  0.47181383509E+03  0.50400001928E-02 0. -1.
    10030    2    1    2    0    0  0.00000000000E+00  0.00000000000E+00  0.15728769311E+03  0.11009153633E+04  0.10896215943E+04 0.  0.
        4    1    3    3  502    0  0.18819763093E+03 -0.50848097913E+03  0.13254411133E+03  0.55815840831E+03  0.12699999809E+01 0.  1.
       -4    1    3    3    0  502 -0.18819763093E+03  0.50848097913E+03  0.24743581773E+02  0.54275695496E+03  0.12699999809E+01 0. -1.
</event>
<event>
 5   0  0.5998641E-03  0.1110963E+04  0.7818609E-02  0.9194572E-01
        1   -1    0    0  501    0  0.00000000000E+00  0.00000000000E+00  0.13279811838E+04  0.13279811838E+04  0.50400001928E-02 0.  1.
       -1   -1    0    0    0  501  0.00000000000E+00  0.00000000000E+00 -0.23235246189E+03  0.23235246194E+03  0.50400001928E-02 0. -1.
    10030    2    1    2    0    0  0.00000000000E+00  0.00000000000E+00  0.10956287219E+04  0.15603336457E+04  0.11109630011E+04 0.  0.
        3    1    3    3  502    0 -0.45615505483E+03  0.25315777927E+02  0.10402883693E+03  0.46855131179E+03  0.10100000352E+00 0. -1.
       -3    1    3    3    0  502  0.45615505483E+03 -0.25315777927E+02  0.99159988493E+03  0.10917823339E+04  0.10100000352E+00 0.  1.
</event>
<event>
 5   0  0.5712664E-03  0.1030578E+04  0.7818609E-02  0.9275629E-01
        1   -1    0    0  501    0  0.00000000000E+00  0.00000000000E+00  0.32467907365E+03  0.32467907369E+03  0.50400001928E-02 0. -1.
       -1   -1    0    0    0  501  0.00000000000E+00  0.00000000000E+00 -0.81780072347E+03  0.81780072349E+03  0.50400001928E-02 0.  1.
    10030    2    1    2    0    0  0.00000000000E+00  0.00000000000E+00 -0.49312164982E+03  0.11424797972E+04  0.10305780540E+04 0.  0.
        5    1    3    3  502    0 -0.32497125121E+03  0.21387068269E+03  0.12799163286E+03  0.40957408501E+03  0.46999998093E+01 0. -1.
       -5    1    3    3    0  502  0.32497125121E+03 -0.21387068269E+03 -0.62111328268E+03  0.73290571218E+03  0.46999998093E+01 0.  1.
</event>
<event>
 5   0  0.1019384E-02  0.1064931E+04  0.7818609E-02  0.9240064E-01
        2   -1    0    0  501    0  0.00000000000E+00  0.00000000000E+00  0.63458391698E+03  0.63458391698E+03  0.25500000920E-02 0.  1.
       -2   -1    0    0    0  501  0.00000000000E+00  0.00000000000E+00 -0.44677974954E+03  0.44677974954E+03  0.25500000920E-02 0. -1.
    10030    2    1    2    0    0  0.00000000000E+00  0.00000000000E+00  0.18780416744E+03  0.10813636665E+04  0.10649305019E+04 0.  0.
        1    1    3    3  502    0 -0.38801226429E+03 -0.35472330060E+03  0.81170378841E+01  0.52578324770E+03  0.50400001928E-02 0. -1.
       -1    1    3    3    0  502  0.38801226429E+03  0.35472330060E+03  0.17968712956E+03  0.55558041883E+03  0.50400001928E-02 0.  1.
</event>
<event>
 5   0  0.9692981E-03  0.1108503E+04  0.7818609E-02  0.9196944E-01
       -2   -1    0    0    0  501  0.00000000000E+00  0.00000000000E+00  0.18615617740E+03  0.18615617742E+03  0.25500000920E-02 0. -1.
        2   -1    0    0  501    0  0.00000000000E+00  0.00000000000E+00 -0.16501978000E+04  0.16501978000E+04  0.25500000920E-02 0.  1.
    10030    2    1    2    0    0  0.00000000000E+00  0.00000000000E+00 -0.14640416226E+04  0.18363539775E+04  0.11085026196E+04 0.  0.
        5    1    3    3  502    0  0.11874177104E+03  0.25709182890E+02  0.16379178210E+03  0.20398629404E+03  0.46999998093E+01 0. -1.
       -5    1    3    3    0  502 -0.11874177104E+03 -0.25709182890E+02 -0.16278334047E+04  0.16323676834E+04  0.46999998093E+01 0.  1.
</event>
<event>
 5   0  0.5712664E-03  0.1159246E+04  0.7818609E-02  0.9149296E-01
       -1   -1    0    0    0  501  0.00000000000E+00  0.00000000000E+00  0.23060574865E+03  0.23060574870E+03  0.50400001928E-02 0. -1.
        1   -1    0    0  501    0  0.00000000000E+00  0.00000000000E+00 -0.14568711702E+04  0.14568711702E+04  0.50400001928E-02 0.  1.
    10030    2    1    2    0    0  0.00000000000E+00  0.00000000000E+00 -0.12262654215E+04  0.16874769189E+04  0.11592460773E+04 0.  0.
        5    1    3    3  502    0 -0.41744860747E+03  0.31441123146E+03 -0.24827662679E+03  0.57860274434E+03  0.46999998093E+01 0. -1.
       -5    1    3    3    0  502  0.41744860747E+03 -0.31441123146E+03 -0.97798879473E+03  0.11088741745E+04  0.46999998093E+01 0.  1.
</event>
<event>
 5   0  0.5789905E-03  0.1091310E+04  0.7818609E-02  0.9213703E-01
        1   -1    0    0  501    0  0.00000000000E+00  0.00000000000E+00  0.29753640472E+03  0.29753640476E+03  0.50400001928E-02 0. -1.
       -1   -1    0    0    0  501  0.00000000000E+00  0.00000000000E+00 -0.10006822969E+04  0.10006822970E+04  0.50400001928E-02 0.  1.
    10030    2    1    2    0    0  0.00000000000E+00  0.00000000000E+00 -0.70314589223E+03  0.12982187017E+04  0.10913100621E+04 0.  0.
        1    1    3    3  502    0  0.13677262300E+03 -0.51035973878E+03 -0.51366218797E+03  0.73690071023E+03  0.50400001928E-02 0.  1.
       -1    1    3    3    0  502 -0.13677262300E+03  0.51035973878E+03 -0.18948370426E+03  0.56131799149E+03  0.50400001928E-02 0. -1.
</event>
<event>
 5   0  0.9925021E-03  0.1133449E+04  0.7818609E-02  0.9173190E-01
        2   -1    0    0  501    0  0.00000000000E+00  0.00000000000E+00  0.26005437041E+03  0.26005437042E+03  0.25500000920E-02 0.  1.
       -2   -1    0    0    0  501  0.00000000000E+00  0.00000000000E+00 -0.12350367941E+04  0.12350367941E+04  0.25500000920E-02 0. -1.
    10030    2    1    2    0    0  0.00000000000E+00  0.00000000000E+00 -0.97498242371E+03  0.14950911645E+04  0.11334491006E+04 0.  0.
        4    1    3    3  502    0 -0.11145171666E+03 -0.26263649210E+03  0.15841316623E+03  0.32633687542E+03  0.12699999809E+01 0.  1.
       -4    1    3    3    0  502  0.11145171666E+03  0.26263649210E+03 -0.11333955899E+04  0.11687542891E+04  0.12699999809E+01 0. -1.
</event>
<event>
 5   0  0.5854579E-03  0.1114627E+04  0.7818609E-02  0.9191052E-01
        1   -1    0    0  501    0  0.00000000000E+00  0.00000000000E+00  0.82706506051E+03  0.82706506052E+03  0.50400001928E-02 0.  1.
       -1   -1    0    0    0  501  0.00000000000E+00  0.00000000000E+00 -0.37554271552E+03  0.37554271555E+03  0.50400001928E-02 0. -1.
    10030    2    1    2    0    0  0.00000000000E+00  0.00000000000E+00  0.45152234499E+03  0.12026077761E+04  0.11146268591E+04 0.  0.
        4    1    3    3  502    0  0.39821349475E+03  0.77532936350E+02 -0.18651453044E+03  0.44651385934E+03  0.12699999809E+01 0. -1.
       -4    1    3    3    0  502 -0.39821349475E+03 -0.77532936350E+02  0.63803687542E+03  0.75609391673E+03  0.12699999809E+01 0.  1.
</event>
<event>
 5   0  0.9925021E-03  0.1126432E+04  0.7818609E-02  0.9179806E-01
        2   -1    0    0  501    0  0.00000000000E+00  0.00000000000E+00  0.98160075471E+03  0.98160075471E+03  0.25500000920E-02 0.  1.
       -2   -1    0    0    0  501  0.00000000000E+00  0.00000000000E+00 -0.32315816114E+03  0.32315816115E+03  0.25500000920E-02 0. -1.
    10030    2    1    2    0    0  0.00000000000E+00  0.00000000000E+00  0.65844259357E+03  0.13047589159E+04  0.11264320572E+04 0.  0.
        4    1    3    3  502    0  0.47870382230E+03 -0.16859818989E+03  0.61206748517E+03  0.79511692123E+03  0.12699999809E+01 0.  1.
       -4    1    3    3    0  502 -0.47870382230E+03  0.16859818989E+03  0.46375108399E+02  0.50964199464E+03  0.12699999809E+01 0. -1.
</event>
<event>
 5   0  0.1019384E-02  0.1068712E+04  0.7818609E-02  0.9236236E-01
       -2   -1    0    0    0  501  0.00000000000E+00  0.00000000000E+00  0.60215359794E+03  0.60215359795E+03  0.25500000920E-02 0. -1.
        2   -1    0    0  501    0  0.00000000000E+00  0.00000000000E+00 -0.47419147815E+03  0.47419147815E+03  0.25500000920E-02 0.  1.
    10030    2    1    2    0    0  0.00000000000E+00  0.00000000000E+00  0.12796211979E+03  0.10763450761E+04  0.10687115695E+04 0.  0.
        1    1    3    3  502    0  0.80656656573E+02  0.32031849709E+03  0.48701297612E+03  0.58846501575E+03  0.50400001928E-02 0. -1.
       -1    1    3    3    0  502 -0.80656656573E+02 -0.32031849709E+03 -0.35905085633E+03  0.48788006035E+03  0.50400001928E-02 0.  1.
</event>
<event>
 5   0  0.9692981E-03  0.1099092E+04  0.7818609E-02  0.9206077E-01
        2   -1    0    0  501    0  0.00000000000E+00  0.00000000000E+00  0.11307211647E+04  0.11307211647E+04  0.25500000920E-02 0. -1.
       -2   -1    0    0    0  501  0.00000000000E+00  0.00000000000E+00 -0.26708700579E+03  0.26708700580E+03  0.25500000920E-02 0.  1.
    10030    2    1    2    0    0  0.00000000000E+00  0.00000000000E+00  0.86363415895E+03  0.13978081705E+04  0.10990922259E+04 0.  0.
        5    1    3    3  502    0 -0.47124065889E+02  0.23604703237E+03  0.10600835927E+04  0.10870778227E+04  0.46999998093E+01 0. -1.
       -5    1    3    3    0  502  0.47124065889E+02 -0.23604703237E+03 -0.19644943373E+03  0.31073034787E+03  0.46999998093E+01 0.  1.
</event>
<event>
 5   0  0.5789905E-03  0.1024607E+04  0.7818609E-02  0.9281961E-01
        1   -1    0    0  501    0  0.00000000000E+00  0.00000000000E+00  0.86949116521E+03  0.86949116522E+03  0.50400001928E-02 0. -1.
       -1   -1    0    0    0  501  0.00000000000E+00  0.00000000000E+00 -0.30184883500E+03  0.30184883504E+03  0.50400001928E-02 0.  1.
    10030    2    1    2    0    0  0.00000000000E+00  0.00000000000E+00  0.56764233021E+03  0.11713400003E+04  0.10246070374E+04 0.  0.
        1    1    3    3  502    0  0.30345925870E+03 -0.38366994040E+03  0.10982508974E+03  0.50134987306E+03  0.50400001928E-02 0.  1.
       -1    1    3    3    0  502 -0.30345925870E+03  0.38366994040E+03  0.45781724047E+03  0.66999012721E+03  0.50400001928E-02 0. -1.
</event>
<event>
 5   0  0.5712664E-03  0.1102056E+04  0.7818609E-02  0.9203190E-01
       -1   -1    0    0    0  501  0.00000000000E+00  0.00000000000E+00  0.57227531285E+03  0.57227531288E+03  0.50400001928E-02 0. -1.
        1   -1    0    0  501    0  0.00000000000E+00  0.00000000000E+00 -0.53056960670E+03  0.53056960673E+03  0.50400001928E-02 0.  1.
    10030    2    1    2    0    0  0.00000000000E+00  0.00000000000E+00  0.41705706153E+02  0.11028449196E+04  0.11020560561E+04 0.  0.
        5    1    3    3  502    0  0.17644178651E+03 -0.23703296075E+03  0.48625937469E+03  0.56902249339E+03  0.46999998093E+01 0. -1.
       -5    1    3    3    0  502 -0.17644178651E+03  0.23703296075E+03 -0.44455366854E+03  0.53382242621E+03  0.46999998093E+01 0.  1.
</event>
<event>
 5   0  0.9925021E-03  0.8121063E+03  0.7818609E-02  0.9542657E-01
        2   -1    0    0  501    0  0.00000000000E+00  0.00000000000E+00  0.19992745512E+03  0.19992745513E+03  0.25500000920E-02 0. -1.
       -2   -1    0    0    0  501  0.00000000000E+00  0.00000000000E+00 -0.82469494672E+03  0.82469494673E+03  0.25500000920E-02 0.  1.
    10030    2    1    2    0    0  0.00000000000E+00  0.00000000000E+00 -0.62476749161E+03  0.10246224019E+04  0.81210630328E+03 0.  0.
        4    1    3    3  502    0 -0.28396036057E+03 -0.17174464065E+03 -0.60759605678E+03  0.69231805486E+03  0.12699999809E+01 0.  1.
       -4    1    3    3    0  502  0.28396036057E+03  0.17174464065E+03 -0.17171434824E+02  0.33230434700E+03  0.12699999809E+01 0. -1.
</event>
<event>
 5   0  0.3949750E-03  0.1030573E+04  0.7818609E-02  0.9275634E-01
        3   -1    0    0  501    0  0.00000000000E+00  0.00000000000E+00  0.78451102696E+03  0.78451103346E+03  0.10100000352E+00 0.  1.
       -3   -1    0    0    0  501  0.00000000000E+00  0.00000000000E+00 -0.33845315616E+03  0.33845317123E+03  0.10100000352E+00 0. -1.
    10030    2    1    2    0    0  0.00000000000E+00  0.00000000000E+00  0.44605787079E+03  0.11229642047E+04  0.10305731323E+04 0.  0.
        3    1    3    3  502    0  0.42914481332E+03  0.23349638557E+02  0.53278441786E+03  0.68452152818E+03  0.10100000352E+00 0.  1.
       -3    1    3    3    0  502 -0.42914481332E+03 -0.23349638557E+02 -0.86726547066E+02  0.43844267651E+03  0.10100000352E+00 0. -1.
</event>
<event>
 5   0  0.5854579E-03  0.1083746E+04  0.7818609E-02  0.9221180E-01
        1   -1    0    0  501    0  0.00000000000E+00  0.00000000000E+00  0.99126134840E+03  0.99126134841E+03  0.50400001928E-02 0. -1.
       -1   -1    0    0    0  501  0.00000000000E+00  0.00000000000E+00 -0.29621487579E+03  0.29621487583E+03  0.50400001928E-02 0.  1.
    10030    2    1    2    0    0  0.00000000000E+00  0.00000000000E+00  0.69504647261E+03  0.12874762242E+04  0.10837460168E+04 0.  0.
        4    1    3    3  502    0  0.42612755729E+02  0.21832463917E+03 -0.23947130632E+03  0.32684799904E+03  0.12699999809E+01 0.  1.
       -4    1    3    3    0  502 -0.42612755729E+02 -0.21832463917E+03  0.93451777893E+03  0.96062822521E+03  0.12699999809E+01 0. -1.
</event>
<event>
 5   0  0.9925021E-03  0.1091291E+04  0.7818609E-02  0.9213722E-01
        2   -1    0    0  501    0  0.00000000000E+00  0.00000000000E+00  0.24926046143E+04  0.24926046143E+04  0.25500000920E-02 0.  1.
       -2   -1    0    0    0  501  0.00000000000E+00  0.00000000000E+00 -0.11944487601E+03  0.11944487604E+03  0.25500000920E-02 0. -1.
    10030    2    1    2    0    0  0.00000000000E+00  0.00000000000E+00  0.23731597383E+04  0.26120494904E+04  0.10912907021E+04 0.  0.
        4    1    3    3  502    0 -0.26143454710E+03 -0.47077692791E+03  0.97588978197E+03  0.11146037043E+04  0.12699999809E+01 0. -1.
       -4    1    3    3    0  502  0.26143454710E+03  0.47077692791E+03  0.13972699564E+04  0.14974457860E+04  0.12699999809E+01 0.  1.
</event>
<event>
 5   0  0.3949750E-03  0.1055509E+04  0.7818609E-02  0.9249675E-01
       -4   -1    0    0    0  501  0.00000000000E+00  0.00000000000E+00  0.50070730597E+03  0.50070891659E+03  0.12699999809E+01 0. -1.
        4   -1    0    0  501    0  0.00000000000E+00  0.00000000000E+00 -0.55625954548E+03  0.55626099526E+03  0.12699999809E+01 0.  1.
    10030    2    1    2    0    0  0.00000000000E+00  0.00000000000E+00 -0.55552239517E+02  0.10569699118E+04  0.10555090446E+04 0.  0.
        1    1    3    3  502    0 -0.11464744856E+03  0.36297081543E+03 -0.39384052444E+03  0.54772457406E+03  0.50400001928E-02 0.  1.
       -1    1    3    3    0  502  0.11464744856E+03 -0.36297081543E+03  0.33828828492E+03  0.50924533778E+03  0.50400001928E-02 0. -1.
</event>
<event>
 5   0  0.1019384E-02  0.1096983E+04  0.7818609E-02  0.9208138E-01
       -2   -1    0    0    0  501  0.00000000000E+00  0.00000000000E+00  0.62941040233E+03  0.62941040234E+03  0.25500000920E-02 0.  1.
        2   -1    0    0  501    0  0.00000000000E+00  0.00000000000E+00 -0.47797559333E+03  0.47797559333E+03  0.25500000920E-02 0. -1.
    10030    2    1    2    0    0  0.00000000000E+00  0.00000000000E+00  0.15143480901E+03  0.11073859957E+04  0.10969827902E+04 0.  0.
        1    1    3    3  502    0 -0.24221367280E+03  0.67705841729E+02 -0.41633850131E+03  0.48640445309E+03  0.50400001928E-02 0. -1.
       -1    1    3    3    0  502  0.24221367280E+03 -0.67705841729E+02  0.56777331031E+03  0.62098154258E+03  0.50400001928E-02 0.  1.
</event>
<event>
 5   0  0.5789905E-03  0.1181885E+04  0.7818609E-02  0.9128862E-01
        1   -1    0    0  501    0  0.00000000000E+00  0.00000000000E+00  0.21591940472E+03  0.21591940477E+03  0.50400001928E-02 0.  1.
       -1   -1    0    0    0  501  0.00000000000E+00  0.00000000000E+00 -0.16173309265E+04  0.16173309265E+04  0.50400001928E-02 0. -1.
    10030    2    1    2    0    0  0.00000000000E+00  0.00000000000E+00 -0.14014115218E+04  0.18332503313E+04  0.11818851568E+04 0.  0.
        1    1    3    3  502    0  0.49758150535E+02 -0.57039365200E+03 -0.92755379743E+03  0.10900370815E+04  0.50400001928E-02 0. -1.
       -1    1    3    3    0  502 -0.49758150535E+02  0.57039365200E+03 -0.47385772437E+03  0.74321324985E+03  0.50400001928E-02 0.  1.
</event>
<event>
 5   0  0.5854579E-03  0.1093722E+04  0.7818609E-02  0.9211333E-01
       -1   -1    0    0    0  501  0.00000000000E+00  0.00000000000E+00  0.22225877672E+03  0.22225877678E+03  0.50400001928E-02 0.  1.
        1   -1    0    0  501    0  0.00000000000E+00  0.00000000000E+00 -0.13455343201E+04  0.13455343201E+04  0.50400001928E-02 0. -1.
    10030    2    1    2    0    0  0.00000000000E+00  0.00000000000E+00 -0.11232755434E+04  0.15677930969E+04  0.10937217417E+04 0.  0.
        4    1    3    3  502    0 -0.32838485826E+03 -0.42962817234E+03 -0.44484723775E+03  0.70021972226E+03  0.12699999809E+01 0.  1.
       -4    1    3    3    0  502  0.32838485826E+03  0.42962817234E+03 -0.67842830566E+03  0.86757337466E+03  0.12699999809E+01 0. -1.
</event>
<event>
 5   0  0.5998641E-03  0.9889235E+03  0.7818609E-02  0.9320777E-01
        1   -1    0    0  501    0  0.00000000000E+00  0.00000000000E+00  0.10194647616E+04  0.10194647617E+04  0.50400001928E-02 0. -1.
       -1   -1    0    0    0  501  0.00000000000E+00  0.00000000000E+00 -0.23982428507E+03  0.23982428513E+03  0.50400001928E-02 0.  1.
    10030    2    1    2    0    0  0.00000000000E+00  0.00000000000E+00  0.77964047657E+03  0.12592890468E+04  0.98892347056E+03 0.  0.
        3    1    3    3  502    0  0.32857090317E+03 -0.35721932328E+03  0.26950026030E+03  0.55515302740E+03  0.10100000352E+00 0.  1.
       -3    1    3    3    0  502 -0.32857090317E+03  0.35721932328E+03  0.51014021627E+03  0.70413601938E+03  0.10100000352E+00 0. -1.
</event>
<event>
 5   0  0.9719260E-03  0.1103365E+04  0.7818609E-02  0.9201918E-01
       -2   -1    0    0    0  501  0.00000000000E+00  0.00000000000E+00  0.85998279145E+03  0.85998279145E+03  0.25500000920E-02 0.  1.
        2   -1    0    0  501    0  0.00000000000E+00  0.00000000000E+00 -0.35390682561E+03  0.35390682562E+03  0.25500000920E-02 0. -1.
    10030    2    1    2    0    0  0.00000000000E+00  0.00000000000E+00  0.50607596584E+03  0.12138896171E+04  0.11033653607E+04 0.  0.
        3    1    3    3  502    0 -0.14605531664E+03 -0.76703150483E+02  0.83221067821E+03  0.84840447425E+03  0.10100000352E+00 0.  1.
       -3    1    3    3    0  502  0.14605531664E+03  0.76703150483E+02 -0.32613471237E+03  0.36548514282E+03  0.10100000352E+00 0. -1.
</event>
<event>
 5   0  0.1028016E-02  0.7162271E+03  0.7818609E-02  0.9689877E-01
       -2   -1    0    0    0  501  0.00000000000E+00  0.00000000000E+00  0.32269855522E+03  0.32269855523E+03  0.25500000920E-02 0.  1.
        2   -1    0    0  501    0  0.00000000000E+00  0.00000000000E+00 -0.39741524427E+03  0.39741524428E+03  0.25500000920E-02 0. -1.
    10030    2    1    2    0    0  0.00000000000E+00  0.00000000000E+00 -0.74716689053E+02  0.72011379951E+03  0.71622712922E+03 0.  0.
        2    1    3    3  502    0  0.20677565773E+03  0.67699423430E+02  0.24862488868E+03  0.33038420035E+03  0.25500000920E-02 0.  1.
       -2    1    3    3    0  502 -0.20677565773E+03 -0.67699423430E+02 -0.32334157774E+03  0.38972959916E+03  0.25500000920E-02 0. -1.
</event>
<event>
 5   0  0.5958706E-03  0.1170314E+04  0.7818609E-02  0.9139245E-01
        1   -1    0    0  501    0  0.00000000000E+00  0.00000000000E+00  0.69296250737E+03  0.69296250739E+03  0.50400001928E-02 0. -1.
       -1   -1    0    0    0  501  0.00000000000E+00  0.00000000000E+00 -0.49412294250E+03  0.49412294253E+03  0.50400001928E-02 0.  1.
    10030    2    1    2    0    0  0.00000000000E+00  0.00000000000E+00  0.19883956487E+03  0.11870854499E+04  0.11703139292E+04 0.  0.
        2    1    3    3  502    0  0.34517667550E+03 -0.34706612506E+03 -0.22581022907E+03  0.53906594405E+03  0.25500000920E-02 0.  1.
       -2    1    3    3    0  502 -0.34517667550E+03  0.34706612506E+03  0.42464979394E+03  0.64801950586E+03  0.25500000920E-02 0. -1.
</event>
<event>
 5   0  0.1019384E-02  0.1116703E+04  0.7818609E-02  0.9189063E-01
       -2   -1    0    0    0  501  0.00000000000E+00  0.00000000000E+00  0.22636507788E+03  0.22636507790E+03  0.25500000920E-02 0.  1.
        2   -1    0    0  501    0  0.00000000000E+00  0.00000000000E+00 -0.13772282120E+04  0.13772282120E+04  0.25500000920E-02 0. -1.
    10030    2    1    2    0    0  0.00000000000E+00  0.00000000000E+00 -0.11508631341E+04  0.16035932899E+04  0.11167029533E+04 0.  0.
        1    1    3    3  502    0 -0.15538797900E+03 -0.93306378103E+02  0.18294448822E+03  0.25752706655E+03  0.50400001928E-02 0.  1.
       -1    1    3    3    0  502  0.15538797900E+03  0.93306378103E+02 -0.13338076223E+04  0.13460662233E+04  0.50400001928E-02 0. -1.
</event>
<event>
 5   0  0.9692981E-03  0.1107726E+04  0.7818609E-02  0.9197694E-01
       -2   -1    0    0    0  501  0.00000000000E+00  0.00000000000E+00  0.49481160356E+03  0.49481160357E+03  0.25500000920E-02 0.  1.
        2   -1    0    0  501    0  0.00000000000E+00  0.00000000000E+00 -0.61996188837E+03  0.61996188838E+03  0.25500000920E-02 0. -1.
    10030    2    1    2    0    0  0.00000000000E+00  0.00000000000E+00 -0.12515028481E+03  0.11147734919E+04  0.11077262047E+04 0.  0.
        5    1    3    3  502    0 -0.20107595962E+02  0.14330880049E+03 -0.60057939638E+03  0.61778590876E+03  0.46999998093E+01 0. -1.
       -5    1    3    3    0  502  0.20107595962E+02 -0.14330880049E+03  0.47542911157E+03  0.49698758319E+03  0.46999998093E+01 0.  1.
</event>
<event>
 5   0  0.5854579E-03  0.1078485E+04  0.7818609E-02  0.9226419E-01
        1   -1    0    0  501    0  0.00000000000E+00  0.00000000000E+00  0.11247144036E+04  0.11247144036E+04  0.50400001928E-02 0. -1.
       -1   -1    0    0    0  501  0.00000000000E+00  0.00000000000E+00 -0.25853898281E+03  0.25853898286E+03  0.50400001928E-02 0.  1.
    10030    2    1    2    0    0  0.00000000000E+00  0.00000000000E+00  0.86617542077E+03  0.13832533864E+04  0.10784850818E+04 0.  0.
        4    1    3    3  502    0  0.38628022802E+03  0.19717700353E+03  0.84409647608E+03  0.94899507854E+03  0.12699999809E+01 0. -1.
       -4    1    3    3    0  502 -0.38628022802E+03 -0.19717700353E+03  0.22078944692E+02  0.43425830790E+03  0.12699999809E+01 0.  1.
</event>
<event>
 5   0  0.1019384E-02  0.1148507E+04  0.7818609E-02  0.9159162E-01
       -2   -1    0    0    0  501  0.00000000000E+00  0.00000000000E+00  0.38377526347E+03  0.38377526348E+03  0.25500000920E-02 0.  1.
        2   -1    0    0  501    0  0.00000000000E+00  0.00000000000E+00 -0.85927163904E+03  0.85927163905E+03  0.25500000920E-02 0. -1.
    10030    2    1    2    0    0  0.00000000000E+00  0.00000000000E+00 -0.47549637557E+03  0.12430469025E+04  0.11485072045E+04 0.  0.
        1    1    3    3  502    0 -0.10364167999E+03 -0.46605017867E+03 -0.58311164213E+03  0.75363356751E+03  0.50400001928E-02 0. -1.
       -1    1    3    3    0  502  0.10364167999E+03  0.46605017867E+03  0.10761526656E+03  0.48941333501E+03  0.50400001928E-02 0.  1.
</event>
<event>
 5   0  0.5789905E-03  0.1099547E+04  0.7818609E-02  0.9205634E-01
       -1   -1    0    0    0  501  0.00000000000E+00  0.00000000000E+00  0.66255327966E+03  0.66255327968E+03  0.50400001928E-02 0.  1.
        1   -1    0    0  501    0  0.00000000000E+00  0.00000000000E+00 -0.45619093250E+03  0.45619093253E+03  0.50400001928E-02 0. -1.
    10030    2    1    2    0    0  0.00000000000E+00  0.00000000000E+00  0.20636234716E+03  0.11187442122E+04  0.10995468130E+04 0.  0.
        1    1    3    3  502    0 -0.30714821841E+03 -0.40761970112E+03 -0.10473173811E+03  0.52102071533E+03  0.50400001928E-02 0.  1.
       -1    1    3    3    0  502  0.30714821841E+03  0.40761970112E+03  0.31109408527E+03  0.59772349688E+03  0.50400001928E-02 0. -1.
</event>
<event>
 5   0  0.1019384E-02  0.1080363E+04  0.7818609E-02  0.9224546E-01
        2   -1    0    0  501    0  0.00000000000E+00  0.00000000000E+00  0.49349375140E+03  0.49349375140E+03  0.25500000920E-02 0.  1.
       -2   -1    0    0    0  501  0.00000000000E+00  0.00000000000E+00 -0.59128613555E+03  0.59128613555E+03  0.25500000920E-02 0. -1.
    10030    2    1    2    0    0  0.00000000000E+00  0.00000000000E+00 -0.97792384152E+02  0.10847798870E+04  0.10803629264E+04 0.  0.
        1    1    3    3  502    0  0.82670940683E+02 -0.18497745945E+03  0.45389536741E+03  0.49706352664E+03  0.50400001928E-02 0.  1.
       -1    1    3    3    0  502 -0.82670940683E+02  0.18497745945E+03 -0.55168775156E+03  0.58771636032E+03  0.50400001928E-02 0. -1.
</event>
<event>
 5   0  0.5958706E-03  0.1196726E+04  0.7818609E-02  0.9115727E-01
        1   -1    0    0  501    0  0.00000000000E+00  0.00000000000E+00  0.93896589071E+03  0.93896589073E+03  0.50400001928E-02 0.  1.
       -1   -1    0    0    0  501  0.00000000000E+00  0.00000000000E+00 -0.38131135071E+03  0.38131135074E+03  0.50400001928E-02 0. -1.
    10030    2    1    2    0    0  0.00000000000E+00  0.00000000000E+00  0.55765454001E+03  0.13202772415E+04  0.11967261209E+04 0.  0.
        2    1    3    3  502    0  0.40320492841E+02 -0.53684200936E+03  0.56696809245E+03  0.78184263316E+03  0.25500000920E-02 0.  1.
       -2    1    3    3    0  502 -0.40320492841E+02  0.53684200936E+03 -0.93135524444E+01  0.53843460831E+03  0.25500000920E-02 0. -1.
</event>
<event>
 5   0  0.1028016E-02  0.1277645E+04  0.7818609E-02  0.9047483E-01
        2   -1    0    0  501    0  0.00000000000E+00  0.00000000000E+00  0.62609822194E+03  0.62609822195E+03  0.25500000920E-02 0.  1.
       -2   -1    0    0    0  501  0.00000000000E+00  0.00000000000E+00 -0.65180565004E+03  0.65180565004E+03  0.25500000920E-02 0. -1.
    10030    2    1    2    0    0  0.00000000000E+00  0.00000000000E+00 -0.25707428095E+02  0.12779038720E+04  0.12776452693E+04 0.  0.
        2    1    3    3  502    0 -0.18487892528E+03 -0.23143193503E+02  0.59831704548E+03  0.62665709231E+03  0.25500000920E-02 0.  1.
       -2    1    3    3    0  502  0.18487892528E+03  0.23143193503E+02 -0.62402447357E+03  0.65124677968E+03  0.25500000920E-02 0. -1.
</event>
<event>
 5   0  0.1028016E-02  0.1009299E+04  0.7818609E-02  0.9298404E-01
       -2   -1    0    0    0  501  0.00000000000E+00  0.00000000000E+00  0.16103073128E+03  0.16103073130E+03  0.25500000920E-02 0.  1.
        2   -1    0    0  501    0  0.00000000000E+00  0.00000000000E+00 -0.15815077671E+04  0.15815077671E+04  0.25500000920E-02 0. -1.
    10030    2    1    2    0    0  0.00000000000E+00  0.00000000000E+00 -0.14204770358E+04  0.17425384984E+04  0.10092994646E+04 0.  0.
        2    1    3    3  502    0  0.38083427418E+03  0.43967329383E+02 -0.14363768225E+03  0.40938936749E+03  0.25500000920E-02 0.  1.
       -2    1    3    3    0  502 -0.38083427418E+03 -0.43967329383E+02 -0.12768393536E+04  0.13331491309E+04  0.25500000920E-02 0. -1.
</event>
<event>
 5   0  0.5854579E-03  0.1151710E+04  0.7818609E-02  0.9156208E-01
       -1   -1    0    0    0  501  0.00000000000E+00  0.00000000000E+00  0.96253372692E+03  0.96253372694E+03  0.50400001928E-02 0.  1.
        1   -1    0    0  501    0  0.00000000000E+00  0.00000000000E+00 -0.34451659244E+03  0.34451659248E+03  0.50400001928E-02 0. -1.
    10030    2    1    2    0    0  0.00000000000E+00  0.00000000000E+00  0.61801713448E+03  0.13070503194E+04  0.11517097547E+04 0.  0.
        4    1    3    3  502    0 -0.34357514270E+02  0.31298554989E+03 -0.23817086250E+03  0.39480041271E+03  0.12699999809E+01 0. -1.
       -4    1    3    3    0  502  0.34357514270E+02 -0.31298554989E+03  0.85618799698E+03  0.91224990671E+03  0.12699999809E+01 0.  1.
</event>
<event>
 5   0  0.5712664E-03  0.1090194E+04  0.7818609E-02  0.9214802E-01
       -1   -1    0    0    0  501  0.00000000000E+00  0.00000000000E+00  0.56167082317E+03  0.56167082319E+03  0.50400001928E-02 0. -1.
        1   -1    0    0  501    0  0.00000000000E+00  0.00000000000E+00 -0.52901258129E+03  0.52901258131E+03  0.50400001928E-02 0.  1.
    10030    2    1    2    0    0  0.00000000000E+00  0.00000000000E+00  0.32658241884E+02  0.10906834045E+04  0.10901943534E+04 0.  0.
        5    1    3    3  502    0 -0.40370397087E+03  0.16132645201E+03  0.34527096083E+03  0.55519118023E+03  0.46999998093E+01 0. -1.
       -5    1    3    3    0  502  0.40370397087E+03 -0.16132645201E+03 -0.31261271895E+03  0.53549222427E+03  0.46999998093E+01 0.  1.
</event>
<event>
 5   0  0.3949750E-03  0.1095610E+04  0.7818609E-02  0.9209481E-01
       -4   -1    0    0    0  501  0.00000000000E+00  0.00000000000E+00  0.19498790210E+03  0.19499203795E+03  0.12699999809E+01 0. -1.
        4   -1    0    0  501    0  0.00000000000E+00  0.00000000000E+00 -0.15389994858E+04  0.15390000098E+04  0.12699999809E+01 0.  1.
    10030    2    1    2    0    0  0.00000000000E+00  0.00000000000E+00 -0.13440115837E+04  0.17339920477E+04  0.10956100057E+04 0.  0.
        4    1    3    3  502    0  0.19236250082E+03  0.13649791227E+03  0.11050334281E+03  0.26047574445E+03  0.12699999809E+01 0. -1.
       -4    1    3    3    0  502 -0.19236250082E+03 -0.13649791227E+03 -0.14545149265E+04  0.14735163033E+04  0.12699999809E+01 0.  1.
</event>
<event>
 5   0  0.9719260E-03  0.1084484E+04  0.7818609E-02  0.9220448E-01
       -2   -1    0    0    0  501  0.00000000000E+00  0.00000000000E+00  0.53911439825E+03  0.53911439826E+03  0.25500000920E-02 0.  1.
        2   -1    0    0  501    0  0.00000000000E+00  0.00000000000E+00 -0.54538741129E+03  0.54538741130E+03  0.25500000920E-02 0. -1.
    10030    2    1    2    0    0  0.00000000000E+00  0.00000000000E+00 -0.62730130414E+01  0.10845018096E+04  0.10844836671E+04 0.  0.
        3    1    3    3  502    0  0.27703958391E+03 -0.33684990183E+03  0.31906045448E+03  0.54038724192E+03  0.10100000352E+00 0.  1.
       -3    1    3    3    0  502 -0.27703958391E+03  0.33684990183E+03 -0.32533346752E+03  0.54411456763E+03  0.10100000352E+00 0. -1.
</event>
<event>
 5   0  0.3949750E-03  0.9921904E+03  0.7818609E-02  0.9317152E-01
       -4   -1    0    0    0  501  0.00000000000E+00  0.00000000000E+00  0.38194166835E+03  0.38194377979E+03  0.12699999809E+01 0. -1.
        4   -1    0    0  501    0  0.00000000000E+00  0.00000000000E+00 -0.64436200829E+03  0.64436325984E+03  0.12699999809E+01 0.  1.
    10030    2    1    2    0    0  0.00000000000E+00  0.00000000000E+00 -0.26242033994E+03  0.10263070396E+04  0.99219035712E+03 0.  0.
        3    1    3    3  502    0  0.84403947935E+02 -0.11005246248E+03 -0.62390213396E+03  0.63913179696E+03  0.10100000352E+00 0.  1.
       -3    1    3    3    0  502 -0.84403947935E+02  0.11005246248E+03  0.36148179402E+03  0.38717524266E+03  0.10100000352E+00 0. -1.
</event>
<event>
 5   0  0.5789905E-03  0.1145009E+04  0.7818609E-02  0.9162400E-01
       -1   -1    0    0    0  501  0.00000000000E+00  0.00000000000E+00  0.31692085981E+03  0.31692085985E+03  0.50400001928E-02 0. -1.
        1   -1    0    0  501    0  0.00000000000E+00  0.00000000000E+00 -0.10342055484E+04  0.10342055485E+04  0.50400001928E-02 0.  1.
    10030    2    1    2    0    0  0.00000000000E+00  0.00000000000E+00 -0.71728468863E+03  0.13511264083E+04  0.11450088413E+04 0.  0.
        1    1    3    3  502    0  0.34117921466E+03  0.15199445450E+03  0.15334739436E+03  0.40375858393E+03  0.50400001928E-02 0. -1.
       -1    1    3    3    0  502 -0.34117921466E+03 -0.15199445450E+03 -0.87063208299E+03  0.94736782438E+03  0.50400001928E-02 0.  1.
</event>
<event>
 5   0  0.1019384E-02  0.1098384E+04  0.7818609E-02  0.9206768E-01
       -2   -1    0    0    0  501  0.00000000000E+00  0.00000000000E+00  0.24326747183E+03  0.24326747184E+03  0.25500000920E-02 0.  1.
        2   -1    0    0  501    0  0.00000000000E+00  0.00000000000E+00 -0.12398373234E+04  0.12398373234E+04  0.25500000920E-02 0. -1.
    10030    2    1    2    0    0  0.00000000000E+00  0.00000000000E+00 -0.99656985160E+03  0.14831047953E+04  0.10983844339E+04 0.  0.
        1    1    3    3  502    0 -0.20017920732E+02 -0.53975160468E+03 -0.36407436411E+03  0.65136982931E+03  0.50400001928E-02 0.  1.
       -1    1    3    3    0  502  0.20017920732E+02  0.53975160468E+03 -0.63249548749E+03  0.83173496597E+03  0.50400001928E-02 0. -1.
</event>
<event>
 5   0  0.5712664E-03  0.1136938E+04  0.7818609E-02  0.9169919E-01
       -1   -1    0    0    0  501  0.00000000000E+00  0.00000000000E+00  0.27062200538E+03  0.27062200542E+03  0.50400001928E-02 0.  1.
        1   -1    0    0  501    0  0.00000000000E+00  0.00000000000E+00 -0.11941267578E+04  0.11941267578E+04  0.50400001928E-02 0. -1.
    10030    2    1    2    0    0  0.00000000000E+00  0.00000000000E+00 -0.92350475241E+03  0.14647487632E+04  0.11369379542E+04 0.  0.
        5    1    3    3  502    0  0.16982429943E+03 -0.22800840285E+03  0.17242266184E+03  0.33253539475E+03  0.46999998093E+01 0.  1.
       -5    1    3    3    0  502 -0.16982429943E+03  0.22800840285E+03 -0.10959274142E+04  0.11322133685E+04  0.46999998093E+01 0. -1.
</event>
<event>
 5   0  0.5712664E-03  0.1115504E+04  0.7818609E-02  0.9190211E-01
        1   -1    0    0  501    0  0.00000000000E+00  0.00000000000E+00  0.13421744342E+04  0.13421744343E+04  0.50400001928E-02 0. -1.
       -1   -1    0    0    0  501  0.00000000000E+00  0.00000000000E+00 -0.23177853298E+03  0.23177853304E+03  0.50400001928E-02 0.  1.
    10030    2    1    2    0    0  0.00000000000E+00  0.00000000000E+00  0.11103959013E+04  0.15739529673E+04  0.11155038708E+04 0.  0.
        5    1    3    3  502    0  0.43205784887E+03 -0.24191853619E+03  0.91731851473E+03  0.10424461187E+04  0.46999998093E+01 0. -1.
       -5    1    3    3    0  502 -0.43205784887E+03  0.24191853619E+03  0.19307738653E+03  0.53150684860E+03  0.46999998093E+01 0.  1.
</event>
<event>
 5   0  0.1028016E-02  0.1085205E+04  0.7818609E-02  0.9219733E-01
       -2   -1    0    0    0  501  0.00000000000E+00  0.00000000000E+00  0.26606188161E+03  0.26606188163E+03  0.25500000920E-02 0. -1.
        2   -1    0    0  501    0  0.00000000000E+00  0.00000000000E+00 -0.11065747231E+04  0.11065747231E+04  0.25500000920E-02 0.  1.
    10030    2    1    2    0    0  0.00000000000E+00  0.00000000000E+00 -0.84051284151E+03  0.13726366048E+04  0.10852047788E+04 0.  0.
        2    1    3    3  502    0 -0.40058736432E+03 -0.22296944171E+02  0.41808615359E+02  0.40337990840E+03  0.25500000920E-02 0. -1.
       -2    1    3    3    0  502  0.40058736432E+03  0.22296944171E+02 -0.88232145687E+03  0.96925669636E+03  0.25500000920E-02 0.  1.
</event>
<event>
 5   0  0.1028016E-02  0.1067657E+04  0.7818609E-02  0.9237302E-01
       -2   -1    0    0    0  501  0.00000000000E+00  0.00000000000E+00  0.14447510288E+03  0.14447510290E+03  0.25500000920E-02 0. -1.
        2   -1    0    0  501    0  0.00000000000E+00  0.00000000000E+00 -0.19724689766E+04  0.19724689767E+04  0.25500000920E-02 0.  1.
    10030    2    1    2    0    0  0.00000000000E+00  0.00000000000E+00 -0.18279938738E+04  0.21169440795E+04  0.10676566084E+04 0.  0.
        2    1    3    3  502    0  0.37388086093E+02 -0.19993671167E+03  0.64628556931E+02  0.21342307287E+03  0.25500000920E-02 0. -1.
       -2    1    3    3    0  502 -0.37388086093E+02  0.19993671167E+03 -0.18926224307E+04  0.19035210067E+04  0.25500000920E-02 0.  1.
</event>
<event>
 5   0  0.5789905E-03  0.1171026E+04  0.7818609E-02  0.9138603E-01
       -1   -1    0    0    0  501  0.00000000000E+00  0.00000000000E+00  0.10400090902E+04  0.10400090902E+04  0.50400001928E-02 0.  1.
        1   -1    0    0  501    0  0.00000000000E+00  0.00000000000E+00 -0.32963676543E+03  0.32963676547E+03  0.50400001928E-02 0. -1.
    10030    2    1    2    0    0  0.00000000000E+00  0.00000000000E+00  0.71037232481E+03  0.13696458557E+04  0.11710255891E+04 0.  0.
        1    1    3    3  502    0 -0.37865381570E+02  0.58371826384E+03  0.38533480627E+03  0.70045964310E+03  0.50400001928E-02 0.  1.
       -1    1    3    3    0  502  0.37865381570E+02 -0.58371826384E+03  0.32503751854E+03  0.66918621261E+03  0.50400001928E-02 0. -1.
</event>
<event>
 5   0  0.9692981E-03  0.1096414E+04  0.7818609E-02  0.9208694E-01
        2   -1    0    0  501    0  0.00000000000E+00  0.00000000000E+00  0.79605080896E+03  0.79605080896E+03  0.25500000920E-02 0.  1.
       -2   -1    0    0    0  501  0.00000000000E+00  0.00000000000E+00 -0.37752762027E+03  0.37752762027E+03  0.25500000920E-02 0. -1.
    10030    2    1    2    0    0  0.00000000000E+00  0.00000000000E+00  0.41852318869E+03  0.11735784292E+04  0.10964144609E+04 0.  0.
        5    1    3    3  502    0  0.10070865028E+03  0.42380439416E+03  0.56548490006E+03  0.71382607051E+03  0.46999998093E+01 0.  1.
       -5    1    3    3    0  502 -0.10070865028E+03 -0.42380439416E+03 -0.14696171136E+03  0.45975235873E+03  0.46999998093E+01 0. -1.
</event>
<event>
 5   0  0.5854579E-03  0.1088172E+04  0.7818609E-02  0.9216798E-01
       -1   -1    0    0    0  501  0.00000000000E+00  0.00000000000E+00  0.91728502717E+03  0.91728502718E+03  0.50400001928E-02 0.  1.
        1   -1    0    0  501    0  0.00000000000E+00  0.00000000000E+00 -0.32272357744E+03  0.32272357748E+03  0.50400001928E-02 0. -1.
    10030    2    1    2    0    0  0.00000000000E+00  0.00000000000E+00  0.59456144972E+03  0.12400086047E+04  0.10881718716E+04 0.  0.
        4    1    3    3  502    0 -0.29350662144E+02  0.16084157034E+03 -0.29406640557E+03  0.33646416734E+03  0.12699999809E+01 0. -1.
       -4    1    3    3    0  502  0.29350662144E+02 -0.16084157034E+03  0.88862785529E+03  0.90354443733E+03  0.12699999809E+01 0.  1.
</event>
<event>
 5   0  0.1028016E-02  0.1098530E+04  0.7818609E-02  0.9206626E-01
       -2   -1    0    0    0  501  0.00000000000E+00  0.00000000000E+00  0.18819936774E+03  0.18819936776E+03  0.25500000920E-02 0.  1.
        2   -1    0    0  501    0  0.00000000000E+00  0.00000000000E+00 -0.16030439783E+04  0.16030439783E+04  0.25500000920E-02 0. -1.
    10030    2    1    2    0    0  0.00000000000E+00  0.00000000000E+00 -0.14148446106E+04  0.17912433461E+04  0.10985296777E+04 0.  0.
        2    1    3    3  502    0 -0.23915662349E+02  0.46358570279E+03 -0.22866315705E+03  0.51746545985E+03  0.25500000920E-02 0.  1.
       -2    1    3    3    0  502  0.23915662349E+02 -0.46358570279E+03 -0.11861814536E+04  0.12737778863E+04  0.25500000920E-02 0. -1.
</event>
<event>
 5   0  0.5998641E-03  0.1135437E+04  0.7818609E-02  0.9171324E-01
        1   -1    0    0  501    0  0.00000000000E+00  0.00000000000E+00  0.45604031911E+03  0.45604031914E+03  0.50400001928E-02 0. -1.
       -1   -1    0    0    0  501  0.00000000000E+00  0.00000000000E+00 -0.70674552144E+03  0.70674552146E+03  0.50400001928E-02 0.  1.
    10030    2    1    2    0    0  0.00000000000E+00  0.00000000000E+00 -0.25070520233E+03  0.11627858406E+04  0.11354372782E+04 0.  0.
        3    1    3    3  502    0 -0.44713406728E+03  0.24949822979E+03 -0.37646518245E+03  0.63553464468E+03  0.10100000352E+00 0.  1.
       -3    1    3    3    0  502  0.44713406728E+03 -0.24949822979E+03  0.12575998012E+03  0.52725119592E+03  0.10100000352E+00 0. -1.
</event>
<event>
 5   0  0.5712664E-03  0.1104251E+04  0.7818609E-02  0.9201059E-01
        1   -1    0    0  501    0  0.00000000000E+00  0.00000000000E+00  0.10333329191E+04  0.10333329192E+04  0.50400001928E-02 0. -1.
       -1   -1    0    0    0  501  0.00000000000E+00  0.00000000000E+00 -0.29500897931E+03  0.29500897935E+03  0.50400001928E-02 0.  1.
    10030    2    1    2    0    0  0.00000000000E+00  0.00000000000E+00  0.73832393983E+03  0.13283418985E+04  0.11042508588E+04 0.  0.
        5    1    3    3  502    0 -0.34315138536E+03  0.43156691741E+03  0.33476723728E+03  0.64505354090E+03  0.46999998093E+01 0. -1.
       -5    1    3    3    0  502  0.34315138536E+03 -0.43156691741E+03  0.40355670255E+03  0.68328835761E+03  0.46999998093E+01 0.  1.
</event>
<event>
 5   0  0.3949750E-03  0.1097783E+04  0.7818609E-02  0.9207355E-01
       -4   -1    0    0    0  501  0.00000000000E+00  0.00000000000E+00  0.48418424609E+03  0.48418591167E+03  0.12699999809E+01 0.  1.
        4   -1    0    0  501    0  0.00000000000E+00  0.00000000000E+00 -0.62224308673E+03  0.62224438276E+03  0.12699999809E+01 0. -1.
    10030    2    1    2    0    0  0.00000000000E+00  0.00000000000E+00 -0.13805884064E+03  0.11064302944E+04  0.10977831083E+04 0.  0.
        3    1    3    3  502    0 -0.35908712558E+03  0.29761034295E+03  0.22267470072E+03  0.51681671077E+03  0.10100000352E+00 0.  1.
       -3    1    3    3    0  502  0.35908712558E+03 -0.29761034295E+03 -0.36073354135E+03  0.58961358367E+03  0.10100000352E+00 0. -1.
</event>
<event>
 5   0  0.5712664E-03  0.1063613E+04  0.7818609E-02  0.9241401E-01
        1   -1    0    0  501    0  0.00000000000E+00  0.00000000000E+00  0.38838990849E+03  0.38838990852E+03  0.50400001928E-02 0. -1.
       -1   -1    0    0    0  501  0.00000000000E+00  0.00000000000E+00 -0.72818084651E+03  0.72818084653E+03  0.50400001928E-02 0.  1.
    10030    2    1    2    0    0  0.00000000000E+00  0.00000000000E+00 -0.33979093802E+03  0.11165707550E+04  0.10636128852E+04 0.  0.
        5    1    3    3  502    0 -0.76127728516E+02 -0.61623824803E+02 -0.71860872328E+03  0.72526789120E+03  0.46999998093E+01 0.  1.
       -5    1    3    3    0  502  0.76127728516E+02  0.61623824803E+02  0.37881778526E+03  0.39130286385E+03  0.46999998093E+01 0. -1.
</event>
<event>
 5   0  0.1028016E-02  0.1094453E+04  0.7818609E-02  0.9210615E-01
        2   -1    0    0  501    0  0.00000000000E+00  0.00000000000E+00  0.46656978468E+03  0.46656978468E+03  0.25500000920E-02 0.  1.
       -2   -1    0    0    0  501  0.00000000000E+00  0.00000000000E+00 -0.64182665847E+03  0.64182665847E+03  0.25500000920E-02 0. -1.
    10030    2    1    2    0    0  0.00000000000E+00  0.00000000000E+00 -0.17525687379E+03  0.11083964432E+04  0.10944531527E+04 0.  0.
        2    1    3    3  502    0 -0.39543433825E+03 -0.94877220058E+02  0.28321547990E+03  0.49556130883E+03  0.25500000920E-02 0.  1.
       -2    1    3    3    0  502  0.39543433825E+03  0.94877220058E+02 -0.45847235369E+03  0.61283513432E+03  0.25500000920E-02 0. -1.
</event>
<event>
 5   0  0.1028016E-02  0.1085258E+04  0.7818609E-02  0.9219681E-01
        2   -1    0    0  501    0  0.00000000000E+00  0.00000000000E+00  0.13235667751E+04  0.13235667751E+04  0.25500000920E-02 0. -1.
       -2   -1    0    0    0  501  0.00000000000E+00  0.00000000000E+00 -0.22246418746E+03  0.22246418748E+03  0.25500000920E-02 0.  1.
    10030    2    1    2    0    0  0.00000000000E+00  0.00000000000E+00  0.11011025876E+04  0.15460309625E+04  0.10852579549E+04 0.  0.
        2    1    3    3  502    0 -0.29690872191E+03  0.12294197058E+03 -0.72326256495E+02  0.32939429968E+03  0.25500000920E-02 0.  1.
       -2    1    3    3    0  502  0.29690872191E+03 -0.12294197058E+03  0.11734288441E+04  0.12166366629E+04  0.25500000920E-02 0. -1.
</event>
<event>
 5   0  0.5958706E-03  0.1063084E+04  0.7818609E-02  0.9241939E-01
        1   -1    0    0  501    0  0.00000000000E+00  0.00000000000E+00  0.14837928524E+04  0.14837928524E+04  0.50400001928E-02 0.  1.
       -1   -1    0    0    0  501  0.00000000000E+00  0.00000000000E+00 -0.19041524748E+03  0.19041524754E+03  0.50400001928E-02 0. -1.
    10030    2    1    2    0    0  0.00000000000E+00  0.00000000000E+00  0.12933776049E+04  0.16742081000E+04  0.10630837846E+04 0.  0.
        2    1    3    3  502    0  0.17632617340E+03 -0.19528668804E+02  0.14357934385E+04  0.14467118187E+04  0.25500000920E-02 0.  1.
       -2    1    3    3    0  502 -0.17632617340E+03  0.19528668804E+02 -0.14241583357E+03  0.22749628126E+03  0.25500000920E-02 0. -1.
</event>
<event>
 5   0  0.9925021E-03  0.1082693E+04  0.7818609E-02  0.9222227E-01
       -2   -1    0    0    0  501  0.00000000000E+00  0.00000000000E+00  0.14174907561E+03  0.14174907564E+03  0.25500000920E-02 0. -1.
        2   -1    0    0  501    0  0.00000000000E+00  0.00000000000E+00 -0.20674269707E+04  0.20674269707E+04  0.25500000920E-02 0.  1.
    10030    2    1    2    0    0  0.00000000000E+00  0.00000000000E+00 -0.19256778951E+04  0.22091760463E+04  0.10826926840E+04 0.  0.
        4    1    3    3  502    0  0.43506045234E+03  0.10771835107E+03 -0.34335800867E+03  0.56460355593E+03  0.12699999809E+01 0. -1.
       -4    1    3    3    0  502 -0.43506045234E+03 -0.10771835107E+03 -0.15823198864E+04  0.16445724904E+04  0.12699999809E+01 0.  1.
</event>
<event>
 5   0  0.5712664E-03  0.1102653E+04  0.7818609E-02  0.9202610E-01
        1   -1    0    0  501    0  0.00000000000E+00  0.00000000000E+00  0.58171591060E+03  0.58171591062E+03  0.50400001928E-02 0.  1.
       -1   -1    0    0    0  501  0.00000000000E+00  0.00000000000E+00 -0.52252503557E+03  0.52252503560E+03  0.50400001928E-02 0. -1.
    10030    2    1    2    0    0  0.00000000000E+00  0.00000000000E+00  0.59190875022E+02  0.11042409462E+04  0.11026533941E+04 0.  0.
        5    1    3    3  502    0 -0.41712498683E+03 -0.27100413886E+03 -0.20844942354E+03  0.53936050105E+03  0.46999998093E+01 0. -1.
       -5    1    3    3    0  502  0.41712498683E+03  0.27100413886E+03  0.26764029856E+03  0.56488044517E+03  0.46999998093E+01 0.  1.
</event>
<event>
 5   0  0.5712664E-03  0.1230262E+04  0.7818609E-02  0.9086773E-01
        1   -1    0    0  501    0  0.00000000000E+00  0.00000000000E+00  0.43707251977E+03  0.43707251980E+03  0.50400001928E-02 0.  1.
       -1   -1    0    0    0  501  0.00000000000E+00  0.00000000000E+00 -0.86572827389E+03  0.86572827390E+03  0.50400001928E-02 0. -1.
    10030    2    1    2    0    0  0.00000000000E+00  0.00000000000E+00 -0.42865575412E+03  0.13028007937E+04  0.12302618228E+04 0.  0.
        5    1    3    3  502    0  0.11744189330E+03 -0.43855586300E+03 -0.65381647051E+03  0.79600371254E+03  0.46999998093E+01 0. -1.
       -5    1    3    3    0  502 -0.11744189330E+03  0.43855586300E+03  0.22516071638E+03  0.50679708116E+03  0.46999998093E+01 0.  1.
</event>
<event>
 5   0  0.5998641E-03  0.1137197E+04  0.7818609E-02  0.9169677E-01
       -1   -1    0    0    0  501  0.00000000000E+00  0.00000000000E+00  0.81013714739E+03  0.81013714741E+03  0.50400001928E-02 0. -1.
        1   -1    0    0  501    0  0.00000000000E+00  0.00000000000E+00 -0.39907333023E+03  0.39907333027E+03  0.50400001928E-02 0.  1.
    10030    2    1    2    0    0  0.00000000000E+00  0.00000000000E+00  0.41106381716E+03  0.12092104777E+04  0.11371967805E+04 0.  0.
        3    1    3    3  502    0  0.13661786677E+03  0.52480733532E+03  0.23778052736E+02  0.54281911049E+03  0.10100000352E+00 0.  1.
       -3    1    3    3    0  502 -0.13661786677E+03 -0.52480733532E+03  0.38728576442E+03  0.66639136718E+03  0.10100000352E+00 0. -1.
</event>
<event>
 5   0  0.1028016E-02  0.1094385E+04  0.7818609E-02  0.9210682E-01
       -2   -1    0    0    0  501  0.00000000000E+00  0.00000000000E+00  0.20474372760E+03  0.20474372761E+03  0.25500000920E-02 0. -1.
        2   -1    0    0  501    0  0.00000000000E+00  0.00000000000E+00 -0.14624116418E+04  0.14624116418E+04  0.25500000920E-02 0.  1.
    10030    2    1    2    0    0  0.00000000000E+00  0.00000000000E+00 -0.12576679142E+04  0.16671553694E+04  0.10943849612E+04 0.  0.
        2    1    3    3  502    0  0.84155118951E+01  0.78209369052E+02  0.19608579565E+03  0.21127509440E+03  0.25500000920E-02 0. -1.
       -2    1    3    3    0  502 -0.84155118951E+01 -0.78209369052E+02 -0.14537537098E+04  0.14558802750E+04  0.25500000920E-02 0.  1.
</event>
<event>
 5   0  0.5854579E-03  0.9662957E+03  0.7818609E-02  0.9346304E-01
        1   -1    0    0  501    0  0.00000000000E+00  0.00000000000E+00  0.12355328827E+04  0.12355328827E+04  0.50400001928E-02 0.  1.
       -1   -1    0    0    0  501  0.00000000000E+00  0.00000000000E+00 -0.18893212220E+03  0.18893212226E+03  0.50400001928E-02 0. -1.
    10030    2    1    2    0    0  0.00000000000E+00  0.00000000000E+00  0.10466007605E+04  0.14244650050E+04  0.96629570968E+03 0.  0.
        4    1    3    3  502    0 -0.20957225026E+03 -0.43374082602E+03  0.57803493360E+03  0.75244775872E+03  0.12699999809E+01 0. -1.
       -4    1    3    3    0  502  0.20957225026E+03  0.43374082602E+03  0.46856582694E+03  0.67201724629E+03  0.12699999809E+01 0.  1.
</event>
<event>
 5   0  0.1028016E-02  0.1099144E+04  0.7818609E-02  0.9206027E-01
        2   -1    0    0  501    0  0.00000000000E+00  0.00000000000E+00  0.22077334158E+04  0.22077334158E+04  0.25500000920E-02 0.  1.
       -2   -1    0    0    0  501  0.00000000000E+00  0.00000000000E+00 -0.13680515631E+03  0.13680515633E+03  0.25500000920E-02 0. -1.
    10030    2    1    2    0    0  0.00000000000E+00  0.00000000000E+00  0.20709282595E+04  0.23445385722E+04  0.10991438761E+04 0.  0.
        2    1    3    3  502    0  0.88541452856E+02  0.52823867064E+03  0.77288438574E+03  0.94033289624E+03  0.25500000920E-02 0. -1.
       -2    1    3    3    0  502 -0.88541452856E+02 -0.52823867064E+03  0.12980438738E+04  0.14042056759E+04  0.25500000920E-02 0.  1.
</event>
<event>
 5   0  0.1028016E-02  0.1096036E+04  0.7818609E-02  0.9209064E-01
       -2   -1    0    0    0  501  0.00000000000E+00  0.00000000000E+00  0.32009208188E+03  0.32009208189E+03  0.25500000920E-02 0. -1.
        2   -1    0    0  501    0  0.00000000000E+00  0.00000000000E+00 -0.93824121078E+03  0.93824121079E+03  0.25500000920E-02 0.  1.
    10030    2    1    2    0    0  0.00000000000E+00  0.00000000000E+00 -0.61814912890E+03  0.12583332927E+04  0.10960357339E+04 0.  0.
        2    1    3    3  502    0 -0.35607870956E+03  0.41599382013E+03 -0.28390373671E+03  0.61680161926E+03  0.25500000920E-02 0.  1.
       -2    1    3    3    0  502  0.35607870956E+03 -0.41599382013E+03 -0.33424539219E+03  0.64153167342E+03  0.25500000920E-02 0. -1.
</event>
<event>
 5   0  0.5998641E-03  0.1110399E+04  0.7818609E-02  0.9195115E-01
        1   -1    0    0  501    0  0.00000000000E+00  0.00000000000E+00  0.59105107843E+03  0.59105107845E+03  0.50400001928E-02 0. -1.
       -1   -1    0    0    0  501  0.00000000000E+00  0.00000000000E+00 -0.52152261311E+03  0.52152261313E+03  0.50400001928E-02 0.  1.
    10030    2    1    2    0    0  0.00000000000E+00  0.00000000000E+00  0.69528465320E+02  0.11125736916E+04  0.11103990326E+04 0.  0.
        3    1    3    3  502    0 -0.40332221128E+03 -0.16620610198E+03  0.37888002889E+03  0.57779179722E+03  0.10100000352E+00 0. -1.
       -3    1    3    3    0  502  0.40332221128E+03  0.16620610198E+03 -0.30935156357E+03  0.53478189435E+03  0.10100000352E+00 0.  1.
</event>
<event>
 5   0  0.5789905E-03  0.1083850E+04  0.7818609E-02  0.9221078E-01
        1   -1    0    0  501    0  0.00000000000E+00  0.00000000000E+00  0.17320753046E+04  0.17320753046E+04  0.50400001928E-02 0.  1.
       -1   -1    0    0    0  501  0.00000000000E+00  0.00000000000E+00 -0.16955526362E+03  0.16955526369E+03  0.50400001928E-02 0. -1.
    10030    2    1    2    0    0  0.00000000000E+00  0.00000000000E+00  0.15625200410E+04  0.19016305683E+04  0.10838495928E+04 0.  0.
        1    1    3    3  502    0  0.49797440489E+03  0.13097135056E+03  0.10777184858E+04  0.11944074419E+04  0.50400001928E-02 0.  1.
       -1    1    3    3    0  502 -0.49797440489E+03 -0.13097135056E+03  0.48480155520E+03  0.70722312642E+03  0.50400001928E-02 0. -1.
</event>
<event>
 5   0  0.5998641E-03  0.1084757E+04  0.7818609E-02  0.9220178E-01
        1   -1    0    0  501    0  0.00000000000E+00  0.00000000000E+00  0.69817137177E+03  0.69817137179E+03  0.50400001928E-02 0.  1.
       -1   -1    0    0    0  501  0.00000000000E+00  0.00000000000E+00 -0.42134961695E+03  0.42134961698E+03  0.50400001928E-02 0. -1.
    10030    2    1    2    0    0  0.00000000000E+00  0.00000000000E+00  0.27682175482E+03  0.11195209888E+04  0.10847566365E+04 0.  0.
        3    1    3    3  502    0  0.14343813111E+03 -0.52306667401E+03  0.13943618016E+03  0.56001401898E+03  0.10100000352E+00 0.  1.
       -3    1    3    3    0  502 -0.14343813111E+03  0.52306667401E+03  0.13738557465E+03  0.55950696979E+03  0.10100000352E+00 0. -1.
</event>
<event>
 5   0  0.5712664E-03  0.1152147E+04  0.7818609E-02  0.9155805E-01
       -1   -1    0    0    0  501  0.00000000000E+00  0.00000000000E+00  0.40292798307E+03  0.40292798310E+03  0.50400001928E-02 0.  1.
        1   -1    0    0  501    0  0.00000000000E+00  0.00000000000E+00 -0.82362268772E+03  0.82362268773E+03  0.50400001928E-02 0. -1.
    10030    2    1    2    0    0  0.00000000000E+00  0.00000000000E+00 -0.42069470465E+03  0.12265506708E+04  0.11521469149E+04 0.  0.
        5    1    3    3  502    0 -0.21637813964E+01  0.46449961088E+03  0.15235055390E+03  0.48887355393E+03  0.46999998093E+01 0.  1.
       -5    1    3    3    0  502  0.21637813964E+01 -0.46449961088E+03 -0.57304525855E+03  0.73767711691E+03  0.46999998093E+01 0. -1.
</event>
<event>
 5   0  0.5854579E-03  0.1039854E+04  0.7818609E-02  0.9265883E-01
        1   -1    0    0  501    0  0.00000000000E+00  0.00000000000E+00  0.10787563117E+04  0.10787563117E+04  0.50400001928E-02 0.  1.
       -1   -1    0    0    0  501  0.00000000000E+00  0.00000000000E+00 -0.25058841653E+03  0.25058841658E+03  0.50400001928E-02 0. -1.
    10030    2    1    2    0    0  0.00000000000E+00  0.00000000000E+00  0.82816789521E+03  0.13293447283E+04  0.10398535205E+04 0.  0.
        4    1    3    3  502    0  0.13456777563E+01  0.36091258031E+03  0.89252277981E+03  0.96273476454E+03  0.12699999809E+01 0.  1.
       -4    1    3    3    0  502 -0.13456777563E+01 -0.36091258031E+03 -0.64354884601E+02  0.36660996379E+03  0.12699999809E+01 0. -1.
</event>
<event>
 5   0  0.5854579E-03  0.1099697E+04  0.7818609E-02  0.9205487E-01
        1   -1    0    0  501    0  0.00000000000E+00  0.00000000000E+00  0.82472323998E+03  0.82472324000E+03  0.50400001928E-02 0.  1.
       -1   -1    0    0    0  501  0.00000000000E+00  0.00000000000E+00 -0.36658773370E+03  0.36658773373E+03  0.50400001928E-02 0. -1.
    10030    2    1    2    0    0  0.00000000000E+00  0.00000000000E+00  0.45813550629E+03  0.11913109737E+04  0.10996970919E+04 0.  0.
        4    1    3    3  502    0 -0.53121830790E+03  0.71627078088E+02  0.96352620681E+02  0.54461800317E+03  0.12699999809E+01 0. -1.
       -4    1    3    3    0  502  0.53121830790E+03 -0.71627078088E+02  0.36178288561E+03  0.64669297057E+03  0.12699999809E+01 0.  1.
</event>
<event>
 5   0  0.1019384E-02  0.1110971E+04  0.7818609E-02  0.9194564E-01
       -2   -1    0    0    0  501  0.00000000000E+00  0.00000000000E+00  0.93938985629E+03  0.93938985629E+03  0.25500000920E-02 0.  1.
        2   -1    0    0  501    0  0.00000000000E+00  0.00000000000E+00 -0.32847295737E+03  0.32847295738E+03  0.25500000920E-02 0. -1.
    10030    2    1    2    0    0  0.00000000000E+00  0.00000000000E+00  0.61091689892E+03  0.12678628137E+04  0.11109710423E+04 0.  0.
        1    1    3    3  502    0  0.18721008354E+02 -0.43535079070E+03  0.69861405562E+03  0.82337256807E+03  0.50400001928E-02 0.  1.
       -1    1    3    3    0  502 -0.18721008354E+02  0.43535079070E+03 -0.87697156702E+02  0.44449024560E+03  0.50400001928E-02 0. -1.
</event>
<event>
 5   0  0.9719260E-03  0.9640321E+03  0.7818609E-02  0.9348898E-01
       -2   -1    0    0    0  501  0.00000000000E+00  0.00000000000E+00  0.16727389504E+03  0.16727389506E+03  0.25500000920E-02 0. -1.
        2   -1    0    0  501    0  0.00000000000E+00  0.00000000000E+00 -0.13889761465E+04  0.13889761465E+04  0.25500000920E-02 0.  1.
    10030    2    1    2    0    0  0.00000000000E+00  0.00000000000E+00 -0.12217022514E+04  0.15562500415E+04  0.96403205373E+03 0.  0.
        3    1    3    3  502    0 -0.27759444412E+03 -0.13377471051E+03 -0.12497805537E+02  0.30839999015E+03  0.10100000352E+00 0. -1.
       -3    1    3    3    0  502  0.27759444412E+03  0.13377471051E+03 -0.12092044459E+04  0.12478500514E+04  0.10100000352E+00 0.  1.
</event>
<event>
 5   0  0.5712664E-03  0.5906787E+03  0.7818609E-02  0.9924936E-01
        1   -1    0    0  501    0  0.00000000000E+00  0.00000000000E+00  0.74860088151E+03  0.74860088153E+03  0.50400001928E-02 0. -1.
       -1   -1    0    0    0  501  0.00000000000E+00  0.00000000000E+00 -0.11651780344E+03  0.11651780354E+03  0.50400001928E-02 0.  1.
    10030    2    1    2    0    0  0.00000000000E+00  0.00000000000E+00  0.63208307808E+03  0.86511868507E+03  0.59067869580E+03 0.  0.
        5    1    3    3  502    0 -0.41638998556E+02  0.29194837395E+03  0.29356162378E+03  0.41613480533E+03  0.46999998093E+01 0.  1.
       -5    1    3    3    0  502  0.41638998556E+02 -0.29194837395E+03  0.33852145429E+03  0.44898387974E+03  0.46999998093E+01 0. -1.
</event>
<event>
 5   0  0.1028016E-02  0.9852214E+03  0.7818609E-02  0.9324904E-01
       -2   -1    0    0    0  501  0.00000000000E+00  0.00000000000E+00  0.39690651234E+03  0.39690651235E+03  0.25500000920E-02 0. -1.
        2   -1    0    0  501    0  0.00000000000E+00  0.00000000000E+00 -0.61139161897E+03  0.61139161898E+03  0.25500000920E-02 0.  1.
    10030    2    1    2    0    0  0.00000000000E+00  0.00000000000E+00 -0.21448510663E+03  0.10082981313E+04  0.98522142723E+03 0.  0.
        2    1    3    3  502    0  0.28557097960E+03 -0.31343332134E+03  0.14937771142E+03  0.44956082124E+03  0.25500000920E-02 0. -1.
       -2    1    3    3    0  502 -0.28557097960E+03  0.31343332134E+03 -0.36386281805E+03  0.55873731009E+03  0.25500000920E-02 0.  1.
</event>
<event>
 5   0  0.9925021E-03  0.1100084E+04  0.7818609E-02  0.9205110E-01
        2   -1    0    0  501    0  0.00000000000E+00  0.00000000000E+00  0.81962035074E+03  0.81962035074E+03  0.25500000920E-02 0.  1.
       -2   -1    0    0    0  501  0.00000000000E+00  0.00000000000E+00 -0.36912962879E+03  0.36912962880E+03  0.25500000920E-02 0. -1.
    10030    2    1    2    0    0  0.00000000000E+00  0.00000000000E+00  0.45049072195E+03  0.11887499795E+04  0.11000839165E+04 0.  0.
        4    1    3    3  502    0 -0.25796250472E+03  0.45651705355E+03  0.45748507379E+02  0.52635255566E+03  0.12699999809E+01 0. -1.
       -4    1    3    3    0  502  0.25796250472E+03 -0.45651705355E+03  0.40474221457E+03  0.66239742389E+03  0.12699999809E+01 0.  1.
</event>
<event>
 5   0  0.5854579E-03  0.1095473E+04  0.7818609E-02  0.9209615E-01
       -1   -1    0    0    0  501  0.00000000000E+00  0.00000000000E+00  0.12806887414E+03  0.12806887424E+03  0.50400001928E-02 0. -1.
        1   -1    0    0  501    0  0.00000000000E+00  0.00000000000E+00 -0.23426092899E+04  0.23426092899E+04  0.50400001928E-02 0.  1.
    10030    2    1    2    0    0  0.00000000000E+00  0.00000000000E+00 -0.22145404158E+04  0.24706781642E+04  0.10954731114E+04 0.  0.
        4    1    3    3  502    0 -0.14569302053E+03 -0.41908139169E+03 -0.38289092354E+03  0.58605694375E+03  0.12699999809E+01 0. -1.
       -4    1    3    3    0  502  0.14569302053E+03  0.41908139169E+03 -0.18316494923E+04  0.18846212204E+04  0.12699999809E+01 0.  1.
</event>
<event>
 5   0  0.9692981E-03  0.1103689E+04  0.7818609E-02  0.9201604E-01
        2   -1    0    0  501    0  0.00000000000E+00  0.00000000000E+00  0.62217389344E+03  0.62217389345E+03  0.25500000920E-02 0.  1.
       -2   -1    0    0    0  501  0.00000000000E+00  0.00000000000E+00 -0.48946493338E+03  0.48946493339E+03  0.25500000920E-02 0. -1.
    10030    2    1    2    0    0  0.00000000000E+00  0.00000000000E+00  0.13270896006E+03  0.11116388268E+04  0.11036889114E+04 0.  0.
        5    1    3    3  502    0  0.24774421610E+03  0.14416389814E+03 -0.40858184449E+03  0.49912086691E+03  0.46999998093E+01 0. -1.
       -5    1    3    3    0  502 -0.24774421610E+03 -0.14416389814E+03  0.54129080455E+03  0.61251795993E+03  0.46999998093E+01 0.  1.
</event>
<event>
 5   0  0.1019384E-02  0.1072682E+04  0.7818609E-02  0.9232234E-01
       -2   -1    0    0    0  501  0.00000000000E+00  0.00000000000E+00  0.35391967744E+03  0.35391967745E+03  0.25500000920E-02 0.  1.
        2   -1    0    0  501    0  0.00000000000E+00  0.00000000000E+00 -0.81278850481E+03  0.81278850481E+03  0.25500000920E-02 0. -1.
    10030    2    1    2    0    0  0.00000000000E+00  0.00000000000E+00 -0.45886882737E+03  0.11667081823E+04  0.10726823303E+04 0.  0.
        1    1    3    3  502    0 -0.12609288163E+03  0.46619527541E+03 -0.48317382331E+03  0.68315034449E+03  0.50400001928E-02 0.  1.
       -1    1    3    3    0  502  0.12609288163E+03 -0.46619527541E+03  0.24304995942E+02  0.48355783777E+03  0.50400001928E-02 0. -1.
</event>
<event>
 5   0  0.5854579E-03  0.1527494E+04  0.7818609E-02  0.8866373E-01
       -1   -1    0    0    0  501  0.00000000000E+00  0.00000000000E+00  0.93508958036E+03  0.93508958037E+03  0.50400001928E-02 0. -1.
        1   -1    0    0  501    0  0.00000000000E+00  0.00000000000E+00 -0.62380027992E+03  0.62380027995E+03  0.50400001928E-02 0.  1.
    10030    2    1    2    0    0  0.00000000000E+00  0.00000000000E+00  0.31128930043E+03  0.15588898603E+04  0.15274935574E+04 0.  0.
        4    1    3    3  502    0 -0.41779452170E+03 -0.14261656817E+03  0.79168472280E+03  0.90645356257E+03  0.12699999809E+01 0. -1.
       -4    1    3    3    0  502  0.41779452170E+03  0.14261656817E+03 -0.48039542237E+03  0.65243629774E+03  0.12699999809E+01 0.  1.
</event>
<event>
 5   0  0.3949750E-03  0.1060891E+04  0.7818609E-02  0.9244171E-01
       -3   -1    0    0    0  501  0.00000000000E+00  0.00000000000E+00  0.59411076831E+03  0.59411077690E+03  0.10100000352E+00 0. -1.
        3   -1    0    0  501    0  0.00000000000E+00  0.00000000000E+00 -0.47360263241E+03  0.47360264318E+03  0.10100000352E+00 0.  1.
    10030    2    1    2    0    0  0.00000000000E+00  0.00000000000E+00  0.12050813590E+03  0.10677134201E+04  0.10608910107E+04 0.  0.
        4    1    3    3  502    0  0.21352548990E+02 -0.19388852864E+03  0.55670317653E+03  0.58988874590E+03  0.12699999809E+01 0. -1.
       -4    1    3    3    0  502 -0.21352548990E+02  0.19388852864E+03 -0.43619504062E+03  0.47782467417E+03  0.12699999809E+01 0.  1.
</event>
<event>
 5   0  0.5789905E-03  0.1118366E+04  0.7818609E-02  0.9187474E-01
       -1   -1    0    0    0  501  0.00000000000E+00  0.00000000000E+00  0.28226046872E+03  0.28226046877E+03  0.50400001928E-02 0. -1.
        1   -1    0    0  501    0  0.00000000000E+00  0.00000000000E+00 -0.11077909767E+04  0.11077909767E+04  0.50400001928E-02 0.  1.
    10030    2    1    2    0    0  0.00000000000E+00  0.00000000000E+00 -0.82553050795E+03  0.13900514454E+04  0.11183659515E+04 0.  0.
        1    1    3    3  502    0 -0.36417841020E+02  0.48785600924E+02  0.27812908475E+03  0.28471403515E+03  0.50400001928E-02 0. -1.
       -1    1    3    3    0  502  0.36417841020E+02 -0.48785600924E+02 -0.11036595927E+04  0.11053374103E+04  0.50400001928E-02 0.  1.
</event>
<event>
 5   0  0.9925021E-03  0.5951272E+03  0.7818609E-02  0.9915567E-01
       -2   -1    0    0    0  501  0.00000000000E+00  0.00000000000E+00  0.36075188082E+03  0.36075188083E+03  0.25500000920E-02 0.  1.
        2   -1    0    0  501    0  0.00000000000E+00  0.00000000000E+00 -0.24544321865E+03  0.24544321867E+03  0.25500000920E-02 0. -1.
    10030    2    1    2    0    0  0.00000000000E+00  0.00000000000E+00  0.11530866217E+03  0.60619509950E+03  0.59512722260E+03 0.  0.
        4    1    3    3  502    0  0.23841320099E+02 -0.29021827902E+03  0.12000907162E+03  0.31495848646E+03  0.12699999809E+01 0.  1.
       -4    1    3    3    0  502 -0.23841320099E+02  0.29021827902E+03 -0.47004094551E+01  0.29123661304E+03  0.12699999809E+01 0. -1.
</event>
<event>
 5   0  0.9719260E-03  0.1163422E+04  0.7818609E-02  0.9145489E-01
       -2   -1    0    0    0  501  0.00000000000E+00  0.00000000000E+00  0.11950896722E+04  0.11950896722E+04  0.25500000920E-02 0. -1.
        2   -1    0    0  501    0  0.00000000000E+00  0.00000000000E+00 -0.28314851573E+03  0.28314851574E+03  0.25500000920E-02 0.  1.
    10030    2    1    2    0    0  0.00000000000E+00  0.00000000000E+00  0.91194115652E+03  0.14782381880E+04  0.11634223083E+04 0.  0.
        3    1    3    3  502    0 -0.41493416728E+03  0.40050228615E+03  0.55286466754E+03  0.79889410763E+03  0.10100000352E+00 0. -1.
       -3    1    3    3    0  502  0.41493416728E+03 -0.40050228615E+03  0.35907648897E+03  0.67934408036E+03  0.10100000352E+00 0.  1.
</event>
<event>
 5   0  0.1028016E-02  0.1105772E+04  0.7818609E-02  0.9199584E-01
        2   -1    0    0  501    0  0.00000000000E+00  0.00000000000E+00  0.13211475962E+04  0.13211475962E+04  0.25500000920E-02 0. -1.
       -2   -1    0    0    0  501  0.00000000000E+00  0.00000000000E+00 -0.23137693389E+03  0.23137693391E+03  0.25500000920E-02 0.  1.
    10030    2    1    2    0    0  0.00000000000E+00  0.00000000000E+00  0.10897706623E+04  0.15525245301E+04  0.11057722732E+04 0.  0.
        2    1    3    3  502    0  0.34884299319E+03 -0.38305626164E+03  0.81589922589E+03  0.96649629088E+03  0.25500000920E-02 0. -1.
       -2    1    3    3    0  502 -0.34884299319E+03  0.38305626164E+03  0.27387143642E+03  0.58602823922E+03  0.25500000920E-02 0.  1.
</event>
<event>
 5   0  0.1028016E-02  0.6424521E+03  0.7818609E-02  0.9821046E-01
       -2   -1    0    0    0  501  0.00000000000E+00  0.00000000000E+00  0.96850323945E+02  0.96850323979E+02  0.25500000920E-02 0.  1.
        2   -1    0    0  501    0  0.00000000000E+00  0.00000000000E+00 -0.10654191069E+04  0.10654191069E+04  0.25500000920E-02 0. -1.
    10030    2    1    2    0    0  0.00000000000E+00  0.00000000000E+00 -0.96856878293E+03  0.11622694309E+04  0.64245213257E+03 0.  0.
        2    1    3    3  502    0 -0.29345322075E+03 -0.11357553853E+03 -0.60113679943E+03  0.67851282033E+03  0.25500000920E-02 0.  1.
       -2    1    3    3    0  502  0.29345322075E+03  0.11357553853E+03 -0.36743198351E+03  0.48375661053E+03  0.25500000920E-02 0. -1.
</event>
<event>
 5   0  0.9925021E-03  0.1093777E+04  0.7818609E-02  0.9211279E-01
       -2   -1    0    0    0  501  0.00000000000E+00  0.00000000000E+00  0.74525928674E+03  0.74525928675E+03  0.25500000920E-02 0. -1.
        2   -1    0    0  501    0  0.00000000000E+00  0.00000000000E+00 -0.40131944324E+03  0.40131944325E+03  0.25500000920E-02 0.  1.
    10030    2    1    2    0    0  0.00000000000E+00  0.00000000000E+00  0.34393984350E+03  0.11465787300E+04  0.10937770194E+04 0.  0.
        4    1    3    3  502    0 -0.16234366481E+03  0.15878245905E+03  0.69349904203E+03  0.72973273807E+03  0.12699999809E+01 0. -1.
       -4    1    3    3    0  502  0.16234366481E+03 -0.15878245905E+03 -0.34955919853E+03  0.41684599193E+03  0.12699999809E+01 0.  1.
</event>
<event>
 5   0  0.9692981E-03  0.1095937E+04  0.7818609E-02  0.9209161E-01
       -2   -1    0    0    0  501  0.00000000000E+00  0.00000000000E+00  0.23119715772E+03  0.23119715774E+03  0.25500000920E-02 0. -1.
        2   -1    0    0  501    0  0.00000000000E+00  0.00000000000E+00 -0.12987585966E+04  0.12987585966E+04  0.25500000920E-02 0.  1.
    10030    2    1    2    0    0  0.00000000000E+00  0.00000000000E+00 -0.10675614388E+04  0.15299557543E+04  0.10959366699E+04 0.  0.
        5    1    3    3  502    0 -0.14975368701E+03  0.41675322303E+03 -0.83277818256E+02  0.45062922751E+03  0.46999998093E+01 0. -1.
       -5    1    3    3    0  502  0.14975368701E+03 -0.41675322303E+03 -0.98428362059E+03  0.10793265268E+04  0.46999998093E+01 0.  1.
</event>
<event>
 5   0  0.9692981E-03  0.1072000E+04  0.7818609E-02  0.9232921E-01
       -2   -1    0    0    0  501  0.00000000000E+00  0.00000000000E+00  0.90624619627E+03  0.90624619627E+03  0.25500000920E-02 0. -1.
        2   -1    0    0  501    0  0.00000000000E+00  0.00000000000E+00 -0.31701738096E+03  0.31701738097E+03  0.25500000920E-02 0.  1.
    10030    2    1    2    0    0  0.00000000000E+00  0.00000000000E+00  0.58922881531E+03  0.12232635772E+04  0.10719996188E+04 0.  0.
        5    1    3    3  502    0 -0.50084436159E+03  0.18399854640E+02  0.51139445907E+03  0.71605168246E+03  0.46999998093E+01 0.  1.
       -5    1    3    3    0  502  0.50084436159E+03 -0.18399854640E+02  0.77834356237E+02  0.50721189477E+03  0.46999998093E+01 0. -1.
</event>
<event>
 5   0  0.9719260E-03  0.1114794E+04  0.7818609E-02  0.9190891E-01
        2   -1    0    0  501    0  0.00000000000E+00  0.00000000000E+00  0.10963957342E+04  0.10963957342E+04  0.25500000920E-02 0.  1.
       -2   -1    0    0    0  501  0.00000000000E+00  0.00000000000E+00 -0.28337534009E+03  0.28337534011E+03  0.25500000920E-02 0. -1.
    10030    2    1    2    0    0  0.00000000000E+00  0.00000000000E+00  0.81302039414E+03  0.13797710743E+04  0.11147941767E+04 0.  0.
        3    1    3    3  502    0  0.45803897279E+03  0.30069218578E+03  0.53319086739E+03  0.76453123053E+03  0.10100000352E+00 0.  1.
       -3    1    3    3    0  502 -0.45803897279E+03 -0.30069218578E+03  0.27982952675E+03  0.61523984382E+03  0.10100000352E+00 0. -1.
</event>
<event>
 5   0  0.5854579E-03  0.1105716E+04  0.7818609E-02  0.9199639E-01
       -1   -1    0    0    0  501  0.00000000000E+00  0.00000000000E+00  0.19564554924E+03  0.19564554930E+03  0.50400001928E-02 0.  1.
        1   -1    0    0  501    0  0.00000000000E+00  0.00000000000E+00 -0.15622737876E+04  0.15622737876E+04  0.50400001928E-02 0. -1.
    10030    2    1    2    0    0  0.00000000000E+00  0.00000000000E+00 -0.13666282384E+04  0.17579193369E+04  0.11057159008E+04 0.  0.
        4    1    3    3  502    0  0.26138908202E+03  0.24731968359E+03 -0.16034540485E+02  0.36020826958E+03  0.12699999809E+01 0.  1.
       -4    1    3    3    0  502 -0.26138908202E+03 -0.24731968359E+03 -0.13505936979E+04  0.13977110673E+04  0.12699999809E+01 0. -1.
</event>
<event>
 5   0  0.5789905E-03  0.1077221E+04  0.7818609E-02  0.9227683E-01
        1   -1    0    0  501    0  0.00000000000E+00  0.00000000000E+00  0.16958703997E+04  0.16958703997E+04  0.50400001928E-02 0.  1.
       -1   -1    0    0    0  501  0.00000000000E+00  0.00000000000E+00 -0.17106333891E+03  0.17106333898E+03  0.50400001928E-02 0. -1.
    10030    2    1    2    0    0  0.00000000000E+00  0.00000000000E+00  0.15248070608E+04  0.18669337387E+04  0.10772209671E+04 0.  0.
        1    1    3    3  502    0  0.51778536703E+03 -0.11978546618E+03  0.91399803421E+03  0.10572807814E+04  0.50400001928E-02 0. -1.
       -1    1    3    3    0  502 -0.51778536703E+03  0.11978546618E+03  0.61080902662E+03  0.80965295729E+03  0.50400001928E-02 0.  1.
</event>
<event>
 5   0  0.1028016E-02  0.1084191E+04  0.7818609E-02  0.9220738E-01
        2   -1    0    0  501    0  0.00000000000E+00  0.00000000000E+00  0.14824983149E+04  0.14824983149E+04  0.25500000920E-02 0. -1.
       -2   -1    0    0    0  501  0.00000000000E+00  0.00000000000E+00 -0.19822467032E+03  0.19822467033E+03  0.25500000920E-02 0.  1.
    10030    2    1    2    0    0  0.00000000000E+00  0.00000000000E+00  0.12842736446E+04  0.16807229853E+04  0.10841913848E+04 0.  0.
        2    1    3    3  502    0 -0.91705475160E+02  0.46644511260E+03  0.10460452028E+04  0.11489958675E+04  0.25500000920E-02 0. -1.
       -2    1    3    3    0  502  0.91705475160E+02 -0.46644511260E+03  0.23822844178E+03  0.53172711772E+03  0.25500000920E-02 0.  1.
</event>
<event>
 5   0  0.9925021E-03  0.1122555E+04  0.7818609E-02  0.9183483E-01
        2   -1    0    0  501    0  0.00000000000E+00  0.00000000000E+00  0.96743805756E+03  0.96743805757E+03  0.25500000920E-02 0. -1.
       -2   -1    0    0    0  501  0.00000000000E+00  0.00000000000E+00 -0.32563551241E+03  0.32563551242E+03  0.25500000920E-02 0.  1.
    10030    2    1    2    0    0  0.00000000000E+00  0.00000000000E+00  0.64180254515E+03  0.12930735700E+04  0.11225545646E+04 0.  0.
        4    1    3    3  502    0  0.12665357785E+03 -0.14278025022E+03  0.92890866674E+03  0.94831442712E+03  0.12699999809E+01 0. -1.
       -4    1    3    3    0  502 -0.12665357785E+03  0.14278025022E+03 -0.28710612159E+03  0.34475914287E+03  0.12699999809E+01 0.  1.
</event>
<event>
 5   0  0.5712664E-03  0.1121415E+04  0.7818609E-02  0.9184567E-01
        1   -1    0    0  501    0  0.00000000000E+00  0.00000000000E+00  0.29910724656E+03  0.29910724660E+03  0.50400001928E-02 0.  1.
       -1   -1    0    0    0  501  0.00000000000E+00  0.00000000000E+00 -0.10511050276E+04  0.10511050276E+04  0.50400001928E-02 0. -1.
    10030    2    1    2    0    0  0.00000000000E+00  0.00000000000E+00 -0.75199778106E+03  0.13502122742E+04  0.11214154104E+04 0.  0.
        5    1    3    3  502    0  0.13091937874E+03 -0.19945585639E+03 -0.98691380826E+03  0.10153538680E+04  0.46999998093E+01 0. -1.
       -5    1    3    3    0  502 -0.13091937874E+03  0.19945585639E+03  0.23491602719E+03  0.33485840621E+03  0.46999998093E+01 0.  1.
</event>
<event>
 5   0  0.5712664E-03  0.1079217E+04  0.7818609E-02  0.9225688E-01
        1   -1    0    0  501    0  0.00000000000E+00  0.00000000000E+00  0.42233611308E+03  0.42233611311E+03  0.50400001928E-02 0.  1.
       -1   -1    0    0    0  501  0.00000000000E+00  0.00000000000E+00 -0.68944500357E+03  0.68944500358E+03  0.50400001928E-02 0. -1.
    10030    2    1    2    0    0  0.00000000000E+00  0.00000000000E+00 -0.26710889049E+03  0.11117811167E+04  0.10792173516E+04 0.  0.
        5    1    3    3  502    0 -0.26706209396E+02  0.11269602810E+02 -0.68862126469E+03  0.68924709774E+03  0.46999998093E+01 0. -1.
       -5    1    3    3    0  502  0.26706209396E+02 -0.11269602810E+02  0.42151237420E+03  0.42253401895E+03  0.46999998093E+01 0.  1.
</event>
<event>
 5   0  0.9925021E-03  0.1099843E+04  0.7818609E-02  0.9205344E-01
       -2   -1    0    0    0  501  0.00000000000E+00  0.00000000000E+00  0.34011689460E+03  0.34011689461E+03  0.25500000920E-02 0. -1.
        2   -1    0    0  501    0  0.00000000000E+00  0.00000000000E+00 -0.88914690288E+03  0.88914690288E+03  0.25500000920E-02 0.  1.
    10030    2    1    2    0    0  0.00000000000E+00  0.00000000000E+00 -0.54903000828E+03  0.12292637975E+04  0.10998434133E+04 0.  0.
        4    1    3    3  502    0 -0.78868388450E+02 -0.26932464703E+03 -0.80308777167E+03  0.85071003879E+03  0.12699999809E+01 0.  1.
       -4    1    3    3    0  502  0.78868388450E+02  0.26932464703E+03  0.25405776339E+03  0.37855375871E+03  0.12699999809E+01 0. -1.
</event>
<event>
 5   0  0.5712664E-03  0.1104834E+04  0.7818609E-02  0.9200493E-01
       -1   -1    0    0    0  501  0.00000000000E+00  0.00000000000E+00  0.44423733635E+03  0.44423733638E+03  0.50400001928E-02 0. -1.
        1   -1    0    0  501    0  0.00000000000E+00  0.00000000000E+00 -0.68694068941E+03  0.68694068943E+03  0.50400001928E-02 0.  1.
    10030    2    1    2    0    0  0.00000000000E+00  0.00000000000E+00 -0.24270335306E+03  0.11311780258E+04  0.11048342901E+04 0.  0.
        5    1    3    3  502    0 -0.14997699664E+03  0.32511716776E+03 -0.55203401396E+03  0.65799537601E+03  0.46999998093E+01 0.  1.
       -5    1    3    3    0  502  0.14997699664E+03 -0.32511716776E+03  0.30933066089E+03  0.47318264979E+03  0.46999998093E+01 0. -1.
</event>
<event>
 5   0  0.5854579E-03  0.7667571E+03  0.7818609E-02  0.9609422E-01
        1   -1    0    0  501    0  0.00000000000E+00  0.00000000000E+00  0.16931726985E+03  0.16931726992E+03  0.50400001928E-02 0.  1.
       -1   -1    0    0    0  501  0.00000000000E+00  0.00000000000E+00 -0.86806927163E+03  0.86806927165E+03  0.50400001928E-02 0. -1.
    10030    2    1    2    0    0  0.00000000000E+00  0.00000000000E+00 -0.69875200178E+03  0.10373865416E+04  0.76675711711E+03 0.  0.
        4    1    3    3  502    0 -0.17861826018E+03  0.28995414040E+03 -0.11116545868E+03  0.35824189943E+03  0.12699999809E+01 0.  1.
       -4    1    3    3    0  502  0.17861826018E+03 -0.28995414040E+03 -0.58758654311E+03  0.67914464214E+03  0.12699999809E+01 0. -1.
</event>
<event>
 5   0  0.5854579E-03  0.1089939E+04  0.7818609E-02  0.9215053E-01
        1   -1    0    0  501    0  0.00000000000E+00  0.00000000000E+00  0.71824478279E+03  0.71824478281E+03  0.50400001928E-02 0. -1.
       -1   -1    0    0    0  501  0.00000000000E+00  0.00000000000E+00 -0.41349688019E+03  0.41349688022E+03  0.50400001928E-02 0.  1.
    10030    2    1    2    0    0  0.00000000000E+00  0.00000000000E+00  0.30474790260E+03  0.11317416630E+04  0.10899394055E+04 0.  0.
        4    1    3    3  502    0 -0.66828676457E+02 -0.50905906162E+03  0.34209202063E+03  0.61695685724E+03  0.12699999809E+01 0. -1.
       -4    1    3    3    0  502  0.66828676457E+02  0.50905906162E+03 -0.37344118031E+02  0.51478480579E+03  0.12699999809E+01 0.  1.
</event>
<event>
 5   0  0.5789905E-03  0.1092998E+04  0.7818609E-02  0.9212043E-01
        1   -1    0    0  501    0  0.00000000000E+00  0.00000000000E+00  0.35647167007E+03  0.35647167011E+03  0.50400001928E-02 0.  1.
       -1   -1    0    0    0  501  0.00000000000E+00  0.00000000000E+00 -0.83782643751E+03  0.83782643752E+03  0.50400001928E-02 0. -1.
    10030    2    1    2    0    0  0.00000000000E+00  0.00000000000E+00 -0.48135476744E+03  0.11942981076E+04  0.10929984253E+04 0.  0.
        1    1    3    3  502    0  0.28822645935E+03 -0.22788186581E+03  0.20136119392E+03  0.41898802737E+03  0.50400001928E-02 0.  1.
       -1    1    3    3    0  502 -0.28822645935E+03  0.22788186581E+03 -0.68271596136E+03  0.77531008026E+03  0.50400001928E-02 0. -1.
</event>
<event>
 5   0  0.5789905E-03  0.1050884E+04  0.7818609E-02  0.9254432E-01
        1   -1    0    0  501    0  0.00000000000E+00  0.00000000000E+00  0.81588968182E+03  0.81588968183E+03  0.50400001928E-02 0.  1.
       -1   -1    0    0    0  501  0.00000000000E+00  0.00000000000E+00 -0.33839051932E+03  0.33839051936E+03  0.50400001928E-02 0. -1.
    10030    2    1    2    0    0  0.00000000000E+00  0.00000000000E+00  0.47749916250E+03  0.11542802012E+04  0.10508840719E+04 0.  0.
        1    1    3    3  502    0  0.13319666978E+03  0.33821193677E+03  0.65550222226E+03  0.74954107988E+03  0.50400001928E-02 0.  1.
       -1    1    3    3    0  502 -0.13319666978E+03 -0.33821193677E+03 -0.17800305976E+03  0.40473912131E+03  0.50400001928E-02 0. -1.
</event>
<event>
 5   0  0.3949750E-03  0.1108467E+04  0.7818609E-02  0.9196978E-01
        4   -1    0    0  501    0  0.00000000000E+00  0.00000000000E+00  0.13613008976E+04  0.13613014900E+04  0.12699999809E+01 0.  1.
       -4   -1    0    0    0  501  0.00000000000E+00  0.00000000000E+00 -0.22564552495E+03  0.22564909889E+03  0.12699999809E+01 0. -1.
    10030    2    1    2    0    0  0.00000000000E+00  0.00000000000E+00  0.11356553726E+04  0.15869505889E+04  0.11084669802E+04 0.  0.
        2    1    3    3  502    0  0.38308142377E+02 -0.48694000518E+03  0.19286142734E+03  0.52514151672E+03  0.25500000920E-02 0. -1.
       -2    1    3    3    0  502 -0.38308142377E+02  0.48694000518E+03  0.94279394529E+03  0.10618090721E+04  0.25500000920E-02 0.  1.
</event>
<event>
 5   0  0.5712664E-03  0.1114436E+04  0.7818609E-02  0.9191234E-01
        1   -1    0    0  501    0  0.00000000000E+00  0.00000000000E+00  0.92404955628E+03  0.92404955629E+03  0.50400001928E-02 0. -1.
       -1   -1    0    0    0  501  0.00000000000E+00  0.00000000000E+00 -0.33601238975E+03  0.33601238979E+03  0.50400001928E-02 0.  1.
    10030    2    1    2    0    0  0.00000000000E+00  0.00000000000E+00  0.58803716653E+03  0.12600619461E+04  0.11144363592E+04 0.  0.
        5    1    3    3  502    0  0.32503353475E+02  0.53597106408E+03  0.46228962088E+03  0.70855856009E+03  0.46999998093E+01 0. -1.
       -5    1    3    3    0  502 -0.32503353475E+02 -0.53597106408E+03  0.12574754566E+03  0.55150338598E+03  0.46999998093E+01 0.  1.
</event>
<event>
 5   0  0.9719260E-03  0.1093112E+04  0.7818609E-02  0.9211932E-01
       -2   -1    0    0    0  501  0.00000000000E+00  0.00000000000E+00  0.14208447713E+04  0.14208447713E+04  0.25500000920E-02 0. -1.
        2   -1    0    0  501    0  0.00000000000E+00  0.00000000000E+00 -0.21024339461E+03  0.21024339463E+03  0.25500000920E-02 0.  1.
    10030    2    1    2    0    0  0.00000000000E+00  0.00000000000E+00  0.12106013767E+04  0.16310881660E+04  0.10931115734E+04 0.  0.
        3    1    3    3  502    0  0.35584229392E+03 -0.34731693652E+03  0.94382652685E+03  0.10667995667E+04  0.10100000352E+00 0.  1.
       -3    1    3    3    0  502 -0.35584229392E+03  0.34731693652E+03  0.26677484989E+03  0.56428859927E+03  0.10100000352E+00 0. -1.
</event>
<event>
 5   0  0.5998641E-03  0.1086721E+04  0.7818609E-02  0.9218232E-01
        1   -1    0    0  501    0  0.00000000000E+00  0.00000000000E+00  0.25463187562E+03  0.25463187567E+03  0.50400001928E-02 0.  1.
       -1   -1    0    0    0  501  0.00000000000E+00  0.00000000000E+00 -0.11594805207E+04  0.11594805207E+04  0.50400001928E-02 0. -1.
    10030    2    1    2    0    0  0.00000000000E+00  0.00000000000E+00 -0.90484864510E+03  0.14141123964E+04  0.10867211230E+04 0.  0.
        3    1    3    3  502    0  0.25814562373E+03  0.39732101547E+03 -0.10633293795E+03  0.48560257030E+03  0.10100000352E+00 0.  1.
       -3    1    3    3    0  502 -0.25814562373E+03 -0.39732101547E+03 -0.79851570714E+03  0.92850982609E+03  0.10100000352E+00 0. -1.
</event>
<event>
 5   0  0.3949750E-03  0.1188302E+04  0.7818609E-02  0.9123158E-01
       -4   -1    0    0    0  501  0.00000000000E+00  0.00000000000E+00  0.53866120182E+03  0.53866269896E+03  0.12699999809E+01 0. -1.
        4   -1    0    0  501    0  0.00000000000E+00  0.00000000000E+00 -0.65535383457E+03  0.65535506512E+03  0.12699999809E+01 0.  1.
    10030    2    1    2    0    0  0.00000000000E+00  0.00000000000E+00 -0.11669263275E+03  0.11940177641E+04  0.11883018347E+04 0.  0.
        3    1    3    3  502    0  0.51432604385E+03  0.16773452355E+03 -0.30518863018E+03  0.62113304530E+03  0.10100000352E+00 0.  1.
       -3    1    3    3    0  502 -0.51432604385E+03 -0.16773452355E+03  0.18849599744E+03  0.57288471878E+03  0.10100000352E+00 0. -1.
</event>
<event>
 5   0  0.9692981E-03  0.1118919E+04  0.7818609E-02  0.9186946E-01
       -2   -1    0    0    0  501  0.00000000000E+00  0.00000000000E+00  0.28011519505E+03  0.28011519507E+03  0.25500000920E-02 0.  1.
        2   -1    0    0  501    0  0.00000000000E+00  0.00000000000E+00 -0.11173793829E+04  0.11173793829E+04  0.25500000920E-02 0. -1.
    10030    2    1    2    0    0  0.00000000000E+00  0.00000000000E+00 -0.83726418784E+03  0.13974945780E+04  0.11189190208E+04 0.  0.
        5    1    3    3  502    0  0.23817697282E+03  0.34069994516E+03 -0.88623383104E+03  0.97889591699E+03  0.46999998093E+01 0. -1.
       -5    1    3    3    0  502 -0.23817697282E+03 -0.34069994516E+03  0.48969643203E+02  0.41859866097E+03  0.46999998093E+01 0.  1.
</event>
<event>
 5   0  0.9719260E-03  0.6011187E+03  0.7818609E-02  0.9903088E-01
       -2   -1    0    0    0  501  0.00000000000E+00  0.00000000000E+00  0.60045747670E+02  0.60045747724E+02  0.25500000920E-02 0. -1.
        2   -1    0    0  501    0  0.00000000000E+00  0.00000000000E+00 -0.15044518353E+04  0.15044518353E+04  0.25500000920E-02 0.  1.
    10030    2    1    2    0    0  0.00000000000E+00  0.00000000000E+00 -0.14444060877E+04  0.15644975831E+04  0.60111874145E+03 0.  0.
        3    1    3    3  502    0  0.54707291884E+02 -0.23325202555E+03 -0.11945417644E+04  0.12183305923E+04  0.10100000352E+00 0.  1.
       -3    1    3    3    0  502 -0.54707291884E+02  0.23325202555E+03 -0.24986432331E+03  0.34616699073E+03  0.10100000352E+00 0. -1.
</event>
<event>
 5   0  0.5789905E-03  0.1091445E+04  0.7818609E-02  0.9213571E-01
       -1   -1    0    0    0  501  0.00000000000E+00  0.00000000000E+00  0.27667195172E+03  0.27667195177E+03  0.50400001928E-02 0. -1.
        1   -1    0    0  501    0  0.00000000000E+00  0.00000000000E+00 -0.10764118678E+04  0.10764118678E+04  0.50400001928E-02 0.  1.
    10030    2    1    2    0    0  0.00000000000E+00  0.00000000000E+00 -0.79973991609E+03  0.13530838196E+04  0.10914448632E+04 0.  0.
        1    1    3    3  502    0 -0.33709591124E+03 -0.11568677423E+03 -0.91221390110E+03  0.97936269303E+03  0.50400001928E-02 0.  1.
       -1    1    3    3    0  502  0.33709591124E+03  0.11568677423E+03  0.11247398501E+03  0.37372112656E+03  0.50400001928E-02 0. -1.
</event>
<event>
 5   0  0.9925021E-03  0.1096633E+04  0.7818609E-02  0.9208480E-01
       -2   -1    0    0    0  501  0.00000000000E+00  0.00000000000E+00  0.25774061922E+03  0.25774061923E+03  0.25500000920E-02 0.  1.
        2   -1    0    0  501    0  0.00000000000E+00  0.00000000000E+00 -0.11664872370E+04  0.11664872370E+04  0.25500000920E-02 0. -1.
    10030    2    1    2    0    0  0.00000000000E+00  0.00000000000E+00 -0.90874661782E+03  0.14242278563E+04  0.10966332893E+04 0.  0.
        4    1    3    3  502    0 -0.13249861852E+01 -0.40775851084E+03 -0.93046062938E+03  0.10158874714E+04  0.12699999809E+01 0. -1.
       -4    1    3    3    0  502  0.13249861852E+01  0.40775851084E+03  0.21714011558E+02  0.40834038491E+03  0.12699999809E+01 0.  1.
</event>
<event>
 5   0  0.1019384E-02  0.1097219E+04  0.7818609E-02  0.9207907E-01
        2   -1    0    0  501    0  0.00000000000E+00  0.00000000000E+00  0.61799468621E+03  0.61799468621E+03  0.25500000920E-02 0.  1.
       -2   -1    0    0    0  501  0.00000000000E+00  0.00000000000E+00 -0.48701438438E+03  0.48701438439E+03  0.25500000920E-02 0. -1.
    10030    2    1    2    0    0  0.00000000000E+00  0.00000000000E+00  0.13098030182E+03  0.11050090706E+04  0.10972188508E+04 0.  0.
        1    1    3    3  502    0 -0.30565432747E+03 -0.34581758596E+03 -0.23319256042E+03  0.51710070675E+03  0.50400001928E-02 0. -1.
       -1    1    3    3    0  502  0.30565432747E+03  0.34581758596E+03  0.36417286224E+03  0.58790836385E+03  0.50400001928E-02 0.  1.
</event>
<event>
 5   0  0.9719260E-03  0.1094079E+04  0.7818609E-02  0.9210982E-01
        2   -1    0    0  501    0  0.00000000000E+00  0.00000000000E+00  0.13053894957E+04  0.13053894957E+04  0.25500000920E-02 0.  1.
       -2   -1    0    0    0  501  0.00000000000E+00  0.00000000000E+00 -0.22924358684E+03  0.22924358685E+03  0.25500000920E-02 0. -1.
    10030    2    1    2    0    0  0.00000000000E+00  0.00000000000E+00  0.10761459088E+04  0.15346330825E+04  0.10940789189E+04 0.  0.
        3    1    3    3  502    0  0.52951042796E+03 -0.68396793405E+02  0.37096808261E+03  0.65013594208E+03  0.10100000352E+00 0. -1.
       -3    1    3    3    0  502 -0.52951042796E+03  0.68396793405E+02  0.70517782621E+03  0.88449714044E+03  0.10100000352E+00 0.  1.
</event>
<event>
 5   0  0.5712664E-03  0.8235192E+03  0.7818609E-02  0.9526584E-01
       -1   -1    0    0    0  501  0.00000000000E+00  0.00000000000E+00  0.10792929778E+03  0.10792929790E+03  0.50400001928E-02 0. -1.
        1   -1    0    0  501    0  0.00000000000E+00  0.00000000000E+00 -0.15708983921E+04  0.15708983921E+04  0.50400001928E-02 0.  1.
    10030    2    1    2    0    0  0.00000000000E+00  0.00000000000E+00 -0.14629690943E+04  0.16788276900E+04  0.82351918122E+03 0.  0.
        5    1    3    3  502    0  0.51923448286E+02 -0.16624470454E+03  0.29082035640E+02  0.17663861713E+03  0.46999998093E+01 0. -1.
       -5    1    3    3    0  502 -0.51923448286E+02  0.16624470454E+03 -0.14920511300E+04  0.15021890729E+04  0.46999998093E+01 0.  1.
</event>
<event>
 5   0  0.5958706E-03  0.1111772E+04  0.7818609E-02  0.9193793E-01
        1   -1    0    0  501    0  0.00000000000E+00  0.00000000000E+00  0.16102566849E+04  0.16102566849E+04  0.50400001928E-02 0.  1.
       -1   -1    0    0    0  501  0.00000000000E+00  0.00000000000E+00 -0.19190059660E+03  0.19190059667E+03  0.50400001928E-02 0. -1.
    10030    2    1    2    0    0  0.00000000000E+00  0.00000000000E+00  0.14183560883E+04  0.18021572815E+04  0.11117719525E+04 0.  0.
        2    1    3    3  502    0 -0.28564828916E+03 -0.20937079951E+03  0.14037023708E+04  0.14476917568E+04  0.25500000920E-02 0.  1.
       -2    1    3    3    0  502  0.28564828916E+03  0.20937079951E+03  0.14653717417E+02  0.35446552473E+03  0.25500000920E-02 0. -1.
</event>
<event>
 5   0  0.5789905E-03  0.1100905E+04  0.7818609E-02  0.9204310E-01
        1   -1    0    0  501    0  0.00000000000E+00  0.00000000000E+00  0.16006919891E+04  0.16006919891E+04  0.50400001928E-02 0.  1.
       -1   -1    0    0    0  501  0.00000000000E+00  0.00000000000E+00 -0.18929190458E+03  0.18929190465E+03  0.50400001928E-02 0. -1.
    10030    2    1    2    0    0  0.00000000000E+00  0.00000000000E+00  0.14114000845E+04  0.17899838938E+04  0.11009051464E+04 0.  0.
        1    1    3    3  502    0  0.26733575947E+03  0.16490893442E+03 -0.29271040254E+02  0.31546815809E+03  0.50400001928E-02 0. -1.
       -1    1    3    3    0  502 -0.26733575947E+03 -0.16490893442E+03  0.14406711248E+04  0.14745157357E+04  0.50400001928E-02 0.  1.
</event>
<event>
 5   0  0.1028016E-02  0.1105411E+04  0.7818609E-02  0.9199934E-01
       -2   -1    0    0    0  501  0.00000000000E+00  0.00000000000E+00  0.16497383147E+03  0.16497383149E+03  0.25500000920E-02 0. -1.
        2   -1    0    0  501    0  0.00000000000E+00  0.00000000000E+00 -0.18517074200E+04  0.18517074200E+04  0.25500000920E-02 0.  1.
    10030    2    1    2    0    0  0.00000000000E+00  0.00000000000E+00 -0.16867335885E+04  0.20166812514E+04  0.11054108157E+04 0.  0.
        2    1    3    3  502    0 -0.92366353280E+02 -0.48775185219E+03 -0.40004103125E+03  0.63754704863E+03  0.25500000920E-02 0. -1.
       -2    1    3    3    0  502  0.92366353280E+02  0.48775185219E+03 -0.12866925572E+04  0.13791342028E+04  0.25500000920E-02 0.  1.
</event>
<event>
 5   0  0.9925021E-03  0.1041356E+04  0.7818609E-02  0.9264315E-01
       -2   -1    0    0    0  501  0.00000000000E+00  0.00000000000E+00  0.29551234003E+03  0.29551234004E+03  0.25500000920E-02 0. -1.
        2   -1    0    0  501    0  0.00000000000E+00  0.00000000000E+00 -0.91740787595E+03  0.91740787595E+03  0.25500000920E-02 0.  1.
    10030    2    1    2    0    0  0.00000000000E+00  0.00000000000E+00 -0.62189553591E+03  0.12129202160E+04  0.10413555554E+04 0.  0.
        4    1    3    3  502    0  0.23577074991E+03  0.45899101701E+03 -0.39200588068E+03  0.64802069689E+03  0.12699999809E+01 0.  1.
       -4    1    3    3    0  502 -0.23577074991E+03 -0.45899101701E+03 -0.22988965523E+03  0.56489951911E+03  0.12699999809E+01 0. -1.
</event>
<event>
 5   0  0.5958706E-03  0.9422501E+03  0.7818609E-02  0.9374255E-01
        1   -1    0    0  501    0  0.00000000000E+00  0.00000000000E+00  0.49738921414E+03  0.49738921416E+03  0.50400001928E-02 0. -1.
       -1   -1    0    0    0  501  0.00000000000E+00  0.00000000000E+00 -0.44624773384E+03  0.44624773387E+03  0.50400001928E-02 0.  1.
    10030    2    1    2    0    0  0.00000000000E+00  0.00000000000E+00  0.51141480293E+02  0.94363694804E+03  0.94225009350E+03 0.  0.
        2    1    3    3  502    0 -0.17531742358E+03  0.25418651920E+03 -0.33077853603E+03  0.45250571870E+03  0.25500000920E-02 0.  1.
       -2    1    3    3    0  502  0.17531742358E+03 -0.25418651920E+03  0.38192001632E+03  0.49113122933E+03  0.25500000920E-02 0. -1.
</event>
<event>
 5   0  0.3949750E-03  0.1091023E+04  0.7818609E-02  0.9213986E-01
        3   -1    0    0  501    0  0.00000000000E+00  0.00000000000E+00  0.23000399156E+03  0.23000401374E+03  0.10100000352E+00 0.  1.
       -3   -1    0    0    0  501  0.00000000000E+00  0.00000000000E+00 -0.12938159744E+04  0.12938159784E+04  0.10100000352E+00 0. -1.
    10030    2    1    2    0    0  0.00000000000E+00  0.00000000000E+00 -0.10638119828E+04  0.15238199921E+04  0.10910231132E+04 0.  0.
        3    1    3    3  502    0 -0.11882716928E+03 -0.17521477913E+03 -0.12340985736E+04  0.12521259580E+04  0.10100000352E+00 0. -1.
       -3    1    3    3    0  502  0.11882716928E+03  0.17521477913E+03  0.17028659078E+03  0.27169403413E+03  0.10100000352E+00 0.  1.
</event>
<event>
 5   0  0.5998641E-03  0.1095158E+04  0.7818609E-02  0.9209924E-01
       -1   -1    0    0    0  501  0.00000000000E+00  0.00000000000E+00  0.43685768299E+03  0.43685768302E+03  0.50400001928E-02 0. -1.
        1   -1    0    0  501    0  0.00000000000E+00  0.00000000000E+00 -0.68636208010E+03  0.68636208012E+03  0.50400001928E-02 0.  1.
    10030    2    1    2    0    0  0.00000000000E+00  0.00000000000E+00 -0.24950439711E+03  0.11232197631E+04  0.10951576106E+04 0.  0.
        3    1    3    3  502    0  0.29240928225E+03  0.46044711192E+03 -0.17423582947E+03  0.57260183871E+03  0.10100000352E+00 0.  1.
       -3    1    3    3    0  502 -0.29240928225E+03 -0.46044711192E+03 -0.75268567637E+02  0.55061792442E+03  0.10100000352E+00 0. -1.
</event>
<event>
 5   0  0.5958706E-03  0.1086592E+04  0.7818609E-02  0.9218360E-01
        1   -1    0    0  501    0  0.00000000000E+00  0.00000000000E+00  0.18591549606E+04  0.18591549606E+04  0.50400001928E-02 0. -1.
       -1   -1    0    0    0  501  0.00000000000E+00  0.00000000000E+00 -0.15876600442E+03  0.15876600450E+03  0.50400001928E-02 0.  1.
    10030    2    1    2    0    0  0.00000000000E+00  0.00000000000E+00  0.17003889561E+04  0.20179209651E+04  0.10865921126E+04 0.  0.
        2    1    3    3  502    0 -0.13309737085E+03 -0.35559910407E+03  0.12853349180E+03  0.40085719585E+03  0.25500000920E-02 0.  1.
       -2    1    3    3    0  502  0.13309737085E+03  0.35559910407E+03  0.15718554643E+04  0.16170637692E+04  0.25500000920E-02 0. -1.
</event>
<event>
 5   0  0.5712664E-03  0.9039092E+03  0.7818609E-02  0.9420708E-01
        1   -1    0    0  501    0  0.00000000000E+00  0.00000000000E+00  0.15326486904E+04  0.15326486904E+04  0.50400001928E-02 0.  1.
       -1   -1    0    0    0  501  0.00000000000E+00  0.00000000000E+00 -0.13327448379E+03  0.13327448389E+03  0.50400001928E-02 0. -1.
    10030    2    1    2    0    0  0.00000000000E+00  0.00000000000E+00  0.13993742066E+04  0.16659231743E+04  0.90390920591E+03 0.  0.
        5    1    3    3  502    0  0.21448670576E+03  0.27383745624E+03  0.16792100331E+03  0.38627846528E+03  0.46999998093E+01 0. -1.
       -5    1    3    3    0  502 -0.21448670576E+03 -0.27383745624E+03  0.12314532033E+04  0.12796447090E+04  0.46999998093E+01 0.  1.
</event>
<event>
 5   0  0.1028016E-02  0.1037748E+04  0.7818609E-02  0.9268086E-01
       -2   -1    0    0    0  501  0.00000000000E+00  0.00000000000E+00  0.63325877145E+03  0.63325877145E+03  0.25500000920E-02 0. -1.
        2   -1    0    0  501    0  0.00000000000E+00  0.00000000000E+00 -0.42515025775E+03  0.42515025776E+03  0.25500000920E-02 0.  1.
    10030    2    1    2    0    0  0.00000000000E+00  0.00000000000E+00  0.20810851370E+03  0.10584090292E+04  0.10377478112E+04 0.  0.
        2    1    3    3  502    0  0.14627011207E+03 -0.19374791477E+03  0.57176589448E+03  0.62116780201E+03  0.25500000920E-02 0. -1.
       -2    1    3    3    0  502 -0.14627011207E+03  0.19374791477E+03 -0.36365738078E+03  0.43724122720E+03  0.25500000920E-02 0.  1.
</event>
<event>
 5   0  0.9719260E-03  0.1101245E+04  0.7818609E-02  0.9203979E-01
       -2   -1    0    0    0  501  0.00000000000E+00  0.00000000000E+00  0.39144129337E+03  0.39144129337E+03  0.25500000920E-02 0. -1.
        2   -1    0    0  501    0  0.00000000000E+00  0.00000000000E+00 -0.77453547281E+03  0.77453547282E+03  0.25500000920E-02 0.  1.
    10030    2    1    2    0    0  0.00000000000E+00  0.00000000000E+00 -0.38309417945E+03  0.11659767662E+04  0.11012450540E+04 0.  0.
        3    1    3    3  502    0 -0.29839312681E+03  0.80037659855E+02  0.29102999073E+03  0.42443250444E+03  0.10100000352E+00 0. -1.
       -3    1    3    3    0  502  0.29839312681E+03 -0.80037659855E+02 -0.67412417017E+03  0.74154426175E+03  0.10100000352E+00 0.  1.
</event>
<event>
 5   0  0.1028016E-02  0.1166538E+04  0.7818609E-02  0.9142661E-01
       -2   -1    0    0    0  501  0.00000000000E+00  0.00000000000E+00  0.16283045820E+03  0.16283045822E+03  0.25500000920E-02 0.  1.
        2   -1    0    0  501    0  0.00000000000E+00  0.00000000000E+00 -0.20893059800E+04  0.20893059800E+04  0.25500000920E-02 0. -1.
    10030    2    1    2    0    0  0.00000000000E+00  0.00000000000E+00 -0.19264755218E+04  0.22521364382E+04  0.11665378692E+04 0.  0.
        2    1    3    3  502    0 -0.28278153627E+03 -0.49061998551E+03 -0.69343959029E+03  0.89528310205E+03  0.25500000920E-02 0.  1.
       -2    1    3    3    0  502  0.28278153627E+03  0.49061998551E+03 -0.12330359315E+04  0.13568533361E+04  0.25500000920E-02 0. -1.
</event>
<event>
 5   0  0.5998641E-03  0.5910891E+03  0.7818609E-02  0.9924068E-01
        1   -1    0    0  501    0  0.00000000000E+00  0.00000000000E+00  0.22433846301E+03  0.22433846307E+03  0.50400001928E-02 0. -1.
       -1   -1    0    0    0  501  0.00000000000E+00  0.00000000000E+00 -0.38935174213E+03  0.38935174217E+03  0.50400001928E-02 0.  1.
    10030    2    1    2    0    0  0.00000000000E+00  0.00000000000E+00 -0.16501327912E+03  0.61369020523E+03  0.59108906749E+03 0.  0.
        3    1    3    3  502    0  0.14968232445E+03 -0.14507144021E+03 -0.30003151938E+03  0.36533470112E+03  0.10100000352E+00 0.  1.
       -3    1    3    3    0  502 -0.14968232445E+03  0.14507144021E+03  0.13501824026E+03  0.24835550411E+03  0.10100000352E+00 0. -1.
</event>
<event>
 5   0  0.5712664E-03  0.1094791E+04  0.7818609E-02  0.9210284E-01
        1   -1    0    0  501    0  0.00000000000E+00  0.00000000000E+00  0.50377716154E+03  0.50377716157E+03  0.50400001928E-02 0.  1.
       -1   -1    0    0    0  501  0.00000000000E+00  0.00000000000E+00 -0.59478998270E+03  0.59478998272E+03  0.50400001928E-02 0. -1.
    10030    2    1    2    0    0  0.00000000000E+00  0.00000000000E+00 -0.91012821161E+02  0.10985671443E+04  0.10947905904E+04 0.  0.
        5    1    3    3  502    0  0.14470326262E+03 -0.17289235447E+03  0.45500143763E+03  0.50781807637E+03  0.46999998093E+01 0.  1.
       -5    1    3    3    0  502 -0.14470326262E+03  0.17289235447E+03 -0.54601425879E+03  0.59074906792E+03  0.46999998093E+01 0. -1.
</event>
<event>
 5   0  0.9719260E-03  0.1041756E+04  0.7818609E-02  0.9263897E-01
        2   -1    0    0  501    0  0.00000000000E+00  0.00000000000E+00  0.40840408614E+03  0.40840408614E+03  0.25500000920E-02 0. -1.
       -2   -1    0    0    0  501  0.00000000000E+00  0.00000000000E+00 -0.66432741671E+03  0.66432741671E+03  0.25500000920E-02 0.  1.
    10030    2    1    2    0    0  0.00000000000E+00  0.00000000000E+00 -0.25592333057E+03  0.10727315029E+04  0.10417562700E+04 0.  0.
        3    1    3    3  502    0 -0.15106917211E+03 -0.46969234014E+03  0.43979906754E+02  0.49534536593E+03  0.10100000352E+00 0. -1.
       -3    1    3    3    0  502  0.15106917211E+03  0.46969234014E+03 -0.29990323733E+03  0.57738613692E+03  0.10100000352E+00 0.  1.
</event>
<event>
 5   0  0.5712664E-03  0.1123440E+04  0.7818609E-02  0.9182642E-01
       -1   -1    0    0    0  501  0.00000000000E+00  0.00000000000E+00  0.16247026911E+03  0.16247026919E+03  0.50400001928E-02 0.  1.
        1   -1    0    0  501    0  0.00000000000E+00  0.00000000000E+00 -0.19420747088E+04  0.19420747088E+04  0.50400001928E-02 0. -1.
    10030    2    1    2    0    0  0.00000000000E+00  0.00000000000E+00 -0.17796044397E+04  0.21045449780E+04  0.11234400752E+04 0.  0.
        5    1    3    3  502    0 -0.47169263018E+03 -0.16924807060E+03 -0.13650771126E+04  0.14541652107E+04  0.46999998093E+01 0. -1.
       -5    1    3    3    0  502  0.47169263018E+03  0.16924807060E+03 -0.41452732710E+03  0.65037976727E+03  0.46999998093E+01 0.  1.
</event>
<event>
 5   0  0.5958706E-03  0.1105843E+04  0.7818609E-02  0.9199516E-01
        1   -1    0    0  501    0  0.00000000000E+00  0.00000000000E+00  0.20823894760E+04  0.20823894760E+04  0.50400001928E-02 0.  1.
       -1   -1    0    0    0  501  0.00000000000E+00  0.00000000000E+00 -0.14681316353E+03  0.14681316362E+03  0.50400001928E-02 0. -1.
    10030    2    1    2    0    0  0.00000000000E+00  0.00000000000E+00  0.19355763125E+04  0.22292026396E+04  0.11058430029E+04 0.  0.
        2    1    3    3  502    0  0.40782934570E+02  0.44792988399E+03  0.16160547371E+04  0.16774794610E+04  0.25500000920E-02 0. -1.
       -2    1    3    3    0  502 -0.40782934570E+02 -0.44792988399E+03  0.31952157541E+03  0.55172317867E+03  0.25500000920E-02 0.  1.
</event>
<event>
 5   0  0.9692981E-03  0.1107654E+04  0.7818609E-02  0.9197764E-01
       -2   -1    0    0    0  501  0.00000000000E+00  0.00000000000E+00  0.14879157254E+03  0.14879157256E+03  0.25500000920E-02 0.  1.
        2   -1    0    0  501    0  0.00000000000E+00  0.00000000000E+00 -0.20614344896E+04  0.20614344896E+04  0.25500000920E-02 0. -1.
    10030    2    1    2    0    0  0.00000000000E+00  0.00000000000E+00 -0.19126429171E+04  0.22102260622E+04  0.11076535188E+04 0.  0.
        5    1    3    3  502    0  0.51342669474E+03  0.20049311496E+03 -0.84891097045E+03  0.10121642089E+04  0.46999998093E+01 0.  1.
       -5    1    3    3    0  502 -0.51342669474E+03 -0.20049311496E+03 -0.10637319466E+04  0.11980618533E+04  0.46999998093E+01 0. -1.
</event>
<event>
 5   0  0.5789905E-03  0.1100339E+04  0.7818609E-02  0.9204862E-01
       -1   -1    0    0    0  501  0.00000000000E+00  0.00000000000E+00  0.28318667385E+03  0.28318667389E+03  0.50400001928E-02 0. -1.
        1   -1    0    0  501    0  0.00000000000E+00  0.00000000000E+00 -0.10688577455E+04  0.10688577455E+04  0.50400001928E-02 0.  1.
    10030    2    1    2    0    0  0.00000000000E+00  0.00000000000E+00 -0.78567107162E+03  0.13520444194E+04  0.11003386202E+04 0.  0.
        1    1    3    3  502    0 -0.49669333853E+02 -0.37435192658E+03 -0.88445939810E+03  0.96170413047E+03  0.50400001928E-02 0. -1.
       -1    1    3    3    0  502  0.49669333853E+02  0.37435192658E+03  0.98788326479E+02  0.39034028889E+03  0.50400001928E-02 0.  1.
</event>
<event>
 5   0  0.9719260E-03  0.1014610E+04  0.7818609E-02  0.9292664E-01
        2   -1    0    0  501    0  0.00000000000E+00  0.00000000000E+00  0.33260537470E+03  0.33260537471E+03  0.25500000920E-02 0.  1.
       -2   -1    0    0    0  501  0.00000000000E+00  0.00000000000E+00 -0.77376484160E+03  0.77376484160E+03  0.25500000920E-02 0. -1.
    10030    2    1    2    0    0  0.00000000000E+00  0.00000000000E+00 -0.44115946690E+03  0.11063702163E+04  0.10146099646E+04 0.  0.
        3    1    3    3  502    0  0.33448019284E+03 -0.51580784453E+02 -0.63267442466E+03  0.71750575924E+03  0.10100000352E+00 0. -1.
       -3    1    3    3    0  502 -0.33448019284E+03  0.51580784453E+02  0.19151495776E+03  0.38886445707E+03  0.10100000352E+00 0.  1.
</event>
<event>
 5   0  0.1019384E-02  0.1065656E+04  0.7818609E-02  0.9239328E-01
       -2   -1    0    0    0  501  0.00000000000E+00  0.00000000000E+00  0.40896249599E+03  0.40896249600E+03  0.25500000920E-02 0. -1.
        2   -1    0    0  501    0  0.00000000000E+00  0.00000000000E+00 -0.69420997137E+03  0.69420997138E+03  0.25500000920E-02 0.  1.
    10030    2    1    2    0    0  0.00000000000E+00  0.00000000000E+00 -0.28524747539E+03  0.11031724674E+04  0.10656563098E+04 0.  0.
        1    1    3    3  502    0 -0.26461353295E+02 -0.83099374494E+01 -0.69346218806E+03  0.69401661693E+03  0.50400001928E-02 0.  1.
       -1    1    3    3    0  502  0.26461353295E+02  0.83099374494E+01  0.40821471268E+03  0.40915585044E+03  0.50400001928E-02 0. -1.
</event>
<event>
 5   0  0.9719260E-03  0.1093177E+04  0.7818609E-02  0.9211868E-01
       -2   -1    0    0    0  501  0.00000000000E+00  0.00000000000E+00  0.45861084220E+03  0.45861084221E+03  0.25500000920E-02 0.  1.
        2   -1    0    0  501    0  0.00000000000E+00  0.00000000000E+00 -0.65144321656E+03  0.65144321657E+03  0.25500000920E-02 0. -1.
    10030    2    1    2    0    0  0.00000000000E+00  0.00000000000E+00 -0.19283237436E+03  0.11100540588E+04  0.10931768790E+04 0.  0.
        3    1    3    3  502    0 -0.29449674849E+03 -0.36929757378E+03  0.18287537209E+03  0.50651006385E+03  0.10100000352E+00 0.  1.
       -3    1    3    3    0  502  0.29449674849E+03  0.36929757378E+03 -0.37570774644E+03  0.60354399492E+03  0.10100000352E+00 0. -1.
</event>
<event>
 5   0  0.3949750E-03  0.5862774E+03  0.7818609E-02  0.9934292E-01
        4   -1    0    0  501    0  0.00000000000E+00  0.00000000000E+00  0.11570705881E+03  0.11571402835E+03  0.12699999809E+01 0. -1.
       -4   -1    0    0    0  501  0.00000000000E+00  0.00000000000E+00 -0.74262408897E+03  0.74262517492E+03  0.12699999809E+01 0.  1.
    10030    2    1    2    0    0  0.00000000000E+00  0.00000000000E+00 -0.62691703016E+03  0.85833920327E+03  0.58627743020E+03 0.  0.
        4    1    3    3  502    0  0.25897053474E+03 -0.13539675758E+03 -0.34718487724E+03  0.45380278945E+03  0.12699999809E+01 0.  1.
       -4    1    3    3    0  502 -0.25897053474E+03  0.13539675758E+03 -0.27973215292E+03  0.40453641382E+03  0.12699999809E+01 0. -1.
</event>
<event>
 5   0  0.9925021E-03  0.1095736E+04  0.7818609E-02  0.9209358E-01
       -2   -1    0    0    0  501  0.00000000000E+00  0.00000000000E+00  0.21431918174E+03  0.21431918175E+03  0.25500000920E-02 0.  1.
        2   -1    0    0  501    0  0.00000000000E+00  0.00000000000E+00 -0.14005253753E+04  0.14005253753E+04  0.25500000920E-02 0. -1.
    10030    2    1    2    0    0  0.00000000000E+00  0.00000000000E+00 -0.11862061936E+04  0.16148445571E+04  0.10957361954E+04 0.  0.
        4    1    3    3  502    0  0.39924369539E+03 -0.34379139378E+03 -0.37169756688E+03  0.64478581318E+03  0.12699999809E+01 0.  1.
       -4    1    3    3    0  502 -0.39924369539E+03  0.34379139378E+03 -0.81450862669E+03  0.97005874389E+03  0.12699999809E+01 0. -1.
</event>
<event>
 5   0  0.5712664E-03  0.9231375E+03  0.7818609E-02  0.9397112E-01
       -1   -1    0    0    0  501  0.00000000000E+00  0.00000000000E+00  0.17672314622E+03  0.17672314629E+03  0.50400001928E-02 0. -1.
        1   -1    0    0  501    0  0.00000000000E+00  0.00000000000E+00 -0.12055336251E+04  0.12055336251E+04  0.50400001928E-02 0.  1.
    10030    2    1    2    0    0  0.00000000000E+00  0.00000000000E+00 -0.10288104789E+04  0.13822567714E+04  0.92313746573E+03 0.  0.
        5    1    3    3  502    0 -0.32577657249E+02  0.35393340080E+03 -0.73530221860E+02  0.36298614227E+03  0.46999998093E+01 0. -1.
       -5    1    3    3    0  502  0.32577657249E+02 -0.35393340080E+03 -0.95528025704E+03  0.10192706291E+04  0.46999998093E+01 0.  1.
</event>
<event>
 5   0  0.9692981E-03  0.1091079E+04  0.7818609E-02  0.9213931E-01
       -2   -1    0    0    0  501  0.00000000000E+00  0.00000000000E+00  0.18954733395E+03  0.18954733397E+03  0.25500000920E-02 0. -1.
        2   -1    0    0  501    0  0.00000000000E+00  0.00000000000E+00 -0.15701265081E+04  0.15701265081E+04  0.25500000920E-02 0.  1.
    10030    2    1    2    0    0  0.00000000000E+00  0.00000000000E+00 -0.13805791741E+04  0.17596738421E+04  0.10910789038E+04 0.  0.
        5    1    3    3  502    0  0.49136909670E+02  0.29723965008E+03  0.43172908827E+02  0.30438764024E+03  0.46999998093E+01 0. -1.
       -5    1    3    3    0  502 -0.49136909670E+02 -0.29723965008E+03 -0.14237520830E+04  0.14552862018E+04  0.46999998093E+01 0.  1.
</event>
<event>
 5   0  0.3949750E-03  0.1143693E+04  0.7818609E-02  0.9163622E-01
        3   -1    0    0  501    0  0.00000000000E+00  0.00000000000E+00  0.41285520975E+03  0.41285522211E+03  0.10100000352E+00 0.  1.
       -3   -1    0    0    0  501  0.00000000000E+00  0.00000000000E+00 -0.79206518877E+03  0.79206519521E+03  0.10100000352E+00 0. -1.
    10030    2    1    2    0    0  0.00000000000E+00  0.00000000000E+00 -0.37920997902E+03  0.12049204173E+04  0.11436927052E+04 0.  0.
        4    1    3    3  502    0  0.38619824030E+03  0.38192076514E+03 -0.37804966427E+03  0.66176711403E+03  0.12699999809E+01 0. -1.
       -4    1    3    3    0  502 -0.38619824030E+03 -0.38192076514E+03 -0.11603147473E+01  0.54315330330E+03  0.12699999809E+01 0.  1.
</event>
<event>
 5   0  0.3949750E-03  0.1093238E+04  0.7818609E-02  0.9211807E-01
        3   -1    0    0  501    0  0.00000000000E+00  0.00000000000E+00  0.77727101542E+03  0.77727102199E+03  0.10100000352E+00 0.  1.
       -3   -1    0    0    0  501  0.00000000000E+00  0.00000000000E+00 -0.38441234398E+03  0.38441235725E+03  0.10100000352E+00 0. -1.
    10030    2    1    2    0    0  0.00000000000E+00  0.00000000000E+00  0.39285867145E+03  0.11616833792E+04  0.10932384634E+04 0.  0.
        1    1    3    3  502    0  0.33660314529E+03  0.12276490714E+03 -0.24223542870E+03  0.43249381821E+03  0.50400001928E-02 0. -1.
       -1    1    3    3    0  502 -0.33660314529E+03 -0.12276490714E+03  0.63509410014E+03  0.72918956103E+03  0.50400001928E-02 0.  1.
</event>
<event>
 5   0  0.5712664E-03  0.1129388E+04  0.7818609E-02  0.9177012E-01
       -1   -1    0    0    0  501  0.00000000000E+00  0.00000000000E+00  0.37833543987E+03  0.37833543991E+03  0.50400001928E-02 0. -1.
        1   -1    0    0  501    0  0.00000000000E+00  0.00000000000E+00 -0.84284838632E+03  0.84284838633E+03  0.50400001928E-02 0.  1.
    10030    2    1    2    0    0  0.00000000000E+00  0.00000000000E+00 -0.46451294644E+03  0.12211838262E+04  0.11293881795E+04 0.  0.
        5    1    3    3  502    0  0.38001094965E+03  0.14799147083E+03  0.19006230497E+03  0.44995062736E+03  0.46999998093E+01 0. -1.
       -5    1    3    3    0  502 -0.38001094965E+03 -0.14799147083E+03 -0.65457525141E+03  0.77123319888E+03  0.46999998093E+01 0.  1.
</event>
<event>
 5   0  0.3949750E-03  0.1093738E+04  0.7818609E-02  0.9211317E-01
        4   -1    0    0  501    0  0.00000000000E+00  0.00000000000E+00  0.11381482846E+04  0.11381489931E+04  0.12699999809E+01 0.  1.
       -4   -1    0    0    0  501  0.00000000000E+00  0.00000000000E+00 -0.26276263445E+03  0.26276570355E+03  0.12699999809E+01 0. -1.
    10030    2    1    2    0    0  0.00000000000E+00  0.00000000000E+00  0.87538565013E+03  0.14009146967E+04  0.10937376061E+04 0.  0.
        1    1    3    3  502    0 -0.19778692687E+03 -0.50127438147E+03  0.31843045639E+03  0.62593420544E+03  0.50400001928E-02 0. -1.
       -1    1    3    3    0  502  0.19778692687E+03  0.50127438147E+03  0.55695519374E+03  0.77498049125E+03  0.50400001928E-02 0.  1.
</event>
<event>
 5   0  0.5998641E-03  0.1096836E+04  0.7818609E-02  0.9208281E-01
       -1   -1    0    0    0  501  0.00000000000E+00  0.00000000000E+00  0.25171060470E+03  0.25171060475E+03  0.50400001928E-02 0. -1.
        1   -1    0    0  501    0  0.00000000000E+00  0.00000000000E+00 -0.11948734231E+04  0.11948734231E+04  0.50400001928E-02 0.  1.
    10030    2    1    2    0    0  0.00000000000E+00  0.00000000000E+00 -0.94316281836E+03  0.14465840278E+04  0.10968360167E+04 0.  0.
        3    1    3    3  502    0  0.32287467405E+03  0.17313364630E+03 -0.10098015210E+04  0.10742078182E+04  0.10100000352E+00 0.  1.
       -3    1    3    3    0  502 -0.32287467405E+03 -0.17313364630E+03  0.66638702636E+02  0.37237620965E+03  0.10100000352E+00 0. -1.
</event>
<event>
 5   0  0.5712664E-03  0.1155680E+04  0.7818609E-02  0.9152559E-01
        1   -1    0    0  501    0  0.00000000000E+00  0.00000000000E+00  0.59685041762E+03  0.59685041765E+03  0.50400001928E-02 0. -1.
       -1   -1    0    0    0  501  0.00000000000E+00  0.00000000000E+00 -0.55943552747E+03  0.55943552750E+03  0.50400001928E-02 0.  1.
    10030    2    1    2    0    0  0.00000000000E+00  0.00000000000E+00  0.37414890151E+02  0.11562859451E+04  0.11556804545E+04 0.  0.
        5    1    3    3  502    0 -0.43441003816E+03  0.73259821748E+01 -0.36242715327E+03  0.56581028861E+03  0.46999998093E+01 0.  1.
       -5    1    3    3    0  502  0.43441003816E+03 -0.73259821748E+01  0.39984204342E+03  0.59047565653E+03  0.46999998093E+01 0. -1.
</event>
<event>
 5   0  0.9692981E-03  0.1118120E+04  0.7818609E-02  0.9187709E-01
       -2   -1    0    0    0  501  0.00000000000E+00  0.00000000000E+00  0.21356909111E+03  0.21356909112E+03  0.25500000920E-02 0.  1.
        2   -1    0    0  501    0  0.00000000000E+00  0.00000000000E+00 -0.14634507959E+04  0.14634507959E+04  0.25500000920E-02 0. -1.
    10030    2    1    2    0    0  0.00000000000E+00  0.00000000000E+00 -0.12498817048E+04  0.16770198870E+04  0.11181195936E+04 0.  0.
        5    1    3    3  502    0  0.65768113886E+02 -0.38491399062E+03 -0.24920036014E+02  0.39131486449E+03  0.46999998093E+01 0. -1.
       -5    1    3    3    0  502 -0.65768113886E+02  0.38491399062E+03 -0.12249616688E+04  0.12857050226E+04  0.46999998093E+01 0.  1.
</event>
<event>
 5   0  0.5789905E-03  0.9697322E+03  0.7818609E-02  0.9342379E-01
        1   -1    0    0  501    0  0.00000000000E+00  0.00000000000E+00  0.15239909454E+04  0.15239909454E+04  0.50400001928E-02 0. -1.
       -1   -1    0    0    0  501  0.00000000000E+00  0.00000000000E+00 -0.15426281765E+03  0.15426281773E+03  0.50400001928E-02 0.  1.
    10030    2    1    2    0    0  0.00000000000E+00  0.00000000000E+00  0.13697281278E+04  0.16782537632E+04  0.96973220508E+03 0.  0.
        1    1    3    3  502    0  0.46172963566E+03 -0.12465713221E+03  0.54683043540E+03  0.72646898224E+03  0.50400001928E-02 0.  1.
       -1    1    3    3    0  502 -0.46172963566E+03  0.12465713221E+03  0.82289769239E+03  0.95178478094E+03  0.50400001928E-02 0. -1.
</event>
<event>
 5   0  0.5712664E-03  0.1103572E+04  0.7818609E-02  0.9201717E-01
       -1   -1    0    0    0  501  0.00000000000E+00  0.00000000000E+00  0.43609946148E+03  0.43609946151E+03  0.50400001928E-02 0. -1.
        1   -1    0    0  501    0  0.00000000000E+00  0.00000000000E+00 -0.69816185095E+03  0.69816185097E+03  0.50400001928E-02 0.  1.
    10030    2    1    2    0    0  0.00000000000E+00  0.00000000000E+00 -0.26206238947E+03  0.11342613125E+04  0.11035723941E+04 0.  0.
        5    1    3    3  502    0  0.49821333169E+03  0.15042847249E+03 -0.31943351514E+03  0.61065956948E+03  0.46999998093E+01 0.  1.
       -5    1    3    3    0  502 -0.49821333169E+03 -0.15042847249E+03  0.57371125671E+02  0.52360174299E+03  0.46999998093E+01 0. -1.
</event>
<event>
 5   0  0.5854579E-03  0.1276908E+04  0.7818609E-02  0.9048080E-01
       -1   -1    0    0    0  501  0.00000000000E+00  0.00000000000E+00  0.31823936626E+03  0.31823936630E+03  0.50400001928E-02 0. -1.
        1   -1    0    0  501    0  0.00000000000E+00  0.00000000000E+00 -0.12808711242E+04  0.12808711242E+04  0.50400001928E-02 0.  1.
    10030    2    1    2    0    0  0.00000000000E+00  0.00000000000E+00 -0.96263175794E+03  0.15991104905E+04  0.12769081641E+04 0.  0.
        4    1    3    3  502    0  0.39116274801E+03  0.21268756202E+03  0.91722921213E+02  0.45459762608E+03  0.12699999809E+01 0. -1.
       -4    1    3    3    0  502 -0.39116274801E+03 -0.21268756202E+03 -0.10543546792E+04  0.11445128644E+04  0.12699999809E+01 0.  1.
</event>
<event>
 5   0  0.5958706E-03  0.1107339E+04  0.7818609E-02  0.9198068E-01
        1   -1    0    0  501    0  0.00000000000E+00  0.00000000000E+00  0.85874117971E+03  0.85874117972E+03  0.50400001928E-02 0.  1.
       -1   -1    0    0    0  501  0.00000000000E+00  0.00000000000E+00 -0.35697609821E+03  0.35697609825E+03  0.50400001928E-02 0. -1.
    10030    2    1    2    0    0  0.00000000000E+00  0.00000000000E+00  0.50176508149E+03  0.12157172780E+04  0.11073392899E+04 0.  0.
        2    1    3    3  502    0 -0.26545172489E+03  0.47606565864E+03  0.14417438858E+03  0.56381679995E+03  0.25500000920E-02 0. -1.
       -2    1    3    3    0  502  0.26545172489E+03 -0.47606565864E+03  0.35759069291E+03  0.65190047802E+03  0.25500000920E-02 0.  1.
</event>
<event>
 5   0  0.1028016E-02  0.1132602E+04  0.7818609E-02  0.9173986E-01
       -2   -1    0    0    0  501  0.00000000000E+00  0.00000000000E+00  0.93584671305E+02  0.93584671340E+02  0.25500000920E-02 0.  1.
        2   -1    0    0  501    0  0.00000000000E+00  0.00000000000E+00 -0.34268091411E+04  0.34268091411E+04  0.25500000920E-02 0. -1.
    10030    2    1    2    0    0  0.00000000000E+00  0.00000000000E+00 -0.33332244698E+04  0.35203938124E+04  0.11326019727E+04 0.  0.
        2    1    3    3  502    0  0.36762882132E+03 -0.31294271270E+03 -0.25866327377E+04  0.26313025313E+04  0.25500000920E-02 0. -1.
       -2    1    3    3    0  502 -0.36762882132E+03  0.31294271270E+03 -0.74659173211E+03  0.88909128112E+03  0.25500000920E-02 0.  1.
</event>
<event>
 5   0  0.9719260E-03  0.1070731E+04  0.7818609E-02  0.9234198E-01
       -2   -1    0    0    0  501  0.00000000000E+00  0.00000000000E+00  0.17847587661E+03  0.17847587663E+03  0.25500000920E-02 0.  1.
        2   -1    0    0  501    0  0.00000000000E+00  0.00000000000E+00 -0.16059105795E+04  0.16059105795E+04  0.25500000920E-02 0. -1.
    10030    2    1    2    0    0  0.00000000000E+00  0.00000000000E+00 -0.14274347028E+04  0.17843864561E+04  0.10707311492E+04 0.  0.
        3    1    3    3  502    0 -0.16873823528E+03  0.83563158676E+02 -0.15489058246E+04  0.15603091544E+04  0.10100000352E+00 0. -1.
       -3    1    3    3    0  502  0.16873823528E+03 -0.83563158676E+02  0.12147112175E+03  0.22407730173E+03  0.10100000352E+00 0.  1.
</event>
<event>
 5   0  0.9925021E-03  0.1088369E+04  0.7818609E-02  0.9216603E-01
        2   -1    0    0  501    0  0.00000000000E+00  0.00000000000E+00  0.12668099648E+04  0.12668099648E+04  0.25500000920E-02 0.  1.
       -2   -1    0    0    0  501  0.00000000000E+00  0.00000000000E+00 -0.23376577288E+03  0.23376577289E+03  0.25500000920E-02 0. -1.
    10030    2    1    2    0    0  0.00000000000E+00  0.00000000000E+00  0.10330441919E+04  0.15005757377E+04  0.10883690744E+04 0.  0.
        4    1    3    3  502    0 -0.21959598728E+03 -0.36260729268E+03  0.98697033480E+03  0.10741594393E+04  0.12699999809E+01 0.  1.
       -4    1    3    3    0  502  0.21959598728E+03  0.36260729268E+03  0.46073857106E+02  0.42641629840E+03  0.12699999809E+01 0. -1.
</event>
<event>
 5   0  0.5998641E-03  0.1140998E+04  0.7818609E-02  0.9166129E-01
        1   -1    0    0  501    0  0.00000000000E+00  0.00000000000E+00  0.46133978702E+03  0.46133978705E+03  0.50400001928E-02 0.  1.
       -1   -1    0    0    0  501  0.00000000000E+00  0.00000000000E+00 -0.70548677863E+03  0.70548677864E+03  0.50400001928E-02 0. -1.
    10030    2    1    2    0    0  0.00000000000E+00  0.00000000000E+00 -0.24414699161E+03  0.11668265657E+04  0.11409980197E+04 0.  0.
        3    1    3    3  502    0  0.15142284052E+03  0.46521031226E+03  0.17803094127E+03  0.52061937873E+03  0.10100000352E+00 0.  1.
       -3    1    3    3    0  502 -0.15142284052E+03 -0.46521031226E+03 -0.42217793288E+03  0.64620718696E+03  0.10100000352E+00 0. -1.
</event>
<event>
 5   0  0.1019384E-02  0.8807465E+03  0.7818609E-02  0.9449975E-01
       -2   -1    0    0    0  501  0.00000000000E+00  0.00000000000E+00  0.27235464258E+03  0.27235464259E+03  0.25500000920E-02 0.  1.
        2   -1    0    0  501    0  0.00000000000E+00  0.00000000000E+00 -0.71204437180E+03  0.71204437180E+03  0.25500000920E-02 0. -1.
    10030    2    1    2    0    0  0.00000000000E+00  0.00000000000E+00 -0.43968972922E+03  0.98439901439E+03  0.88074647973E+03 0.  0.
        1    1    3    3  502    0  0.19735156955E+03  0.26734542797E+03 -0.54283009156E+03  0.63646345393E+03  0.50400001928E-02 0.  1.
       -1    1    3    3    0  502 -0.19735156955E+03 -0.26734542797E+03  0.10314036234E+03  0.34793556046E+03  0.50400001928E-02 0. -1.
</event>
<event>
 5   0  0.9692981E-03  0.1073957E+04  0.7818609E-02  0.9230953E-01
        2   -1    0    0  501    0  0.00000000000E+00  0.00000000000E+00  0.98069255545E+03  0.98069255546E+03  0.25500000920E-02 0. -1.
       -2   -1    0    0    0  501  0.00000000000E+00  0.00000000000E+00 -0.29402294211E+03  0.29402294212E+03  0.25500000920E-02 0.  1.
    10030    2    1    2    0    0  0.00000000000E+00  0.00000000000E+00  0.68666961334E+03  0.12747154976E+04  0.10739573743E+04 0.  0.
        5    1    3    3  502    0 -0.17978014110E+03  0.21806255252E+03 -0.19857759833E+03  0.34543787937E+03  0.46999998093E+01 0.  1.
       -5    1    3    3    0  502  0.17978014110E+03 -0.21806255252E+03  0.88524721167E+03  0.92927761821E+03  0.46999998093E+01 0. -1.
</event>
<event>
 5   0  0.5854579E-03  0.1100634E+04  0.7818609E-02  0.9204574E-01
       -1   -1    0    0    0  501  0.00000000000E+00  0.00000000000E+00  0.24883427438E+03  0.24883427443E+03  0.50400001928E-02 0. -1.
        1   -1    0    0  501    0  0.00000000000E+00  0.00000000000E+00 -0.12170702228E+04  0.12170702228E+04  0.50400001928E-02 0.  1.
    10030    2    1    2    0    0  0.00000000000E+00  0.00000000000E+00 -0.96823594845E+03  0.14659044973E+04  0.11006339733E+04 0.  0.
        4    1    3    3  502    0 -0.22300502300E+03 -0.42555534661E+03 -0.84154306735E+03  0.96903299243E+03  0.12699999809E+01 0.  1.
       -4    1    3    3    0  502  0.22300502300E+03  0.42555534661E+03 -0.12669288110E+03  0.49687150485E+03  0.12699999809E+01 0. -1.
</event>
<event>
 5   0  0.5958706E-03  0.1095838E+04  0.7818609E-02  0.9209258E-01
       -1   -1    0    0    0  501  0.00000000000E+00  0.00000000000E+00  0.74399107111E+03  0.74399107113E+03  0.50400001928E-02 0.  1.
        1   -1    0    0  501    0  0.00000000000E+00  0.00000000000E+00 -0.40352012514E+03  0.40352012517E+03  0.50400001928E-02 0. -1.
    10030    2    1    2    0    0  0.00000000000E+00  0.00000000000E+00  0.34047094597E+03  0.11475111963E+04  0.10958382548E+04 0.  0.
        2    1    3    3  502    0  0.23410182912E+03  0.28854080386E+03 -0.25143856519E+03  0.44864330370E+03  0.25500000920E-02 0. -1.
       -2    1    3    3    0  502 -0.23410182912E+03 -0.28854080386E+03  0.59190951116E+03  0.69886789259E+03  0.25500000920E-02 0.  1.
</event>
<event>
 5   0  0.5958706E-03  0.1079299E+04  0.7818609E-02  0.9225606E-01
       -1   -1    0    0    0  501  0.00000000000E+00  0.00000000000E+00  0.43661459461E+03  0.43661459464E+03  0.50400001928E-02 0. -1.
        1   -1    0    0  501    0  0.00000000000E+00  0.00000000000E+00 -0.66699951306E+03  0.66699951308E+03  0.50400001928E-02 0.  1.
    10030    2    1    2    0    0  0.00000000000E+00  0.00000000000E+00 -0.23038491845E+03  0.11036141077E+04  0.10792992579E+04 0.  0.
        2    1    3    3  502    0 -0.25408654389E+03 -0.45738272306E+03 -0.25031638095E+03  0.58001484267E+03  0.25500000920E-02 0.  1.
       -2    1    3    3    0  502  0.25408654389E+03  0.45738272306E+03  0.19931462498E+02  0.52359926504E+03  0.25500000920E-02 0. -1.
</event>
<event>
 5   0  0.5998641E-03  0.1093091E+04  0.7818609E-02  0.9211952E-01
       -1   -1    0    0    0  501  0.00000000000E+00  0.00000000000E+00  0.23372127148E+03  0.23372127154E+03  0.50400001928E-02 0.  1.
        1   -1    0    0  501    0  0.00000000000E+00  0.00000000000E+00 -0.12780701768E+04  0.12780701768E+04  0.50400001928E-02 0. -1.
    10030    2    1    2    0    0  0.00000000000E+00  0.00000000000E+00 -0.10443489053E+04  0.15117914483E+04  0.10930913719E+04 0.  0.
        3    1    3    3  502    0 -0.80908128683E+02 -0.39478086537E+03 -0.10328038803E+04  0.11086396720E+04  0.10100000352E+00 0.  1.
       -3    1    3    3    0  502  0.80908128683E+02  0.39478086537E+03 -0.11545024980E+02  0.40315177632E+03  0.10100000352E+00 0. -1.
</event>
<event>
 5   0  0.5958706E-03  0.1113284E+04  0.7818609E-02  0.9192341E-01
       -1   -1    0    0    0  501  0.00000000000E+00  0.00000000000E+00  0.59571199854E+03  0.59571199856E+03  0.50400001928E-02 0. -1.
        1   -1    0    0  501    0  0.00000000000E+00  0.00000000000E+00 -0.52013407424E+03  0.52013407426E+03  0.50400001928E-02 0.  1.
    10030    2    1    2    0    0  0.00000000000E+00  0.00000000000E+00  0.75577924305E+02  0.11158460728E+04  0.11132836277E+04 0.  0.
        2    1    3    3  502    0  0.45241892056E+03  0.27236351158E+03  0.21422067384E+03  0.56987302026E+03  0.25500000920E-02 0. -1.
       -2    1    3    3    0  502 -0.45241892056E+03 -0.27236351158E+03 -0.13864274954E+03  0.54597305256E+03  0.25500000920E-02 0.  1.
</event>
<event>
 5   0  0.1028016E-02  0.1144495E+04  0.7818609E-02  0.9162877E-01
        2   -1    0    0  501    0  0.00000000000E+00  0.00000000000E+00  0.20456362991E+04  0.20456362991E+04  0.25500000920E-02 0. -1.
       -2   -1    0    0    0  501  0.00000000000E+00  0.00000000000E+00 -0.16008088713E+03  0.16008088715E+03  0.25500000920E-02 0.  1.
    10030    2    1    2    0    0  0.00000000000E+00  0.00000000000E+00  0.18855554120E+04  0.22057171863E+04  0.11444951263E+04 0.  0.
        2    1    3    3  502    0  0.29501370107E+03 -0.11026393078E+02 -0.19880819538E+01  0.29522638371E+03  0.25500000920E-02 0.  1.
       -2    1    3    3    0  502 -0.29501370107E+03  0.11026393078E+02  0.18875434939E+04  0.19104908026E+04  0.25500000920E-02 0. -1.
</event>
<event>
 5   0  0.1028016E-02  0.1077942E+04  0.7818609E-02  0.9226962E-01
        2   -1    0    0  501    0  0.00000000000E+00  0.00000000000E+00  0.10154902016E+04  0.10154902016E+04  0.25500000920E-02 0. -1.
       -2   -1    0    0    0  501  0.00000000000E+00  0.00000000000E+00 -0.28605840487E+03  0.28605840488E+03  0.25500000920E-02 0.  1.
    10030    2    1    2    0    0  0.00000000000E+00  0.00000000000E+00  0.72943179675E+03  0.13015486065E+04  0.10779415703E+04 0.  0.
        2    1    3    3  502    0 -0.87278546368E+02  0.15525532538E+03  0.97893065017E+03  0.99500099425E+03  0.25500000920E-02 0. -1.
       -2    1    3    3    0  502  0.87278546368E+02 -0.15525532538E+03 -0.24949885342E+03  0.30654761226E+03  0.25500000920E-02 0.  1.
</event>
<event>
 5   0  0.9719260E-03  0.1069882E+04  0.7818609E-02  0.9235055E-01
        2   -1    0    0  501    0  0.00000000000E+00  0.00000000000E+00  0.26682876719E+04  0.26682876719E+04  0.25500000920E-02 0. -1.
       -2   -1    0    0    0  501  0.00000000000E+00  0.00000000000E+00 -0.10724548517E+03  0.10724548520E+03  0.25500000920E-02 0.  1.
    10030    2    1    2    0    0  0.00000000000E+00  0.00000000000E+00  0.25610421868E+04  0.27755331571E+04  0.10698818738E+04 0.  0.
        3    1    3    3  502    0 -0.34487989317E+03  0.40855514947E+03  0.12354122259E+04  0.13461436881E+04  0.10100000352E+00 0.  1.
       -3    1    3    3    0  502  0.34487989317E+03 -0.40855514947E+03  0.13256299608E+04  0.14293894690E+04  0.10100000352E+00 0. -1.
</event>
<event>
 5   0  0.3949750E-03  0.1120136E+04  0.7818609E-02  0.9185785E-01
        3   -1    0    0  501    0  0.00000000000E+00  0.00000000000E+00  0.63322296012E+03  0.63322296818E+03  0.10100000352E+00 0. -1.
       -3   -1    0    0    0  501  0.00000000000E+00  0.00000000000E+00 -0.49536441741E+03  0.49536442770E+03  0.10100000352E+00 0.  1.
    10030    2    1    2    0    0  0.00000000000E+00  0.00000000000E+00  0.13785854271E+03  0.11285873959E+04  0.11201359437E+04 0.  0.
        1    1    3    3  502    0  0.50883240134E+03 -0.13323820120E+03  0.26276926129E+03  0.58797152620E+03  0.50400001928E-02 0. -1.
       -1    1    3    3    0  502 -0.50883240134E+03  0.13323820120E+03 -0.12491071858E+03  0.54061586968E+03  0.50400001928E-02 0.  1.
</event>
<event>
 5   0  0.5854579E-03  0.1078818E+04  0.7818609E-02  0.9226086E-01
       -1   -1    0    0    0  501  0.00000000000E+00  0.00000000000E+00  0.65527004293E+03  0.65527004295E+03  0.50400001928E-02 0.  1.
        1   -1    0    0  501    0  0.00000000000E+00  0.00000000000E+00 -0.44403414036E+03  0.44403414039E+03  0.50400001928E-02 0. -1.
    10030    2    1    2    0    0  0.00000000000E+00  0.00000000000E+00  0.21123590257E+03  0.10993041833E+04  0.10788183726E+04 0.  0.
        4    1    3    3  502    0 -0.53619374855E+03 -0.58472989986E+02  0.11188542245E+03  0.55085641250E+03  0.12699999809E+01 0.  1.
       -4    1    3    3    0  502  0.53619374855E+03  0.58472989986E+02  0.99350480117E+02  0.54844777084E+03  0.12699999809E+01 0. -1.
</event>
<event>
 5   0  0.5958706E-03  0.1115144E+04  0.7818609E-02  0.9190556E-01
       -1   -1    0    0    0  501  0.00000000000E+00  0.00000000000E+00  0.39058904353E+03  0.39058904356E+03  0.50400001928E-02 0. -1.
        1   -1    0    0  501    0  0.00000000000E+00  0.00000000000E+00 -0.79594238262E+03  0.79594238263E+03  0.50400001928E-02 0.  1.
    10030    2    1    2    0    0  0.00000000000E+00  0.00000000000E+00 -0.40535333909E+03  0.11865314262E+04  0.11151437108E+04 0.  0.
        2    1    3    3  502    0 -0.11380962397E+03 -0.48673974900E+03  0.60155161287E+02  0.50347478309E+03  0.25500000920E-02 0.  1.
       -2    1    3    3    0  502  0.11380962397E+03  0.48673974900E+03 -0.46550850038E+03  0.68305664311E+03  0.25500000920E-02 0. -1.
</event>
<event>
 5   0  0.3949750E-03  0.1019184E+04  0.7818609E-02  0.9287751E-01
       -3   -1    0    0    0  501  0.00000000000E+00  0.00000000000E+00  0.17776077745E+04  0.17776077774E+04  0.10100000352E+00 0. -1.
        3   -1    0    0  501    0  0.00000000000E+00  0.00000000000E+00 -0.14608616581E+03  0.14608620072E+03  0.10100000352E+00 0.  1.
    10030    2    1    2    0    0  0.00000000000E+00  0.00000000000E+00  0.16315216087E+04  0.19236939781E+04  0.10191838704E+04 0.  0.
        5    1    3    3  502    0  0.53756603974E+01 -0.45038415108E+03  0.36597248699E+03  0.58037292537E+03  0.46999998093E+01 0.  1.
       -5    1    3    3    0  502 -0.53756603974E+01  0.45038415108E+03  0.12655491217E+04  0.13433210528E+04  0.46999998093E+01 0. -1.
</event>
<event>
 5   0  0.5958706E-03  0.1156122E+04  0.7818609E-02  0.9152155E-01
       -1   -1    0    0    0  501  0.00000000000E+00  0.00000000000E+00  0.99942907790E+03  0.99942907791E+03  0.50400001928E-02 0.  1.
        1   -1    0    0  501    0  0.00000000000E+00  0.00000000000E+00 -0.33434523139E+03  0.33434523143E+03  0.50400001928E-02 0. -1.
    10030    2    1    2    0    0  0.00000000000E+00  0.00000000000E+00  0.66508384651E+03  0.13337743093E+04  0.11561217001E+04 0.  0.
        2    1    3    3  502    0 -0.37866425797E+03  0.22253326084E+02 -0.17068842604E+03  0.41595236455E+03  0.25500000920E-02 0. -1.
       -2    1    3    3    0  502  0.37866425797E+03 -0.22253326084E+02  0.83577227254E+03  0.91782194479E+03  0.25500000920E-02 0.  1.
</event>
<event>
 5   0  0.9719260E-03  0.1081940E+04  0.7818609E-02  0.9222975E-01
        2   -1    0    0  501    0  0.00000000000E+00  0.00000000000E+00  0.20111727597E+04  0.20111727597E+04  0.25500000920E-02 0.  1.
       -2   -1    0    0    0  501  0.00000000000E+00  0.00000000000E+00 -0.14551141082E+03  0.14551141084E+03  0.25500000920E-02 0. -1.
    10030    2    1    2    0    0  0.00000000000E+00  0.00000000000E+00  0.18656613489E+04  0.21566841706E+04  0.10819400828E+04 0.  0.
        3    1    3    3  502    0 -0.13769157935E+03  0.36795150512E+03  0.19152647121E+03  0.43706942300E+03  0.10100000352E+00 0. -1.
       -3    1    3    3    0  502  0.13769157935E+03 -0.36795150512E+03  0.16741348777E+04  0.17196147476E+04  0.10100000352E+00 0.  1.
</event>
<event>
 5   0  0.1028016E-02  0.1072133E+04  0.7818609E-02  0.9232786E-01
        2   -1    0    0  501    0  0.00000000000E+00  0.00000000000E+00  0.12946881565E+04  0.12946881565E+04  0.25500000920E-02 0.  1.
       -2   -1    0    0    0  501  0.00000000000E+00  0.00000000000E+00 -0.22195885884E+03  0.22195885885E+03  0.25500000920E-02 0. -1.
    10030    2    1    2    0    0  0.00000000000E+00  0.00000000000E+00  0.10727292976E+04  0.15166470153E+04  0.10721333980E+04 0.  0.
        2    1    3    3  502    0  0.41026542156E+03  0.83096547701E+02  0.62640886278E+02  0.42325717125E+03  0.25500000920E-02 0. -1.
       -2    1    3    3    0  502 -0.41026542156E+03 -0.83096547701E+02  0.10100884114E+04  0.10933898441E+04  0.25500000920E-02 0.  1.
</event>
<event>
 5   0  0.1028016E-02  0.1045357E+04  0.7818609E-02  0.9260151E-01
       -2   -1    0    0    0  501  0.00000000000E+00  0.00000000000E+00  0.43609493955E+03  0.43609493956E+03  0.25500000920E-02 0.  1.
        2   -1    0    0  501    0  0.00000000000E+00  0.00000000000E+00 -0.62645263845E+03  0.62645263845E+03  0.25500000920E-02 0. -1.
    10030    2    1    2    0    0  0.00000000000E+00  0.00000000000E+00 -0.19035769890E+03  0.10625475780E+04  0.10453570213E+04 0.  0.
        2    1    3    3  502    0  0.24173868597E+03  0.35138609237E+03  0.21192043881E+03  0.47625628668E+03  0.25500000920E-02 0.  1.
       -2    1    3    3    0  502 -0.24173868597E+03 -0.35138609237E+03 -0.40227813771E+03  0.58629129133E+03  0.25500000920E-02 0. -1.
</event>
<event>
 5   0  0.5958706E-03  0.1106235E+04  0.7818609E-02  0.9199136E-01
        1   -1    0    0  501    0  0.00000000000E+00  0.00000000000E+00  0.10844763238E+04  0.10844763239E+04  0.50400001928E-02 0. -1.
       -1   -1    0    0    0  501  0.00000000000E+00  0.00000000000E+00 -0.28210753976E+03  0.28210753980E+03  0.50400001928E-02 0.  1.
    10030    2    1    2    0    0  0.00000000000E+00  0.00000000000E+00  0.80236878408E+03  0.13665838637E+04  0.11062349618E+04 0.  0.
        2    1    3    3  502    0 -0.27711283635E+03  0.37444202593E+03  0.76960076137E+03  0.89960196018E+03  0.25500000920E-02 0. -1.
       -2    1    3    3    0  502  0.27711283635E+03 -0.37444202593E+03  0.32768022718E+02  0.46698190347E+03  0.25500000920E-02 0.  1.
</event>
<event>
 5   0  0.5712664E-03  0.1088170E+04  0.7818609E-02  0.9216799E-01
       -1   -1    0    0    0  501  0.00000000000E+00  0.00000000000E+00  0.35982985020E+03  0.35982985024E+03  0.50400001928E-02 0.  1.
        1   -1    0    0  501    0  0.00000000000E+00  0.00000000000E+00 -0.82269024799E+03  0.82269024801E+03  0.50400001928E-02 0. -1.
    10030    2    1    2    0    0  0.00000000000E+00  0.00000000000E+00 -0.46286039779E+03  0.11825200982E+04  0.10881700395E+04 0.  0.
        5    1    3    3  502    0  0.89351785733E+02  0.48136343684E+02 -0.81228972974E+03  0.81861929139E+03  0.46999998093E+01 0. -1.
       -5    1    3    3    0  502 -0.89351785733E+02 -0.48136343684E+02  0.34942933196E+03  0.36390080685E+03  0.46999998093E+01 0.  1.
</event>
<event>
 5   0  0.1019384E-02  0.1059081E+04  0.7818609E-02  0.9246018E-01
        2   -1    0    0  501    0  0.00000000000E+00  0.00000000000E+00  0.46084481501E+03  0.46084481502E+03  0.25500000920E-02 0.  1.
       -2   -1    0    0    0  501  0.00000000000E+00  0.00000000000E+00 -0.60847638894E+03  0.60847638894E+03  0.25500000920E-02 0. -1.
    10030    2    1    2    0    0  0.00000000000E+00  0.00000000000E+00 -0.14763157393E+03  0.10693212040E+04  0.10590810902E+04 0.  0.
        1    1    3    3  502    0  0.29253701146E+03 -0.37615581092E+03 -0.30700796874E+03  0.56685535197E+03  0.50400001928E-02 0. -1.
       -1    1    3    3    0  502 -0.29253701146E+03  0.37615581092E+03  0.15937639481E+03  0.50246585199E+03  0.50400001928E-02 0.  1.
</event>
<event>
 5   0  0.9719260E-03  0.1142032E+04  0.7818609E-02  0.9165166E-01
       -2   -1    0    0    0  501  0.00000000000E+00  0.00000000000E+00  0.56668501612E+03  0.56668501613E+03  0.25500000920E-02 0.  1.
        2   -1    0    0  501    0  0.00000000000E+00  0.00000000000E+00 -0.57538024523E+03  0.57538024524E+03  0.25500000920E-02 0. -1.
    10030    2    1    2    0    0  0.00000000000E+00  0.00000000000E+00 -0.86952291085E+01  0.11420652614E+04  0.11420321599E+04 0.  0.
        3    1    3    3  502    0  0.66360343321E+02  0.37257609160E+03  0.42326589505E+03  0.56777695208E+03  0.10100000352E+00 0.  1.
       -3    1    3    3    0  502 -0.66360343321E+02 -0.37257609160E+03 -0.43196112416E+03  0.57428830929E+03  0.10100000352E+00 0. -1.
</event>
<event>
 5   0  0.3949750E-03  0.1104330E+04  0.7818609E-02  0.9200981E-01
       -4   -1    0    0    0  501  0.00000000000E+00  0.00000000000E+00  0.33891234136E+03  0.33891472088E+03  0.12699999809E+01 0.  1.
        4   -1    0    0  501    0  0.00000000000E+00  0.00000000000E+00 -0.89959654733E+03  0.89959744379E+03  0.12699999809E+01 0. -1.
    10030    2    1    2    0    0  0.00000000000E+00  0.00000000000E+00 -0.56068420597E+03  0.12385121647E+04  0.11043303868E+04 0.  0.
        2    1    3    3  502    0 -0.19060609248E+03  0.42820235901E+03 -0.60769570317E+03  0.76745163392E+03  0.25500000920E-02 0. -1.
       -2    1    3    3    0  502  0.19060609248E+03 -0.42820235901E+03  0.47011497199E+02  0.47106053074E+03  0.25500000920E-02 0.  1.
</event>
<event>
 5   0  0.9719260E-03  0.1115261E+04  0.7818609E-02  0.9190443E-01
        2   -1    0    0  501    0  0.00000000000E+00  0.00000000000E+00  0.50369728283E+03  0.50369728283E+03  0.25500000920E-02 0.  1.
       -2   -1    0    0    0  501  0.00000000000E+00  0.00000000000E+00 -0.61733907039E+03  0.61733907039E+03  0.25500000920E-02 0. -1.
    10030    2    1    2    0    0  0.00000000000E+00  0.00000000000E+00 -0.11364178756E+03  0.11210363532E+04  0.11152614265E+04 0.  0.
        3    1    3    3  502    0 -0.27341765585E+03 -0.48481292272E+03 -0.22715605877E+02  0.55706085262E+03  0.10100000352E+00 0.  1.
       -3    1    3    3    0  502  0.27341765585E+03  0.48481292272E+03 -0.90926181685E+02  0.56397550061E+03  0.10100000352E+00 0. -1.
</event>
<event>
 5   0  0.1028016E-02  0.1094906E+04  0.7818609E-02  0.9210171E-01
        2   -1    0    0  501    0  0.00000000000E+00  0.00000000000E+00  0.78245526980E+03  0.78245526980E+03  0.25500000920E-02 0.  1.
       -2   -1    0    0    0  501  0.00000000000E+00  0.00000000000E+00 -0.38303092172E+03  0.38303092173E+03  0.25500000920E-02 0. -1.
    10030    2    1    2    0    0  0.00000000000E+00  0.00000000000E+00  0.39942434807E+03  0.11654861915E+04  0.10949055908E+04 0.  0.
        2    1    3    3  502    0 -0.33490144889E+03  0.18211999823E+03 -0.21852536266E+03  0.43940870309E+03  0.25500000920E-02 0. -1.
       -2    1    3    3    0  502  0.33490144889E+03 -0.18211999823E+03  0.61794971073E+03  0.72607748844E+03  0.25500000920E-02 0.  1.
</event>
<event>
 5   0  0.9719260E-03  0.1109289E+04  0.7818609E-02  0.9196185E-01
        2   -1    0    0  501    0  0.00000000000E+00  0.00000000000E+00  0.12808021104E+04  0.12808021104E+04  0.25500000920E-02 0. -1.
       -2   -1    0    0    0  501  0.00000000000E+00  0.00000000000E+00 -0.24018572238E+03  0.24018572239E+03  0.25500000920E-02 0.  1.
    10030    2    1    2    0    0  0.00000000000E+00  0.00000000000E+00  0.10406163880E+04  0.15209878328E+04  0.11092887453E+04 0.  0.
        3    1    3    3  502    0  0.14817332876E+03 -0.47280752537E+03  0.86207123406E+03  0.99431841691E+03  0.10100000352E+00 0. -1.
       -3    1    3    3    0  502 -0.14817332876E+03  0.47280752537E+03  0.17854515392E+03  0.52666941585E+03  0.10100000352E+00 0.  1.
</event>
<event>
 5   0  0.5998641E-03  0.1081160E+04  0.7818609E-02  0.9223751E-01
       -1   -1    0    0    0  501  0.00000000000E+00  0.00000000000E+00  0.22714315804E+03  0.22714315810E+03  0.50400001928E-02 0. -1.
        1   -1    0    0  501    0  0.00000000000E+00  0.00000000000E+00 -0.12865317440E+04  0.12865317441E+04  0.50400001928E-02 0.  1.
    10030    2    1    2    0    0  0.00000000000E+00  0.00000000000E+00 -0.10593885860E+04  0.15136749022E+04  0.10811602718E+04 0.  0.
        3    1    3    3  502    0 -0.29448167156E+03  0.63246077415E+02 -0.11581692533E+04  0.11966935910E+04  0.10100000352E+00 0.  1.
       -3    1    3    3    0  502  0.29448167156E+03 -0.63246077415E+02  0.98780667309E+02  0.31698131116E+03  0.10100000352E+00 0. -1.
</event>
<event>
 5   0  0.5712664E-03  0.1109382E+04  0.7818609E-02  0.9196096E-01
        1   -1    0    0  501    0  0.00000000000E+00  0.00000000000E+00  0.74422959019E+03  0.74422959021E+03  0.50400001928E-02 0. -1.
       -1   -1    0    0    0  501  0.00000000000E+00  0.00000000000E+00 -0.41342343990E+03  0.41342343993E+03  0.50400001928E-02 0.  1.
    10030    2    1    2    0    0  0.00000000000E+00  0.00000000000E+00  0.33080615028E+03  0.11576530301E+04  0.11093817328E+04 0.  0.
        5    1    3    3  502    0 -0.35162848473E+03  0.35862435855E+03 -0.80223411107E+02  0.50863730448E+03  0.46999998093E+01 0.  1.
       -5    1    3    3    0  502  0.35162848473E+03 -0.35862435855E+03  0.41102956139E+03  0.64901572566E+03  0.46999998093E+01 0. -1.
</event>
<event>
 5   0  0.1019384E-02  0.1089828E+04  0.7818609E-02  0.9215164E-01
       -2   -1    0    0    0  501  0.00000000000E+00  0.00000000000E+00  0.56988209473E+03  0.56988209473E+03  0.25500000920E-02 0. -1.
        2   -1    0    0  501    0  0.00000000000E+00  0.00000000000E+00 -0.52103936107E+03  0.52103936108E+03  0.25500000920E-02 0.  1.
    10030    2    1    2    0    0  0.00000000000E+00  0.00000000000E+00  0.48842733652E+02  0.10909214558E+04  0.10898275139E+04 0.  0.
        1    1    3    3  502    0  0.37225675054E+03 -0.21860363695E+03 -0.30843062291E+03  0.53055827916E+03  0.50400001928E-02 0.  1.
       -1    1    3    3    0  502 -0.37225675054E+03  0.21860363695E+03  0.35727335657E+03  0.56036317665E+03  0.50400001928E-02 0. -1.
</event>
<event>
 5   0  0.5958706E-03  0.1127759E+04  0.7818609E-02  0.9178550E-01
        1   -1    0    0  501    0  0.00000000000E+00  0.00000000000E+00  0.70832437340E+03  0.70832437342E+03  0.50400001928E-02 0.  1.
       -1   -1    0    0    0  501  0.00000000000E+00  0.00000000000E+00 -0.44889090074E+03  0.44889090077E+03  0.50400001928E-02 0. -1.
    10030    2    1    2    0    0  0.00000000000E+00  0.00000000000E+00  0.25943347266E+03  0.11572152742E+04  0.11277594886E+04 0.  0.
        2    1    3    3  502    0 -0.36720034617E+03 -0.93214004913E+01  0.56871981584E+03  0.67702674369E+03  0.25500000920E-02 0.  1.
       -2    1    3    3    0  502  0.36720034617E+03  0.93214004913E+01 -0.30928634318E+03  0.48018853049E+03  0.25500000920E-02 0. -1.
</event>
<event>
 5   0  0.1028016E-02  0.1111281E+04  0.7818609E-02  0.9194265E-01
        2   -1    0    0  501    0  0.00000000000E+00  0.00000000000E+00  0.73024021679E+03  0.73024021679E+03  0.25500000920E-02 0.  1.
       -2   -1    0    0    0  501  0.00000000000E+00  0.00000000000E+00 -0.42278771312E+03  0.42278771313E+03  0.25500000920E-02 0. -1.
    10030    2    1    2    0    0  0.00000000000E+00  0.00000000000E+00  0.30745250367E+03  0.11530279299E+04  0.11112814068E+04 0.  0.
        2    1    3    3  502    0  0.51088529957E+03  0.10131062085E+03  0.35456689300E+03  0.63006770495E+03  0.25500000920E-02 0.  1.
       -2    1    3    3    0  502 -0.51088529957E+03 -0.10131062085E+03 -0.47114389329E+02  0.52296022497E+03  0.25500000920E-02 0. -1.
</event>
<event>
 5   0  0.5789905E-03  0.1108999E+04  0.7818609E-02  0.9196465E-01
       -1   -1    0    0    0  501  0.00000000000E+00  0.00000000000E+00  0.35292274004E+03  0.35292274008E+03  0.50400001928E-02 0.  1.
        1   -1    0    0  501    0  0.00000000000E+00  0.00000000000E+00 -0.87120917534E+03  0.87120917535E+03  0.50400001928E-02 0. -1.
    10030    2    1    2    0    0  0.00000000000E+00  0.00000000000E+00 -0.51828643530E+03  0.12241319154E+04  0.11089987003E+04 0.  0.
        1    1    3    3  502    0  0.14959817207E+02 -0.21466620374E+03 -0.82324044849E+03  0.85089964815E+03  0.50400001928E-02 0. -1.
       -1    1    3    3    0  502 -0.14959817207E+02  0.21466620374E+03  0.30495401319E+03  0.37323226729E+03  0.50400001928E-02 0.  1.
</event>
<event>
 5   0  0.9925021E-03  0.5673131E+03  0.7818609E-02  0.9975642E-01
        2   -1    0    0  501    0  0.00000000000E+00  0.00000000000E+00  0.22420811618E+04  0.22420811618E+04  0.25500000920E-02 0. -1.
       -2   -1    0    0    0  501  0.00000000000E+00  0.00000000000E+00 -0.35886762149E+02  0.35886762240E+02  0.25500000920E-02 0.  1.
    10030    2    1    2    0    0  0.00000000000E+00  0.00000000000E+00  0.22061943997E+04  0.22779679241E+04  0.56731308280E+03 0.  0.
        4    1    3    3  502    0 -0.20710528913E+03  0.13837498699E+03  0.55814302474E+03  0.61120003827E+03  0.12699999809E+01 0. -1.
       -4    1    3    3    0  502  0.20710528913E+03 -0.13837498699E+03  0.16480513749E+04  0.16667678858E+04  0.12699999809E+01 0.  1.
</event>
<event>
 5   0  0.5854579E-03  0.1163337E+04  0.7818609E-02  0.9145567E-01
        1   -1    0    0  501    0  0.00000000000E+00  0.00000000000E+00  0.21826885670E+04  0.21826885670E+04  0.50400001928E-02 0. -1.
       -1   -1    0    0    0  501  0.00000000000E+00  0.00000000000E+00 -0.15500973654E+03  0.15500973662E+03  0.50400001928E-02 0.  1.
    10030    2    1    2    0    0  0.00000000000E+00  0.00000000000E+00  0.20276788304E+04  0.23376983036E+04  0.11633365460E+04 0.  0.
        4    1    3    3  502    0  0.47159828655E+03 -0.22062399158E+03  0.15349743033E+04  0.16208724855E+04  0.12699999809E+01 0. -1.
       -4    1    3    3    0  502 -0.47159828655E+03  0.22062399158E+03  0.49270452713E+03  0.71682581810E+03  0.12699999809E+01 0.  1.
</event>
<event>
 5   0  0.9692981E-03  0.9829751E+03  0.7818609E-02  0.9327417E-01
       -2   -1    0    0    0  501  0.00000000000E+00  0.00000000000E+00  0.68909128505E+03  0.68909128506E+03  0.25500000920E-02 0. -1.
        2   -1    0    0  501    0  0.00000000000E+00  0.00000000000E+00 -0.35054864412E+03  0.35054864413E+03  0.25500000920E-02 0.  1.
    10030    2    1    2    0    0  0.00000000000E+00  0.00000000000E+00  0.33854264093E+03  0.10396399292E+04  0.98297510785E+03 0.  0.
        5    1    3    3  502    0  0.23433706181E+02  0.29294460397E+03 -0.24735572035E+03  0.38415182150E+03  0.46999998093E+01 0.  1.
       -5    1    3    3    0  502 -0.23433706181E+02 -0.29294460397E+03  0.58589836128E+03  0.65548810769E+03  0.46999998093E+01 0. -1.
</event>
<event>
 5   0  0.5958706E-03  0.1119201E+04  0.7818609E-02  0.9186677E-01
       -1   -1    0    0    0  501  0.00000000000E+00  0.00000000000E+00  0.22992293430E+03  0.22992293435E+03  0.50400001928E-02 0.  1.
        1   -1    0    0  501    0  0.00000000000E+00  0.00000000000E+00 -0.13619897060E+04  0.13619897060E+04  0.50400001928E-02 0. -1.
    10030    2    1    2    0    0  0.00000000000E+00  0.00000000000E+00 -0.11320667717E+04  0.15919126404E+04  0.11192009109E+04 0.  0.
        2    1    3    3  502    0  0.24723048507E+03  0.44946138837E+03 -0.24793760057E+03  0.56974687903E+03  0.25500000920E-02 0.  1.
       -2    1    3    3    0  502 -0.24723048507E+03 -0.44946138837E+03 -0.88412917114E+03  0.10221657613E+04  0.25500000920E-02 0. -1.
</event>
<event>
 5   0  0.5998641E-03  0.9111499E+03  0.7818609E-02  0.9411750E-01
        1   -1    0    0  501    0  0.00000000000E+00  0.00000000000E+00  0.17532013884E+04  0.17532013885E+04  0.50400001928E-02 0.  1.
       -1   -1    0    0    0  501  0.00000000000E+00  0.00000000000E+00 -0.11838258986E+03  0.11838258997E+03  0.50400001928E-02 0. -1.
    10030    2    1    2    0    0  0.00000000000E+00  0.00000000000E+00  0.16348187986E+04  0.18715839784E+04  0.91114986917E+03 0.  0.
        3    1    3    3  502    0  0.33284340832E+03 -0.27352714861E+03  0.51310805488E+03  0.66998635932E+03  0.10100000352E+00 0. -1.
       -3    1    3    3    0  502 -0.33284340832E+03  0.27352714861E+03  0.11217107437E+04  0.12015976191E+04  0.10100000352E+00 0.  1.
</event>
<event>
 5   0  0.1019384E-02  0.1096665E+04  0.7818609E-02  0.9208449E-01
        2   -1    0    0  501    0  0.00000000000E+00  0.00000000000E+00  0.24739148426E+03  0.24739148428E+03  0.25500000920E-02 0. -1.
       -2   -1    0    0    0  501  0.00000000000E+00  0.00000000000E+00 -0.12153550517E+04  0.12153550517E+04  0.25500000920E-02 0.  1.
    10030    2    1    2    0    0  0.00000000000E+00  0.00000000000E+00 -0.96796356746E+03  0.14627465360E+04  0.10966649263E+04 0.  0.
        1    1    3    3  502    0  0.38806041838E+03  0.33009430178E+03 -0.21352546032E+03  0.55240045131E+03  0.50400001928E-02 0. -1.
       -1    1    3    3    0  502 -0.38806041838E+03 -0.33009430178E+03 -0.75443810714E+03  0.91034608469E+03  0.50400001928E-02 0.  1.
</event>
<event>
 5   0  0.5998641E-03  0.9746251E+03  0.7818609E-02  0.9336822E-01
       -1   -1    0    0    0  501  0.00000000000E+00  0.00000000000E+00  0.26885313040E+03  0.26885313045E+03  0.50400001928E-02 0. -1.
        1   -1    0    0  501    0  0.00000000000E+00  0.00000000000E+00 -0.88328339277E+03  0.88328339279E+03  0.50400001928E-02 0.  1.
    10030    2    1    2    0    0  0.00000000000E+00  0.00000000000E+00 -0.61443026237E+03  0.11521365232E+04  0.97462506681E+03 0.  0.
        3    1    3    3  502    0 -0.29846235479E+03  0.38439818682E+03 -0.27750260376E+03  0.56022267765E+03  0.10100000352E+00 0. -1.
       -3    1    3    3    0  502  0.29846235479E+03 -0.38439818682E+03 -0.33692765861E+03  0.59191384559E+03  0.10100000352E+00 0.  1.
</event>
<event>
 5   0  0.1019384E-02  0.1070679E+04  0.7818609E-02  0.9234251E-01
       -2   -1    0    0    0  501  0.00000000000E+00  0.00000000000E+00  0.16495857837E+03  0.16495857839E+03  0.25500000920E-02 0. -1.
        2   -1    0    0  501    0  0.00000000000E+00  0.00000000000E+00 -0.17373339031E+04  0.17373339031E+04  0.25500000920E-02 0.  1.
    10030    2    1    2    0    0  0.00000000000E+00  0.00000000000E+00 -0.15723753247E+04  0.19022924815E+04  0.10706785341E+04 0.  0.
        1    1    3    3  502    0 -0.34267120860E+03  0.24685738652E+03 -0.13706869796E+04  0.14342750512E+04  0.50400001928E-02 0.  1.
       -1    1    3    3    0  502  0.34267120860E+03 -0.24685738652E+03 -0.20168834518E+03  0.46801743032E+03  0.50400001928E-02 0. -1.
</event>
<event>
 5   0  0.5998641E-03  0.1089239E+04  0.7818609E-02  0.9215744E-01
       -1   -1    0    0    0  501  0.00000000000E+00  0.00000000000E+00  0.41246417951E+03  0.41246417954E+03  0.50400001928E-02 0. -1.
        1   -1    0    0  501    0  0.00000000000E+00  0.00000000000E+00 -0.71911832135E+03  0.71911832137E+03  0.50400001928E-02 0.  1.
    10030    2    1    2    0    0  0.00000000000E+00  0.00000000000E+00 -0.30665414184E+03  0.11315825009E+04  0.10892392729E+04 0.  0.
        3    1    3    3  502    0 -0.41227615789E+03 -0.16968989107E+03 -0.47828757719E+03  0.65385419337E+03  0.10100000352E+00 0.  1.
       -3    1    3    3    0  502  0.41227615789E+03  0.16968989107E+03  0.17163343534E+03  0.47772830754E+03  0.10100000352E+00 0. -1.
</event>
<event>
 5   0  0.5712664E-03  0.8326158E+03  0.7818609E-02  0.9513971E-01
       -1   -1    0    0    0  501  0.00000000000E+00  0.00000000000E+00  0.14534568465E+03  0.14534568474E+03  0.50400001928E-02 0.  1.
        1   -1    0    0  501    0  0.00000000000E+00  0.00000000000E+00 -0.11924142428E+04  0.11924142429E+04  0.50400001928E-02 0. -1.
    10030    2    1    2    0    0  0.00000000000E+00  0.00000000000E+00 -0.10470685582E+04  0.13377599276E+04  0.83261579275E+03 0.  0.
        5    1    3    3  502    0  0.14447430650E+02 -0.84788734063E+02 -0.11779393783E+04  0.11810847246E+04  0.46999998093E+01 0. -1.
       -5    1    3    3    0  502 -0.14447430650E+02  0.84788734063E+02  0.13087082013E+03  0.15667520300E+03  0.46999998093E+01 0.  1.
</event>
<event>
 5   0  0.9925021E-03  0.1098433E+04  0.7818609E-02  0.9206721E-01
        2   -1    0    0  501    0  0.00000000000E+00  0.00000000000E+00  0.14547764920E+04  0.14547764920E+04  0.25500000920E-02 0. -1.
       -2   -1    0    0    0  501  0.00000000000E+00  0.00000000000E+00 -0.20734368249E+03  0.20734368251E+03  0.25500000920E-02 0.  1.
    10030    2    1    2    0    0  0.00000000000E+00  0.00000000000E+00  0.12474328095E+04  0.16621201745E+04  0.10984329112E+04 0.  0.
        4    1    3    3  502    0 -0.15270347672E+03  0.46795490939E+03  0.25511965161E+03  0.55442564746E+03  0.12699999809E+01 0. -1.
       -4    1    3    3    0  502  0.15270347672E+03 -0.46795490939E+03  0.99231315794E+03  0.11076945271E+04  0.12699999809E+01 0.  1.
</event>
<event>
 5   0  0.1028016E-02  0.1111736E+04  0.7818609E-02  0.9193828E-01
       -2   -1    0    0    0  501  0.00000000000E+00  0.00000000000E+00  0.15847295223E+03  0.15847295225E+03  0.25500000920E-02 0. -1.
        2   -1    0    0  501    0  0.00000000000E+00  0.00000000000E+00 -0.19497922939E+04  0.19497922939E+04  0.25500000920E-02 0.  1.
    10030    2    1    2    0    0  0.00000000000E+00  0.00000000000E+00 -0.17913193417E+04  0.21082652462E+04  0.11117361937E+04 0.  0.
        2    1    3    3  502    0  0.55572681961E+03 -0.29377740395E+01 -0.87255718165E+03  0.10345032449E+04  0.25500000920E-02 0. -1.
       -2    1    3    3    0  502 -0.55572681961E+03  0.29377740395E+01 -0.91876216003E+03  0.10737620012E+04  0.25500000920E-02 0.  1.
</event>
<event>
 5   0  0.5854579E-03  0.1086376E+04  0.7818609E-02  0.9218573E-01
       -1   -1    0    0    0  501  0.00000000000E+00  0.00000000000E+00  0.16773284813E+03  0.16773284820E+03  0.50400001928E-02 0.  1.
        1   -1    0    0  501    0  0.00000000000E+00  0.00000000000E+00 -0.17590666679E+04  0.17590666679E+04  0.50400001928E-02 0. -1.
    10030    2    1    2    0    0  0.00000000000E+00  0.00000000000E+00 -0.15913338198E+04  0.19267995161E+04  0.10863761086E+04 0.  0.
        4    1    3    3  502    0  0.76898075311E+02 -0.53093594367E+03 -0.94663538979E+03  0.10880838499E+04  0.12699999809E+01 0. -1.
       -4    1    3    3    0  502 -0.76898075311E+02  0.53093594367E+03 -0.64469843001E+03  0.83871566626E+03  0.12699999809E+01 0.  1.
</event>
<event>
 5   0  0.3949750E-03  0.1116960E+04  0.7818609E-02  0.9188817E-01
        3   -1    0    0  501    0  0.00000000000E+00  0.00000000000E+00  0.82133099559E+03  0.82133100180E+03  0.10100000352E+00 0.  1.
       -3   -1    0    0    0  501  0.00000000000E+00  0.00000000000E+00 -0.37974950977E+03  0.37974952320E+03  0.10100000352E+00 0. -1.
    10030    2    1    2    0    0  0.00000000000E+00  0.00000000000E+00  0.44158148582E+03  0.12010805250E+04  0.11169602584E+04 0.  0.
        4    1    3    3  502    0 -0.57367346444E+02  0.41443628925E+02  0.81648809549E+03  0.81955049252E+03  0.12699999809E+01 0.  1.
       -4    1    3    3    0  502  0.57367346444E+02 -0.41443628925E+02 -0.37490660967E+03  0.38153003248E+03  0.12699999809E+01 0. -1.
</event>
<event>
 5   0  0.9692981E-03  0.1100712E+04  0.7818609E-02  0.9204498E-01
       -2   -1    0    0    0  501  0.00000000000E+00  0.00000000000E+00  0.36396188172E+03  0.36396188173E+03  0.25500000920E-02 0. -1.
        2   -1    0    0  501    0  0.00000000000E+00  0.00000000000E+00 -0.83220693834E+03  0.83220693834E+03  0.25500000920E-02 0.  1.
    10030    2    1    2    0    0  0.00000000000E+00  0.00000000000E+00 -0.46824505662E+03  0.11961688201E+04  0.11007117757E+04 0.  0.
        5    1    3    3  502    0 -0.30376156900E+03 -0.13300253033E+03 -0.71142625777E+03  0.78492685909E+03  0.46999998093E+01 0.  1.
       -5    1    3    3    0  502  0.30376156900E+03  0.13300253033E+03  0.24318120116E+03  0.41124196098E+03  0.46999998093E+01 0. -1.
</event>
<event>
 5   0  0.5854579E-03  0.1088536E+04  0.7818609E-02  0.9216438E-01
       -1   -1    0    0    0  501  0.00000000000E+00  0.00000000000E+00  0.27234715402E+03  0.27234715406E+03  0.50400001928E-02 0. -1.
        1   -1    0    0  501    0  0.00000000000E+00  0.00000000000E+00 -0.10876836194E+04  0.10876836194E+04  0.50400001928E-02 0.  1.
    10030    2    1    2    0    0  0.00000000000E+00  0.00000000000E+00 -0.81533646542E+03  0.13600307735E+04  0.10885357840E+04 0.  0.
        4    1    3    3  502    0  0.50865991357E+03  0.19232915334E+03 -0.37971613918E+03  0.66325814745E+03  0.12699999809E+01 0. -1.
       -4    1    3    3    0  502 -0.50865991357E+03 -0.19232915334E+03 -0.43562032624E+03  0.69677262606E+03  0.12699999809E+01 0.  1.
</event>
<event>
 5   0  0.9925021E-03  0.1045355E+04  0.7818609E-02  0.9260153E-01
        2   -1    0    0  501    0  0.00000000000E+00  0.00000000000E+00  0.13402944166E+04  0.13402944166E+04  0.25500000920E-02 0. -1.
       -2   -1    0    0    0  501  0.00000000000E+00  0.00000000000E+00 -0.20382953237E+03  0.20382953239E+03  0.25500000920E-02 0.  1.
    10030    2    1    2    0    0  0.00000000000E+00  0.00000000000E+00  0.11364648843E+04  0.15441239490E+04  0.10453546464E+04 0.  0.
        4    1    3    3  502    0  0.40869699831E+03  0.54689658268E+02  0.10426779399E+04  0.11212506832E+04  0.12699999809E+01 0. -1.
       -4    1    3    3    0  502 -0.40869699831E+03 -0.54689658268E+02  0.93786944322E+02  0.42287326586E+03  0.12699999809E+01 0.  1.
</event>
<event>
 5   0  0.5958706E-03  0.1124310E+04  0.7818609E-02  0.9181817E-01
        1   -1    0    0  501    0  0.00000000000E+00  0.00000000000E+00  0.54010131589E+03  0.54010131592E+03  0.50400001928E-02 0. -1.
       -1   -1    0    0    0  501  0.00000000000E+00  0.00000000000E+00 -0.58510869675E+03  0.58510869677E+03  0.50400001928E-02 0.  1.
    10030    2    1    2    0    0  0.00000000000E+00  0.00000000000E+00 -0.45007380857E+02  0.11252100127E+04  0.11243095251E+04 0.  0.
        2    1    3    3  502    0  0.28396896521E+03 -0.39398043500E+03 -0.30585413573E+03  0.57393876739E+03  0.25500000920E-02 0. -1.
       -2    1    3    3    0  502 -0.28396896521E+03  0.39398043500E+03  0.26084675487E+03  0.55127124530E+03  0.25500000920E-02 0.  1.
</event>
<event>
 5   0  0.5958706E-03  0.1128850E+04  0.7818609E-02  0.9177520E-01
        1   -1    0    0  501    0  0.00000000000E+00  0.00000000000E+00  0.51711224851E+03  0.51711224853E+03  0.50400001928E-02 0. -1.
       -1   -1    0    0    0  501  0.00000000000E+00  0.00000000000E+00 -0.61606680006E+03  0.61606680008E+03  0.50400001928E-02 0.  1.
    10030    2    1    2    0    0  0.00000000000E+00  0.00000000000E+00 -0.98954551553E+02  0.11331790486E+04  0.11288501907E+04 0.  0.
        2    1    3    3  502    0  0.25636993398E+03  0.44437102835E+03  0.18676438109E+03  0.54595978601E+03  0.25500000920E-02 0. -1.
       -2    1    3    3    0  502 -0.25636993398E+03 -0.44437102835E+03 -0.28571893265E+03  0.58721926260E+03  0.25500000920E-02 0.  1.
</event>
<event>
 5   0  0.1028016E-02  0.1068372E+04  0.7818609E-02  0.9236579E-01
       -2   -1    0    0    0  501  0.00000000000E+00  0.00000000000E+00  0.38049999599E+03  0.38049999600E+03  0.25500000920E-02 0.  1.
        2   -1    0    0  501    0  0.00000000000E+00  0.00000000000E+00 -0.74994607848E+03  0.74994607848E+03  0.25500000920E-02 0. -1.
    10030    2    1    2    0    0  0.00000000000E+00  0.00000000000E+00 -0.36944608249E+03  0.11304460745E+04  0.10683716205E+04 0.  0.
        2    1    3    3  502    0  0.46635945432E+03 -0.25761970985E+03 -0.22564060102E+03  0.57859548596E+03  0.25500000920E-02 0. -1.
       -2    1    3    3    0  502 -0.46635945432E+03  0.25761970985E+03 -0.14380548147E+03  0.55185058852E+03  0.25500000920E-02 0.  1.
</event>
<event>
 5   0  0.5712664E-03  0.1075664E+04  0.7818609E-02  0.9229242E-01
        1   -1    0    0  501    0  0.00000000000E+00  0.00000000000E+00  0.12585893826E+04  0.12585893826E+04  0.50400001928E-02 0. -1.
       -1   -1    0    0    0  501  0.00000000000E+00  0.00000000000E+00 -0.22983113049E+03  0.22983113054E+03  0.50400001928E-02 0.  1.
    10030    2    1    2    0    0  0.00000000000E+00  0.00000000000E+00  0.10287582521E+04  0.14884205132E+04  0.10756635546E+04 0.  0.
        5    1    3    3  502    0 -0.33490145818E+03  0.37631732594E+03  0.25378613458E+03  0.56409503507E+03  0.46999998093E+01 0. -1.
       -5    1    3    3    0  502  0.33490145818E+03 -0.37631732594E+03  0.77497211757E+03  0.92432547812E+03  0.46999998093E+01 0.  1.
</event>
<event>
 5   0  0.5854579E-03  0.1080496E+04  0.7818609E-02  0.9224413E-01
       -1   -1    0    0    0  501  0.00000000000E+00  0.00000000000E+00  0.38077156159E+03  0.38077156162E+03  0.50400001928E-02 0. -1.
        1   -1    0    0  501    0  0.00000000000E+00  0.00000000000E+00 -0.76651680518E+03  0.76651680519E+03  0.50400001928E-02 0.  1.
    10030    2    1    2    0    0  0.00000000000E+00  0.00000000000E+00 -0.38574524359E+03  0.11472883668E+04  0.10804958138E+04 0.  0.
        4    1    3    3  502    0  0.43694404660E+03 -0.14624398789E+03 -0.49237037597E+03  0.67434234917E+03  0.12699999809E+01 0.  1.
       -4    1    3    3    0  502 -0.43694404660E+03  0.14624398789E+03  0.10662513238E+03  0.47294601764E+03  0.12699999809E+01 0. -1.
</event>
<event>
 5   0  0.5712664E-03  0.1035560E+04  0.7818609E-02  0.9270381E-01
       -1   -1    0    0    0  501  0.00000000000E+00  0.00000000000E+00  0.23639553232E+03  0.23639553237E+03  0.50400001928E-02 0. -1.
        1   -1    0    0  501    0  0.00000000000E+00  0.00000000000E+00 -0.11340989389E+04  0.11340989389E+04  0.50400001928E-02 0.  1.
    10030    2    1    2    0    0  0.00000000000E+00  0.00000000000E+00 -0.89770340659E+03  0.13704944713E+04  0.10355596022E+04 0.  0.
        5    1    3    3  502    0  0.12238965666E+03 -0.28467604694E+03  0.10010079696E+03  0.32567152056E+03  0.46999998093E+01 0. -1.
       -5    1    3    3    0  502 -0.12238965666E+03  0.28467604694E+03 -0.99780420355E+03  0.10448229507E+04  0.46999998093E+01 0.  1.
</event>
<event>
 5   0  0.1028016E-02  0.1115643E+04  0.7818609E-02  0.9190078E-01
       -2   -1    0    0    0  501  0.00000000000E+00  0.00000000000E+00  0.14179990693E+03  0.14179990695E+03  0.25500000920E-02 0. -1.
        2   -1    0    0  501    0  0.00000000000E+00  0.00000000000E+00 -0.21943929360E+04  0.21943929360E+04  0.25500000920E-02 0.  1.
    10030    2    1    2    0    0  0.00000000000E+00  0.00000000000E+00 -0.20525930291E+04  0.23361928430E+04  0.11156427997E+04 0.  0.
        2    1    3    3  502    0  0.32724033557E+03 -0.44045645416E+03 -0.81609284544E+03  0.98341021838E+03  0.25500000920E-02 0. -1.
       -2    1    3    3    0  502 -0.32724033557E+03  0.44045645416E+03 -0.12365001836E+04  0.13527826246E+04  0.25500000920E-02 0.  1.
</event>
<event>
 5   0  0.1028016E-02  0.1139551E+04  0.7818609E-02  0.9167478E-01
        2   -1    0    0  501    0  0.00000000000E+00  0.00000000000E+00  0.38512286571E+03  0.38512286572E+03  0.25500000920E-02 0. -1.
       -2   -1    0    0    0  501  0.00000000000E+00  0.00000000000E+00 -0.84296257735E+03  0.84296257735E+03  0.25500000920E-02 0.  1.
    10030    2    1    2    0    0  0.00000000000E+00  0.00000000000E+00 -0.45783971163E+03  0.12280854431E+04  0.11395510756E+04 0.  0.
        2    1    3    3  502    0  0.24718937173E+03 -0.65058382815E+02 -0.77770654703E+03  0.81863462666E+03  0.25500000920E-02 0.  1.
       -2    1    3    3    0  502 -0.24718937173E+03  0.65058382815E+02  0.31986683540E+03  0.40945081641E+03  0.25500000920E-02 0. -1.
</event>
<event>
 5   0  0.5854579E-03  0.1084288E+04  0.7818609E-02  0.9220643E-01
        1   -1    0    0  501    0  0.00000000000E+00  0.00000000000E+00  0.22674525570E+03  0.22674525575E+03  0.50400001928E-02 0. -1.
       -1   -1    0    0    0  501  0.00000000000E+00  0.00000000000E+00 -0.12962558368E+04  0.12962558368E+04  0.50400001928E-02 0.  1.
    10030    2    1    2    0    0  0.00000000000E+00  0.00000000000E+00 -0.10695105811E+04  0.15230010925E+04  0.10842875287E+04 0.  0.
        4    1    3    3  502    0  0.42222387919E+03 -0.31675407736E+03 -0.70856463082E+03  0.88355622268E+03  0.12699999809E+01 0. -1.
       -4    1    3    3    0  502 -0.42222387919E+03  0.31675407736E+03 -0.36094595024E+03  0.63944486985E+03  0.12699999809E+01 0.  1.
</event>
<event>
 5   0  0.9719260E-03  0.1099516E+04  0.7818609E-02  0.9205664E-01
       -2   -1    0    0    0  501  0.00000000000E+00  0.00000000000E+00  0.17199966265E+03  0.17199966267E+03  0.25500000920E-02 0.  1.
        2   -1    0    0  501    0  0.00000000000E+00  0.00000000000E+00 -0.17571760635E+04  0.17571760635E+04  0.25500000920E-02 0. -1.
    10030    2    1    2    0    0  0.00000000000E+00  0.00000000000E+00 -0.15851764008E+04  0.19291757261E+04  0.10995156937E+04 0.  0.
        3    1    3    3  502    0  0.30145424576E+03  0.34035403003E+03 -0.25032103085E+03  0.51901460166E+03  0.10100000352E+00 0.  1.
       -3    1    3    3    0  502 -0.30145424576E+03 -0.34035403003E+03 -0.13348553700E+04  0.14101611245E+04  0.10100000352E+00 0. -1.
</event>
<event>
 5   0  0.9719260E-03  0.1073980E+04  0.7818609E-02  0.9230930E-01
       -2   -1    0    0    0  501  0.00000000000E+00  0.00000000000E+00  0.33729329445E+03  0.33729329446E+03  0.25500000920E-02 0.  1.
        2   -1    0    0  501    0  0.00000000000E+00  0.00000000000E+00 -0.85491909071E+03  0.85491909071E+03  0.25500000920E-02 0. -1.
    10030    2    1    2    0    0  0.00000000000E+00  0.00000000000E+00 -0.51762579626E+03  0.11922123852E+04  0.10739804032E+04 0.  0.
        3    1    3    3  502    0  0.23902375904E+03  0.54088095204E+02  0.27159598181E+03  0.36581725897E+03  0.10100000352E+00 0.  1.
       -3    1    3    3    0  502 -0.23902375904E+03 -0.54088095204E+02 -0.78922177807E+03  0.82639512620E+03  0.10100000352E+00 0. -1.
</event>
<event>
 5   0  0.9925021E-03  0.9111362E+03  0.7818609E-02  0.9411767E-01
       -2   -1    0    0    0  501  0.00000000000E+00  0.00000000000E+00  0.17946936937E+03  0.17946936938E+03  0.25500000920E-02 0.  1.
        2   -1    0    0  501    0  0.00000000000E+00  0.00000000000E+00 -0.11564216966E+04  0.11564216966E+04  0.25500000920E-02 0. -1.
    10030    2    1    2    0    0  0.00000000000E+00  0.00000000000E+00 -0.97695232727E+03  0.13358910660E+04  0.91113615367E+03 0.  0.
        4    1    3    3  502    0  0.19559949645E+03 -0.26962834043E+03 -0.32821325365E+02  0.33471996844E+03  0.12699999809E+01 0.  1.
       -4    1    3    3    0  502 -0.19559949645E+03  0.26962834043E+03 -0.94413100191E+03  0.10011710976E+04  0.12699999809E+01 0. -1.
</event>
<event>
 5   0  0.5854579E-03  0.1097277E+04  0.7818609E-02  0.9207850E-01
        1   -1    0    0  501    0  0.00000000000E+00  0.00000000000E+00  0.58825247652E+03  0.58825247654E+03  0.50400001928E-02 0.  1.
       -1   -1    0    0    0  501  0.00000000000E+00  0.00000000000E+00 -0.51169224568E+03  0.51169224571E+03  0.50400001928E-02 0. -1.
    10030    2    1    2    0    0  0.00000000000E+00  0.00000000000E+00  0.76560230835E+02  0.10999447222E+04  0.10972770494E+04 0.  0.
        4    1    3    3  502    0 -0.31864236934E+02  0.54163725546E+03  0.11981895275E+03  0.55564776652E+03  0.12699999809E+01 0.  1.
       -4    1    3    3    0  502  0.31864236934E+02 -0.54163725546E+03 -0.43258721918E+02  0.54429695573E+03  0.12699999809E+01 0. -1.
</event>
<event>
 5   0  0.5854579E-03  0.1111410E+04  0.7818609E-02  0.9194142E-01
       -1   -1    0    0    0  501  0.00000000000E+00  0.00000000000E+00  0.34242903528E+03  0.34242903531E+03  0.50400001928E-02 0. -1.
        1   -1    0    0  501    0  0.00000000000E+00  0.00000000000E+00 -0.90181548627E+03  0.90181548628E+03  0.50400001928E-02 0.  1.
    10030    2    1    2    0    0  0.00000000000E+00  0.00000000000E+00 -0.55938645099E+03  0.12442445216E+04  0.11114095681E+04 0.  0.
        4    1    3    3  502    0 -0.17193726390E+03  0.15985239694E+03  0.28418343784E+03  0.36861504415E+03  0.12699999809E+01 0. -1.
       -4    1    3    3    0  502  0.17193726390E+03 -0.15985239694E+03 -0.84356988884E+03  0.87562947745E+03  0.12699999809E+01 0.  1.
</event>
<event>
 5   0  0.9692981E-03  0.1077209E+04  0.7818609E-02  0.9227695E-01
        2   -1    0    0  501    0  0.00000000000E+00  0.00000000000E+00  0.14066000367E+04  0.14066000367E+04  0.25500000920E-02 0.  1.
       -2   -1    0    0    0  501  0.00000000000E+00  0.00000000000E+00 -0.20623816881E+03  0.20623816883E+03  0.25500000920E-02 0. -1.
    10030    2    1    2    0    0  0.00000000000E+00  0.00000000000E+00  0.12003618679E+04  0.16128382056E+04  0.10772086443E+04 0.  0.
        5    1    3    3  502    0  0.48858588773E+02  0.41998181955E+03  0.10067598598E+03  0.43466036695E+03  0.46999998093E+01 0.  1.
       -5    1    3    3    0  502 -0.48858588773E+02 -0.41998181955E+03  0.10996858820E+04  0.11781778386E+04  0.46999998093E+01 0. -1.
</event>
<event>
 5   0  0.5854579E-03  0.8646691E+03  0.7818609E-02  0.9470857E-01
       -1   -1    0    0    0  501  0.00000000000E+00  0.00000000000E+00  0.50008730773E+03  0.50008730775E+03  0.50400001928E-02 0.  1.
        1   -1    0    0  501    0  0.00000000000E+00  0.00000000000E+00 -0.37376106090E+03  0.37376106093E+03  0.50400001928E-02 0. -1.
    10030    2    1    2    0    0  0.00000000000E+00  0.00000000000E+00  0.12632624683E+03  0.87384836869E+03  0.86466909903E+03 0.  0.
        4    1    3    3  502    0  0.33798873766E+03 -0.18040874884E+03  0.26560906136E+03  0.46619040082E+03  0.12699999809E+01 0. -1.
       -4    1    3    3    0  502 -0.33798873766E+03  0.18040874884E+03 -0.13928281453E+03  0.40765796787E+03  0.12699999809E+01 0.  1.
</event>
<event>
 5   0  0.9719260E-03  0.1094556E+04  0.7818609E-02  0.9210514E-01
       -2   -1    0    0    0  501  0.00000000000E+00  0.00000000000E+00  0.55042702965E+03  0.55042702966E+03  0.25500000920E-02 0.  1.
        2   -1    0    0  501    0  0.00000000000E+00  0.00000000000E+00 -0.54414673309E+03  0.54414673310E+03  0.25500000920E-02 0. -1.
    10030    2    1    2    0    0  0.00000000000E+00  0.00000000000E+00  0.62802965640E+01  0.10945737628E+04  0.10945557455E+04 0.  0.
        3    1    3    3  502    0  0.50643912239E+03  0.19472948111E+03 -0.68365604082E+02  0.54687660539E+03  0.10100000352E+00 0. -1.
       -3    1    3    3    0  502 -0.50643912239E+03 -0.19472948111E+03  0.74645900645E+02  0.54769715737E+03  0.10100000352E+00 0.  1.
</event>
<event>
 5   0  0.9719260E-03  0.1087108E+04  0.7818609E-02  0.9217850E-01
        2   -1    0    0  501    0  0.00000000000E+00  0.00000000000E+00  0.20878287855E+04  0.20878287855E+04  0.25500000920E-02 0. -1.
       -2   -1    0    0    0  501  0.00000000000E+00  0.00000000000E+00 -0.14151097637E+03  0.14151097640E+03  0.25500000920E-02 0.  1.
    10030    2    1    2    0    0  0.00000000000E+00  0.00000000000E+00  0.19463178092E+04  0.22293397619E+04  0.10871075199E+04 0.  0.
        3    1    3    3  502    0  0.29258215921E+03  0.53284756816E+02  0.19061905569E+04  0.19292501224E+04  0.10100000352E+00 0. -1.
       -3    1    3    3    0  502 -0.29258215921E+03 -0.53284756816E+02  0.40127252238E+02  0.30008963955E+03  0.10100000352E+00 0.  1.
</event>
<event>
 5   0  0.5854579E-03  0.1104868E+04  0.7818609E-02  0.9200460E-01
        1   -1    0    0  501    0  0.00000000000E+00  0.00000000000E+00  0.84511017367E+03  0.84511017368E+03  0.50400001928E-02 0.  1.
       -1   -1    0    0    0  501  0.00000000000E+00  0.00000000000E+00 -0.36111637404E+03  0.36111637407E+03  0.50400001928E-02 0. -1.
    10030    2    1    2    0    0  0.00000000000E+00  0.00000000000E+00  0.48399379963E+03  0.12062265478E+04  0.11048676330E+04 0.  0.
        4    1    3    3  502    0  0.14124832295E+03  0.52210889246E+03  0.36470327924E+03  0.65234874041E+03  0.12699999809E+01 0.  1.
       -4    1    3    3    0  502 -0.14124832295E+03 -0.52210889246E+03  0.11929052039E+03  0.55387780735E+03  0.12699999809E+01 0. -1.
</event>
<event>
 5   0  0.5998641E-03  0.1145019E+04  0.7818609E-02  0.9162391E-01
        1   -1    0    0  501    0  0.00000000000E+00  0.00000000000E+00  0.31671563417E+03  0.31671563421E+03  0.50400001928E-02 0. -1.
       -1   -1    0    0    0  501  0.00000000000E+00  0.00000000000E+00 -0.10348935627E+04  0.10348935627E+04  0.50400001928E-02 0.  1.
    10030    2    1    2    0    0  0.00000000000E+00  0.00000000000E+00 -0.71817792853E+03  0.13516091969E+04  0.11450187266E+04 0.  0.
        3    1    3    3  502    0 -0.54144283081E+03  0.15962513553E+03 -0.47185782697E+03  0.73572436551E+03  0.10100000352E+00 0. -1.
       -3    1    3    3    0  502  0.54144283081E+03 -0.15962513553E+03 -0.24632010156E+03  0.61588483141E+03  0.10100000352E+00 0.  1.
</event>
<event>
 5   0  0.5854579E-03  0.5802333E+03  0.7818609E-02  0.9947286E-01
        1   -1    0    0  501    0  0.00000000000E+00  0.00000000000E+00  0.13318996238E+04  0.13318996238E+04  0.50400001928E-02 0. -1.
       -1   -1    0    0    0  501  0.00000000000E+00  0.00000000000E+00 -0.63193709087E+02  0.63193709288E+02  0.50400001928E-02 0.  1.
    10030    2    1    2    0    0  0.00000000000E+00  0.00000000000E+00  0.12687059147E+04  0.13950933331E+04  0.58023332379E+03 0.  0.
        4    1    3    3  502    0  0.14215235107E+03  0.92771599630E+02  0.68676564441E+02  0.18311729578E+03  0.12699999809E+01 0.  1.
       -4    1    3    3    0  502 -0.14215235107E+03 -0.92771599630E+02  0.12000293503E+04  0.12119760373E+04  0.12699999809E+01 0. -1.
</event>
<event>
 5   0  0.9692981E-03  0.1170527E+04  0.7818609E-02  0.9139052E-01
       -2   -1    0    0    0  501  0.00000000000E+00  0.00000000000E+00  0.74863634931E+03  0.74863634932E+03  0.25500000920E-02 0.  1.
        2   -1    0    0  501    0  0.00000000000E+00  0.00000000000E+00 -0.45754328871E+03  0.45754328871E+03  0.25500000920E-02 0. -1.
    10030    2    1    2    0    0  0.00000000000E+00  0.00000000000E+00  0.29109306060E+03  0.12061796380E+04  0.11705272954E+04 0.  0.
        5    1    3    3  502    0 -0.43645990578E+03  0.14795941118E+03 -0.22616511194E+03  0.51338288301E+03  0.46999998093E+01 0. -1.
       -5    1    3    3    0  502  0.43645990578E+03 -0.14795941118E+03  0.51725817255E+03  0.69279675502E+03  0.46999998093E+01 0.  1.
</event>
<event>
 5   0  0.5854579E-03  0.1032562E+04  0.7818609E-02  0.9273535E-01
       -1   -1    0    0    0  501  0.00000000000E+00  0.00000000000E+00  0.75286143152E+03  0.75286143153E+03  0.50400001928E-02 0.  1.
        1   -1    0    0  501    0  0.00000000000E+00  0.00000000000E+00 -0.35404421997E+03  0.35404422000E+03  0.50400001928E-02 0. -1.
    10030    2    1    2    0    0  0.00000000000E+00  0.00000000000E+00  0.39881721155E+03  0.11069056515E+04  0.10325623241E+04 0.  0.
        4    1    3    3  502    0 -0.57236017187E+02 -0.50958445040E+03  0.13515703475E+03  0.53030303666E+03  0.12699999809E+01 0.  1.
       -4    1    3    3    0  502  0.57236017187E+02  0.50958445040E+03  0.26366017680E+03  0.57660261487E+03  0.12699999809E+01 0. -1.
</event>
<event>
 5   0  0.5712664E-03  0.1086336E+04  0.7818609E-02  0.9218613E-01
        1   -1    0    0  501    0  0.00000000000E+00  0.00000000000E+00  0.56768965225E+03  0.56768965227E+03  0.50400001928E-02 0.  1.
       -1   -1    0    0    0  501  0.00000000000E+00  0.00000000000E+00 -0.51970548028E+03  0.51970548030E+03  0.50400001928E-02 0. -1.
    10030    2    1    2    0    0  0.00000000000E+00  0.00000000000E+00  0.47984171968E+02  0.10873951326E+04  0.10863359027E+04 0.  0.
        5    1    3    3  502    0 -0.50783188180E+03 -0.12424012305E+03 -0.12339449661E+03  0.53719374544E+03  0.46999998093E+01 0. -1.
       -5    1    3    3    0  502  0.50783188180E+03  0.12424012305E+03  0.17137866858E+03  0.55020138712E+03  0.46999998093E+01 0.  1.
</event>
<event>
 5   0  0.5958706E-03  0.1102808E+04  0.7818609E-02  0.9202459E-01
       -1   -1    0    0    0  501  0.00000000000E+00  0.00000000000E+00  0.24980671480E+03  0.24980671485E+03  0.50400001928E-02 0. -1.
        1   -1    0    0  501    0  0.00000000000E+00  0.00000000000E+00 -0.12171274086E+04  0.12171274086E+04  0.50400001928E-02 0.  1.
    10030    2    1    2    0    0  0.00000000000E+00  0.00000000000E+00 -0.96732069382E+03  0.14669341235E+04  0.11028084140E+04 0.  0.
        2    1    3    3  502    0 -0.16297216292E+03  0.42705437584E+03 -0.73431262573E+02  0.46295519885E+03  0.25500000920E-02 0.  1.
       -2    1    3    3    0  502  0.16297216292E+03 -0.42705437584E+03 -0.89388943124E+03  0.10039789246E+04  0.25500000920E-02 0. -1.
</event>
<event>
 5   0  0.5712664E-03  0.1110383E+04  0.7818609E-02  0.9195130E-01
        1   -1    0    0  501    0  0.00000000000E+00  0.00000000000E+00  0.79522291916E+03  0.79522291917E+03  0.50400001928E-02 0. -1.
       -1   -1    0    0    0  501  0.00000000000E+00  0.00000000000E+00 -0.38761165380E+03  0.38761165383E+03  0.50400001928E-02 0.  1.
    10030    2    1    2    0    0  0.00000000000E+00  0.00000000000E+00  0.40761126536E+03  0.11828345730E+04  0.11103831246E+04 0.  0.
        5    1    3    3  502    0 -0.19848660852E+03  0.61242979111E+02 -0.34463517584E+03  0.40242158327E+03  0.46999998093E+01 0.  1.
       -5    1    3    3    0  502  0.19848660852E+03 -0.61242979111E+02  0.75224644120E+03  0.78041298974E+03  0.46999998093E+01 0. -1.
</event>
<event>
 5   0  0.1028016E-02  0.1102130E+04  0.7818609E-02  0.9203119E-01
        2   -1    0    0  501    0  0.00000000000E+00  0.00000000000E+00  0.43569893431E+03  0.43569893431E+03  0.25500000920E-02 0.  1.
       -2   -1    0    0    0  501  0.00000000000E+00  0.00000000000E+00 -0.69697785791E+03  0.69697785791E+03  0.25500000920E-02 0. -1.
    10030    2    1    2    0    0  0.00000000000E+00  0.00000000000E+00 -0.26127892360E+03  0.11326767922E+04  0.11021297745E+04 0.  0.
        2    1    3    3  502    0 -0.20499563745E+03 -0.50585042385E+03 -0.52609816025E+02  0.54833899682E+03  0.25500000920E-02 0. -1.
       -2    1    3    3    0  502  0.20499563745E+03  0.50585042385E+03 -0.20866910758E+03  0.58433779541E+03  0.25500000920E-02 0.  1.
</event>
<event>
 5   0  0.9925021E-03  0.1092861E+04  0.7818609E-02  0.9212178E-01
        2   -1    0    0  501    0  0.00000000000E+00  0.00000000000E+00  0.39389762941E+03  0.39389762942E+03  0.25500000920E-02 0. -1.
       -2   -1    0    0    0  501  0.00000000000E+00  0.00000000000E+00 -0.75803078286E+03  0.75803078286E+03  0.25500000920E-02 0.  1.
    10030    2    1    2    0    0  0.00000000000E+00  0.00000000000E+00 -0.36413315345E+03  0.11519284123E+04  0.10928614338E+04 0.  0.
        4    1    3    3  502    0 -0.22901291063E+03 -0.45256146531E+03 -0.39634217613E+03  0.64369831955E+03  0.12699999809E+01 0.  1.
       -4    1    3    3    0  502  0.22901291063E+03  0.45256146531E+03  0.32209022681E+02  0.50823009273E+03  0.12699999809E+01 0. -1.
</event>
<event>
 5   0  0.9719260E-03  0.1130616E+04  0.7818609E-02  0.9175855E-01
        2   -1    0    0  501    0  0.00000000000E+00  0.00000000000E+00  0.12006822053E+04  0.12006822053E+04  0.25500000920E-02 0.  1.
       -2   -1    0    0    0  501  0.00000000000E+00  0.00000000000E+00 -0.26615969323E+03  0.26615969324E+03  0.25500000920E-02 0. -1.
    10030    2    1    2    0    0  0.00000000000E+00  0.00000000000E+00  0.93452251205E+03  0.14668418985E+04  0.11306161284E+04 0.  0.
        3    1    3    3  502    0  0.53294487275E+03  0.92725878927E+02  0.25429726049E+03  0.59774194508E+03  0.10100000352E+00 0. -1.
       -3    1    3    3    0  502 -0.53294487275E+03 -0.92725878927E+02  0.68022525156E+03  0.86909995344E+03  0.10100000352E+00 0.  1.
</event>
<event>
 5   0  0.5854579E-03  0.1094921E+04  0.7818609E-02  0.9210156E-01
        1   -1    0    0  501    0  0.00000000000E+00  0.00000000000E+00  0.21685948904E+04  0.21685948904E+04  0.50400001928E-02 0. -1.
       -1   -1    0    0    0  501  0.00000000000E+00  0.00000000000E+00 -0.13820606010E+03  0.13820606019E+03  0.50400001928E-02 0.  1.
    10030    2    1    2    0    0  0.00000000000E+00  0.00000000000E+00  0.20303888303E+04  0.23068009506E+04  0.10949209211E+04 0.  0.
        4    1    3    3  502    0 -0.38014885900E+03 -0.27977343809E+03  0.15995284085E+04  0.16677167248E+04  0.12699999809E+01 0. -1.
       -4    1    3    3    0  502  0.38014885900E+03  0.27977343809E+03  0.43086042174E+03  0.63908422574E+03  0.12699999809E+01 0.  1.
</event>
<event>
 5   0  0.5998641E-03  0.1160208E+04  0.7818609E-02  0.9148418E-01
        1   -1    0    0  501    0  0.00000000000E+00  0.00000000000E+00  0.88047147561E+03  0.88047147562E+03  0.50400001928E-02 0. -1.
       -1   -1    0    0    0  501  0.00000000000E+00  0.00000000000E+00 -0.38220496153E+03  0.38220496157E+03  0.50400001928E-02 0.  1.
    10030    2    1    2    0    0  0.00000000000E+00  0.00000000000E+00  0.49826651407E+03  0.12626764372E+04  0.11602078546E+04 0.  0.
        3    1    3    3  502    0 -0.25270665350E+03 -0.15462624067E+03 -0.29366490555E+03  0.41714387683E+03  0.10100000352E+00 0.  1.
       -3    1    3    3    0  502  0.25270665350E+03  0.15462624067E+03  0.79193141963E+03  0.84553256035E+03  0.10100000352E+00 0. -1.
</event>
<event>
 5   0  0.5712664E-03  0.1112801E+04  0.7818609E-02  0.9192805E-01
        1   -1    0    0  501    0  0.00000000000E+00  0.00000000000E+00  0.83512382965E+03  0.83512382967E+03  0.50400001928E-02 0.  1.
       -1   -1    0    0    0  501  0.00000000000E+00  0.00000000000E+00 -0.37070103240E+03  0.37070103243E+03  0.50400001928E-02 0. -1.
    10030    2    1    2    0    0  0.00000000000E+00  0.00000000000E+00  0.46442279725E+03  0.12058248621E+04  0.11128005497E+04 0.  0.
        5    1    3    3  502    0 -0.39643661040E+03  0.86117400771E+02 -0.18038214019E+03  0.44400225143E+03  0.46999998093E+01 0. -1.
       -5    1    3    3    0  502  0.39643661040E+03 -0.86117400771E+02  0.64480493744E+03  0.76182261067E+03  0.46999998093E+01 0.  1.
</event>
<event>
 5   0  0.5712664E-03  0.1121685E+04  0.7818609E-02  0.9184310E-01
       -1   -1    0    0    0  501  0.00000000000E+00  0.00000000000E+00  0.10102339552E+04  0.10102339552E+04  0.50400001928E-02 0. -1.
        1   -1    0    0  501    0  0.00000000000E+00  0.00000000000E+00 -0.31135814401E+03  0.31135814405E+03  0.50400001928E-02 0.  1.
    10030    2    1    2    0    0  0.00000000000E+00  0.00000000000E+00  0.69887581115E+03  0.13215920992E+04  0.11216854627E+04 0.  0.
        5    1    3    3  502    0  0.22652151754E+03 -0.26427882560E+03 -0.16866702867E+03  0.38681513947E+03  0.46999998093E+01 0.  1.
       -5    1    3    3    0  502 -0.22652151754E+03  0.26427882560E+03  0.86754283981E+03  0.93477695975E+03  0.46999998093E+01 0. -1.
</event>
<event>
 5   0  0.1028016E-02  0.1118003E+04  0.7818609E-02  0.9187820E-01
       -2   -1    0    0    0  501  0.00000000000E+00  0.00000000000E+00  0.20755470986E+03  0.20755470987E+03  0.25500000920E-02 0.  1.
        2   -1    0    0  501    0  0.00000000000E+00  0.00000000000E+00 -0.15055444907E+04  0.15055444907E+04  0.25500000920E-02 0. -1.
    10030    2    1    2    0    0  0.00000000000E+00  0.00000000000E+00 -0.12979897808E+04  0.17130992006E+04  0.11180033094E+04 0.  0.
        2    1    3    3  502    0  0.13509057835E+03  0.53177850628E+03 -0.48506904469E+03  0.73234542548E+03  0.25500000920E-02 0. -1.
       -2    1    3    3    0  502 -0.13509057835E+03 -0.53177850628E+03 -0.81292073616E+03  0.98075377510E+03  0.25500000920E-02 0.  1.
</event>
<event>
 5   0  0.1028016E-02  0.1094260E+04  0.7818609E-02  0.9210804E-01
        2   -1    0    0  501    0  0.00000000000E+00  0.00000000000E+00  0.12623496488E+04  0.12623496488E+04  0.25500000920E-02 0.  1.
       -2   -1    0    0    0  501  0.00000000000E+00  0.00000000000E+00 -0.23713824709E+03  0.23713824711E+03  0.25500000920E-02 0. -1.
    10030    2    1    2    0    0  0.00000000000E+00  0.00000000000E+00  0.10252114017E+04  0.14994878959E+04  0.10942602669E+04 0.  0.
        2    1    3    3  502    0 -0.40956268200E+03 -0.33799213791E+02  0.10075693985E+04  0.10881544331E+04  0.25500000920E-02 0.  1.
       -2    1    3    3    0  502  0.40956268200E+03  0.33799213791E+02  0.17642003135E+02  0.41133346280E+03  0.25500000920E-02 0. -1.
</event>
<event>
 5   0  0.5789905E-03  0.1095172E+04  0.7818609E-02  0.9209910E-01
        1   -1    0    0  501    0  0.00000000000E+00  0.00000000000E+00  0.48209686932E+03  0.48209686935E+03  0.50400001928E-02 0. -1.
       -1   -1    0    0    0  501  0.00000000000E+00  0.00000000000E+00 -0.62197175215E+03  0.62197175217E+03  0.50400001928E-02 0.  1.
    10030    2    1    2    0    0  0.00000000000E+00  0.00000000000E+00 -0.13987488283E+03  0.11040686215E+04  0.10951723783E+04 0.  0.
        1    1    3    3  502    0  0.24443355990E+03  0.46680226403E+03 -0.22013938509E+03  0.57106345339E+03  0.50400001928E-02 0.  1.
       -1    1    3    3    0  502 -0.24443355990E+03 -0.46680226403E+03  0.80264502265E+02  0.53300516813E+03  0.50400001928E-02 0. -1.
</event>
<event>
 5   0  0.5854579E-03  0.1113156E+04  0.7818609E-02  0.9192463E-01
       -1   -1    0    0    0  501  0.00000000000E+00  0.00000000000E+00  0.44247356998E+03  0.44247357001E+03  0.50400001928E-02 0.  1.
        1   -1    0    0  501    0  0.00000000000E+00  0.00000000000E+00 -0.70010746032E+03  0.70010746034E+03  0.50400001928E-02 0. -1.
    10030    2    1    2    0    0  0.00000000000E+00  0.00000000000E+00 -0.25763389034E+03  0.11425810304E+04  0.11131559592E+04 0.  0.
        4    1    3    3  502    0  0.20302166452E+03 -0.21329404366E+03 -0.61359950951E+03  0.68060129026E+03  0.12699999809E+01 0. -1.
       -4    1    3    3    0  502 -0.20302166452E+03  0.21329404366E+03  0.35596561917E+03  0.46197974009E+03  0.12699999809E+01 0.  1.
</event>
<event>
 5   0  0.1019384E-02  0.1039718E+04  0.7818609E-02  0.9266024E-01
       -2   -1    0    0    0  501  0.00000000000E+00  0.00000000000E+00  0.14776645469E+03  0.14776645471E+03  0.25500000920E-02 0. -1.
        2   -1    0    0  501    0  0.00000000000E+00  0.00000000000E+00 -0.18289232255E+04  0.18289232255E+04  0.25500000920E-02 0.  1.
    10030    2    1    2    0    0  0.00000000000E+00  0.00000000000E+00 -0.16811567708E+04  0.19766896802E+04  0.10397182329E+04 0.  0.
        1    1    3    3  502    0 -0.10119392946E+03 -0.17608292126E+02  0.12828270931E+03  0.16433720469E+03  0.50400001928E-02 0. -1.
       -1    1    3    3    0  502  0.10119392946E+03  0.17608292126E+02 -0.18094394801E+04  0.18123524755E+04  0.50400001928E-02 0.  1.
</event>
<event>
 5   0  0.9692981E-03  0.1038832E+04  0.7818609E-02  0.9266951E-01
        2   -1    0    0  501    0  0.00000000000E+00  0.00000000000E+00  0.13441532225E+04  0.13441532225E+04  0.25500000920E-02 0. -1.
       -2   -1    0    0    0  501  0.00000000000E+00  0.00000000000E+00 -0.20071595638E+03  0.20071595640E+03  0.25500000920E-02 0.  1.
    10030    2    1    2    0    0  0.00000000000E+00  0.00000000000E+00  0.11434372661E+04  0.15448691789E+04  0.10388320357E+04 0.  0.
        5    1    3    3  502    0  0.18917708613E+03  0.18519726964E+03 -0.92818111080E+02  0.28057671026E+03  0.46999998093E+01 0.  1.
       -5    1    3    3    0  502 -0.18917708613E+03 -0.18519726964E+03  0.12362553772E+04  0.12642924686E+04  0.46999998093E+01 0. -1.
</event>
<event>
 5   0  0.5958706E-03  0.1094005E+04  0.7818609E-02  0.9211055E-01
        1   -1    0    0  501    0  0.00000000000E+00  0.00000000000E+00  0.39987254533E+03  0.39987254536E+03  0.50400001928E-02 0. -1.
       -1   -1    0    0    0  501  0.00000000000E+00  0.00000000000E+00 -0.74826722119E+03  0.74826722121E+03  0.50400001928E-02 0.  1.
    10030    2    1    2    0    0  0.00000000000E+00  0.00000000000E+00 -0.34839467586E+03  0.11481397666E+04  0.10940046039E+04 0.  0.
        2    1    3    3  502    0 -0.41643517639E+03  0.13003989978E+03 -0.52049967523E+03  0.67915281314E+03  0.25500000920E-02 0.  1.
       -2    1    3    3    0  502  0.41643517639E+03 -0.13003989978E+03  0.17210499937E+03  0.46898695343E+03  0.25500000920E-02 0. -1.
</event>
<event>
 5   0  0.5958706E-03  0.7029705E+03  0.7818609E-02  0.9712166E-01
        1   -1    0    0  501    0  0.00000000000E+00  0.00000000000E+00  0.35725528790E+03  0.35725528794E+03  0.50400001928E-02 0. -1.
       -1   -1    0    0    0  501  0.00000000000E+00  0.00000000000E+00 -0.34580841078E+03  0.34580841081E+03  0.50400001928E-02 0.  1.
    10030    2    1    2    0    0  0.00000000000E+00  0.00000000000E+00  0.11446877124E+02  0.70306369875E+03  0.70297050685E+03 0.  0.
        2    1    3    3  502    0  0.24601065562E+03  0.20566755775E+03 -0.13824527606E+03  0.34918783390E+03  0.25500000920E-02 0. -1.
       -2    1    3    3    0  502 -0.24601065562E+03 -0.20566755775E+03  0.14969215318E+03  0.35387586484E+03  0.25500000920E-02 0.  1.
</event>
<event>
 5   0  0.5998641E-03  0.1087279E+04  0.7818609E-02  0.9217680E-01
       -1   -1    0    0    0  501  0.00000000000E+00  0.00000000000E+00  0.20886209547E+03  0.20886209553E+03  0.50400001928E-02 0. -1.
        1   -1    0    0  501    0  0.00000000000E+00  0.00000000000E+00 -0.14150206434E+04  0.14150206434E+04  0.50400001928E-02 0.  1.
    10030    2    1    2    0    0  0.00000000000E+00  0.00000000000E+00 -0.12061585479E+04  0.16238827389E+04  0.10872794981E+04 0.  0.
        3    1    3    3  502    0  0.28658231779E+03 -0.40851578929E+03 -0.92524407358E+03  0.10512331715E+04  0.10100000352E+00 0.  1.
       -3    1    3    3    0  502 -0.28658231779E+03  0.40851578929E+03 -0.28091447433E+03  0.57264956741E+03  0.10100000352E+00 0. -1.
</event>
<event>
 5   0  0.9719260E-03  0.1098420E+04  0.7818609E-02  0.9206733E-01
        2   -1    0    0  501    0  0.00000000000E+00  0.00000000000E+00  0.13483300695E+03  0.13483300698E+03  0.25500000920E-02 0.  1.
       -2   -1    0    0    0  501  0.00000000000E+00  0.00000000000E+00 -0.22370751367E+04  0.22370751367E+04  0.25500000920E-02 0. -1.
    10030    2    1    2    0    0  0.00000000000E+00  0.00000000000E+00 -0.21022421297E+04  0.23719081437E+04  0.10984198969E+04 0.  0.
        3    1    3    3  502    0  0.40450816248E+03 -0.23461514526E+03 -0.16730846977E+04  0.17372056688E+04  0.10100000352E+00 0.  1.
       -3    1    3    3    0  502 -0.40450816248E+03  0.23461514526E+03 -0.42915743200E+03  0.63470247482E+03  0.10100000352E+00 0. -1.
</event>
<event>
 5   0  0.5712664E-03  0.1107548E+04  0.7818609E-02  0.9197866E-01
        1   -1    0    0  501    0  0.00000000000E+00  0.00000000000E+00  0.86947713231E+03  0.86947713232E+03  0.50400001928E-02 0. -1.
       -1   -1    0    0    0  501  0.00000000000E+00  0.00000000000E+00 -0.35270099742E+03  0.35270099746E+03  0.50400001928E-02 0.  1.
    10030    2    1    2    0    0  0.00000000000E+00  0.00000000000E+00  0.51677613489E+03  0.12221781298E+04  0.11075476546E+04 0.  0.
        5    1    3    3  502    0  0.17838971514E+03 -0.48538512781E+03  0.47693039523E+03  0.70349577444E+03  0.46999998093E+01 0. -1.
       -5    1    3    3    0  502 -0.17838971514E+03  0.48538512781E+03  0.39845739660E+02  0.51868235533E+03  0.46999998093E+01 0.  1.
</event>
<event>
 5   0  0.5958706E-03  0.1065879E+04  0.7818609E-02  0.9239102E-01
       -1   -1    0    0    0  501  0.00000000000E+00  0.00000000000E+00  0.44482140406E+03  0.44482140409E+03  0.50400001928E-02 0.  1.
        1   -1    0    0  501    0  0.00000000000E+00  0.00000000000E+00 -0.63851391454E+03  0.63851391456E+03  0.50400001928E-02 0. -1.
    10030    2    1    2    0    0  0.00000000000E+00  0.00000000000E+00 -0.19369251048E+03  0.10833353186E+04  0.10658792727E+04 0.  0.
        2    1    3    3  502    0 -0.38704667755E+02  0.14816993539E+03 -0.61566897681E+03  0.63442940511E+03  0.25500000920E-02 0. -1.
       -2    1    3    3    0  502  0.38704667755E+02 -0.14816993539E+03  0.42197646633E+03  0.44890591353E+03  0.25500000920E-02 0.  1.
</event>
<event>
 5   0  0.9719260E-03  0.1014326E+04  0.7818609E-02  0.9292970E-01
       -2   -1    0    0    0  501  0.00000000000E+00  0.00000000000E+00  0.28852702450E+03  0.28852702451E+03  0.25500000920E-02 0. -1.
        2   -1    0    0  501    0  0.00000000000E+00  0.00000000000E+00 -0.89147460145E+03  0.89147460145E+03  0.25500000920E-02 0.  1.
    10030    2    1    2    0    0  0.00000000000E+00  0.00000000000E+00 -0.60294757695E+03  0.11800016260E+04  0.10143264054E+04 0.  0.
        3    1    3    3  502    0 -0.36055211342E+03 -0.35078438585E+03 -0.22637789054E+03  0.55162892543E+03  0.10100000352E+00 0.  1.
       -3    1    3    3    0  502  0.36055211342E+03  0.35078438585E+03 -0.37656968641E+03  0.62837270053E+03  0.10100000352E+00 0. -1.
</event>
<event>
 5   0  0.9692981E-03  0.7347849E+03  0.7818609E-02  0.9659527E-01
        2   -1    0    0  501    0  0.00000000000E+00  0.00000000000E+00  0.91003300610E+03  0.91003300611E+03  0.25500000920E-02 0.  1.
       -2   -1    0    0    0  501  0.00000000000E+00  0.00000000000E+00 -0.14832123499E+03  0.14832123501E+03  0.25500000920E-02 0. -1.
    10030    2    1    2    0    0  0.00000000000E+00  0.00000000000E+00  0.76171177111E+03  0.10583542411E+04  0.73478491918E+03 0.  0.
        5    1    3    3  502    0  0.34059139083E+03 -0.58332014446E+02  0.20124355178E+03  0.39990771004E+03  0.46999998093E+01 0. -1.
       -5    1    3    3    0  502 -0.34059139083E+03  0.58332014446E+02  0.56046821933E+03  0.65844653108E+03  0.46999998093E+01 0.  1.
</event>
<event>
 5   0  0.9692981E-03  0.1170667E+04  0.7818609E-02  0.9138926E-01
        2   -1    0    0  501    0  0.00000000000E+00  0.00000000000E+00  0.46082951889E+03  0.46082951890E+03  0.25500000920E-02 0.  1.
       -2   -1    0    0    0  501  0.00000000000E+00  0.00000000000E+00 -0.74347498372E+03  0.74347498372E+03  0.25500000920E-02 0. -1.
    10030    2    1    2    0    0  0.00000000000E+00  0.00000000000E+00 -0.28264546482E+03  0.12043045026E+04  0.11706668511E+04 0.  0.
        5    1    3    3  502    0 -0.39555794190E+03  0.62431807105E+02 -0.58047194486E+03  0.70521882045E+03  0.46999998093E+01 0. -1.
       -5    1    3    3    0  502  0.39555794190E+03 -0.62431807105E+02  0.29782648004E+03  0.49908568217E+03  0.46999998093E+01 0.  1.
</event>
<event>
 5   0  0.9692981E-03  0.1119390E+04  0.7818609E-02  0.9186496E-01
        2   -1    0    0  501    0  0.00000000000E+00  0.00000000000E+00  0.97286097641E+03  0.97286097642E+03  0.25500000920E-02 0. -1.
       -2   -1    0    0    0  501  0.00000000000E+00  0.00000000000E+00 -0.32199744640E+03  0.32199744641E+03  0.25500000920E-02 0.  1.
    10030    2    1    2    0    0  0.00000000000E+00  0.00000000000E+00  0.65086353001E+03  0.12948584228E+04  0.11193904593E+04 0.  0.
        5    1    3    3  502    0  0.15904513713E+03  0.43181752085E+03  0.69391698426E+03  0.83264914460E+03  0.46999998093E+01 0. -1.
       -5    1    3    3    0  502 -0.15904513713E+03 -0.43181752085E+03 -0.43053454249E+02  0.46220927822E+03  0.46999998093E+01 0.  1.
</event>
<event>
 5   0  0.1028016E-02  0.1081459E+04  0.7818609E-02  0.9223454E-01
        2   -1    0    0  501    0  0.00000000000E+00  0.00000000000E+00  0.24782285195E+03  0.24782285197E+03  0.25500000920E-02 0.  1.
       -2   -1    0    0    0  501  0.00000000000E+00  0.00000000000E+00 -0.11798290679E+04  0.11798290679E+04  0.25500000920E-02 0. -1.
    10030    2    1    2    0    0  0.00000000000E+00  0.00000000000E+00 -0.93200621597E+03  0.14276519199E+04  0.10814593926E+04 0.  0.
        2    1    3    3  502    0 -0.30479106354E+03 -0.38886126507E+03 -0.75606216495E+03  0.90318363202E+03  0.25500000920E-02 0.  1.
       -2    1    3    3    0  502  0.30479106354E+03  0.38886126507E+03 -0.17594405102E+03  0.52446828787E+03  0.25500000920E-02 0. -1.
</event>
<event>
 5   0  0.9925021E-03  0.1089530E+04  0.7818609E-02  0.9215458E-01
        2   -1    0    0  501    0  0.00000000000E+00  0.00000000000E+00  0.82515536928E+03  0.82515536928E+03  0.25500000920E-02 0.  1.
       -2   -1    0    0    0  501  0.00000000000E+00  0.00000000000E+00 -0.35965187282E+03  0.35965187283E+03  0.25500000920E-02 0. -1.
    10030    2    1    2    0    0  0.00000000000E+00  0.00000000000E+00  0.46550349646E+03  0.11848072421E+04  0.10895295754E+04 0.  0.
        4    1    3    3  502    0  0.24907218222E+03  0.19793453844E+03  0.71363520634E+03  0.78133978146E+03  0.12699999809E+01 0.  1.
       -4    1    3    3    0  502 -0.24907218222E+03 -0.19793453844E+03 -0.24813170988E+03  0.40346746065E+03  0.12699999809E+01 0. -1.
</event>
<event>
 5   0  0.9719260E-03  0.1083006E+04  0.7818609E-02  0.9221916E-01
        2   -1    0    0  501    0  0.00000000000E+00  0.00000000000E+00  0.10185598971E+04  0.10185598971E+04  0.25500000920E-02 0.  1.
       -2   -1    0    0    0  501  0.00000000000E+00  0.00000000000E+00 -0.28788223851E+03  0.28788223852E+03  0.25500000920E-02 0. -1.
    10030    2    1    2    0    0  0.00000000000E+00  0.00000000000E+00  0.73067765859E+03  0.13064421356E+04  0.10830056385E+04 0.  0.
        3    1    3    3  502    0  0.65308746947E+02 -0.51645338422E+03  0.54522071354E+03  0.75382688143E+03  0.10100000352E+00 0.  1.
       -3    1    3    3    0  502 -0.65308746947E+02  0.51645338422E+03  0.18545694506E+03  0.55261525419E+03  0.10100000352E+00 0. -1.
</event>
<event>
 5   0  0.9692981E-03  0.1211812E+04  0.7818609E-02  0.9102580E-01
       -2   -1    0    0    0  501  0.00000000000E+00  0.00000000000E+00  0.27660875376E+03  0.27660875377E+03  0.25500000920E-02 0. -1.
        2   -1    0    0  501    0  0.00000000000E+00  0.00000000000E+00 -0.13272250178E+04  0.13272250178E+04  0.25500000920E-02 0.  1.
    10030    2    1    2    0    0  0.00000000000E+00  0.00000000000E+00 -0.10506162640E+04  0.16038337715E+04  0.12118119625E+04 0.  0.
        5    1    3    3  502    0  0.55192896647E+03 -0.24987514567E+03 -0.51727985145E+03  0.79665783569E+03  0.46999998093E+01 0.  1.
       -5    1    3    3    0  502 -0.55192896647E+03  0.24987514567E+03 -0.53333641255E+03  0.80717593584E+03  0.46999998093E+01 0. -1.
</event>
<event>
 5   0  0.9925021E-03  0.1102733E+04  0.7818609E-02  0.9202532E-01
        2   -1    0    0  501    0  0.00000000000E+00  0.00000000000E+00  0.21551900702E+04  0.21551900702E+04  0.25500000920E-02 0. -1.
       -2   -1    0    0    0  501  0.00000000000E+00  0.00000000000E+00 -0.14105729364E+03  0.14105729367E+03  0.25500000920E-02 0.  1.
    10030    2    1    2    0    0  0.00000000000E+00  0.00000000000E+00  0.20141327766E+04  0.22962473639E+04  0.11027334739E+04 0.  0.
        4    1    3    3  502    0  0.45875119819E+02 -0.63867469350E+02  0.21434503737E+04  0.21448927007E+04  0.12699999809E+01 0. -1.
       -4    1    3    3    0  502 -0.45875119819E+02  0.63867469350E+02 -0.12931759707E+03  0.15135466320E+03  0.12699999809E+01 0.  1.
</event>
<event>
 5   0  0.5712664E-03  0.1196309E+04  0.7818609E-02  0.9116094E-01
        1   -1    0    0  501    0  0.00000000000E+00  0.00000000000E+00  0.80681948029E+03  0.80681948030E+03  0.50400001928E-02 0. -1.
       -1   -1    0    0    0  501  0.00000000000E+00  0.00000000000E+00 -0.44345568695E+03  0.44345568697E+03  0.50400001928E-02 0.  1.
    10030    2    1    2    0    0  0.00000000000E+00  0.00000000000E+00  0.36336379334E+03  0.12502751673E+04  0.11963088011E+04 0.  0.
        5    1    3    3  502    0  0.41346281859E+03  0.40033786484E+03  0.35195698899E+03  0.67462413274E+03  0.46999998093E+01 0. -1.
       -5    1    3    3    0  502 -0.41346281859E+03 -0.40033786484E+03  0.11406804351E+02  0.57565103454E+03  0.46999998093E+01 0.  1.
</event>
<event>
 5   0  0.1019384E-02  0.1152106E+04  0.7818609E-02  0.9155843E-01
        2   -1    0    0  501    0  0.00000000000E+00  0.00000000000E+00  0.74465106882E+03  0.74465106883E+03  0.25500000920E-02 0.  1.
       -2   -1    0    0    0  501  0.00000000000E+00  0.00000000000E+00 -0.44562760366E+03  0.44562760367E+03  0.25500000920E-02 0. -1.
    10030    2    1    2    0    0  0.00000000000E+00  0.00000000000E+00  0.29902346516E+03  0.11902786725E+04  0.11521060218E+04 0.  0.
        1    1    3    3  502    0 -0.41354887780E+03  0.24357862922E+03 -0.17960856672E+03  0.51245727647E+03  0.50400001928E-02 0.  1.
       -1    1    3    3    0  502  0.41354887780E+03 -0.24357862922E+03  0.47863203189E+03  0.67782139603E+03  0.50400001928E-02 0. -1.
</event>
<event>
 5   0  0.5958706E-03  0.6899078E+03  0.7818609E-02  0.9734649E-01
        1   -1    0    0  501    0  0.00000000000E+00  0.00000000000E+00  0.16952036306E+04  0.16952036307E+04  0.50400001928E-02 0.  1.
       -1   -1    0    0    0  501  0.00000000000E+00  0.00000000000E+00 -0.70194039966E+02  0.70194040147E+02  0.50400001928E-02 0. -1.
    10030    2    1    2    0    0  0.00000000000E+00  0.00000000000E+00  0.16250095907E+04  0.17653976708E+04  0.68990779548E+03 0.  0.
        2    1    3    3  502    0 -0.27175269800E+03 -0.76264398728E+02  0.30504792366E+03  0.41559598544E+03  0.25500000920E-02 0. -1.
       -2    1    3    3    0  502  0.27175269800E+03  0.76264398728E+02  0.13199616670E+04  0.13498016854E+04  0.25500000920E-02 0.  1.
</event>
<event>
 5   0  0.9719260E-03  0.1121353E+04  0.7818609E-02  0.9184626E-01
        2   -1    0    0  501    0  0.00000000000E+00  0.00000000000E+00  0.19938345796E+04  0.19938345796E+04  0.25500000920E-02 0. -1.
       -2   -1    0    0    0  501  0.00000000000E+00  0.00000000000E+00 -0.15766508472E+03  0.15766508474E+03  0.25500000920E-02 0.  1.
    10030    2    1    2    0    0  0.00000000000E+00  0.00000000000E+00  0.18361694949E+04  0.21514996644E+04  0.11213529292E+04 0.  0.
        3    1    3    3  502    0  0.48323006887E+02 -0.55023525808E+03  0.73341259539E+03  0.91814377823E+03  0.10100000352E+00 0.  1.
       -3    1    3    3    0  502 -0.48323006887E+02  0.55023525808E+03  0.11027568995E+04  0.12333558862E+04  0.10100000352E+00 0. -1.
</event>
<event>
 5   0  0.5854579E-03  0.1086284E+04  0.7818609E-02  0.9218665E-01
        1   -1    0    0  501    0  0.00000000000E+00  0.00000000000E+00  0.30876201190E+03  0.30876201194E+03  0.50400001928E-02 0. -1.
       -1   -1    0    0    0  501  0.00000000000E+00  0.00000000000E+00 -0.95543811062E+03  0.95543811063E+03  0.50400001928E-02 0.  1.
    10030    2    1    2    0    0  0.00000000000E+00  0.00000000000E+00 -0.64667609872E+03  0.12642001226E+04  0.10862835602E+04 0.  0.
        4    1    3    3  502    0 -0.19481673047E+03  0.31181090765E+03  0.14191647218E+03  0.39410848580E+03  0.12699999809E+01 0. -1.
       -4    1    3    3    0  502  0.19481673047E+03 -0.31181090765E+03 -0.78859257090E+03  0.87009163677E+03  0.12699999809E+01 0.  1.
</event>
<event>
 5   0  0.5789905E-03  0.1073193E+04  0.7818609E-02  0.9231721E-01
        1   -1    0    0  501    0  0.00000000000E+00  0.00000000000E+00  0.89983084648E+03  0.89983084649E+03  0.50400001928E-02 0. -1.
       -1   -1    0    0    0  501  0.00000000000E+00  0.00000000000E+00 -0.31998888916E+03  0.31998888920E+03  0.50400001928E-02 0.  1.
    10030    2    1    2    0    0  0.00000000000E+00  0.00000000000E+00  0.57984195732E+03  0.12198197357E+04  0.10731931290E+04 0.  0.
        1    1    3    3  502    0  0.22615735536E+03  0.32052464339E+03 -0.12623440474E+03  0.41209018597E+03  0.50400001928E-02 0.  1.
       -1    1    3    3    0  502 -0.22615735536E+03 -0.32052464339E+03  0.70607636206E+03  0.80772954972E+03  0.50400001928E-02 0. -1.
</event>
<event>
 5   0  0.5712664E-03  0.1047992E+04  0.7818609E-02  0.9257420E-01
        1   -1    0    0  501    0  0.00000000000E+00  0.00000000000E+00  0.11736936124E+04  0.11736936124E+04  0.50400001928E-02 0. -1.
       -1   -1    0    0    0  501  0.00000000000E+00  0.00000000000E+00 -0.23393812340E+03  0.23393812345E+03  0.50400001928E-02 0.  1.
    10030    2    1    2    0    0  0.00000000000E+00  0.00000000000E+00  0.93975548897E+03  0.14076317358E+04  0.10479917579E+04 0.  0.
        5    1    3    3  502    0 -0.10572814975E+03 -0.14052318381E+03 -0.19308871893E+03  0.26120978201E+03  0.46999998093E+01 0.  1.
       -5    1    3    3    0  502  0.10572814975E+03  0.14052318381E+03  0.11328442079E+04  0.11464219538E+04  0.46999998093E+01 0. -1.
</event>
<event>
 5   0  0.9925021E-03  0.1123839E+04  0.7818609E-02  0.9182263E-01
       -2   -1    0    0    0  501  0.00000000000E+00  0.00000000000E+00  0.58112607551E+03  0.58112607552E+03  0.25500000920E-02 0.  1.
        2   -1    0    0  501    0  0.00000000000E+00  0.00000000000E+00 -0.54334760358E+03  0.54334760358E+03  0.25500000920E-02 0. -1.
    10030    2    1    2    0    0  0.00000000000E+00  0.00000000000E+00  0.37778471938E+02  0.11244736791E+04  0.11238388862E+04 0.  0.
        4    1    3    3  502    0  0.41568176785E+03  0.21985499369E+02  0.39656390194E+03  0.57492541736E+03  0.12699999809E+01 0.  1.
       -4    1    3    3    0  502 -0.41568176785E+03 -0.21985499369E+02 -0.35878543000E+03  0.54954826174E+03  0.12699999809E+01 0. -1.
</event>
<event>
 5   0  0.5958706E-03  0.1100836E+04  0.7818609E-02  0.9204378E-01
       -1   -1    0    0    0  501  0.00000000000E+00  0.00000000000E+00  0.39170709344E+03  0.39170709348E+03  0.50400001928E-02 0. -1.
        1   -1    0    0  501    0  0.00000000000E+00  0.00000000000E+00 -0.77343461675E+03  0.77343461677E+03  0.50400001928E-02 0.  1.
    10030    2    1    2    0    0  0.00000000000E+00  0.00000000000E+00 -0.38172752331E+03  0.11651417102E+04  0.11008357293E+04 0.  0.
        2    1    3    3  502    0 -0.14658466048E+03  0.36224407012E+03  0.21940302400E+03  0.44815791410E+03  0.25500000920E-02 0. -1.
       -2    1    3    3    0  502  0.14658466048E+03 -0.36224407012E+03 -0.60113054730E+03  0.71698379614E+03  0.25500000920E-02 0.  1.
</event>
<event>
 5   0  0.1028016E-02  0.7294502E+03  0.7818609E-02  0.9668153E-01
        2   -1    0    0  501    0  0.00000000000E+00  0.00000000000E+00  0.12901820977E+04  0.12901820977E+04  0.25500000920E-02 0. -1.
       -2   -1    0    0    0  501  0.00000000000E+00  0.00000000000E+00 -0.10310514248E+03  0.10310514252E+03  0.25500000920E-02 0.  1.
    10030    2    1    2    0    0  0.00000000000E+00  0.00000000000E+00  0.11870769552E+04  0.13932872402E+04  0.72945022870E+03 0.  0.
        2    1    3    3  502    0 -0.19514830644E+03  0.18890808644E+03  0.10584909176E+04  0.10927818398E+04  0.25500000920E-02 0. -1.
       -2    1    3    3    0  502  0.19514830644E+03 -0.18890808644E+03  0.12858603759E+03  0.30050540045E+03  0.25500000920E-02 0.  1.
</event>
<event>
 5   0  0.3949750E-03  0.1094634E+04  0.7818609E-02  0.9210437E-01
        3   -1    0    0  501    0  0.00000000000E+00  0.00000000000E+00  0.16862735629E+04  0.16862735659E+04  0.10100000352E+00 0. -1.
       -3   -1    0    0    0  501  0.00000000000E+00  0.00000000000E+00 -0.17764385155E+03  0.17764388027E+03  0.10100000352E+00 0.  1.
    10030    2    1    2    0    0  0.00000000000E+00  0.00000000000E+00  0.15086297113E+04  0.18639174461E+04  0.10946344779E+04 0.  0.
        3    1    3    3  502    0 -0.14425368598E+03 -0.29633487051E+03  0.14983572324E+04  0.15341766155E+04  0.10100000352E+00 0. -1.
       -3    1    3    3    0  502  0.14425368598E+03  0.29633487051E+03  0.10272478920E+02  0.32974083069E+03  0.10100000352E+00 0.  1.
</event>
<event>
 5   0  0.1019384E-02  0.1120688E+04  0.7818609E-02  0.9185260E-01
        2   -1    0    0  501    0  0.00000000000E+00  0.00000000000E+00  0.40022842255E+03  0.40022842256E+03  0.25500000920E-02 0.  1.
       -2   -1    0    0    0  501  0.00000000000E+00  0.00000000000E+00 -0.78451505629E+03  0.78451505630E+03  0.25500000920E-02 0. -1.
    10030    2    1    2    0    0  0.00000000000E+00  0.00000000000E+00 -0.38428663375E+03  0.11847434789E+04  0.11206876879E+04 0.  0.
        1    1    3    3  502    0 -0.46772435791E+03  0.85958373845E+02 -0.50544442079E+03  0.69399494202E+03  0.50400001928E-02 0. -1.
       -1    1    3    3    0  502  0.46772435791E+03 -0.85958373845E+02  0.12115778704E+03  0.49074853683E+03  0.50400001928E-02 0.  1.
</event>
<event>
 5   0  0.9692981E-03  0.1081149E+04  0.7818609E-02  0.9223763E-01
        2   -1    0    0  501    0  0.00000000000E+00  0.00000000000E+00  0.74389594225E+03  0.74389594225E+03  0.25500000920E-02 0.  1.
       -2   -1    0    0    0  501  0.00000000000E+00  0.00000000000E+00 -0.39282479202E+03  0.39282479203E+03  0.25500000920E-02 0. -1.
    10030    2    1    2    0    0  0.00000000000E+00  0.00000000000E+00  0.35107115023E+03  0.11367207343E+04  0.10811489607E+04 0.  0.
        5    1    3    3  502    0 -0.40094843165E+02  0.40451181572E+03  0.55016672151E+03  0.68406353284E+03  0.46999998093E+01 0.  1.
       -5    1    3    3    0  502  0.40094843165E+02 -0.40451181572E+03 -0.19909557129E+03  0.45265720144E+03  0.46999998093E+01 0. -1.
</event>
<event>
 5   0  0.5958706E-03  0.1091198E+04  0.7818609E-02  0.9213814E-01
       -1   -1    0    0    0  501  0.00000000000E+00  0.00000000000E+00  0.28498285262E+03  0.28498285267E+03  0.50400001928E-02 0. -1.
        1   -1    0    0  501    0  0.00000000000E+00  0.00000000000E+00 -0.10445470799E+04  0.10445470799E+04  0.50400001928E-02 0.  1.
    10030    2    1    2    0    0  0.00000000000E+00  0.00000000000E+00 -0.75956422727E+03  0.13295299326E+04  0.10911975194E+04 0.  0.
        2    1    3    3  502    0  0.96277785113E+02  0.46274760192E+03 -0.47726392078E+02  0.47506058929E+03  0.25500000920E-02 0. -1.
       -2    1    3    3    0  502 -0.96277785113E+02 -0.46274760192E+03 -0.71183783519E+03  0.85446934328E+03  0.25500000920E-02 0.  1.
</event>
<event>
 5   0  0.5854579E-03  0.1077030E+04  0.7818609E-02  0.9227874E-01
       -1   -1    0    0    0  501  0.00000000000E+00  0.00000000000E+00  0.39812972113E+03  0.39812972116E+03  0.50400001928E-02 0.  1.
        1   -1    0    0  501    0  0.00000000000E+00  0.00000000000E+00 -0.72840147846E+03  0.72840147847E+03  0.50400001928E-02 0. -1.
    10030    2    1    2    0    0  0.00000000000E+00  0.00000000000E+00 -0.33027175733E+03  0.11265311996E+04  0.10770297629E+04 0.  0.
        4    1    3    3  502    0 -0.11113358978E+03 -0.50491718646E+03 -0.32274185536E+03  0.60947186815E+03  0.12699999809E+01 0. -1.
       -4    1    3    3    0  502  0.11113358978E+03  0.50491718646E+03 -0.75299019621E+01  0.51705933149E+03  0.12699999809E+01 0.  1.
</event>
<event>
 5   0  0.9925021E-03  0.1094266E+04  0.7818609E-02  0.9210799E-01
        2   -1    0    0  501    0  0.00000000000E+00  0.00000000000E+00  0.66275971531E+03  0.66275971532E+03  0.25500000920E-02 0. -1.
       -2   -1    0    0    0  501  0.00000000000E+00  0.00000000000E+00 -0.45167848561E+03  0.45167848562E+03  0.25500000920E-02 0.  1.
    10030    2    1    2    0    0  0.00000000000E+00  0.00000000000E+00  0.21108122970E+03  0.11144382009E+04  0.10942656068E+04 0.  0.
        4    1    3    3  502    0  0.50868075115E+03  0.19896105953E+03  0.13792430965E+03  0.56335276505E+03  0.12699999809E+01 0. -1.
       -4    1    3    3    0  502 -0.50868075115E+03 -0.19896105953E+03  0.73156920053E+02  0.55108543589E+03  0.12699999809E+01 0.  1.
</event>
<event>
 5   0  0.9719260E-03  0.1085976E+04  0.7818609E-02  0.9218969E-01
        2   -1    0    0  501    0  0.00000000000E+00  0.00000000000E+00  0.70466797222E+03  0.70466797222E+03  0.25500000920E-02 0. -1.
       -2   -1    0    0    0  501  0.00000000000E+00  0.00000000000E+00 -0.41840414444E+03  0.41840414445E+03  0.25500000920E-02 0.  1.
    10030    2    1    2    0    0  0.00000000000E+00  0.00000000000E+00  0.28626382777E+03  0.11230721167E+04  0.10859760587E+04 0.  0.
        3    1    3    3  502    0  0.26741475649E+03 -0.44049009532E+02 -0.34345621785E+03  0.43750788679E+03  0.10100000352E+00 0.  1.
       -3    1    3    3    0  502 -0.26741475649E+03  0.44049009532E+02  0.62972004562E+03  0.68556422988E+03  0.10100000352E+00 0. -1.
</event>
<event>
 5   0  0.5789905E-03  0.1114349E+04  0.7818609E-02  0.9191318E-01
       -1   -1    0    0    0  501  0.00000000000E+00  0.00000000000E+00  0.56251087667E+03  0.56251087669E+03  0.50400001928E-02 0.  1.
        1   -1    0    0  501    0  0.00000000000E+00  0.00000000000E+00 -0.55188848698E+03  0.55188848700E+03  0.50400001928E-02 0. -1.
    10030    2    1    2    0    0  0.00000000000E+00  0.00000000000E+00  0.10622389691E+02  0.11143993637E+04  0.11143487365E+04 0.  0.
        1    1    3    3  502    0 -0.14550324747E+03  0.57971977694E+02 -0.52941986941E+03  0.55210265655E+03  0.50400001928E-02 0. -1.
       -1    1    3    3    0  502  0.14550324747E+03 -0.57971977694E+02  0.54004225910E+03  0.56229670714E+03  0.50400001928E-02 0.  1.
</event>
<event>
 5   0  0.5789905E-03  0.1082861E+04  0.7818609E-02  0.9222060E-01
       -1   -1    0    0    0  501  0.00000000000E+00  0.00000000000E+00  0.82318500635E+03  0.82318500636E+03  0.50400001928E-02 0.  1.
        1   -1    0    0  501    0  0.00000000000E+00  0.00000000000E+00 -0.35611311426E+03  0.35611311430E+03  0.50400001928E-02 0. -1.
    10030    2    1    2    0    0  0.00000000000E+00  0.00000000000E+00  0.46707189209E+03  0.11792981207E+04  0.10828609814E+04 0.  0.
        1    1    3    3  502    0 -0.24936710501E+03 -0.46258234155E+02 -0.28741991410E+03  0.38331968947E+03  0.50400001928E-02 0. -1.
       -1    1    3    3    0  502  0.24936710501E+03  0.46258234155E+02  0.75449180619E+03  0.79597843119E+03  0.50400001928E-02 0.  1.
</event>
<event>
 5   0  0.5958706E-03  0.1174085E+04  0.7818609E-02  0.9135848E-01
        1   -1    0    0  501    0  0.00000000000E+00  0.00000000000E+00  0.53955833316E+03  0.53955833318E+03  0.50400001928E-02 0.  1.
       -1   -1    0    0    0  501  0.00000000000E+00  0.00000000000E+00 -0.63870508506E+03  0.63870508508E+03  0.50400001928E-02 0. -1.
    10030    2    1    2    0    0  0.00000000000E+00  0.00000000000E+00 -0.99146751902E+02  0.11782634183E+04  0.11740845815E+04 0.  0.
        2    1    3    3  502    0  0.34143849464E+03  0.21173217625E+03  0.37997798288E+03  0.55298646237E+03  0.25500000920E-02 0.  1.
       -2    1    3    3    0  502 -0.34143849464E+03 -0.21173217625E+03 -0.47912473479E+03  0.62527695589E+03  0.25500000920E-02 0. -1.
</event>
<event>
 5   0  0.5958706E-03  0.1101673E+04  0.7818609E-02  0.9203563E-01
        1   -1    0    0  501    0  0.00000000000E+00  0.00000000000E+00  0.12595793849E+04  0.12595793849E+04  0.50400001928E-02 0.  1.
       -1   -1    0    0    0  501  0.00000000000E+00  0.00000000000E+00 -0.24089041310E+03  0.24089041316E+03  0.50400001928E-02 0. -1.
    10030    2    1    2    0    0  0.00000000000E+00  0.00000000000E+00  0.10186889718E+04  0.15004697980E+04  0.11016725437E+04 0.  0.
        2    1    3    3  502    0 -0.23576226904E+03  0.30009627362E+03  0.10503470218E+04  0.11175287411E+04  0.25500000920E-02 0.  1.
       -2    1    3    3    0  502  0.23576226904E+03 -0.30009627362E+03 -0.31658050052E+02  0.38294105693E+03  0.25500000920E-02 0. -1.
</event>
<event>
 5   0  0.9692981E-03  0.1110358E+04  0.7818609E-02  0.9195155E-01
        2   -1    0    0  501    0  0.00000000000E+00  0.00000000000E+00  0.73377311610E+03  0.73377311610E+03  0.25500000920E-02 0.  1.
       -2   -1    0    0    0  501  0.00000000000E+00  0.00000000000E+00 -0.42005313135E+03  0.42005313136E+03  0.25500000920E-02 0. -1.
    10030    2    1    2    0    0  0.00000000000E+00  0.00000000000E+00  0.31371998474E+03  0.11538262475E+04  0.11103579515E+04 0.  0.
        5    1    3    3  502    0 -0.62205574967E+02  0.43984087361E+03 -0.18914988756E+03  0.48283464832E+03  0.46999998093E+01 0. -1.
       -5    1    3    3    0  502  0.62205574967E+02 -0.43984087361E+03  0.50286987230E+03  0.67099159914E+03  0.46999998093E+01 0.  1.
</event>
<event>
 5   0  0.5712664E-03  0.1128151E+04  0.7818609E-02  0.9178180E-01
       -1   -1    0    0    0  501  0.00000000000E+00  0.00000000000E+00  0.17666129987E+03  0.17666129995E+03  0.50400001928E-02 0. -1.
        1   -1    0    0  501    0  0.00000000000E+00  0.00000000000E+00 -0.18010801776E+04  0.18010801776E+04  0.50400001928E-02 0.  1.
    10030    2    1    2    0    0  0.00000000000E+00  0.00000000000E+00 -0.16244188777E+04  0.19777414776E+04  0.11281509924E+04 0.  0.
        5    1    3    3  502    0  0.32279454211E+02  0.20170476389E+03  0.10950562628E+03  0.23181964353E+03  0.46999998093E+01 0. -1.
       -5    1    3    3    0  502 -0.32279454211E+02 -0.20170476389E+03 -0.17339245040E+04  0.17459218340E+04  0.46999998093E+01 0.  1.
</event>
<event>
 5   0  0.5998641E-03  0.9546582E+03  0.7818609E-02  0.9359722E-01
        1   -1    0    0  501    0  0.00000000000E+00  0.00000000000E+00  0.20197268887E+03  0.20197268893E+03  0.50400001928E-02 0. -1.
       -1   -1    0    0    0  501  0.00000000000E+00  0.00000000000E+00 -0.11280884824E+04  0.11280884824E+04  0.50400001928E-02 0.  1.
    10030    2    1    2    0    0  0.00000000000E+00  0.00000000000E+00 -0.92611579353E+03  0.13300611713E+04  0.95465818830E+03 0.  0.
        3    1    3    3  502    0 -0.11667799385E+03 -0.37546474307E+03 -0.85968856725E+02  0.40246513149E+03  0.10100000352E+00 0. -1.
       -3    1    3    3    0  502  0.11667799385E+03  0.37546474307E+03 -0.84014693680E+03  0.92759603985E+03  0.10100000352E+00 0.  1.
</event>
<event>
 5   0  0.5998641E-03  0.1098474E+04  0.7818609E-02  0.9206680E-01
       -1   -1    0    0    0  501  0.00000000000E+00  0.00000000000E+00  0.36101645568E+03  0.36101645571E+03  0.50400001928E-02 0.  1.
        1   -1    0    0  501    0  0.00000000000E+00  0.00000000000E+00 -0.83558917823E+03  0.83558917825E+03  0.50400001928E-02 0. -1.
    10030    2    1    2    0    0  0.00000000000E+00  0.00000000000E+00 -0.47457272255E+03  0.11966056340E+04  0.10984742938E+04 0.  0.
        3    1    3    3  502    0  0.53625140402E+03 -0.11810526720E+03 -0.22407839601E+03  0.59306454979E+03  0.10100000352E+00 0. -1.
       -3    1    3    3    0  502 -0.53625140402E+03  0.11810526720E+03 -0.25049432654E+03  0.60354108417E+03  0.10100000352E+00 0.  1.
</event>
<event>
 5   0  0.5854579E-03  0.1008456E+04  0.7818609E-02  0.9299319E-01
        1   -1    0    0  501    0  0.00000000000E+00  0.00000000000E+00  0.11483196683E+04  0.11483196684E+04  0.50400001928E-02 0.  1.
       -1   -1    0    0    0  501  0.00000000000E+00  0.00000000000E+00 -0.22140669572E+03  0.22140669578E+03  0.50400001928E-02 0. -1.
    10030    2    1    2    0    0  0.00000000000E+00  0.00000000000E+00  0.92691297263E+03  0.13697263641E+04  0.10084555785E+04 0.  0.
        4    1    3    3  502    0  0.94538001016E+02 -0.20624189896E+03  0.10750739148E+04  0.10987532433E+04  0.12699999809E+01 0. -1.
       -4    1    3    3    0  502 -0.94538001016E+02  0.20624189896E+03 -0.14816094217E+03  0.27097312082E+03  0.12699999809E+01 0.  1.
</event>
<event>
 5   0  0.1028016E-02  0.1128520E+04  0.7818609E-02  0.9177832E-01
        2   -1    0    0  501    0  0.00000000000E+00  0.00000000000E+00  0.77741037666E+03  0.77741037667E+03  0.25500000920E-02 0.  1.
       -2   -1    0    0    0  501  0.00000000000E+00  0.00000000000E+00 -0.40955112919E+03  0.40955112919E+03  0.25500000920E-02 0. -1.
    10030    2    1    2    0    0  0.00000000000E+00  0.00000000000E+00  0.36785924748E+03  0.11869615059E+04  0.11285199114E+04 0.  0.
        2    1    3    3  502    0  0.37375315854E+03 -0.13757177050E+03  0.60434402475E+03  0.72377421605E+03  0.25500000920E-02 0.  1.
       -2    1    3    3    0  502 -0.37375315854E+03  0.13757177050E+03 -0.23648477727E+03  0.46318728982E+03  0.25500000920E-02 0. -1.
</event>
<event>
 5   0  0.1019384E-02  0.1117747E+04  0.7818609E-02  0.9188065E-01
        2   -1    0    0  501    0  0.00000000000E+00  0.00000000000E+00  0.29419616049E+03  0.29419616050E+03  0.25500000920E-02 0.  1.
       -2   -1    0    0    0  501  0.00000000000E+00  0.00000000000E+00 -0.10616717530E+04  0.10616717530E+04  0.25500000920E-02 0. -1.
    10030    2    1    2    0    0  0.00000000000E+00  0.00000000000E+00 -0.76747559250E+03  0.13558679135E+04  0.11177472942E+04 0.  0.
        1    1    3    3  502    0 -0.13744650683E+03 -0.36778576962E+02 -0.10393336896E+04  0.10490275137E+04  0.50400001928E-02 0. -1.
       -1    1    3    3    0  502  0.13744650683E+03  0.36778576962E+02  0.27185809714E+03  0.30684039984E+03  0.50400001928E-02 0.  1.
</event>
<event>
 5   0  0.5712664E-03  0.1083975E+04  0.7818609E-02  0.9220953E-01
        1   -1    0    0  501    0  0.00000000000E+00  0.00000000000E+00  0.56609361641E+03  0.56609361643E+03  0.50400001928E-02 0.  1.
       -1   -1    0    0    0  501  0.00000000000E+00  0.00000000000E+00 -0.51890833239E+03  0.51890833241E+03  0.50400001928E-02 0. -1.
    10030    2    1    2    0    0  0.00000000000E+00  0.00000000000E+00  0.47185284022E+02  0.10850019488E+04  0.10839754508E+04 0.  0.
        5    1    3    3  502    0 -0.18148938010E+03 -0.17721381929E+03  0.50298822203E+03  0.56334924721E+03  0.46999998093E+01 0.  1.
       -5    1    3    3    0  502  0.18148938010E+03  0.17721381929E+03 -0.45580293800E+03  0.52165270164E+03  0.46999998093E+01 0. -1.
</event>
<event>
 5   0  0.5958706E-03  0.1090608E+04  0.7818609E-02  0.9214395E-01
       -1   -1    0    0    0  501  0.00000000000E+00  0.00000000000E+00  0.41264663193E+03  0.41264663196E+03  0.50400001928E-02 0. -1.
        1   -1    0    0  501    0  0.00000000000E+00  0.00000000000E+00 -0.72060775158E+03  0.72060775160E+03  0.50400001928E-02 0.  1.
    10030    2    1    2    0    0  0.00000000000E+00  0.00000000000E+00 -0.30796111965E+03  0.11332543836E+04  0.10906078336E+04 0.  0.
        2    1    3    3  502    0 -0.43074235616E+03  0.21966889290E+03 -0.41595616813E+03  0.63781888786E+03  0.25500000920E-02 0.  1.
       -2    1    3    3    0  502  0.43074235616E+03 -0.21966889290E+03  0.10799504847E+03  0.49543549570E+03  0.25500000920E-02 0. -1.
</event>
<event>
 5   0  0.5998641E-03  0.1060020E+04  0.7818609E-02  0.9245059E-01
        1   -1    0    0  501    0  0.00000000000E+00  0.00000000000E+00  0.25390614044E+03  0.25390614049E+03  0.50400001928E-02 0. -1.
       -1   -1    0    0    0  501  0.00000000000E+00  0.00000000000E+00 -0.11063569855E+04  0.11063569855E+04  0.50400001928E-02 0.  1.
    10030    2    1    2    0    0  0.00000000000E+00  0.00000000000E+00 -0.85245084508E+03  0.13602631260E+04  0.10600204379E+04 0.  0.
        3    1    3    3  502    0  0.16233054715E+03 -0.50408917603E+03 -0.39889151549E+03  0.66300192704E+03  0.10100000352E+00 0.  1.
       -3    1    3    3    0  502 -0.16233054715E+03  0.50408917603E+03 -0.45355932958E+03  0.69726119897E+03  0.10100000352E+00 0. -1.
</event>
<event>
 5   0  0.1028016E-02  0.1108862E+04  0.7818609E-02  0.9196597E-01
       -2   -1    0    0    0  501  0.00000000000E+00  0.00000000000E+00  0.20758772323E+03  0.20758772324E+03  0.25500000920E-02 0. -1.
        2   -1    0    0  501    0  0.00000000000E+00  0.00000000000E+00 -0.14807895330E+04  0.14807895330E+04  0.25500000920E-02 0.  1.
    10030    2    1    2    0    0  0.00000000000E+00  0.00000000000E+00 -0.12732018097E+04  0.16883772562E+04  0.11088619892E+04 0.  0.
        2    1    3    3  502    0 -0.11090375989E+03  0.52570422048E+03 -0.84497853970E+03  0.10013257731E+04  0.25500000920E-02 0. -1.
       -2    1    3    3    0  502  0.11090375989E+03 -0.52570422048E+03 -0.42822327005E+03  0.68705148309E+03  0.25500000920E-02 0.  1.
</event>
<event>
 5   0  0.1019384E-02  0.1094612E+04  0.7818609E-02  0.9210460E-01
       -2   -1    0    0    0  501  0.00000000000E+00  0.00000000000E+00  0.23500424890E+03  0.23500424891E+03  0.25500000920E-02 0.  1.
        2   -1    0    0  501    0  0.00000000000E+00  0.00000000000E+00 -0.12746305645E+04  0.12746305645E+04  0.25500000920E-02 0. -1.
    10030    2    1    2    0    0  0.00000000000E+00  0.00000000000E+00 -0.10396263156E+04  0.15096348134E+04  0.10946115264E+04 0.  0.
        1    1    3    3  502    0 -0.22860970561E+03 -0.17536425217E+03 -0.11615685099E+04  0.11967691597E+04  0.50400001928E-02 0. -1.
       -1    1    3    3    0  502  0.22860970561E+03  0.17536425217E+03  0.12194219436E+03  0.31286565364E+03  0.50400001928E-02 0.  1.
</event>
<event>
 5   0  0.5789905E-03  0.1104631E+04  0.7818609E-02  0.9200690E-01
        1   -1    0    0  501    0  0.00000000000E+00  0.00000000000E+00  0.62380376806E+03  0.62380376808E+03  0.50400001928E-02 0.  1.
       -1   -1    0    0    0  501  0.00000000000E+00  0.00000000000E+00 -0.48901976848E+03  0.48901976851E+03  0.50400001928E-02 0. -1.
    10030    2    1    2    0    0  0.00000000000E+00  0.00000000000E+00  0.13478399958E+03  0.11128235366E+04  0.11046309325E+04 0.  0.
        1    1    3    3  502    0 -0.17204385408E+03 -0.47841519310E+03  0.28479845260E+03  0.58274380593E+03  0.50400001928E-02 0.  1.
       -1    1    3    3    0  502  0.17204385408E+03  0.47841519310E+03 -0.15001445302E+03  0.53007973066E+03  0.50400001928E-02 0. -1.
</event>
<event>
 5   0  0.1028016E-02  0.1085721E+04  0.7818609E-02  0.9219222E-01
       -2   -1    0    0    0  501  0.00000000000E+00  0.00000000000E+00  0.74071298606E+03  0.74071298606E+03  0.25500000920E-02 0.  1.
        2   -1    0    0  501    0  0.00000000000E+00  0.00000000000E+00 -0.39785630660E+03  0.39785630661E+03  0.25500000920E-02 0. -1.
    10030    2    1    2    0    0  0.00000000000E+00  0.00000000000E+00  0.34285667946E+03  0.11385692927E+04  0.10857206508E+04 0.  0.
        2    1    3    3  502    0 -0.98588385021E+02 -0.43766915228E+03 -0.14910200287E+03  0.47276353898E+03  0.25500000920E-02 0.  1.
       -2    1    3    3    0  502  0.98588385021E+02  0.43766915228E+03  0.49195868233E+03  0.66580575369E+03  0.25500000920E-02 0. -1.
</event>
<event>
 5   0  0.5958706E-03  0.1101996E+04  0.7818609E-02  0.9203248E-01
       -1   -1    0    0    0  501  0.00000000000E+00  0.00000000000E+00  0.26872927981E+03  0.26872927986E+03  0.50400001928E-02 0.  1.
        1   -1    0    0  501    0  0.00000000000E+00  0.00000000000E+00 -0.11297575924E+04  0.11297575924E+04  0.50400001928E-02 0. -1.
    10030    2    1    2    0    0  0.00000000000E+00  0.00000000000E+00 -0.86102831259E+03  0.13984868723E+04  0.11019962690E+04 0.  0.
        2    1    3    3  502    0  0.42544996547E+03  0.18859339998E+03 -0.56147385839E+02  0.46875118408E+03  0.25500000920E-02 0.  1.
       -2    1    3    3    0  502 -0.42544996547E+03 -0.18859339998E+03 -0.80488092675E+03  0.92973568819E+03  0.25500000920E-02 0. -1.
</event>
<event>
 5   0  0.3949750E-03  0.1017240E+04  0.7818609E-02  0.9289836E-01
        3   -1    0    0  501    0  0.00000000000E+00  0.00000000000E+00  0.16068575076E+04  0.16068575108E+04  0.10100000352E+00 0.  1.
       -3   -1    0    0    0  501  0.00000000000E+00  0.00000000000E+00 -0.16099396235E+03  0.16099399404E+03  0.10100000352E+00 0. -1.
    10030    2    1    2    0    0  0.00000000000E+00  0.00000000000E+00  0.14458635452E+04  0.17678515048E+04  0.10172401642E+04 0.  0.
        2    1    3    3  502    0 -0.60991861788E+02 -0.38137651966E+03  0.12980823405E+04  0.13543211656E+04  0.25500000920E-02 0.  1.
       -2    1    3    3    0  502  0.60991861788E+02  0.38137651966E+03  0.14778120477E+03  0.41353033920E+03  0.25500000920E-02 0. -1.
</event>
<event>
 5   0  0.5998641E-03  0.1103649E+04  0.7818609E-02  0.9201643E-01
       -1   -1    0    0    0  501  0.00000000000E+00  0.00000000000E+00  0.14023709743E+03  0.14023709752E+03  0.50400001928E-02 0. -1.
        1   -1    0    0  501    0  0.00000000000E+00  0.00000000000E+00 -0.21713957963E+04  0.21713957963E+04  0.50400001928E-02 0.  1.
    10030    2    1    2    0    0  0.00000000000E+00  0.00000000000E+00 -0.20311586989E+04  0.23116328938E+04  0.11036489369E+04 0.  0.
        3    1    3    3  502    0 -0.17562655250E+03  0.28333671985E+03 -0.94493173209E+02  0.34648716100E+03  0.10100000352E+00 0. -1.
       -3    1    3    3    0  502  0.17562655250E+03 -0.28333671985E+03 -0.19366655257E+04  0.19651457328E+04  0.10100000352E+00 0.  1.
</event>
<event>
 5   0  0.9692981E-03  0.1104294E+04  0.7818609E-02  0.9201017E-01
       -2   -1    0    0    0  501  0.00000000000E+00  0.00000000000E+00  0.44154253611E+03  0.44154253612E+03  0.25500000920E-02 0.  1.
        2   -1    0    0  501    0  0.00000000000E+00  0.00000000000E+00 -0.69045709601E+03  0.69045709601E+03  0.25500000920E-02 0. -1.
    10030    2    1    2    0    0  0.00000000000E+00  0.00000000000E+00 -0.24891455990E+03  0.11319996321E+04  0.11042937603E+04 0.  0.
        5    1    3    3  502    0  0.97885283822E+02  0.53876425929E+01  0.43252901403E+03  0.44352451281E+03  0.46999998093E+01 0.  1.
       -5    1    3    3    0  502 -0.97885283822E+02 -0.53876425929E+01 -0.68144357393E+03  0.68847511932E+03  0.46999998093E+01 0. -1.
</event>
<event>
 5   0  0.1028016E-02  0.1089564E+04  0.7818609E-02  0.9215423E-01
        2   -1    0    0  501    0  0.00000000000E+00  0.00000000000E+00  0.41431836943E+03  0.41431836944E+03  0.25500000920E-02 0.  1.
       -2   -1    0    0    0  501  0.00000000000E+00  0.00000000000E+00 -0.71632740116E+03  0.71632740117E+03  0.25500000920E-02 0. -1.
    10030    2    1    2    0    0  0.00000000000E+00  0.00000000000E+00 -0.30200903173E+03  0.11306457706E+04  0.10895643181E+04 0.  0.
        2    1    3    3  502    0  0.30971466758E+03  0.43584744697E+03 -0.42657888930E+02  0.53638220313E+03  0.25500000920E-02 0.  1.
       -2    1    3    3    0  502 -0.30971466758E+03 -0.43584744697E+03 -0.25935114280E+03  0.59426356747E+03  0.25500000920E-02 0. -1.
</event>
<event>
 5   0  0.5712664E-03  0.1054476E+04  0.7818609E-02  0.9250735E-01
        1   -1    0    0  501    0  0.00000000000E+00  0.00000000000E+00  0.12686381259E+04  0.12686381259E+04  0.50400001928E-02 0.  1.
       -1   -1    0    0    0  501  0.00000000000E+00  0.00000000000E+00 -0.21911672299E+03  0.21911672305E+03  0.50400001928E-02 0. -1.
    10030    2    1    2    0    0  0.00000000000E+00  0.00000000000E+00  0.10495214029E+04  0.14877548490E+04  0.10544758487E+04 0.  0.
        5    1    3    3  502    0 -0.31210412461E+03  0.22256749007E+03  0.10354432874E+04  0.11041332182E+04  0.46999998093E+01 0.  1.
       -5    1    3    3    0  502  0.31210412461E+03 -0.22256749007E+03  0.14078115547E+02  0.38362163074E+03  0.46999998093E+01 0. -1.
</event>
<event>
 5   0  0.5712664E-03  0.1095682E+04  0.7818609E-02  0.9209411E-01
       -1   -1    0    0    0  501  0.00000000000E+00  0.00000000000E+00  0.63897879508E+03  0.63897879510E+03  0.50400001928E-02 0.  1.
        1   -1    0    0  501    0  0.00000000000E+00  0.00000000000E+00 -0.46970238319E+03  0.46970238322E+03  0.50400001928E-02 0. -1.
    10030    2    1    2    0    0  0.00000000000E+00  0.00000000000E+00  0.16927641189E+03  0.11086811783E+04  0.10956821855E+04 0.  0.
        5    1    3    3  502    0  0.50960751924E+03 -0.17794679303E+03  0.17925092708E+03  0.56878631284E+03  0.46999998093E+01 0.  1.
       -5    1    3    3    0  502 -0.50960751924E+03  0.17794679303E+03 -0.99745151882E+01  0.53989486548E+03  0.46999998093E+01 0. -1.
</event>
<event>
 5   0  0.5958706E-03  0.1104244E+04  0.7818609E-02  0.9201065E-01
       -1   -1    0    0    0  501  0.00000000000E+00  0.00000000000E+00  0.30052466186E+03  0.30052466191E+03  0.50400001928E-02 0.  1.
        1   -1    0    0  501    0  0.00000000000E+00  0.00000000000E+00 -0.10143548173E+04  0.10143548173E+04  0.50400001928E-02 0. -1.
    10030    2    1    2    0    0  0.00000000000E+00  0.00000000000E+00 -0.71383015542E+03  0.13148794792E+04  0.11042438834E+04 0.  0.
        2    1    3    3  502    0 -0.21676559110E+03 -0.49714533012E+03 -0.48007487031E+03  0.72430151308E+03  0.25500000920E-02 0. -1.
       -2    1    3    3    0  502  0.21676559110E+03  0.49714533012E+03 -0.23375528511E+03  0.59057796612E+03  0.25500000920E-02 0.  1.
</event>
<event>
 5   0  0.5789905E-03  0.9901351E+03  0.7818609E-02  0.9319431E-01
       -1   -1    0    0    0  501  0.00000000000E+00  0.00000000000E+00  0.10148661541E+03  0.10148661553E+03  0.50400001928E-02 0.  1.
        1   -1    0    0  501    0  0.00000000000E+00  0.00000000000E+00 -0.24150169447E+04  0.24150169447E+04  0.50400001928E-02 0. -1.
    10030    2    1    2    0    0  0.00000000000E+00  0.00000000000E+00 -0.23135303293E+04  0.25165035602E+04  0.99013513427E+03 0.  0.
        1    1    3    3  502    0  0.62197635495E+02 -0.74114561732E+01 -0.24049051521E+04  0.24057207374E+04  0.50400001928E-02 0. -1.
       -1    1    3    3    0  502 -0.62197635495E+02  0.74114561732E+01  0.91374822888E+02  0.11078282280E+03  0.50400001928E-02 0.  1.
</event>
<event>
 5   0  0.1028016E-02  0.1090908E+04  0.7818609E-02  0.9214100E-01
       -2   -1    0    0    0  501  0.00000000000E+00  0.00000000000E+00  0.15205944965E+03  0.15205944967E+03  0.25500000920E-02 0.  1.
        2   -1    0    0  501    0  0.00000000000E+00  0.00000000000E+00 -0.19566021214E+04  0.19566021214E+04  0.25500000920E-02 0. -1.
    10030    2    1    2    0    0  0.00000000000E+00  0.00000000000E+00 -0.18045426718E+04  0.21086615711E+04  0.10909075887E+04 0.  0.
        2    1    3    3  502    0  0.33834059093E+03 -0.33646477563E+03 -0.39145882582E+03  0.61718952763E+03  0.25500000920E-02 0.  1.
       -2    1    3    3    0  502 -0.33834059093E+03  0.33646477563E+03 -0.14130838460E+04  0.14914720435E+04  0.25500000920E-02 0. -1.
</event>
<event>
 5   0  0.5789905E-03  0.1056135E+04  0.7818609E-02  0.9249033E-01
        1   -1    0    0  501    0  0.00000000000E+00  0.00000000000E+00  0.47443742147E+03  0.47443742150E+03  0.50400001928E-02 0.  1.
       -1   -1    0    0    0  501  0.00000000000E+00  0.00000000000E+00 -0.58775989823E+03  0.58775989825E+03  0.50400001928E-02 0. -1.
    10030    2    1    2    0    0  0.00000000000E+00  0.00000000000E+00 -0.11332247676E+03  0.10621973197E+04  0.10561350114E+04 0.  0.
        1    1    3    3  502    0  0.18810375112E+03  0.33365345708E+03  0.30894657377E+03  0.49209311728E+03  0.50400001928E-02 0.  1.
       -1    1    3    3    0  502 -0.18810375112E+03 -0.33365345708E+03 -0.42226905053E+03  0.57010420247E+03  0.50400001928E-02 0. -1.
</event>
<event>
 5   0  0.3949750E-03  0.1127972E+04  0.7818609E-02  0.9178350E-01
       -3   -1    0    0    0  501  0.00000000000E+00  0.00000000000E+00  0.63760189547E+03  0.63760190347E+03  0.10100000352E+00 0. -1.
        3   -1    0    0  501    0  0.00000000000E+00  0.00000000000E+00 -0.49886924236E+03  0.49886925259E+03  0.10100000352E+00 0.  1.
    10030    2    1    2    0    0  0.00000000000E+00  0.00000000000E+00  0.13873265311E+03  0.11364711561E+04  0.11279716040E+04 0.  0.
        1    1    3    3  502    0  0.23617469931E+03  0.51139772492E+03  0.97394342223E+02  0.57165704716E+03  0.50400001928E-02 0.  1.
       -1    1    3    3    0  502 -0.23617469931E+03 -0.51139772492E+03  0.41338310883E+02  0.56481410890E+03  0.50400001928E-02 0. -1.
</event>
<event>
 5   0  0.9692981E-03  0.1115952E+04  0.7818609E-02  0.9189782E-01
        2   -1    0    0  501    0  0.00000000000E+00  0.00000000000E+00  0.12011724053E+04  0.12011724053E+04  0.25500000920E-02 0. -1.
       -2   -1    0    0    0  501  0.00000000000E+00  0.00000000000E+00 -0.25919424470E+03  0.25919424471E+03  0.25500000920E-02 0.  1.
    10030    2    1    2    0    0  0.00000000000E+00  0.00000000000E+00  0.94197816063E+03  0.14603666500E+04  0.11159515659E+04 0.  0.
        5    1    3    3  502    0  0.35876437879E+03  0.13375240454E+02 -0.87941248535E+02  0.36965731392E+03  0.46999998093E+01 0.  1.
       -5    1    3    3    0  502 -0.35876437879E+03 -0.13375240454E+02  0.10299194092E+04  0.10907093361E+04  0.46999998093E+01 0. -1.
</event>
<event>
 5   0  0.5998641E-03  0.1102779E+04  0.7818609E-02  0.9202487E-01
        1   -1    0    0  501    0  0.00000000000E+00  0.00000000000E+00  0.42296033678E+03  0.42296033681E+03  0.50400001928E-02 0.  1.
       -1   -1    0    0    0  501  0.00000000000E+00  0.00000000000E+00 -0.71881586532E+03  0.71881586534E+03  0.50400001928E-02 0. -1.
    10030    2    1    2    0    0  0.00000000000E+00  0.00000000000E+00 -0.29585552854E+03  0.11417762022E+04  0.11027793986E+04 0.  0.
        3    1    3    3  502    0 -0.32734726776E+03 -0.28281109663E+03 -0.50191302847E+03  0.66261229119E+03  0.10100000352E+00 0. -1.
       -3    1    3    3    0  502  0.32734726776E+03  0.28281109663E+03  0.20605749992E+03  0.47916391096E+03  0.10100000352E+00 0.  1.
</event>
<event>
 5   0  0.5712664E-03  0.1097029E+04  0.7818609E-02  0.9208093E-01
       -1   -1    0    0    0  501  0.00000000000E+00  0.00000000000E+00  0.23208824014E+03  0.23208824019E+03  0.50400001928E-02 0.  1.
        1   -1    0    0  501    0  0.00000000000E+00  0.00000000000E+00 -0.12963515251E+04  0.12963515251E+04  0.50400001928E-02 0. -1.
    10030    2    1    2    0    0  0.00000000000E+00  0.00000000000E+00 -0.10642632850E+04  0.15284397653E+04  0.10970286124E+04 0.  0.
        5    1    3    3  502    0  0.22471018911E+03 -0.38766130891E+03 -0.91392020878E+02  0.45732980549E+03  0.46999998093E+01 0.  1.
       -5    1    3    3    0  502 -0.22471018911E+03  0.38766130891E+03 -0.97287126408E+03  0.10711099598E+04  0.46999998093E+01 0. -1.
</event>
<event>
 5   0  0.5712664E-03  0.1093923E+04  0.7818609E-02  0.9211135E-01
        1   -1    0    0  501    0  0.00000000000E+00  0.00000000000E+00  0.78668455866E+03  0.78668455868E+03  0.50400001928E-02 0. -1.
       -1   -1    0    0    0  501  0.00000000000E+00  0.00000000000E+00 -0.38028836328E+03  0.38028836331E+03  0.50400001928E-02 0.  1.
    10030    2    1    2    0    0  0.00000000000E+00  0.00000000000E+00  0.40639619539E+03  0.11669729220E+04  0.10939231842E+04 0.  0.
        5    1    3    3  502    0  0.51746662725E+03  0.10044430572E+03  0.35883115409E+03  0.63768538952E+03  0.46999998093E+01 0. -1.
       -5    1    3    3    0  502 -0.51746662725E+03 -0.10044430572E+03  0.47565041300E+02  0.52928753246E+03  0.46999998093E+01 0.  1.
</event>
<event>
 5   0  0.1028016E-02  0.1090094E+04  0.7818609E-02  0.9214901E-01
       -2   -1    0    0    0  501  0.00000000000E+00  0.00000000000E+00  0.31331427159E+03  0.31331427160E+03  0.25500000920E-02 0. -1.
        2   -1    0    0  501    0  0.00000000000E+00  0.00000000000E+00 -0.94817288651E+03  0.94817288652E+03  0.25500000920E-02 0.  1.
    10030    2    1    2    0    0  0.00000000000E+00  0.00000000000E+00 -0.63485861492E+03  0.12614871581E+04  0.10900937525E+04 0.  0.
        2    1    3    3  502    0 -0.33520362391E+03  0.76877861259E+02  0.17190775553E+03  0.38447880494E+03  0.25500000920E-02 0. -1.
       -2    1    3    3    0  502  0.33520362391E+03 -0.76877861259E+02 -0.80676637046E+03  0.87700835317E+03  0.25500000920E-02 0.  1.
</event>
<event>
 5   0  0.5712664E-03  0.1144642E+04  0.7818609E-02  0.9162741E-01
        1   -1    0    0  501    0  0.00000000000E+00  0.00000000000E+00  0.88331509151E+03  0.88331509152E+03  0.50400001928E-02 0. -1.
       -1   -1    0    0    0  501  0.00000000000E+00  0.00000000000E+00 -0.37082022445E+03  0.37082022448E+03  0.50400001928E-02 0.  1.
    10030    2    1    2    0    0  0.00000000000E+00  0.00000000000E+00  0.51249486706E+03  0.12541353160E+04  0.11446416042E+04 0.  0.
        5    1    3    3  502    0 -0.47592412817E+03 -0.30082038615E+03  0.14380322290E+03  0.58111800645E+03  0.46999998093E+01 0. -1.
       -5    1    3    3    0  502  0.47592412817E+03  0.30082038615E+03  0.36869164415E+03  0.67301730956E+03  0.46999998093E+01 0.  1.
</event>
<event>
 5   0  0.5789905E-03  0.1260982E+04  0.7818609E-02  0.9061092E-01
        1   -1    0    0  501    0  0.00000000000E+00  0.00000000000E+00  0.16389085511E+04  0.16389085512E+04  0.50400001928E-02 0. -1.
       -1   -1    0    0    0  501  0.00000000000E+00  0.00000000000E+00 -0.24255114026E+03  0.24255114031E+03  0.50400001928E-02 0.  1.
    10030    2    1    2    0    0  0.00000000000E+00  0.00000000000E+00  0.13963574109E+04  0.18814596915E+04  0.12609823756E+04 0.  0.
        1    1    3    3  502    0 -0.38143994114E+03 -0.42285006621E+03  0.11019192253E+04  0.12403727611E+04  0.50400001928E-02 0. -1.
       -1    1    3    3    0  502  0.38143994114E+03  0.42285006621E+03  0.29443818554E+03  0.64108693039E+03  0.50400001928E-02 0.  1.
</event>
<event>
 5   0  0.1028016E-02  0.1172901E+04  0.7818609E-02  0.9136913E-01
       -2   -1    0    0    0  501  0.00000000000E+00  0.00000000000E+00  0.48591563831E+03  0.48591563832E+03  0.25500000920E-02 0.  1.
        2   -1    0    0  501    0  0.00000000000E+00  0.00000000000E+00 -0.70778547255E+03  0.70778547255E+03  0.25500000920E-02 0. -1.
    10030    2    1    2    0    0  0.00000000000E+00  0.00000000000E+00 -0.22186983424E+03  0.11937011109E+04  0.11729007284E+04 0.  0.
        2    1    3    3  502    0  0.34133498773E+03 -0.41224756262E+03  0.13303784828E+03  0.55150403064E+03  0.25500000920E-02 0. -1.
       -2    1    3    3    0  502 -0.34133498773E+03  0.41224756262E+03 -0.35490768252E+03  0.64219708023E+03  0.25500000920E-02 0.  1.
</event>
<event>
 5   0  0.3949750E-03  0.1105503E+04  0.7818609E-02  0.9199845E-01
        4   -1    0    0  501    0  0.00000000000E+00  0.00000000000E+00  0.78127471711E+03  0.78127574933E+03  0.12699999809E+01 0.  1.
       -4   -1    0    0    0  501  0.00000000000E+00  0.00000000000E+00 -0.39106875547E+03  0.39107081763E+03  0.12699999809E+01 0. -1.
    10030    2    1    2    0    0  0.00000000000E+00  0.00000000000E+00  0.39020596164E+03  0.11723465670E+04  0.11055025014E+04 0.  0.
        4    1    3    3  502    0 -0.16581200907E+02 -0.15442905859E+03  0.75765841679E+03  0.77341525702E+03  0.12699999809E+01 0.  1.
       -4    1    3    3    0  502  0.16581200907E+02  0.15442905859E+03 -0.36745245514E+03  0.39893130994E+03  0.12699999809E+01 0. -1.
</event>
<event>
 5   0  0.5958706E-03  0.1080286E+04  0.7818609E-02  0.9224622E-01
       -1   -1    0    0    0  501  0.00000000000E+00  0.00000000000E+00  0.43545554075E+03  0.43545554078E+03  0.50400001928E-02 0. -1.
        1   -1    0    0  501    0  0.00000000000E+00  0.00000000000E+00 -0.66999866614E+03  0.66999866616E+03  0.50400001928E-02 0.  1.
    10030    2    1    2    0    0  0.00000000000E+00  0.00000000000E+00 -0.23454312539E+03  0.11054542069E+04  0.10802863167E+04 0.  0.
        2    1    3    3  502    0  0.43032822882E+03 -0.31133137197E+03 -0.16774461882E+02  0.53140473302E+03  0.25500000920E-02 0. -1.
       -2    1    3    3    0  502 -0.43032822882E+03  0.31133137197E+03 -0.21776866351E+03  0.57404947392E+03  0.25500000920E-02 0.  1.
</event>
<event>
 5   0  0.5958706E-03  0.1139085E+04  0.7818609E-02  0.9167913E-01
        1   -1    0    0  501    0  0.00000000000E+00  0.00000000000E+00  0.69347887923E+03  0.69347887925E+03  0.50400001928E-02 0.  1.
       -1   -1    0    0    0  501  0.00000000000E+00  0.00000000000E+00 -0.46775557592E+03  0.46775557594E+03  0.50400001928E-02 0. -1.
    10030    2    1    2    0    0  0.00000000000E+00  0.00000000000E+00  0.22572330331E+03  0.11612344552E+04  0.11390849179E+04 0.  0.
        2    1    3    3  502    0 -0.79764650028E+02  0.13623773250E+01 -0.46203155311E+03  0.46886822407E+03  0.25500000920E-02 0. -1.
       -2    1    3    3    0  502  0.79764650028E+02 -0.13623773250E+01  0.68775485642E+03  0.69236623112E+03  0.25500000920E-02 0.  1.
</event>
<event>
 5   0  0.5854579E-03  0.1073794E+04  0.7818609E-02  0.9231117E-01
       -1   -1    0    0    0  501  0.00000000000E+00  0.00000000000E+00  0.39586219024E+03  0.39586219027E+03  0.50400001928E-02 0. -1.
        1   -1    0    0  501    0  0.00000000000E+00  0.00000000000E+00 -0.72817876693E+03  0.72817876694E+03  0.50400001928E-02 0.  1.
    10030    2    1    2    0    0  0.00000000000E+00  0.00000000000E+00 -0.33231657669E+03  0.11240409572E+04  0.10737940987E+04 0.  0.
        4    1    3    3  502    0 -0.33447648978E+02  0.76641839884E+02  0.38900186111E+03  0.39789040915E+03  0.12699999809E+01 0. -1.
       -4    1    3    3    0  502  0.33447648978E+02 -0.76641839884E+02 -0.72131843780E+03  0.72615054806E+03  0.12699999809E+01 0.  1.
</event>
<event>
 5   0  0.5712664E-03  0.9213517E+03  0.7818609E-02  0.9399277E-01
        1   -1    0    0  501    0  0.00000000000E+00  0.00000000000E+00  0.92798312902E+03  0.92798312904E+03  0.50400001928E-02 0. -1.
       -1   -1    0    0    0  501  0.00000000000E+00  0.00000000000E+00 -0.22869190315E+03  0.22869190321E+03  0.50400001928E-02 0.  1.
    10030    2    1    2    0    0  0.00000000000E+00  0.00000000000E+00  0.69929122587E+03  0.11566750322E+04  0.92135167642E+03 0.  0.
        5    1    3    3  502    0  0.30566299454E+03 -0.97911058045E+02 -0.65179296731E+02  0.32754674818E+03  0.46999998093E+01 0.  1.
       -5    1    3    3    0  502 -0.30566299454E+03  0.97911058045E+02  0.76447052260E+03  0.82912828407E+03  0.46999998093E+01 0. -1.
</event>
<event>
 5   0  0.5998641E-03  0.1093860E+04  0.7818609E-02  0.9211197E-01
        1   -1    0    0  501    0  0.00000000000E+00  0.00000000000E+00  0.64415420520E+03  0.64415420522E+03  0.50400001928E-02 0. -1.
       -1   -1    0    0    0  501  0.00000000000E+00  0.00000000000E+00 -0.46438044748E+03  0.46438044750E+03  0.50400001928E-02 0.  1.
    10030    2    1    2    0    0  0.00000000000E+00  0.00000000000E+00  0.17977375773E+03  0.11085346527E+04  0.10938603532E+04 0.  0.
        3    1    3    3  502    0  0.42934210313E+03 -0.62486287128E+02 -0.24758710697E+03  0.49953835022E+03  0.10100000352E+00 0.  1.
       -3    1    3    3    0  502 -0.42934210313E+03  0.62486287128E+02  0.42736086469E+03  0.60899630251E+03  0.10100000352E+00 0. -1.
</event>
<event>
 5   0  0.9692981E-03  0.1181597E+04  0.7818609E-02  0.9129119E-01
       -2   -1    0    0    0  501  0.00000000000E+00  0.00000000000E+00  0.47049711155E+03  0.47049711156E+03  0.25500000920E-02 0.  1.
        2   -1    0    0  501    0  0.00000000000E+00  0.00000000000E+00 -0.74186021335E+03  0.74186021336E+03  0.25500000920E-02 0. -1.
    10030    2    1    2    0    0  0.00000000000E+00  0.00000000000E+00 -0.27136310180E+03  0.12123573249E+04  0.11815973723E+04 0.  0.
        5    1    3    3  502    0 -0.12409903397E+03 -0.32657467540E+03 -0.62449684691E+03  0.71559065858E+03  0.46999998093E+01 0. -1.
       -5    1    3    3    0  502  0.12409903397E+03  0.32657467540E+03  0.35313374511E+03  0.49676666634E+03  0.46999998093E+01 0.  1.
</event>
<event>
 5   0  0.5712664E-03  0.1064740E+04  0.7818609E-02  0.9240256E-01
       -1   -1    0    0    0  501  0.00000000000E+00  0.00000000000E+00  0.25810454804E+03  0.25810454809E+03  0.50400001928E-02 0.  1.
        1   -1    0    0  501    0  0.00000000000E+00  0.00000000000E+00 -0.10980744902E+04  0.10980744902E+04  0.50400001928E-02 0. -1.
    10030    2    1    2    0    0  0.00000000000E+00  0.00000000000E+00 -0.83996994215E+03  0.13561790383E+04  0.10647403816E+04 0.  0.
        5    1    3    3  502    0 -0.32357681482E+03  0.34059320324E+03 -0.10107119120E+03  0.48056545951E+03  0.46999998093E+01 0.  1.
       -5    1    3    3    0  502  0.32357681482E+03 -0.34059320324E+03 -0.73889875095E+03  0.87561357878E+03  0.46999998093E+01 0. -1.
</event>
<event>
 5   0  0.1019384E-02  0.1135212E+04  0.7818609E-02  0.9171535E-01
        2   -1    0    0  501    0  0.00000000000E+00  0.00000000000E+00  0.90526323316E+03  0.90526323317E+03  0.25500000920E-02 0.  1.
       -2   -1    0    0    0  501  0.00000000000E+00  0.00000000000E+00 -0.35589296916E+03  0.35589296917E+03  0.25500000920E-02 0. -1.
    10030    2    1    2    0    0  0.00000000000E+00  0.00000000000E+00  0.54937026400E+03  0.12611562023E+04  0.11352124381E+04 0.  0.
        1    1    3    3  502    0 -0.10824404064E+03 -0.32070397194E+03 -0.23150635598E+03  0.41007682553E+03  0.50400001928E-02 0. -1.
       -1    1    3    3    0  502  0.10824404064E+03  0.32070397194E+03  0.78087661998E+03  0.85107937680E+03  0.50400001928E-02 0.  1.
</event>
<event>
 5   0  0.5998641E-03  0.1098264E+04  0.7818609E-02  0.9206886E-01
       -1   -1    0    0    0  501  0.00000000000E+00  0.00000000000E+00  0.19865260221E+03  0.19865260228E+03  0.50400001928E-02 0. -1.
        1   -1    0    0  501    0  0.00000000000E+00  0.00000000000E+00 -0.15179552665E+04  0.15179552665E+04  0.50400001928E-02 0.  1.
    10030    2    1    2    0    0  0.00000000000E+00  0.00000000000E+00 -0.13193026643E+04  0.17166078688E+04  0.10982636547E+04 0.  0.
        3    1    3    3  502    0  0.12231263367E+03 -0.19680689654E+03 -0.14377972942E+04  0.14563496847E+04  0.10100000352E+00 0.  1.
       -3    1    3    3    0  502 -0.12231263367E+03  0.19680689654E+03  0.11849462985E+03  0.26025818409E+03  0.10100000352E+00 0. -1.
</event>
<event>
 5   0  0.5958706E-03  0.1113725E+04  0.7818609E-02  0.9191917E-01
       -1   -1    0    0    0  501  0.00000000000E+00  0.00000000000E+00  0.44501568071E+03  0.44501568074E+03  0.50400001928E-02 0.  1.
        1   -1    0    0  501    0  0.00000000000E+00  0.00000000000E+00 -0.69681967233E+03  0.69681967234E+03  0.50400001928E-02 0. -1.
    10030    2    1    2    0    0  0.00000000000E+00  0.00000000000E+00 -0.25180399161E+03  0.11418353531E+04  0.11137247072E+04 0.  0.
        2    1    3    3  502    0 -0.48618439182E+03  0.10927095488E+03 -0.38073199600E+03  0.62711422980E+03  0.25500000920E-02 0. -1.
       -2    1    3    3    0  502  0.48618439182E+03 -0.10927095488E+03  0.12892800439E+03  0.51472112328E+03  0.25500000920E-02 0.  1.
</event>
<event>
 5   0  0.3949750E-03  0.7963001E+03  0.7818609E-02  0.9565388E-01
        3   -1    0    0  501    0  0.00000000000E+00  0.00000000000E+00  0.68452654743E+03  0.68452655488E+03  0.10100000352E+00 0.  1.
       -3   -1    0    0    0  501  0.00000000000E+00  0.00000000000E+00 -0.23158112752E+03  0.23158114954E+03  0.10100000352E+00 0. -1.
    10030    2    1    2    0    0  0.00000000000E+00  0.00000000000E+00  0.45294541991E+03  0.91610770442E+03  0.79630005192E+03 0.  0.
        4    1    3    3  502    0 -0.24729383972E+03 -0.30049913124E+03  0.12975327802E+03  0.41023346657E+03  0.12699999809E+01 0. -1.
       -4    1    3    3    0  502  0.24729383972E+03  0.30049913124E+03  0.32319214190E+03  0.50587423785E+03  0.12699999809E+01 0.  1.
</event>
<event>
 5   0  0.1019384E-02  0.1123424E+04  0.7818609E-02  0.9182657E-01
        2   -1    0    0  501    0  0.00000000000E+00  0.00000000000E+00  0.63585591827E+03  0.63585591828E+03  0.25500000920E-02 0. -1.
       -2   -1    0    0    0  501  0.00000000000E+00  0.00000000000E+00 -0.49621378162E+03  0.49621378162E+03  0.25500000920E-02 0.  1.
    10030    2    1    2    0    0  0.00000000000E+00  0.00000000000E+00  0.13964213665E+03  0.11320696999E+04  0.11234241759E+04 0.  0.
        1    1    3    3  502    0 -0.27239417577E+03 -0.48442241881E+03  0.15203818660E+03  0.57617642875E+03  0.50400001928E-02 0. -1.
       -1    1    3    3    0  502  0.27239417577E+03  0.48442241881E+03 -0.12396049943E+02  0.55589327115E+03  0.50400001928E-02 0.  1.
</event>
<event>
 5   0  0.9719260E-03  0.1288291E+04  0.7818609E-02  0.9038903E-01
       -2   -1    0    0    0  501  0.00000000000E+00  0.00000000000E+00  0.50531555772E+03  0.50531555773E+03  0.25500000920E-02 0. -1.
        2   -1    0    0  501    0  0.00000000000E+00  0.00000000000E+00 -0.82111718357E+03  0.82111718357E+03  0.25500000920E-02 0.  1.
    10030    2    1    2    0    0  0.00000000000E+00  0.00000000000E+00 -0.31580162584E+03  0.13264327413E+04  0.12882907864E+04 0.  0.
        3    1    3    3  502    0  0.28706512015E+03 -0.11733043228E+03  0.42339439835E+03  0.52481962644E+03  0.10100000352E+00 0. -1.
       -3    1    3    3    0  502 -0.28706512015E+03  0.11733043228E+03 -0.73919602419E+03  0.80161311486E+03  0.10100000352E+00 0.  1.
</event>
<event>
 5   0  0.1019384E-02  0.1141061E+04  0.7818609E-02  0.9166070E-01
        2   -1    0    0  501    0  0.00000000000E+00  0.00000000000E+00  0.58679844410E+03  0.58679844410E+03  0.25500000920E-02 0. -1.
       -2   -1    0    0    0  501  0.00000000000E+00  0.00000000000E+00 -0.55471314793E+03  0.55471314794E+03  0.25500000920E-02 0.  1.
    10030    2    1    2    0    0  0.00000000000E+00  0.00000000000E+00  0.32085296167E+02  0.11415115920E+04  0.11410605806E+04 0.  0.
        1    1    3    3  502    0  0.16894856479E+03 -0.36487930320E+03  0.42095476131E+03  0.58213695515E+03  0.50400001928E-02 0. -1.
       -1    1    3    3    0  502 -0.16894856479E+03  0.36487930320E+03 -0.38886946515E+03  0.55937463689E+03  0.50400001928E-02 0.  1.
</event>
<event>
 5   0  0.9719260E-03  0.1026696E+04  0.7818609E-02  0.9279740E-01
        2   -1    0    0  501    0  0.00000000000E+00  0.00000000000E+00  0.10755897966E+04  0.10755897966E+04  0.25500000920E-02 0.  1.
       -2   -1    0    0    0  501  0.00000000000E+00  0.00000000000E+00 -0.24500608051E+03  0.24500608053E+03  0.25500000920E-02 0. -1.
    10030    2    1    2    0    0  0.00000000000E+00  0.00000000000E+00  0.83058371609E+03  0.13205958771E+04  0.10266957491E+04 0.  0.
        3    1    3    3  502    0  0.27964696378E+03 -0.13317960906E+03 -0.11126839557E+03  0.32911988496E+03  0.10100000352E+00 0. -1.
       -3    1    3    3    0  502 -0.27964696378E+03  0.13317960906E+03  0.94185211166E+03  0.99147599217E+03  0.10100000352E+00 0.  1.
</event>
<event>
 5   0  0.1028016E-02  0.1102058E+04  0.7818609E-02  0.9203188E-01
       -2   -1    0    0    0  501  0.00000000000E+00  0.00000000000E+00  0.23542294427E+03  0.23542294428E+03  0.25500000920E-02 0. -1.
        2   -1    0    0  501    0  0.00000000000E+00  0.00000000000E+00 -0.12897337399E+04  0.12897337399E+04  0.25500000920E-02 0.  1.
    10030    2    1    2    0    0  0.00000000000E+00  0.00000000000E+00 -0.10543107956E+04  0.15251566842E+04  0.11020579193E+04 0.  0.
        2    1    3    3  502    0  0.75357757239E+02  0.24563400425E+03 -0.12017607221E+04  0.12289197243E+04  0.25500000920E-02 0.  1.
       -2    1    3    3    0  502 -0.75357757239E+02 -0.24563400425E+03  0.14744992641E+03  0.29623695993E+03  0.25500000920E-02 0. -1.
</event>
<event>
 5   0  0.1019384E-02  0.1102708E+04  0.7818609E-02  0.9202556E-01
       -2   -1    0    0    0  501  0.00000000000E+00  0.00000000000E+00  0.26651847222E+03  0.26651847223E+03  0.25500000920E-02 0. -1.
        2   -1    0    0  501    0  0.00000000000E+00  0.00000000000E+00 -0.11406018005E+04  0.11406018005E+04  0.25500000920E-02 0.  1.
    10030    2    1    2    0    0  0.00000000000E+00  0.00000000000E+00 -0.87408332831E+03  0.14071202728E+04  0.11027083917E+04 0.  0.
        1    1    3    3  502    0 -0.31878520649E+03  0.20172912285E+03  0.76042987744E+02  0.38483916497E+03  0.50400001928E-02 0. -1.
       -1    1    3    3    0  502  0.31878520649E+03 -0.20172912285E+03 -0.95012631605E+03  0.10222811078E+04  0.50400001928E-02 0.  1.
</event>
<event>
 5   0  0.5712664E-03  0.1096210E+04  0.7818609E-02  0.9208894E-01
       -1   -1    0    0    0  501  0.00000000000E+00  0.00000000000E+00  0.19218789694E+03  0.19218789701E+03  0.50400001928E-02 0.  1.
        1   -1    0    0  501    0  0.00000000000E+00  0.00000000000E+00 -0.15631525015E+04  0.15631525015E+04  0.50400001928E-02 0. -1.
    10030    2    1    2    0    0  0.00000000000E+00  0.00000000000E+00 -0.13709646046E+04  0.17553403985E+04  0.10962098192E+04 0.  0.
        5    1    3    3  502    0 -0.74303237743E+02 -0.46498822604E+03 -0.11345893002E+04  0.12284339590E+04  0.46999998093E+01 0. -1.
       -5    1    3    3    0  502  0.74303237743E+02  0.46498822604E+03 -0.23637530435E+03  0.52690643951E+03  0.46999998093E+01 0.  1.
</event>
<event>
 5   0  0.5998641E-03  0.1103289E+04  0.7818609E-02  0.9201992E-01
        1   -1    0    0  501    0  0.00000000000E+00  0.00000000000E+00  0.33118693193E+03  0.33118693197E+03  0.50400001928E-02 0.  1.
       -1   -1    0    0    0  501  0.00000000000E+00  0.00000000000E+00 -0.91885119981E+03  0.91885119982E+03  0.50400001928E-02 0. -1.
    10030    2    1    2    0    0  0.00000000000E+00  0.00000000000E+00 -0.58766426788E+03  0.12500381318E+04  0.11032887379E+04 0.  0.
        3    1    3    3  502    0 -0.79288954994E+02 -0.39972809203E+03  0.12743193269E+03  0.42697563585E+03  0.10100000352E+00 0.  1.
       -3    1    3    3    0  502  0.79288954994E+02  0.39972809203E+03 -0.71509620057E+03  0.82306249594E+03  0.10100000352E+00 0. -1.
</event>
<event>
 5   0  0.1028016E-02  0.1083553E+04  0.7818609E-02  0.9221372E-01
        2   -1    0    0  501    0  0.00000000000E+00  0.00000000000E+00  0.17382306053E+04  0.17382306053E+04  0.25500000920E-02 0. -1.
       -2   -1    0    0    0  501  0.00000000000E+00  0.00000000000E+00 -0.16886235538E+03  0.16886235539E+03  0.25500000920E-02 0.  1.
    10030    2    1    2    0    0  0.00000000000E+00  0.00000000000E+00  0.15693682499E+04  0.19070929607E+04  0.10835528860E+04 0.  0.
        2    1    3    3  502    0  0.21364337447E+03  0.70480640749E+02  0.16521353695E+04  0.16673818673E+04  0.25500000920E-02 0. -1.
       -2    1    3    3    0  502 -0.21364337447E+03 -0.70480640749E+02 -0.82767119642E+02  0.23971109335E+03  0.25500000920E-02 0.  1.
</event>
<event>
 5   0  0.5998641E-03  0.1065208E+04  0.7818609E-02  0.9239782E-01
       -1   -1    0    0    0  501  0.00000000000E+00  0.00000000000E+00  0.15336404401E+03  0.15336404409E+03  0.50400001928E-02 0.  1.
        1   -1    0    0  501    0  0.00000000000E+00  0.00000000000E+00 -0.18496332915E+04  0.18496332915E+04  0.50400001928E-02 0. -1.
    10030    2    1    2    0    0  0.00000000000E+00  0.00000000000E+00 -0.16962692475E+04  0.20029973356E+04  0.10652084146E+04 0.  0.
        3    1    3    3  502    0  0.26555014769E+03 -0.42834086776E+03 -0.52421509410E+03  0.72718240835E+03  0.10100000352E+00 0.  1.
       -3    1    3    3    0  502 -0.26555014769E+03  0.42834086776E+03 -0.11720541534E+04  0.12758149273E+04  0.10100000352E+00 0. -1.
</event>
<event>
 5   0  0.5998641E-03  0.1077976E+04  0.7818609E-02  0.9226927E-01
        1   -1    0    0  501    0  0.00000000000E+00  0.00000000000E+00  0.11230520256E+04  0.11230520256E+04  0.50400001928E-02 0.  1.
       -1   -1    0    0    0  501  0.00000000000E+00  0.00000000000E+00 -0.25867744810E+03  0.25867744815E+03  0.50400001928E-02 0. -1.
    10030    2    1    2    0    0  0.00000000000E+00  0.00000000000E+00  0.86437457750E+03  0.13817294738E+04  0.10779763116E+04 0.  0.
        3    1    3    3  502    0 -0.24938202678E+03  0.33957519350E+03  0.13000591630E+01  0.42131271958E+03  0.10100000352E+00 0. -1.
       -3    1    3    3    0  502  0.24938202678E+03 -0.33957519350E+03  0.86307451834E+03  0.96041675419E+03  0.10100000352E+00 0.  1.
</event>
<event>
 5   0  0.9692981E-03  0.1094772E+04  0.7818609E-02  0.9210302E-01
        2   -1    0    0  501    0  0.00000000000E+00  0.00000000000E+00  0.11910968060E+04  0.11910968060E+04  0.25500000920E-02 0.  1.
       -2   -1    0    0    0  501  0.00000000000E+00  0.00000000000E+00 -0.25155931461E+03  0.25155931462E+03  0.25500000920E-02 0. -1.
    10030    2    1    2    0    0  0.00000000000E+00  0.00000000000E+00  0.93953749134E+03  0.14426561206E+04  0.10947721154E+04 0.  0.
        5    1    3    3  502    0 -0.21294988632E+03 -0.43705593717E+03  0.13837196946E+03  0.50550414264E+03  0.46999998093E+01 0. -1.
       -5    1    3    3    0  502  0.21294988632E+03  0.43705593717E+03  0.80116552188E+03  0.93715197793E+03  0.46999998093E+01 0.  1.
</event>
<event>
 5   0  0.9719260E-03  0.1130674E+04  0.7818609E-02  0.9175800E-01
       -2   -1    0    0    0  501  0.00000000000E+00  0.00000000000E+00  0.13327761081E+03  0.13327761083E+03  0.25500000920E-02 0.  1.
        2   -1    0    0  501    0  0.00000000000E+00  0.00000000000E+00 -0.23980475486E+04  0.23980475486E+04  0.25500000920E-02 0. -1.
    10030    2    1    2    0    0  0.00000000000E+00  0.00000000000E+00 -0.22647699377E+04  0.25313251594E+04  0.11306742199E+04 0.  0.
        3    1    3    3  502    0  0.37237789415E+03 -0.42445110084E+03 -0.11949908472E+04  0.13216758938E+04  0.10100000352E+00 0.  1.
       -3    1    3    3    0  502 -0.37237789415E+03  0.42445110084E+03 -0.10697790905E+04  0.12096492656E+04  0.10100000352E+00 0. -1.
</event>
<event>
 5   0  0.5712664E-03  0.1089115E+04  0.7818609E-02  0.9215866E-01
        1   -1    0    0  501    0  0.00000000000E+00  0.00000000000E+00  0.44975760925E+03  0.44975760927E+03  0.50400001928E-02 0. -1.
       -1   -1    0    0    0  501  0.00000000000E+00  0.00000000000E+00 -0.65933933457E+03  0.65933933459E+03  0.50400001928E-02 0.  1.
    10030    2    1    2    0    0  0.00000000000E+00  0.00000000000E+00 -0.20958172532E+03  0.11090969439E+04  0.10891150221E+04 0.  0.
        5    1    3    3  502    0  0.48068905728E+03  0.95899988940E+02  0.13675711292E+03  0.50890409273E+03  0.46999998093E+01 0. -1.
       -5    1    3    3    0  502 -0.48068905728E+03 -0.95899988940E+02 -0.34633883824E+03  0.60019285113E+03  0.46999998093E+01 0.  1.
</event>
<event>
 5   0  0.1028016E-02  0.1107961E+04  0.7818609E-02  0.9197468E-01
       -2   -1    0    0    0  501  0.00000000000E+00  0.00000000000E+00  0.39292050608E+03  0.39292050609E+03  0.25500000920E-02 0.  1.
        2   -1    0    0  501    0  0.00000000000E+00  0.00000000000E+00 -0.78105915737E+03  0.78105915737E+03  0.25500000920E-02 0. -1.
    10030    2    1    2    0    0  0.00000000000E+00  0.00000000000E+00 -0.38813865129E+03  0.11739796635E+04  0.11079605758E+04 0.  0.
        2    1    3    3  502    0 -0.66366462272E+02  0.32855690113E+03  0.27327905131E+03  0.43247610857E+03  0.25500000920E-02 0.  1.
       -2    1    3    3    0  502  0.66366462272E+02 -0.32855690113E+03 -0.66141770260E+03  0.74150355489E+03  0.25500000920E-02 0. -1.
</event>
<event>
 5   0  0.5789905E-03  0.1092941E+04  0.7818609E-02  0.9212099E-01
       -1   -1    0    0    0  501  0.00000000000E+00  0.00000000000E+00  0.29510282683E+03  0.29510282687E+03  0.50400001928E-02 0.  1.
        1   -1    0    0  501    0  0.00000000000E+00  0.00000000000E+00 -0.10119532158E+04  0.10119532158E+04  0.50400001928E-02 0. -1.
    10030    2    1    2    0    0  0.00000000000E+00  0.00000000000E+00 -0.71685038894E+03  0.13070560427E+04  0.10929414525E+04 0.  0.
        1    1    3    3  502    0  0.14622251408E+03 -0.15582256566E+03 -0.95991820446E+03  0.98341479289E+03  0.50400001928E-02 0. -1.
       -1    1    3    3    0  502 -0.14622251408E+03  0.15582256566E+03  0.24306781551E+03  0.32364124977E+03  0.50400001928E-02 0.  1.
</event>
<event>
 5   0  0.5712664E-03  0.1142587E+04  0.7818609E-02  0.9164650E-01
       -1   -1    0    0    0  501  0.00000000000E+00  0.00000000000E+00  0.26342316293E+03  0.26342316298E+03  0.50400001928E-02 0.  1.
        1   -1    0    0  501    0  0.00000000000E+00  0.00000000000E+00 -0.12389812671E+04  0.12389812671E+04  0.50400001928E-02 0. -1.
    10030    2    1    2    0    0  0.00000000000E+00  0.00000000000E+00 -0.97555810420E+03  0.15024044301E+04  0.11425871770E+04 0.  0.
        5    1    3    3  502    0  0.28339999585E+03  0.34598237608E+02 -0.11384181900E+04  0.11736825214E+04  0.46999998093E+01 0. -1.
       -5    1    3    3    0  502 -0.28339999585E+03 -0.34598237608E+02  0.16286008584E+03  0.32872190869E+03  0.46999998093E+01 0.  1.
</event>
<event>
 5   0  0.1019384E-02  0.1136296E+04  0.7818609E-02  0.9170520E-01
       -2   -1    0    0    0  501  0.00000000000E+00  0.00000000000E+00  0.14021654026E+04  0.14021654026E+04  0.25500000920E-02 0. -1.
        2   -1    0    0  501    0  0.00000000000E+00  0.00000000000E+00 -0.23020962352E+03  0.23020962354E+03  0.25500000920E-02 0.  1.
    10030    2    1    2    0    0  0.00000000000E+00  0.00000000000E+00  0.11719557791E+04  0.16323750262E+04  0.11362956824E+04 0.  0.
        1    1    3    3  502    0 -0.24973036676E+02  0.52989585249E+03  0.87820265522E+03  0.10259888746E+04  0.50400001928E-02 0. -1.
       -1    1    3    3    0  502  0.24973036676E+02 -0.52989585249E+03  0.29375312388E+03  0.60638615161E+03  0.50400001928E-02 0.  1.
</event>
<event>
 5   0  0.5958706E-03  0.1050841E+04  0.7818609E-02  0.9254476E-01
       -1   -1    0    0    0  501  0.00000000000E+00  0.00000000000E+00  0.36606058474E+03  0.36606058478E+03  0.50400001928E-02 0.  1.
        1   -1    0    0  501    0  0.00000000000E+00  0.00000000000E+00 -0.75415635941E+03  0.75415635942E+03  0.50400001928E-02 0. -1.
    10030    2    1    2    0    0  0.00000000000E+00  0.00000000000E+00 -0.38809577466E+03  0.11202169442E+04  0.10508414113E+04 0.  0.
        2    1    3    3  502    0 -0.47816885615E+03 -0.91760639408E+02  0.16477911546E+02  0.48717244536E+03  0.25500000920E-02 0.  1.
       -2    1    3    3    0  502  0.47816885615E+03  0.91760639408E+02 -0.40457368621E+03  0.63304449885E+03  0.25500000920E-02 0. -1.
</event>
<event>
 5   0  0.5998641E-03  0.1120369E+04  0.7818609E-02  0.9185563E-01
        1   -1    0    0  501    0  0.00000000000E+00  0.00000000000E+00  0.69522398076E+03  0.69522398078E+03  0.50400001928E-02 0.  1.
       -1   -1    0    0    0  501  0.00000000000E+00  0.00000000000E+00 -0.45137509362E+03  0.45137509364E+03  0.50400001928E-02 0. -1.
    10030    2    1    2    0    0  0.00000000000E+00  0.00000000000E+00  0.24384888715E+03  0.11465990744E+04  0.11203692060E+04 0.  0.
        3    1    3    3  502    0  0.12368609509E+03  0.37996363850E+02 -0.43587236411E+03  0.45467208160E+03  0.10100000352E+00 0. -1.
       -3    1    3    3    0  502 -0.12368609509E+03 -0.37996363850E+02  0.67972125126E+03  0.69192699283E+03  0.10100000352E+00 0.  1.
</event>
<event>
 5   0  0.5712664E-03  0.1087408E+04  0.7818609E-02  0.9217553E-01
        1   -1    0    0  501    0  0.00000000000E+00  0.00000000000E+00  0.58826501615E+03  0.58826501617E+03  0.50400001928E-02 0. -1.
       -1   -1    0    0    0  501  0.00000000000E+00  0.00000000000E+00 -0.50251813116E+03  0.50251813119E+03  0.50400001928E-02 0.  1.
    10030    2    1    2    0    0  0.00000000000E+00  0.00000000000E+00  0.85746884990E+02  0.10907831474E+04  0.10874076265E+04 0.  0.
        5    1    3    3  502    0  0.22679900365E+03 -0.30092917132E+03 -0.35025586508E+03  0.51448752680E+03  0.46999998093E+01 0.  1.
       -5    1    3    3    0  502 -0.22679900365E+03  0.30092917132E+03  0.43600275007E+03  0.57629562056E+03  0.46999998093E+01 0. -1.
</event>
<event>
 5   0  0.5958706E-03  0.1087782E+04  0.7818609E-02  0.9217183E-01
        1   -1    0    0  501    0  0.00000000000E+00  0.00000000000E+00  0.95376132886E+03  0.95376132887E+03  0.50400001928E-02 0.  1.
       -1   -1    0    0    0  501  0.00000000000E+00  0.00000000000E+00 -0.31015850312E+03  0.31015850316E+03  0.50400001928E-02 0. -1.
    10030    2    1    2    0    0  0.00000000000E+00  0.00000000000E+00  0.64360282574E+03  0.12639198320E+04  0.10877815702E+04 0.  0.
        2    1    3    3  502    0  0.18574450778E+03  0.49717986239E+03  0.18369192033E+03  0.56163294004E+03  0.25500000920E-02 0.  1.
       -2    1    3    3    0  502 -0.18574450778E+03 -0.49717986239E+03  0.45991090541E+03  0.70228689199E+03  0.25500000920E-02 0. -1.
</event>
<event>
 5   0  0.3949750E-03  0.1069244E+04  0.7818609E-02  0.9235698E-01
        3   -1    0    0  501    0  0.00000000000E+00  0.00000000000E+00  0.26921777843E+03  0.26921779737E+03  0.10100000352E+00 0.  1.
       -3   -1    0    0    0  501  0.00000000000E+00  0.00000000000E+00 -0.10616715041E+04  0.10616715089E+04  0.10100000352E+00 0. -1.
    10030    2    1    2    0    0  0.00000000000E+00  0.00000000000E+00 -0.79245372571E+03  0.13308893063E+04  0.10692443305E+04 0.  0.
        5    1    3    3  502    0 -0.20853817747E+03  0.26371015576E+03 -0.91359070002E+03  0.97349949916E+03  0.46999998093E+01 0. -1.
       -5    1    3    3    0  502  0.20853817747E+03 -0.26371015576E+03  0.12113697431E+03  0.35738980715E+03  0.46999998093E+01 0.  1.
</event>
<event>
 5   0  0.9925021E-03  0.1082576E+04  0.7818609E-02  0.9222343E-01
        2   -1    0    0  501    0  0.00000000000E+00  0.00000000000E+00  0.30982934244E+03  0.30982934245E+03  0.25500000920E-02 0.  1.
       -2   -1    0    0    0  501  0.00000000000E+00  0.00000000000E+00 -0.94565812828E+03  0.94565812828E+03  0.25500000920E-02 0. -1.
    10030    2    1    2    0    0  0.00000000000E+00  0.00000000000E+00 -0.63582878584E+03  0.12554874707E+04  0.10825758838E+04 0.  0.
        4    1    3    3  502    0 -0.25437735208E+03 -0.46294795306E+03 -0.45495009872E+03  0.69714406669E+03  0.12699999809E+01 0. -1.
       -4    1    3    3    0  502  0.25437735208E+03  0.46294795306E+03 -0.18087868712E+03  0.55834340405E+03  0.12699999809E+01 0.  1.
</event>
<event>
 5   0  0.5854579E-03  0.1097766E+04  0.7818609E-02  0.9207372E-01
       -1   -1    0    0    0  501  0.00000000000E+00  0.00000000000E+00  0.38490189282E+03  0.38490189285E+03  0.50400001928E-02 0.  1.
        1   -1    0    0  501    0  0.00000000000E+00  0.00000000000E+00 -0.78272551696E+03  0.78272551698E+03  0.50400001928E-02 0. -1.
    10030    2    1    2    0    0  0.00000000000E+00  0.00000000000E+00 -0.39782362414E+03  0.11676274098E+04  0.10977659734E+04 0.  0.
        4    1    3    3  502    0  0.21557589912E+03  0.40371611241E+03 -0.52119857786E+03  0.69362038477E+03  0.12699999809E+01 0. -1.
       -4    1    3    3    0  502 -0.21557589912E+03 -0.40371611241E+03  0.12337495372E+03  0.47400702506E+03  0.12699999809E+01 0.  1.
</event>
<event>
 5   0  0.5998641E-03  0.1101944E+04  0.7818609E-02  0.9203300E-01
        1   -1    0    0  501    0  0.00000000000E+00  0.00000000000E+00  0.76044585508E+03  0.76044585510E+03  0.50400001928E-02 0.  1.
       -1   -1    0    0    0  501  0.00000000000E+00  0.00000000000E+00 -0.39919992222E+03  0.39919992225E+03  0.50400001928E-02 0. -1.
    10030    2    1    2    0    0  0.00000000000E+00  0.00000000000E+00  0.36124593286E+03  0.11596457773E+04  0.11019436033E+04 0.  0.
        3    1    3    3  502    0 -0.88109516372E+02  0.43670809061E+02 -0.38988984139E+03  0.40210014307E+03  0.10100000352E+00 0. -1.
       -3    1    3    3    0  502  0.88109516372E+02 -0.43670809061E+02  0.75113577426E+03  0.75754563427E+03  0.10100000352E+00 0.  1.
</event>
<event>
 5   0  0.9692981E-03  0.1080961E+04  0.7818609E-02  0.9223950E-01
       -2   -1    0    0    0  501  0.00000000000E+00  0.00000000000E+00  0.28273986690E+03  0.28273986691E+03  0.25500000920E-02 0. -1.
        2   -1    0    0  501    0  0.00000000000E+00  0.00000000000E+00 -0.10331725266E+04  0.10331725266E+04  0.25500000920E-02 0.  1.
    10030    2    1    2    0    0  0.00000000000E+00  0.00000000000E+00 -0.75043265967E+03  0.13159123935E+04  0.10809607998E+04 0.  0.
        5    1    3    3  502    0  0.52769731754E+03  0.61539688839E+02 -0.25442568968E+03  0.58907224838E+03  0.46999998093E+01 0. -1.
       -5    1    3    3    0  502 -0.52769731754E+03 -0.61539688839E+02 -0.49600696999E+03  0.72684014509E+03  0.46999998093E+01 0.  1.
</event>
<event>
 5   0  0.1019384E-02  0.1106713E+04  0.7818609E-02  0.9198674E-01
       -2   -1    0    0    0  501  0.00000000000E+00  0.00000000000E+00  0.12505185700E+03  0.12505185703E+03  0.25500000920E-02 0. -1.
        2   -1    0    0  501    0  0.00000000000E+00  0.00000000000E+00 -0.24486110515E+04  0.24486110515E+04  0.25500000920E-02 0.  1.
    10030    2    1    2    0    0  0.00000000000E+00  0.00000000000E+00 -0.23235591945E+04  0.25736629085E+04  0.11067128970E+04 0.  0.
        1    1    3    3  502    0  0.36492611884E+03 -0.38898530507E+03 -0.81903249817E+03  0.97739187272E+03  0.50400001928E-02 0. -1.
       -1    1    3    3    0  502 -0.36492611884E+03  0.38898530507E+03 -0.15045266963E+04  0.15962710358E+04  0.50400001928E-02 0.  1.
</event>
<event>
 5   0  0.9719260E-03  0.1106062E+04  0.7818609E-02  0.9199303E-01
       -2   -1    0    0    0  501  0.00000000000E+00  0.00000000000E+00  0.32493354019E+03  0.32493354020E+03  0.25500000920E-02 0. -1.
        2   -1    0    0  501    0  0.00000000000E+00  0.00000000000E+00 -0.94124924662E+03  0.94124924662E+03  0.25500000920E-02 0.  1.
    10030    2    1    2    0    0  0.00000000000E+00  0.00000000000E+00 -0.61631570643E+03  0.12661827868E+04  0.11060622946E+04 0.  0.
        3    1    3    3  502    0 -0.35385951771E+02  0.29839555064E+03 -0.83964432028E+03  0.89179294963E+03  0.10100000352E+00 0.  1.
       -3    1    3    3    0  502  0.35385951771E+02 -0.29839555064E+03  0.22332861385E+03  0.37438983719E+03  0.10100000352E+00 0. -1.
</event>
<event>
 5   0  0.9719260E-03  0.1134309E+04  0.7818609E-02  0.9172382E-01
       -2   -1    0    0    0  501  0.00000000000E+00  0.00000000000E+00  0.20247236722E+03  0.20247236723E+03  0.25500000920E-02 0. -1.
        2   -1    0    0  501    0  0.00000000000E+00  0.00000000000E+00 -0.15886821509E+04  0.15886821509E+04  0.25500000920E-02 0.  1.
    10030    2    1    2    0    0  0.00000000000E+00  0.00000000000E+00 -0.13862097837E+04  0.17911545182E+04  0.11343090159E+04 0.  0.
        3    1    3    3  502    0  0.82462965011E+02 -0.53034454804E+03 -0.98254799090E+03  0.11195829781E+04  0.10100000352E+00 0.  1.
       -3    1    3    3    0  502 -0.82462965011E+02  0.53034454804E+03 -0.40366179280E+03  0.67157154005E+03  0.10100000352E+00 0. -1.
</event>
<event>
 5   0  0.5854579E-03  0.9223916E+03  0.7818609E-02  0.9398016E-01
       -1   -1    0    0    0  501  0.00000000000E+00  0.00000000000E+00  0.47976328646E+03  0.47976328649E+03  0.50400001928E-02 0. -1.
        1   -1    0    0  501    0  0.00000000000E+00  0.00000000000E+00 -0.44334687196E+03  0.44334687199E+03  0.50400001928E-02 0.  1.
    10030    2    1    2    0    0  0.00000000000E+00  0.00000000000E+00  0.36416414507E+02  0.92311015847E+03  0.92239157056E+03 0.  0.
        4    1    3    3  502    0 -0.53276899659E+02 -0.37801910349E+03 -0.24076562238E+03  0.45133864056E+03  0.12699999809E+01 0.  1.
       -4    1    3    3    0  502  0.53276899659E+02  0.37801910349E+03  0.27718203689E+03  0.47177151791E+03  0.12699999809E+01 0. -1.
</event>
<event>
 5   0  0.1019384E-02  0.1197453E+04  0.7818609E-02  0.9115089E-01
        2   -1    0    0  501    0  0.00000000000E+00  0.00000000000E+00  0.69972115616E+03  0.69972115616E+03  0.25500000920E-02 0.  1.
       -2   -1    0    0    0  501  0.00000000000E+00  0.00000000000E+00 -0.51230922813E+03  0.51230922814E+03  0.25500000920E-02 0. -1.
    10030    2    1    2    0    0  0.00000000000E+00  0.00000000000E+00  0.18741192803E+03  0.12120303843E+04  0.11974533067E+04 0.  0.
        1    1    3    3  502    0 -0.59180737361E+03 -0.22773788491E+02  0.47786388995E+01  0.59226467758E+03  0.50400001928E-02 0.  1.
       -1    1    3    3    0  502  0.59180737361E+03  0.22773788491E+02  0.18263328913E+03  0.61976570671E+03  0.50400001928E-02 0. -1.
</event>
<event>
 5   0  0.5958706E-03  0.1105966E+04  0.7818609E-02  0.9199396E-01
        1   -1    0    0  501    0  0.00000000000E+00  0.00000000000E+00  0.42831346283E+03  0.42831346286E+03  0.50400001928E-02 0. -1.
       -1   -1    0    0    0  501  0.00000000000E+00  0.00000000000E+00 -0.71394037017E+03  0.71394037019E+03  0.50400001928E-02 0.  1.
    10030    2    1    2    0    0  0.00000000000E+00  0.00000000000E+00 -0.28562690734E+03  0.11422538331E+04  0.11059661337E+04 0.  0.
        2    1    3    3  502    0 -0.50155401299E+03  0.10217611738E+03  0.73322757452E+02  0.51708085797E+03  0.25500000920E-02 0. -1.
       -2    1    3    3    0  502  0.50155401299E+03 -0.10217611738E+03 -0.35894966479E+03  0.62517297508E+03  0.25500000920E-02 0.  1.
</event>
<event>
 5   0  0.5789905E-03  0.1116195E+04  0.7818609E-02  0.9189549E-01
        1   -1    0    0  501    0  0.00000000000E+00  0.00000000000E+00  0.73025021313E+03  0.73025021315E+03  0.50400001928E-02 0. -1.
       -1   -1    0    0    0  501  0.00000000000E+00  0.00000000000E+00 -0.42652910410E+03  0.42652910413E+03  0.50400001928E-02 0.  1.
    10030    2    1    2    0    0  0.00000000000E+00  0.00000000000E+00  0.30372110903E+03  0.11567793173E+04  0.11161952682E+04 0.  0.
        1    1    3    3  502    0  0.28904505800E+03  0.29763311845E+03  0.53871620350E+03  0.67996151854E+03  0.50400001928E-02 0. -1.
       -1    1    3    3    0  502 -0.28904505800E+03 -0.29763311845E+03 -0.23499509447E+03  0.47681779875E+03  0.50400001928E-02 0.  1.
</event>
<event>
 5   0  0.5712664E-03  0.1056625E+04  0.7818609E-02  0.9248531E-01
        1   -1    0    0  501    0  0.00000000000E+00  0.00000000000E+00  0.68826570631E+03  0.68826570633E+03  0.50400001928E-02 0.  1.
       -1   -1    0    0    0  501  0.00000000000E+00  0.00000000000E+00 -0.40553248296E+03  0.40553248299E+03  0.50400001928E-02 0. -1.
    10030    2    1    2    0    0  0.00000000000E+00  0.00000000000E+00  0.28273322335E+03  0.10937981893E+04  0.10566250060E+04 0.  0.
        5    1    3    3  502    0  0.30913078620E+03  0.17341131315E+03  0.54688639942E+03  0.65172091448E+03  0.46999998093E+01 0.  1.
       -5    1    3    3    0  502 -0.30913078620E+03 -0.17341131315E+03 -0.26415317607E+03  0.44207727484E+03  0.46999998093E+01 0. -1.
</event>
<event>
 5   0  0.1028016E-02  0.1208030E+04  0.7818609E-02  0.9105857E-01
        2   -1    0    0  501    0  0.00000000000E+00  0.00000000000E+00  0.34889695610E+03  0.34889695611E+03  0.25500000920E-02 0.  1.
       -2   -1    0    0    0  501  0.00000000000E+00  0.00000000000E+00 -0.10456788425E+04  0.10456788425E+04  0.25500000920E-02 0. -1.
    10030    2    1    2    0    0  0.00000000000E+00  0.00000000000E+00 -0.69678188640E+03  0.13945757986E+04  0.12080300745E+04 0.  0.
        2    1    3    3  502    0  0.26612013369E+03  0.11402158493E+03  0.26357581080E+03  0.39152657053E+03  0.25500000920E-02 0.  1.
       -2    1    3    3    0  502 -0.26612013369E+03 -0.11402158493E+03 -0.96035769720E+03  0.10030492281E+04  0.25500000920E-02 0. -1.
</event>
<event>
 5   0  0.1019384E-02  0.1065544E+04  0.7818609E-02  0.9239441E-01
       -2   -1    0    0    0  501  0.00000000000E+00  0.00000000000E+00  0.31780136175E+03  0.31780136176E+03  0.25500000920E-02 0.  1.
        2   -1    0    0  501    0  0.00000000000E+00  0.00000000000E+00 -0.89315612377E+03  0.89315612377E+03  0.25500000920E-02 0. -1.
    10030    2    1    2    0    0  0.00000000000E+00  0.00000000000E+00 -0.57535476203E+03  0.12109574855E+04  0.10655444287E+04 0.  0.
        1    1    3    3  502    0  0.39987576942E+03 -0.34513382980E+03 -0.20870926081E+03  0.56795910682E+03  0.50400001928E-02 0.  1.
       -1    1    3    3    0  502 -0.39987576942E+03  0.34513382980E+03 -0.36664550121E+03  0.64299837871E+03  0.50400001928E-02 0. -1.
</event>
<event>
 5   0  0.9719260E-03  0.1102009E+04  0.7818609E-02  0.9203236E-01
       -2   -1    0    0    0  501  0.00000000000E+00  0.00000000000E+00  0.80724926902E+03  0.80724926903E+03  0.25500000920E-02 0. -1.
        2   -1    0    0  501    0  0.00000000000E+00  0.00000000000E+00 -0.37609954039E+03  0.37609954040E+03  0.25500000920E-02 0.  1.
    10030    2    1    2    0    0  0.00000000000E+00  0.00000000000E+00  0.43114972863E+03  0.11833488094E+04  0.11020092179E+04 0.  0.
        3    1    3    3  502    0 -0.29136847005E+03  0.45809574707E+03  0.11450672618E+03  0.55485051984E+03  0.10100000352E+00 0.  1.
       -3    1    3    3    0  502  0.29136847005E+03 -0.45809574707E+03  0.31664300245E+03  0.62849828959E+03  0.10100000352E+00 0. -1.
</event>
<event>
 5   0  0.5712664E-03  0.1104480E+04  0.7818609E-02  0.9200836E-01
        1   -1    0    0  501    0  0.00000000000E+00  0.00000000000E+00  0.92931214517E+03  0.92931214518E+03  0.50400001928E-02 0. -1.
       -1   -1    0    0    0  501  0.00000000000E+00  0.00000000000E+00 -0.32816662667E+03  0.32816662671E+03  0.50400001928E-02 0.  1.
    10030    2    1    2    0    0  0.00000000000E+00  0.00000000000E+00  0.60114551850E+03  0.12574787719E+04  0.11044803879E+04 0.  0.
        5    1    3    3  502    0  0.10379393478E+03 -0.34769610192E+03 -0.17336204682E+03  0.40217191531E+03  0.46999998093E+01 0.  1.
       -5    1    3    3    0  502 -0.10379393478E+03  0.34769610192E+03  0.77450756531E+03  0.85530685658E+03  0.46999998093E+01 0. -1.
</event>
<event>
 5   0  0.9692981E-03  0.1104440E+04  0.7818609E-02  0.9200875E-01
        2   -1    0    0  501    0  0.00000000000E+00  0.00000000000E+00  0.48333503484E+03  0.48333503485E+03  0.25500000920E-02 0. -1.
       -2   -1    0    0    0  501  0.00000000000E+00  0.00000000000E+00 -0.63092257184E+03  0.63092257185E+03  0.25500000920E-02 0.  1.
    10030    2    1    2    0    0  0.00000000000E+00  0.00000000000E+00 -0.14758753700E+03  0.11142576067E+04  0.11044400993E+04 0.  0.
        5    1    3    3  502    0 -0.40922697832E+03  0.15559120234E+01  0.30025213368E+03  0.50758504157E+03  0.46999998093E+01 0.  1.
       -5    1    3    3    0  502  0.40922697832E+03 -0.15559120234E+01 -0.44783967068E+03  0.60667256513E+03  0.46999998093E+01 0. -1.
</event>
<event>
 5   0  0.9925021E-03  0.1103193E+04  0.7818609E-02  0.9202086E-01
        2   -1    0    0  501    0  0.00000000000E+00  0.00000000000E+00  0.19347244073E+03  0.19347244075E+03  0.25500000920E-02 0.  1.
       -2   -1    0    0    0  501  0.00000000000E+00  0.00000000000E+00 -0.15726190144E+04  0.15726190144E+04  0.25500000920E-02 0. -1.
    10030    2    1    2    0    0  0.00000000000E+00  0.00000000000E+00 -0.13791465737E+04  0.17660914552E+04  0.11031925291E+04 0.  0.
        4    1    3    3  502    0  0.37751280690E+03 -0.19074754771E+03 -0.12276665263E+03  0.44042457950E+03  0.12699999809E+01 0.  1.
       -4    1    3    3    0  502 -0.37751280690E+03  0.19074754771E+03 -0.12563799210E+04  0.13256668757E+04  0.12699999809E+01 0. -1.
</event>
<event>
 5   0  0.1019384E-02  0.1091039E+04  0.7818609E-02  0.9213970E-01
       -2   -1    0    0    0  501  0.00000000000E+00  0.00000000000E+00  0.34155398270E+03  0.34155398271E+03  0.25500000920E-02 0.  1.
        2   -1    0    0  501    0  0.00000000000E+00  0.00000000000E+00 -0.87128714851E+03  0.87128714851E+03  0.25500000920E-02 0. -1.
    10030    2    1    2    0    0  0.00000000000E+00  0.00000000000E+00 -0.52973316581E+03  0.12128411312E+04  0.10910391297E+04 0.  0.
        1    1    3    3  502    0  0.42063631165E+03  0.60081026240E+00 -0.65100111474E+03  0.77507271857E+03  0.50400001928E-02 0. -1.
       -1    1    3    3    0  502 -0.42063631165E+03 -0.60081026240E+00  0.12126794894E+03  0.43776841265E+03  0.50400001928E-02 0.  1.
</event>
<event>
 5   0  0.5854579E-03  0.1023389E+04  0.7818609E-02  0.9283258E-01
       -1   -1    0    0    0  501  0.00000000000E+00  0.00000000000E+00  0.35565771991E+03  0.35565771994E+03  0.50400001928E-02 0. -1.
        1   -1    0    0  501    0  0.00000000000E+00  0.00000000000E+00 -0.73618893226E+03  0.73618893227E+03  0.50400001928E-02 0.  1.
    10030    2    1    2    0    0  0.00000000000E+00  0.00000000000E+00 -0.38053121235E+03  0.10918466522E+04  0.10233890308E+04 0.  0.
        4    1    3    3  502    0  0.10611545109E+03  0.30637693409E+03  0.23207091975E+03  0.39873028402E+03  0.12699999809E+01 0. -1.
       -4    1    3    3    0  502 -0.10611545109E+03 -0.30637693409E+03 -0.61260213210E+03  0.69311636819E+03  0.12699999809E+01 0.  1.
</event>
<event>
 5   0  0.5712664E-03  0.1103936E+04  0.7818609E-02  0.9201364E-01
       -1   -1    0    0    0  501  0.00000000000E+00  0.00000000000E+00  0.48145848028E+03  0.48145848030E+03  0.50400001928E-02 0. -1.
        1   -1    0    0  501    0  0.00000000000E+00  0.00000000000E+00 -0.63280372985E+03  0.63280372987E+03  0.50400001928E-02 0.  1.
    10030    2    1    2    0    0  0.00000000000E+00  0.00000000000E+00 -0.15134524957E+03  0.11142622102E+04  0.11039360889E+04 0.  0.
        5    1    3    3  502    0 -0.18089536411E+03 -0.50254161339E+03 -0.21617028849E+03  0.57621427401E+03  0.46999998093E+01 0.  1.
       -5    1    3    3    0  502  0.18089536411E+03  0.50254161339E+03  0.64825038917E+02  0.53804793617E+03  0.46999998093E+01 0. -1.
</event>
<event>
 5   0  0.9692981E-03  0.6602176E+03  0.7818609E-02  0.9787793E-01
       -2   -1    0    0    0  501  0.00000000000E+00  0.00000000000E+00  0.89099302247E+02  0.89099302283E+02  0.25500000920E-02 0. -1.
        2   -1    0    0  501    0  0.00000000000E+00  0.00000000000E+00 -0.12230378779E+04  0.12230378779E+04  0.25500000920E-02 0.  1.
    10030    2    1    2    0    0  0.00000000000E+00  0.00000000000E+00 -0.11339385756E+04  0.13121371801E+04  0.66021760523E+03 0.  0.
        5    1    3    3  502    0  0.62273688970E+01  0.74135656489E+02 -0.12060910509E+04  0.12083925640E+04  0.46999998093E+01 0.  1.
       -5    1    3    3    0  502 -0.62273688970E+01 -0.74135656489E+02  0.72152475296E+02  0.10374461613E+03  0.46999998093E+01 0. -1.
</event>
<event>
 5   0  0.9692981E-03  0.1080047E+04  0.7818609E-02  0.9224860E-01
        2   -1    0    0  501    0  0.00000000000E+00  0.00000000000E+00  0.14316638691E+04  0.14316638691E+04  0.25500000920E-02 0. -1.
       -2   -1    0    0    0  501  0.00000000000E+00  0.00000000000E+00 -0.20369686223E+03  0.20369686225E+03  0.25500000920E-02 0.  1.
    10030    2    1    2    0    0  0.00000000000E+00  0.00000000000E+00  0.12279670068E+04  0.16353607313E+04  0.10800471062E+04 0.  0.
        5    1    3    3  502    0 -0.22121780546E+03 -0.28116915910E+03  0.12264406446E+04  0.12775649330E+04  0.46999998093E+01 0. -1.
       -5    1    3    3    0  502  0.22121780546E+03  0.28116915910E+03  0.15263622612E+01  0.35779579827E+03  0.46999998093E+01 0.  1.
</event>
<event>
 5   0  0.9692981E-03  0.1093331E+04  0.7818609E-02  0.9211717E-01
       -2   -1    0    0    0  501  0.00000000000E+00  0.00000000000E+00  0.32255333274E+03  0.32255333275E+03  0.25500000920E-02 0.  1.
        2   -1    0    0  501    0  0.00000000000E+00  0.00000000000E+00 -0.92649173972E+03  0.92649173973E+03  0.25500000920E-02 0. -1.
    10030    2    1    2    0    0  0.00000000000E+00  0.00000000000E+00 -0.60393840698E+03  0.12490450725E+04  0.10933306881E+04 0.  0.
        5    1    3    3  502    0 -0.64461767249E+01  0.20672246803E+03  0.27610670647E+03  0.34501121045E+03  0.46999998093E+01 0.  1.
       -5    1    3    3    0  502  0.64461767249E+01 -0.20672246803E+03 -0.88004511345E+03  0.90403386203E+03  0.46999998093E+01 0. -1.
</event>
<event>
 5   0  0.9925021E-03  0.9263572E+03  0.7818609E-02  0.9393220E-01
        2   -1    0    0  501    0  0.00000000000E+00  0.00000000000E+00  0.14657869536E+04  0.14657869536E+04  0.25500000920E-02 0.  1.
       -2   -1    0    0    0  501  0.00000000000E+00  0.00000000000E+00 -0.14636126423E+03  0.14636126425E+03  0.25500000920E-02 0. -1.
    10030    2    1    2    0    0  0.00000000000E+00  0.00000000000E+00  0.13194256894E+04  0.16121482179E+04  0.92635723487E+03 0.  0.
        4    1    3    3  502    0  0.68253878311E+02  0.44842454111E+03  0.82287237747E+03  0.93960828193E+03  0.12699999809E+01 0.  1.
       -4    1    3    3    0  502 -0.68253878311E+02 -0.44842454111E+03  0.49655331194E+03  0.67253993597E+03  0.12699999809E+01 0. -1.
</event>
<event>
 5   0  0.9925021E-03  0.1120273E+04  0.7818609E-02  0.9185655E-01
       -2   -1    0    0    0  501  0.00000000000E+00  0.00000000000E+00  0.59341669380E+03  0.59341669381E+03  0.25500000920E-02 0.  1.
        2   -1    0    0  501    0  0.00000000000E+00  0.00000000000E+00 -0.52872247209E+03  0.52872247209E+03  0.25500000920E-02 0. -1.
    10030    2    1    2    0    0  0.00000000000E+00  0.00000000000E+00  0.64694221713E+02  0.11221391659E+04  0.11202727192E+04 0.  0.
        4    1    3    3  502    0 -0.44033544537E+02  0.47226284238E+03 -0.26610900970E+03  0.54386281660E+03  0.12699999809E+01 0. -1.
       -4    1    3    3    0  502  0.44033544537E+02 -0.47226284238E+03  0.33080323141E+03  0.57827634929E+03  0.12699999809E+01 0.  1.
</event>
<event>
 5   0  0.5712664E-03  0.1143281E+04  0.7818609E-02  0.9164005E-01
        1   -1    0    0  501    0  0.00000000000E+00  0.00000000000E+00  0.13926910127E+04  0.13926910127E+04  0.50400001928E-02 0. -1.
       -1   -1    0    0    0  501  0.00000000000E+00  0.00000000000E+00 -0.23463401080E+03  0.23463401086E+03  0.50400001928E-02 0.  1.
    10030    2    1    2    0    0  0.00000000000E+00  0.00000000000E+00  0.11580570019E+04  0.16273250236E+04  0.11432806798E+04 0.  0.
        5    1    3    3  502    0  0.14315314101E+03  0.20793917206E+03 -0.15095837929E+03  0.29418029053E+03  0.46999998093E+01 0.  1.
       -5    1    3    3    0  502 -0.14315314101E+03 -0.20793917206E+03  0.13090153812E+04  0.13331447330E+04  0.46999998093E+01 0. -1.
</event>
<event>
 5   0  0.9719260E-03  0.1083343E+04  0.7818609E-02  0.9221581E-01
        2   -1    0    0  501    0  0.00000000000E+00  0.00000000000E+00  0.59600862541E+03  0.59600862542E+03  0.25500000920E-02 0. -1.
       -2   -1    0    0    0  501  0.00000000000E+00  0.00000000000E+00 -0.49228809149E+03  0.49228809150E+03  0.25500000920E-02 0.  1.
    10030    2    1    2    0    0  0.00000000000E+00  0.00000000000E+00  0.10372053392E+03  0.10882967169E+04  0.10833428796E+04 0.  0.
        3    1    3    3  502    0  0.16104987750E+03  0.13850241066E+03 -0.44870327371E+03  0.49644195919E+03  0.10100000352E+00 0.  1.
       -3    1    3    3    0  502 -0.16104987750E+03 -0.13850241066E+03  0.55242380763E+03  0.59185475773E+03  0.10100000352E+00 0. -1.
</event>
<event>
 5   0  0.1028016E-02  0.1103460E+04  0.7818609E-02  0.9201826E-01
       -2   -1    0    0    0  501  0.00000000000E+00  0.00000000000E+00  0.11251417992E+04  0.11251417992E+04  0.25500000920E-02 0. -1.
        2   -1    0    0  501    0  0.00000000000E+00  0.00000000000E+00 -0.27054916748E+03  0.27054916749E+03  0.25500000920E-02 0.  1.
    10030    2    1    2    0    0  0.00000000000E+00  0.00000000000E+00  0.85459263176E+03  0.13956909667E+04  0.11034603339E+04 0.  0.
        2    1    3    3  502    0  0.73660926849E+02  0.44455146732E+03  0.82997023128E+03  0.94440591065E+03  0.25500000920E-02 0. -1.
       -2    1    3    3    0  502 -0.73660926849E+02 -0.44455146732E+03  0.24622400475E+02  0.45128505609E+03  0.25500000920E-02 0.  1.
</event>
<event>
 5   0  0.5789905E-03  0.1097532E+04  0.7818609E-02  0.9207600E-01
       -1   -1    0    0    0  501  0.00000000000E+00  0.00000000000E+00  0.14967056264E+03  0.14967056273E+03  0.50400001928E-02 0. -1.
        1   -1    0    0  501    0  0.00000000000E+00  0.00000000000E+00 -0.20120482105E+04  0.20120482105E+04  0.50400001928E-02 0.  1.
    10030    2    1    2    0    0  0.00000000000E+00  0.00000000000E+00 -0.18623776479E+04  0.21617187733E+04  0.10975324830E+04 0.  0.
        1    1    3    3  502    0 -0.44064668625E+03  0.20267866518E+03 -0.42558291212E+03  0.64526657944E+03  0.50400001928E-02 0. -1.
       -1    1    3    3    0  502  0.44064668625E+03 -0.20267866518E+03 -0.14367947358E+04  0.15164521938E+04  0.50400001928E-02 0.  1.
</event>
<event>
 5   0  0.9692981E-03  0.1111268E+04  0.7818609E-02  0.9194278E-01
        2   -1    0    0  501    0  0.00000000000E+00  0.00000000000E+00  0.98359855677E+03  0.98359855678E+03  0.25500000920E-02 0.  1.
       -2   -1    0    0    0  501  0.00000000000E+00  0.00000000000E+00 -0.31387744099E+03  0.31387744100E+03  0.25500000920E-02 0. -1.
    10030    2    1    2    0    0  0.00000000000E+00  0.00000000000E+00  0.66972111578E+03  0.12974759978E+04  0.11112684608E+04 0.  0.
        5    1    3    3  502    0  0.23988127134E+02 -0.32992609445E+03  0.85607076161E+03  0.91777224676E+03  0.46999998093E+01 0.  1.
       -5    1    3    3    0  502 -0.23988127134E+02  0.32992609445E+03 -0.18634964583E+03  0.37970375102E+03  0.46999998093E+01 0. -1.
</event>
<event>
 5   0  0.1028016E-02  0.1006835E+04  0.7818609E-02  0.9301080E-01
        2   -1    0    0  501    0  0.00000000000E+00  0.00000000000E+00  0.11191577492E+04  0.11191577492E+04  0.25500000920E-02 0. -1.
       -2   -1    0    0    0  501  0.00000000000E+00  0.00000000000E+00 -0.22644613953E+03  0.22644613955E+03  0.25500000920E-02 0.  1.
    10030    2    1    2    0    0  0.00000000000E+00  0.00000000000E+00  0.89271160969E+03  0.13456038888E+04  0.10068345482E+04 0.  0.
        2    1    3    3  502    0 -0.49710085278E+03  0.43686327137E+02  0.53511992267E+03  0.73169056619E+03  0.25500000920E-02 0. -1.
       -2    1    3    3    0  502  0.49710085278E+03 -0.43686327137E+02  0.35759168702E+03  0.61391332258E+03  0.25500000920E-02 0.  1.
</event>
<event>
 5   0  0.5789905E-03  0.1110475E+04  0.7818609E-02  0.9195042E-01
       -1   -1    0    0    0  501  0.00000000000E+00  0.00000000000E+00  0.17621072062E+03  0.17621072069E+03  0.50400001928E-02 0.  1.
        1   -1    0    0  501    0  0.00000000000E+00  0.00000000000E+00 -0.17495442445E+04  0.17495442445E+04  0.50400001928E-02 0. -1.
    10030    2    1    2    0    0  0.00000000000E+00  0.00000000000E+00 -0.15733335239E+04  0.19257549652E+04  0.11104745871E+04 0.  0.
        1    1    3    3  502    0  0.38179733919E+03 -0.38560812898E+03 -0.99057493239E+03  0.11294695808E+04  0.50400001928E-02 0. -1.
       -1    1    3    3    0  502 -0.38179733919E+03  0.38560812898E+03 -0.58275859148E+03  0.79628538434E+03  0.50400001928E-02 0.  1.
</event>
<event>
 5   0  0.9692981E-03  0.1215342E+04  0.7818609E-02  0.9099533E-01
        2   -1    0    0  501    0  0.00000000000E+00  0.00000000000E+00  0.14721790843E+04  0.14721790843E+04  0.25500000920E-02 0.  1.
       -2   -1    0    0    0  501  0.00000000000E+00  0.00000000000E+00 -0.25082821377E+03  0.25082821378E+03  0.25500000920E-02 0. -1.
    10030    2    1    2    0    0  0.00000000000E+00  0.00000000000E+00  0.12213508705E+04  0.17230072981E+04  0.12153420096E+04 0.  0.
        5    1    3    3  502    0  0.43768946622E+03  0.36497714906E+03  0.31173751186E+03  0.64960199698E+03  0.46999998093E+01 0. -1.
       -5    1    3    3    0  502 -0.43768946622E+03 -0.36497714906E+03  0.90961335863E+03  0.10734053011E+04  0.46999998093E+01 0.  1.
</event>
<event>
 5   0  0.9692981E-03  0.1088657E+04  0.7818609E-02  0.9216318E-01
        2   -1    0    0  501    0  0.00000000000E+00  0.00000000000E+00  0.11119351830E+04  0.11119351830E+04  0.25500000920E-02 0. -1.
       -2   -1    0    0    0  501  0.00000000000E+00  0.00000000000E+00 -0.26646670143E+03  0.26646670145E+03  0.25500000920E-02 0.  1.
    10030    2    1    2    0    0  0.00000000000E+00  0.00000000000E+00  0.84546848153E+03  0.13784018844E+04  0.10886573390E+04 0.  0.
        5    1    3    3  502    0  0.20165621754E+02 -0.24118766482E+02 -0.26529049890E+03  0.26718814719E+03  0.46999998093E+01 0.  1.
       -5    1    3    3    0  502 -0.20165621754E+02  0.24118766482E+02  0.11107589804E+04  0.11112137372E+04  0.46999998093E+01 0. -1.
</event>
<event>
 5   0  0.9719260E-03  0.1148717E+04  0.7818609E-02  0.9158968E-01
       -2   -1    0    0    0  501  0.00000000000E+00  0.00000000000E+00  0.60369764399E+03  0.60369764399E+03  0.25500000920E-02 0.  1.
        2   -1    0    0  501    0  0.00000000000E+00  0.00000000000E+00 -0.54644509803E+03  0.54644509804E+03  0.25500000920E-02 0. -1.
    10030    2    1    2    0    0  0.00000000000E+00  0.00000000000E+00  0.57252545954E+02  0.11501427420E+04  0.11487168811E+04 0.  0.
        3    1    3    3  502    0 -0.72336116039E+02 -0.18613036893E+03  0.56782103032E+03  0.60191175482E+03  0.10100000352E+00 0.  1.
       -3    1    3    3    0  502  0.72336116039E+02  0.18613036893E+03 -0.51056848436E+03  0.54823098722E+03  0.10100000352E+00 0. -1.
</event>
<event>
 5   0  0.3949750E-03  0.1023041E+04  0.7818609E-02  0.9283629E-01
        4   -1    0    0  501    0  0.00000000000E+00  0.00000000000E+00  0.26927123562E+03  0.26927423054E+03  0.12699999809E+01 0.  1.
       -4   -1    0    0    0  501  0.00000000000E+00  0.00000000000E+00 -0.97169948079E+03  0.97170031073E+03  0.12699999809E+01 0. -1.
    10030    2    1    2    0    0  0.00000000000E+00  0.00000000000E+00 -0.70242824517E+03  0.12409745413E+04  0.10230407482E+04 0.  0.
        4    1    3    3  502    0 -0.48094694231E+03 -0.11796875771E+03 -0.19575321843E+03  0.53249180701E+03  0.12699999809E+01 0.  1.
       -4    1    3    3    0  502  0.48094694231E+03  0.11796875771E+03 -0.50667502674E+03  0.70848273425E+03  0.12699999809E+01 0. -1.
</event>
<event>
 5   0  0.5712664E-03  0.1116873E+04  0.7818609E-02  0.9188900E-01
       -1   -1    0    0    0  501  0.00000000000E+00  0.00000000000E+00  0.79966344663E+03  0.79966344664E+03  0.50400001928E-02 0. -1.
        1   -1    0    0  501    0  0.00000000000E+00  0.00000000000E+00 -0.38997843801E+03  0.38997843804E+03  0.50400001928E-02 0.  1.
    10030    2    1    2    0    0  0.00000000000E+00  0.00000000000E+00  0.40968500862E+03  0.11896418847E+04  0.11168733176E+04 0.  0.
        5    1    3    3  502    0  0.30986694149E+03 -0.15366783917E+03  0.67181022359E+03  0.75563376893E+03  0.46999998093E+01 0. -1.
       -5    1    3    3    0  502 -0.30986694149E+03  0.15366783917E+03 -0.26212521497E+03  0.43400811576E+03  0.46999998093E+01 0.  1.
</event>
<event>
 5   0  0.1028016E-02  0.1045251E+04  0.7818609E-02  0.9260261E-01
       -2   -1    0    0    0  501  0.00000000000E+00  0.00000000000E+00  0.27814791487E+03  0.27814791489E+03  0.25500000920E-02 0.  1.
        2   -1    0    0  501    0  0.00000000000E+00  0.00000000000E+00 -0.98198584907E+03  0.98198584907E+03  0.25500000920E-02 0. -1.
    10030    2    1    2    0    0  0.00000000000E+00  0.00000000000E+00 -0.70383793419E+03  0.12601337640E+04  0.10452508146E+04 0.  0.
        2    1    3    3  502    0  0.37137980946E+03 -0.30259343159E+03 -0.60380034531E+03  0.77075327098E+03  0.25500000920E-02 0. -1.
       -2    1    3    3    0  502 -0.37137980946E+03  0.30259343159E+03 -0.10003758888E+03  0.48938049298E+03  0.25500000920E-02 0.  1.
</event>
<event>
 5   0  0.1019384E-02  0.1101279E+04  0.7818609E-02  0.9203946E-01
       -2   -1    0    0    0  501  0.00000000000E+00  0.00000000000E+00  0.14721298514E+03  0.14721298516E+03  0.25500000920E-02 0.  1.
        2   -1    0    0  501    0  0.00000000000E+00  0.00000000000E+00 -0.20596286695E+04  0.20596286695E+04  0.25500000920E-02 0. -1.
    10030    2    1    2    0    0  0.00000000000E+00  0.00000000000E+00 -0.19124156844E+04  0.22068416547E+04  0.11012794100E+04 0.  0.
        1    1    3    3  502    0 -0.20263553579E+03  0.39799491943E+03 -0.16016435501E+04  0.16627456744E+04  0.50400001928E-02 0. -1.
       -1    1    3    3    0  502  0.20263553579E+03 -0.39799491943E+03 -0.31077213429E+03  0.54409598025E+03  0.50400001928E-02 0.  1.
</event>
<event>
 5   0  0.5958706E-03  0.1103719E+04  0.7818609E-02  0.9201575E-01
        1   -1    0    0  501    0  0.00000000000E+00  0.00000000000E+00  0.54724573954E+03  0.54724573957E+03  0.50400001928E-02 0. -1.
       -1   -1    0    0    0  501  0.00000000000E+00  0.00000000000E+00 -0.55651225840E+03  0.55651225843E+03  0.50400001928E-02 0.  1.
    10030    2    1    2    0    0  0.00000000000E+00  0.00000000000E+00 -0.92665188614E+01  0.11037579980E+04  0.11037190991E+04 0.  0.
        2    1    3    3  502    0  0.44451687342E+03  0.16189467521E+03 -0.28879785487E+03  0.55426468190E+03  0.25500000920E-02 0.  1.
       -2    1    3    3    0  502 -0.44451687342E+03 -0.16189467521E+03  0.27953133601E+03  0.54949331609E+03  0.25500000920E-02 0. -1.
</event>
<event>
 5   0  0.5789905E-03  0.1103972E+04  0.7818609E-02  0.9201330E-01
        1   -1    0    0  501    0  0.00000000000E+00  0.00000000000E+00  0.10476716502E+04  0.10476716502E+04  0.50400001928E-02 0. -1.
       -1   -1    0    0    0  501  0.00000000000E+00  0.00000000000E+00 -0.29082419990E+03  0.29082419994E+03  0.50400001928E-02 0.  1.
    10030    2    1    2    0    0  0.00000000000E+00  0.00000000000E+00  0.75684745028E+03  0.13384958501E+04  0.11039715023E+04 0.  0.
        1    1    3    3  502    0  0.91151591928E+02 -0.19887714316E+02 -0.28119561884E+03  0.29626864493E+03  0.50400001928E-02 0.  1.
       -1    1    3    3    0  502 -0.91151591928E+02  0.19887714316E+02  0.10380430691E+04  0.10422272052E+04  0.50400001928E-02 0. -1.
</event>
<event>
 5   0  0.1028016E-02  0.1066879E+04  0.7818609E-02  0.9238089E-01
       -2   -1    0    0    0  501  0.00000000000E+00  0.00000000000E+00  0.26452564923E+03  0.26452564924E+03  0.25500000920E-02 0.  1.
        2   -1    0    0  501    0  0.00000000000E+00  0.00000000000E+00 -0.10757280837E+04  0.10757280837E+04  0.25500000920E-02 0. -1.
    10030    2    1    2    0    0  0.00000000000E+00  0.00000000000E+00 -0.81120243443E+03  0.13402537329E+04  0.10668789430E+04 0.  0.
        2    1    3    3  502    0 -0.38787707224E+03 -0.35906907083E+03 -0.49600190417E+03  0.72484281727E+03  0.25500000920E-02 0. -1.
       -2    1    3    3    0  502  0.38787707224E+03  0.35906907083E+03 -0.31520053026E+03  0.61541091563E+03  0.25500000920E-02 0.  1.
</event>
<event>
 5   0  0.5789905E-03  0.1122707E+04  0.7818609E-02  0.9183339E-01
       -1   -1    0    0    0  501  0.00000000000E+00  0.00000000000E+00  0.75422575606E+03  0.75422575607E+03  0.50400001928E-02 0.  1.
        1   -1    0    0  501    0  0.00000000000E+00  0.00000000000E+00 -0.41780268795E+03  0.41780268798E+03  0.50400001928E-02 0. -1.
    10030    2    1    2    0    0  0.00000000000E+00  0.00000000000E+00  0.33642306811E+03  0.11720284441E+04  0.11227066371E+04 0.  0.
        1    1    3    3  502    0  0.26190060369E+03  0.30639305794E+03 -0.23965561199E+03  0.46893863623E+03  0.50400001928E-02 0. -1.
       -1    1    3    3    0  502 -0.26190060369E+03 -0.30639305794E+03  0.57607868010E+03  0.70308980782E+03  0.50400001928E-02 0.  1.
</event>
<event>
 5   0  0.5789905E-03  0.1099360E+04  0.7818609E-02  0.9205816E-01
        1   -1    0    0  501    0  0.00000000000E+00  0.00000000000E+00  0.14537470102E+04  0.14537470102E+04  0.50400001928E-02 0.  1.
       -1   -1    0    0    0  501  0.00000000000E+00  0.00000000000E+00 -0.20784104396E+03  0.20784104402E+03  0.50400001928E-02 0. -1.
    10030    2    1    2    0    0  0.00000000000E+00  0.00000000000E+00  0.12459059663E+04  0.16615880542E+04  0.10993603528E+04 0.  0.
        1    1    3    3  502    0  0.24592394201E+03  0.28149303198E+03  0.12320945878E+04  0.12875457217E+04  0.50400001928E-02 0.  1.
       -1    1    3    3    0  502 -0.24592394201E+03 -0.28149303198E+03  0.13811378481E+02  0.37404233250E+03  0.50400001928E-02 0. -1.
</event>
<event>
 5   0  0.5958706E-03  0.1093118E+04  0.7818609E-02  0.9211926E-01
        1   -1    0    0  501    0  0.00000000000E+00  0.00000000000E+00  0.21480392706E+03  0.21480392712E+03  0.50400001928E-02 0.  1.
       -1   -1    0    0    0  501  0.00000000000E+00  0.00000000000E+00 -0.13906951475E+04  0.13906951476E+04  0.50400001928E-02 0. -1.
    10030    2    1    2    0    0  0.00000000000E+00  0.00000000000E+00 -0.11758912205E+04  0.16054990747E+04  0.10931180707E+04 0.  0.
        2    1    3    3  502    0  0.50328379754E+03  0.20956250162E+03 -0.53076383237E+03  0.76086875919E+03  0.25500000920E-02 0.  1.
       -2    1    3    3    0  502 -0.50328379754E+03 -0.20956250162E+03 -0.64512738811E+03  0.84463031549E+03  0.25500000920E-02 0. -1.
</event>
<event>
 5   0  0.9925021E-03  0.6299295E+03  0.7818609E-02  0.9845186E-01
        2   -1    0    0  501    0  0.00000000000E+00  0.00000000000E+00  0.66830686923E+03  0.66830686924E+03  0.25500000920E-02 0. -1.
       -2   -1    0    0    0  501  0.00000000000E+00  0.00000000000E+00 -0.14843899162E+03  0.14843899164E+03  0.25500000920E-02 0.  1.
    10030    2    1    2    0    0  0.00000000000E+00  0.00000000000E+00  0.51986787761E+03  0.81674586087E+03  0.62992951279E+03 0.  0.
        4    1    3    3  502    0  0.18088945893E+03 -0.20173725514E+03  0.51746007888E+02  0.27585898335E+03  0.12699999809E+01 0.  1.
       -4    1    3    3    0  502 -0.18088945893E+03  0.20173725514E+03  0.46812186972E+03  0.54088687752E+03  0.12699999809E+01 0. -1.
</event>
<event>
 5   0  0.9692981E-03  0.1080671E+04  0.7818609E-02  0.9224239E-01
       -2   -1    0    0    0  501  0.00000000000E+00  0.00000000000E+00  0.32169003421E+03  0.32169003422E+03  0.25500000920E-02 0.  1.
        2   -1    0    0  501    0  0.00000000000E+00  0.00000000000E+00 -0.90758883744E+03  0.90758883745E+03  0.25500000920E-02 0. -1.
    10030    2    1    2    0    0  0.00000000000E+00  0.00000000000E+00 -0.58589880323E+03  0.12292788717E+04  0.10806706884E+04 0.  0.
        5    1    3    3  502    0  0.37618105820E+02  0.46595827345E+03 -0.60114655416E+03  0.76153233947E+03  0.46999998093E+01 0. -1.
       -5    1    3    3    0  502 -0.37618105820E+02 -0.46595827345E+03  0.15247750933E+02  0.46774653220E+03  0.46999998093E+01 0.  1.
</event>
<event>
 5   0  0.9925021E-03  0.1154478E+04  0.7818609E-02  0.9153662E-01
       -2   -1    0    0    0  501  0.00000000000E+00  0.00000000000E+00  0.56098515284E+03  0.56098515285E+03  0.25500000920E-02 0. -1.
        2   -1    0    0  501    0  0.00000000000E+00  0.00000000000E+00 -0.59396421961E+03  0.59396421961E+03  0.25500000920E-02 0.  1.
    10030    2    1    2    0    0  0.00000000000E+00  0.00000000000E+00 -0.32979066767E+02  0.11549493725E+04  0.11544784251E+04 0.  0.
        4    1    3    3  502    0 -0.29582292195E+03 -0.28130809899E+03  0.39179218792E+03  0.56581638287E+03  0.12699999809E+01 0. -1.
       -4    1    3    3    0  502  0.29582292195E+03  0.28130809899E+03 -0.42477125469E+03  0.58913298959E+03  0.12699999809E+01 0.  1.
</event>
<event>
 5   0  0.1019384E-02  0.6270671E+03  0.7818609E-02  0.9850789E-01
       -2   -1    0    0    0  501  0.00000000000E+00  0.00000000000E+00  0.22207451065E+03  0.22207451067E+03  0.25500000920E-02 0.  1.
        2   -1    0    0  501    0  0.00000000000E+00  0.00000000000E+00 -0.44265907637E+03  0.44265907638E+03  0.25500000920E-02 0. -1.
    10030    2    1    2    0    0  0.00000000000E+00  0.00000000000E+00 -0.22058456572E+03  0.66473358704E+03  0.62706713445E+03 0.  0.
        1    1    3    3  502    0 -0.81192620351E+02  0.27726320826E+03 -0.23941256811E+03  0.37521394703E+03  0.50400001928E-02 0. -1.
       -1    1    3    3    0  502  0.81192620351E+02 -0.27726320826E+03  0.18828002393E+02  0.28951964001E+03  0.50400001928E-02 0.  1.
</event>
<event>
 5   0  0.9692981E-03  0.8265550E+03  0.7818609E-02  0.9522356E-01
       -2   -1    0    0    0  501  0.00000000000E+00  0.00000000000E+00  0.10255653177E+03  0.10255653180E+03  0.25500000920E-02 0. -1.
        2   -1    0    0  501    0  0.00000000000E+00  0.00000000000E+00 -0.16654063505E+04  0.16654063505E+04  0.25500000920E-02 0.  1.
    10030    2    1    2    0    0  0.00000000000E+00  0.00000000000E+00 -0.15628498188E+04  0.17679628823E+04  0.82655501769E+03 0.  0.
        5    1    3    3  502    0 -0.11711380519E+03  0.35984437486E+03 -0.42625172242E+03  0.57001424398E+03  0.46999998093E+01 0. -1.
       -5    1    3    3    0  502  0.11711380519E+03 -0.35984437486E+03 -0.11365980963E+04  0.11979486383E+04  0.46999998093E+01 0.  1.
</event>
<event>
 5   0  0.9719260E-03  0.1054019E+04  0.7818609E-02  0.9251204E-01
        2   -1    0    0  501    0  0.00000000000E+00  0.00000000000E+00  0.35295045446E+03  0.35295045447E+03  0.25500000920E-02 0.  1.
       -2   -1    0    0    0  501  0.00000000000E+00  0.00000000000E+00 -0.78690714002E+03  0.78690714003E+03  0.25500000920E-02 0. -1.
    10030    2    1    2    0    0  0.00000000000E+00  0.00000000000E+00 -0.43395668556E+03  0.11398575945E+04  0.10540194167E+04 0.  0.
        3    1    3    3  502    0 -0.17142829726E+03 -0.30142537245E+03 -0.64615334163E+03  0.73332057612E+03  0.10100000352E+00 0. -1.
       -3    1    3    3    0  502  0.17142829726E+03  0.30142537245E+03  0.21219665607E+03  0.40653701837E+03  0.10100000352E+00 0.  1.
</event>
<event>
 5   0  0.9925021E-03  0.1057116E+04  0.7818609E-02  0.9248028E-01
        2   -1    0    0  501    0  0.00000000000E+00  0.00000000000E+00  0.15194978196E+04  0.15194978196E+04  0.25500000920E-02 0.  1.
       -2   -1    0    0    0  501  0.00000000000E+00  0.00000000000E+00 -0.18385923001E+03  0.18385923003E+03  0.25500000920E-02 0. -1.
    10030    2    1    2    0    0  0.00000000000E+00  0.00000000000E+00  0.13356385896E+04  0.17033570496E+04  0.10571162644E+04 0.  0.
        4    1    3    3  502    0  0.25434880240E+03 -0.18207503793E+03 -0.18702130018E+02  0.31336243439E+03  0.12699999809E+01 0. -1.
       -4    1    3    3    0  502 -0.25434880240E+03  0.18207503793E+03  0.13543407196E+04  0.13899946152E+04  0.12699999809E+01 0.  1.
</event>
<event>
 5   0  0.5998641E-03  0.1101721E+04  0.7818609E-02  0.9203516E-01
        1   -1    0    0  501    0  0.00000000000E+00  0.00000000000E+00  0.74486689411E+03  0.74486689412E+03  0.50400001928E-02 0. -1.
       -1   -1    0    0    0  501  0.00000000000E+00  0.00000000000E+00 -0.40738475411E+03  0.40738475414E+03  0.50400001928E-02 0.  1.
    10030    2    1    2    0    0  0.00000000000E+00  0.00000000000E+00  0.33748214000E+03  0.11522516483E+04  0.11017212288E+04 0.  0.
        3    1    3    3  502    0 -0.25574257834E+02 -0.11897739394E+03 -0.39315006525E+03  0.41155394171E+03  0.10100000352E+00 0.  1.
       -3    1    3    3    0  502  0.25574257834E+02  0.11897739394E+03  0.73063220525E+03  0.74069770655E+03  0.10100000352E+00 0. -1.
</event>
<event>
 5   0  0.5958706E-03  0.1105459E+04  0.7818609E-02  0.9199887E-01
       -1   -1    0    0    0  501  0.00000000000E+00  0.00000000000E+00  0.53525412065E+03  0.53525412067E+03  0.50400001928E-02 0.  1.
        1   -1    0    0  501    0  0.00000000000E+00  0.00000000000E+00 -0.57077569082E+03  0.57077569085E+03  0.50400001928E-02 0. -1.
    10030    2    1    2    0    0  0.00000000000E+00  0.00000000000E+00 -0.35521570174E+02  0.11060298115E+04  0.11054592539E+04 0.  0.
        2    1    3    3  502    0 -0.32900658655E+03  0.43226416668E+03 -0.11985460337E+03  0.55629378007E+03  0.25500000920E-02 0. -1.
       -2    1    3    3    0  502  0.32900658655E+03 -0.43226416668E+03  0.84333033193E+02  0.54973603145E+03  0.25500000920E-02 0.  1.
</event>
<event>
 5   0  0.5998641E-03  0.1093613E+04  0.7818609E-02  0.9211440E-01
       -1   -1    0    0    0  501  0.00000000000E+00  0.00000000000E+00  0.21357566344E+03  0.21357566350E+03  0.50400001928E-02 0. -1.
        1   -1    0    0  501    0  0.00000000000E+00  0.00000000000E+00 -0.13999589024E+04  0.13999589025E+04  0.50400001928E-02 0.  1.
    10030    2    1    2    0    0  0.00000000000E+00  0.00000000000E+00 -0.11863832390E+04  0.16135345659E+04  0.10936126397E+04 0.  0.
        3    1    3    3  502    0 -0.28259244970E+03 -0.37051360035E+03 -0.17106166829E+03  0.49638787780E+03  0.10100000352E+00 0. -1.
       -3    1    3    3    0  502  0.28259244970E+03  0.37051360035E+03 -0.10153215707E+04  0.11171466881E+04  0.10100000352E+00 0.  1.
</event>
<event>
 5   0  0.9925021E-03  0.1145552E+04  0.7818609E-02  0.9161897E-01
        2   -1    0    0  501    0  0.00000000000E+00  0.00000000000E+00  0.17538658110E+04  0.17538658110E+04  0.25500000920E-02 0. -1.
       -2   -1    0    0    0  501  0.00000000000E+00  0.00000000000E+00 -0.18705656860E+03  0.18705656862E+03  0.25500000920E-02 0.  1.
    10030    2    1    2    0    0  0.00000000000E+00  0.00000000000E+00  0.15668092424E+04  0.19409223796E+04  0.11455516058E+04 0.  0.
        4    1    3    3  502    0  0.29600041530E+03  0.50060169576E+02 -0.43079965282E+02  0.30328165580E+03  0.12699999809E+01 0.  1.
       -4    1    3    3    0  502 -0.29600041530E+03 -0.50060169576E+02  0.16098892077E+04  0.16376407238E+04  0.12699999809E+01 0. -1.
</event>
<event>
 5   0  0.5789905E-03  0.1112964E+04  0.7818609E-02  0.9192647E-01
        1   -1    0    0  501    0  0.00000000000E+00  0.00000000000E+00  0.74001725811E+03  0.74001725813E+03  0.50400001928E-02 0. -1.
       -1   -1    0    0    0  501  0.00000000000E+00  0.00000000000E+00 -0.41846654974E+03  0.41846654977E+03  0.50400001928E-02 0.  1.
    10030    2    1    2    0    0  0.00000000000E+00  0.00000000000E+00  0.32155070837E+03  0.11584838079E+04  0.11129644537E+04 0.  0.
        1    1    3    3  502    0 -0.17741047054E+03  0.36096220066E+03  0.56108776066E+03  0.69035328677E+03  0.50400001928E-02 0. -1.
       -1    1    3    3    0  502  0.17741047054E+03 -0.36096220066E+03 -0.23953705229E+03  0.46813052113E+03  0.50400001928E-02 0.  1.
</event>
<event>
 5   0  0.5712664E-03  0.1100483E+04  0.7818609E-02  0.9204722E-01
        1   -1    0    0  501    0  0.00000000000E+00  0.00000000000E+00  0.51171642389E+03  0.51171642391E+03  0.50400001928E-02 0. -1.
       -1   -1    0    0    0  501  0.00000000000E+00  0.00000000000E+00 -0.59166652998E+03  0.59166653000E+03  0.50400001928E-02 0.  1.
    10030    2    1    2    0    0  0.00000000000E+00  0.00000000000E+00 -0.79950106086E+02  0.11033829539E+04  0.11004825867E+04 0.  0.
        5    1    3    3  502    0  0.77114540283E+02 -0.47305202129E+03 -0.31090662663E+03  0.57132292764E+03  0.46999998093E+01 0.  1.
       -5    1    3    3    0  502 -0.77114540283E+02  0.47305202129E+03  0.23095652054E+03  0.53206002627E+03  0.46999998093E+01 0. -1.
</event>
<event>
 5   0  0.5789905E-03  0.1103227E+04  0.7818609E-02  0.9202053E-01
        1   -1    0    0  501    0  0.00000000000E+00  0.00000000000E+00  0.25042332941E+04  0.25042332941E+04  0.50400001928E-02 0.  1.
       -1   -1    0    0    0  501  0.00000000000E+00  0.00000000000E+00 -0.12150517940E+03  0.12150517951E+03  0.50400001928E-02 0. -1.
    10030    2    1    2    0    0  0.00000000000E+00  0.00000000000E+00  0.23827281147E+04  0.26257384736E+04  0.11032267506E+04 0.  0.
        1    1    3    3  502    0  0.44162214779E+03 -0.72342837639E+02  0.19589587684E+04  0.20094235651E+04  0.50400001928E-02 0.  1.
       -1    1    3    3    0  502 -0.44162214779E+03  0.72342837639E+02  0.42376934626E+03  0.61631490849E+03  0.50400001928E-02 0. -1.
</event>
<event>
 5   0  0.5958706E-03  0.1117874E+04  0.7818609E-02  0.9187944E-01
       -1   -1    0    0    0  501  0.00000000000E+00  0.00000000000E+00  0.16288769415E+03  0.16288769422E+03  0.50400001928E-02 0.  1.
        1   -1    0    0  501    0  0.00000000000E+00  0.00000000000E+00 -0.19179512065E+04  0.19179512065E+04  0.50400001928E-02 0. -1.
    10030    2    1    2    0    0  0.00000000000E+00  0.00000000000E+00 -0.17550635123E+04  0.20808389007E+04  0.11178741425E+04 0.  0.
        2    1    3    3  502    0 -0.54282239776E+03 -0.89925095663E+02 -0.10605579392E+04  0.11947911201E+04  0.25500000920E-02 0.  1.
       -2    1    3    3    0  502  0.54282239776E+03  0.89925095663E+02 -0.69450557310E+03  0.88604778055E+03  0.25500000920E-02 0. -1.
</event>
<event>
 5   0  0.9692981E-03  0.1100421E+04  0.7818609E-02  0.9204781E-01
        2   -1    0    0  501    0  0.00000000000E+00  0.00000000000E+00  0.16636726280E+04  0.16636726280E+04  0.25500000920E-02 0.  1.
       -2   -1    0    0    0  501  0.00000000000E+00  0.00000000000E+00 -0.18196600588E+03  0.18196600589E+03  0.25500000920E-02 0. -1.
    10030    2    1    2    0    0  0.00000000000E+00  0.00000000000E+00  0.14817066221E+04  0.18456386339E+04  0.11004214887E+04 0.  0.
        5    1    3    3  502    0 -0.10316412053E+03 -0.41969384359E+02  0.16445345123E+04  0.16483082591E+04  0.46999998093E+01 0.  1.
       -5    1    3    3    0  502  0.10316412053E+03  0.41969384359E+02 -0.16282789017E+03  0.19733037476E+03  0.46999998093E+01 0. -1.
</event>
<event>
 5   0  0.9925021E-03  0.1125220E+04  0.7818609E-02  0.9180954E-01
        2   -1    0    0  501    0  0.00000000000E+00  0.00000000000E+00  0.10123399172E+04  0.10123399172E+04  0.25500000920E-02 0.  1.
       -2   -1    0    0    0  501  0.00000000000E+00  0.00000000000E+00 -0.31267142927E+03  0.31267142928E+03  0.25500000920E-02 0. -1.
    10030    2    1    2    0    0  0.00000000000E+00  0.00000000000E+00  0.69966848790E+03  0.13250113464E+04  0.11252195676E+04 0.  0.
        4    1    3    3  502    0 -0.43018344141E+03  0.35458772194E+03  0.26063540714E+03  0.61540448014E+03  0.12699999809E+01 0. -1.
       -4    1    3    3    0  502  0.43018344141E+03 -0.35458772194E+03  0.43903308075E+03  0.70960686630E+03  0.12699999809E+01 0.  1.
</event>
<event>
 5   0  0.5998641E-03  0.9868273E+03  0.7818609E-02  0.9323111E-01
       -1   -1    0    0    0  501  0.00000000000E+00  0.00000000000E+00  0.20087620763E+03  0.20087620770E+03  0.50400001928E-02 0.  1.
        1   -1    0    0  501    0  0.00000000000E+00  0.00000000000E+00 -0.12119755269E+04  0.12119755269E+04  0.50400001928E-02 0. -1.
    10030    2    1    2    0    0  0.00000000000E+00  0.00000000000E+00 -0.10110993193E+04  0.14128517346E+04  0.98682733574E+03 0.  0.
        3    1    3    3  502    0  0.45634507755E+02  0.39196079775E+03 -0.92963900024E+03  0.10099229952E+04  0.10100000352E+00 0. -1.
       -3    1    3    3    0  502 -0.45634507755E+02 -0.39196079775E+03 -0.81460319041E+02  0.40292873942E+03  0.10100000352E+00 0.  1.
</event>
<event>
 5   0  0.3949750E-03  0.1091364E+04  0.7818609E-02  0.9213650E-01
        4   -1    0    0  501    0  0.00000000000E+00  0.00000000000E+00  0.59415698004E+03  0.59415833734E+03  0.12699999809E+01 0.  1.
       -4   -1    0    0    0  501  0.00000000000E+00  0.00000000000E+00 -0.50115938489E+03  0.50116099406E+03  0.12699999809E+01 0. -1.
    10030    2    1    2    0    0  0.00000000000E+00  0.00000000000E+00  0.92997595151E+02  0.10953193314E+04  0.10913642311E+04 0.  0.
        3    1    3    3  502    0 -0.20189419424E+03 -0.15966775189E+03 -0.43640383872E+03  0.50665903458E+03  0.10100000352E+00 0. -1.
       -3    1    3    3    0  502  0.20189419424E+03  0.15966775189E+03  0.52940143387E+03  0.58866029682E+03  0.10100000352E+00 0.  1.
</event>
<event>
 5   0  0.9925021E-03  0.1082051E+04  0.7818609E-02  0.9222865E-01
        2   -1    0    0  501    0  0.00000000000E+00  0.00000000000E+00  0.61109535521E+03  0.61109535522E+03  0.25500000920E-02 0. -1.
       -2   -1    0    0    0  501  0.00000000000E+00  0.00000000000E+00 -0.47898987563E+03  0.47898987564E+03  0.25500000920E-02 0.  1.
    10030    2    1    2    0    0  0.00000000000E+00  0.00000000000E+00  0.13210547958E+03  0.10900852309E+04  0.10820508088E+04 0.  0.
        4    1    3    3  502    0 -0.69162990106E+02  0.40331907746E+03  0.42259740234E+03  0.58825162542E+03  0.12699999809E+01 0. -1.
       -4    1    3    3    0  502  0.69162990106E+02 -0.40331907746E+03 -0.29049192277E+03  0.50183360543E+03  0.12699999809E+01 0.  1.
</event>
<event>
 5   0  0.5854579E-03  0.1106939E+04  0.7818609E-02  0.9198455E-01
       -1   -1    0    0    0  501  0.00000000000E+00  0.00000000000E+00  0.35466790495E+03  0.35466790499E+03  0.50400001928E-02 0. -1.
        1   -1    0    0  501    0  0.00000000000E+00  0.00000000000E+00 -0.86370559216E+03  0.86370559217E+03  0.50400001928E-02 0.  1.
    10030    2    1    2    0    0  0.00000000000E+00  0.00000000000E+00 -0.50903768721E+03  0.12183734972E+04  0.11069392990E+04 0.  0.
        4    1    3    3  502    0  0.15950999958E+03  0.50542037347E+03 -0.43005341241E+03  0.68252527009E+03  0.12699999809E+01 0. -1.
       -4    1    3    3    0  502 -0.15950999958E+03 -0.50542037347E+03 -0.78984274798E+02  0.53584822707E+03  0.12699999809E+01 0.  1.
</event>
<event>
 5   0  0.1019384E-02  0.1107866E+04  0.7818609E-02  0.9197559E-01
       -2   -1    0    0    0  501  0.00000000000E+00  0.00000000000E+00  0.89722641802E+03  0.89722641802E+03  0.25500000920E-02 0.  1.
        2   -1    0    0  501    0  0.00000000000E+00  0.00000000000E+00 -0.34198924629E+03  0.34198924630E+03  0.25500000920E-02 0. -1.
    10030    2    1    2    0    0  0.00000000000E+00  0.00000000000E+00  0.55523717173E+03  0.12392156643E+04  0.11078660324E+04 0.  0.
        1    1    3    3  502    0  0.52265956598E+03 -0.14191902518E+03  0.14752002001E+03  0.56131647753E+03  0.50400001928E-02 0. -1.
       -1    1    3    3    0  502 -0.52265956598E+03  0.14191902518E+03  0.40771715172E+03  0.67789918679E+03  0.50400001928E-02 0.  1.
</event>
<event>
 5   0  0.5854579E-03  0.1104449E+04  0.7818609E-02  0.9200866E-01
       -1   -1    0    0    0  501  0.00000000000E+00  0.00000000000E+00  0.12049678700E+03  0.12049678711E+03  0.50400001928E-02 0. -1.
        1   -1    0    0  501    0  0.00000000000E+00  0.00000000000E+00 -0.25307898059E+04  0.25307898059E+04  0.50400001928E-02 0.  1.
    10030    2    1    2    0    0  0.00000000000E+00  0.00000000000E+00 -0.24102930189E+04  0.26512865930E+04  0.11044492570E+04 0.  0.
        4    1    3    3  502    0  0.17447766188E+03 -0.43644503185E+03 -0.19009904146E+04  0.19582371893E+04  0.12699999809E+01 0.  1.
       -4    1    3    3    0  502 -0.17447766188E+03  0.43644503185E+03 -0.50930260430E+03  0.69304940370E+03  0.12699999809E+01 0. -1.
</event>
<event>
 5   0  0.5789905E-03  0.1095053E+04  0.7818609E-02  0.9210027E-01
        1   -1    0    0  501    0  0.00000000000E+00  0.00000000000E+00  0.86645085545E+03  0.86645085547E+03  0.50400001928E-02 0. -1.
       -1   -1    0    0    0  501  0.00000000000E+00  0.00000000000E+00 -0.34599223586E+03  0.34599223589E+03  0.50400001928E-02 0.  1.
    10030    2    1    2    0    0  0.00000000000E+00  0.00000000000E+00  0.52045861960E+03  0.12124430914E+04  0.10950530010E+04 0.  0.
        1    1    3    3  502    0  0.11934957961E+03 -0.35050771407E+03 -0.18635181683E+03  0.41452017977E+03  0.50400001928E-02 0.  1.
       -1    1    3    3    0  502 -0.11934957961E+03  0.35050771407E+03  0.70681043643E+03  0.79792291159E+03  0.50400001928E-02 0. -1.
</event>
<event>
 5   0  0.9719260E-03  0.1111706E+04  0.7818609E-02  0.9193857E-01
       -2   -1    0    0    0  501  0.00000000000E+00  0.00000000000E+00  0.86050801133E+03  0.86050801133E+03  0.25500000920E-02 0.  1.
        2   -1    0    0  501    0  0.00000000000E+00  0.00000000000E+00 -0.35905838245E+03  0.35905838246E+03  0.25500000920E-02 0. -1.
    10030    2    1    2    0    0  0.00000000000E+00  0.00000000000E+00  0.50144962888E+03  0.12195663938E+04  0.11117061026E+04 0.  0.
        3    1    3    3  502    0  0.16084886430E+03 -0.31002726856E+03 -0.22364485760E+03  0.41473641862E+03  0.10100000352E+00 0. -1.
       -3    1    3    3    0  502 -0.16084886430E+03  0.31002726856E+03  0.72509448648E+03  0.80482997517E+03  0.10100000352E+00 0.  1.
</event>
<event>
 5   0  0.5712664E-03  0.1103701E+04  0.7818609E-02  0.9201593E-01
       -1   -1    0    0    0  501  0.00000000000E+00  0.00000000000E+00  0.12673019411E+04  0.12673019412E+04  0.50400001928E-02 0. -1.
        1   -1    0    0  501    0  0.00000000000E+00  0.00000000000E+00 -0.24030478787E+03  0.24030478793E+03  0.50400001928E-02 0.  1.
    10030    2    1    2    0    0  0.00000000000E+00  0.00000000000E+00  0.10269971533E+04  0.15076067291E+04  0.11037005467E+04 0.  0.
        5    1    3    3  502    0 -0.43395788181E+03 -0.22722553647E+03  0.16641193590E+03  0.51736438805E+03  0.46999998093E+01 0.  1.
       -5    1    3    3    0  502  0.43395788181E+03  0.22722553647E+03  0.86058521737E+03  0.99024234103E+03  0.46999998093E+01 0. -1.
</event>
<event>
 5   0  0.9719260E-03  0.1134197E+04  0.7818609E-02  0.9172488E-01
       -2   -1    0    0    0  501  0.00000000000E+00  0.00000000000E+00  0.24889974111E+03  0.24889974112E+03  0.25500000920E-02 0. -1.
        2   -1    0    0  501    0  0.00000000000E+00  0.00000000000E+00 -0.12920885178E+04  0.12920885178E+04  0.25500000920E-02 0.  1.
    10030    2    1    2    0    0  0.00000000000E+00  0.00000000000E+00 -0.10431887767E+04  0.15409882589E+04  0.11341966277E+04 0.  0.
        3    1    3    3  502    0 -0.83130987181E+02 -0.29375698868E+03  0.12772108955E+03  0.33093294841E+03  0.10100000352E+00 0. -1.
       -3    1    3    3    0  502  0.83130987181E+02  0.29375698868E+03 -0.11709098662E+04  0.12100553105E+04  0.10100000352E+00 0.  1.
</event>
<event>
 5   0  0.9925021E-03  0.1039224E+04  0.7818609E-02  0.9266541E-01
        2   -1    0    0  501    0  0.00000000000E+00  0.00000000000E+00  0.33484061503E+03  0.33484061504E+03  0.25500000920E-02 0. -1.
       -2   -1    0    0    0  501  0.00000000000E+00  0.00000000000E+00 -0.80634298538E+03  0.80634298539E+03  0.25500000920E-02 0.  1.
    10030    2    1    2    0    0  0.00000000000E+00  0.00000000000E+00 -0.47150237035E+03  0.11411836004E+04  0.10392235201E+04 0.  0.
        4    1    3    3  502    0  0.13239146785E+03 -0.42422701866E+03 -0.53142419117E+03  0.69275489748E+03  0.12699999809E+01 0.  1.
       -4    1    3    3    0  502 -0.13239146785E+03  0.42422701866E+03  0.59921820818E+02  0.44842870295E+03  0.12699999809E+01 0. -1.
</event>
<event>
 5   0  0.9719260E-03  0.1086991E+04  0.7818609E-02  0.9217964E-01
       -2   -1    0    0    0  501  0.00000000000E+00  0.00000000000E+00  0.53431950130E+03  0.53431950130E+03  0.25500000920E-02 0.  1.
        2   -1    0    0  501    0  0.00000000000E+00  0.00000000000E+00 -0.55282950494E+03  0.55282950495E+03  0.25500000920E-02 0. -1.
    10030    2    1    2    0    0  0.00000000000E+00  0.00000000000E+00 -0.18510003644E+02  0.10871490063E+04  0.10869914174E+04 0.  0.
        3    1    3    3  502    0  0.94703829047E+01  0.54339406093E+03 -0.46956592802E+01  0.54349687490E+03  0.10100000352E+00 0. -1.
       -3    1    3    3    0  502 -0.94703829047E+01 -0.54339406093E+03 -0.13814344364E+02  0.54365213135E+03  0.10100000352E+00 0.  1.
</event>
<event>
 5   0  0.1019384E-02  0.1098706E+04  0.7818609E-02  0.9206454E-01
       -2   -1    0    0    0  501  0.00000000000E+00  0.00000000000E+00  0.32297746824E+03  0.32297746825E+03  0.25500000920E-02 0.  1.
        2   -1    0    0  501    0  0.00000000000E+00  0.00000000000E+00 -0.93439594612E+03  0.93439594612E+03  0.25500000920E-02 0. -1.
    10030    2    1    2    0    0  0.00000000000E+00  0.00000000000E+00 -0.61141847788E+03  0.12573734144E+04  0.10987062156E+04 0.  0.
        1    1    3    3  502    0  0.53959806958E+02  0.36727183580E+03  0.15772646322E+03  0.40333348406E+03  0.50400001928E-02 0.  1.
       -1    1    3    3    0  502 -0.53959806958E+02 -0.36727183580E+03 -0.76914494110E+03  0.85403993032E+03  0.50400001928E-02 0. -1.
</event>
<event>
 5   0  0.3949750E-03  0.1122601E+04  0.7818609E-02  0.9183440E-01
       -4   -1    0    0    0  501  0.00000000000E+00  0.00000000000E+00  0.25370764949E+03  0.25371082813E+03  0.12699999809E+01 0. -1.
        4   -1    0    0  501    0  0.00000000000E+00  0.00000000000E+00 -0.12418037845E+04  0.12418044339E+04  0.12699999809E+01 0.  1.
    10030    2    1    2    0    0  0.00000000000E+00  0.00000000000E+00 -0.98809613496E+03  0.14955152620E+04  0.11226005198E+04 0.  0.
        3    1    3    3  502    0  0.19631299445E+03  0.30092642195E+03 -0.10685324959E+04  0.11273230275E+04  0.10100000352E+00 0.  1.
       -3    1    3    3    0  502 -0.19631299445E+03 -0.30092642195E+03  0.80436360943E+02  0.36819223455E+03  0.10100000352E+00 0. -1.
</event>
<event>
 5   0  0.5854579E-03  0.1071137E+04  0.7818609E-02  0.9233790E-01
       -1   -1    0    0    0  501  0.00000000000E+00  0.00000000000E+00  0.26113589166E+03  0.26113589171E+03  0.50400001928E-02 0.  1.
        1   -1    0    0  501    0  0.00000000000E+00  0.00000000000E+00 -0.10984071289E+04  0.10984071289E+04  0.50400001928E-02 0. -1.
    10030    2    1    2    0    0  0.00000000000E+00  0.00000000000E+00 -0.83727123719E+03  0.13595430206E+04  0.10711368261E+04 0.  0.
        4    1    3    3  502    0  0.28750232694E+03 -0.43145431751E+03 -0.24824588479E+03  0.57483741032E+03  0.12699999809E+01 0.  1.
       -4    1    3    3    0  502 -0.28750232694E+03  0.43145431751E+03 -0.58902535240E+03  0.78470561026E+03  0.12699999809E+01 0. -1.
</event>
<event>
 5   0  0.9692981E-03  0.1093337E+04  0.7818609E-02  0.9211710E-01
       -2   -1    0    0    0  501  0.00000000000E+00  0.00000000000E+00  0.41077568102E+03  0.41077568103E+03  0.25500000920E-02 0. -1.
        2   -1    0    0  501    0  0.00000000000E+00  0.00000000000E+00 -0.72751770131E+03  0.72751770132E+03  0.25500000920E-02 0.  1.
    10030    2    1    2    0    0  0.00000000000E+00  0.00000000000E+00 -0.31674202029E+03  0.11382933823E+04  0.10933372384E+04 0.  0.
        5    1    3    3  502    0  0.21629878244E+03  0.31127500252E+03  0.25171224875E+03  0.45503674208E+03  0.46999998093E+01 0. -1.
       -5    1    3    3    0  502 -0.21629878244E+03 -0.31127500252E+03 -0.56845426904E+03  0.68325664027E+03  0.46999998093E+01 0.  1.
</event>
<event>
 5   0  0.5789905E-03  0.1092631E+04  0.7818609E-02  0.9212404E-01
       -1   -1    0    0    0  501  0.00000000000E+00  0.00000000000E+00  0.20055383924E+03  0.20055383930E+03  0.50400001928E-02 0. -1.
        1   -1    0    0  501    0  0.00000000000E+00  0.00000000000E+00 -0.14881831555E+04  0.14881831555E+04  0.50400001928E-02 0.  1.
    10030    2    1    2    0    0  0.00000000000E+00  0.00000000000E+00 -0.12876293163E+04  0.16887369948E+04  0.10926314024E+04 0.  0.
        1    1    3    3  502    0  0.10589781378E+03  0.32589499891E+03 -0.13014336518E+04  0.13457902687E+04  0.50400001928E-02 0.  1.
       -1    1    3    3    0  502 -0.10589781378E+03 -0.32589499891E+03  0.13804335493E+02  0.34294672616E+03  0.50400001928E-02 0. -1.
</event>
<event>
 5   0  0.5854579E-03  0.1097881E+04  0.7818609E-02  0.9207260E-01
        1   -1    0    0  501    0  0.00000000000E+00  0.00000000000E+00  0.13141185069E+03  0.13141185079E+03  0.50400001928E-02 0.  1.
       -1   -1    0    0    0  501  0.00000000000E+00  0.00000000000E+00 -0.22930625560E+04  0.22930625560E+04  0.50400001928E-02 0. -1.
    10030    2    1    2    0    0  0.00000000000E+00  0.00000000000E+00 -0.21616507053E+04  0.24244744068E+04  0.10978808576E+04 0.  0.
        4    1    3    3  502    0  0.55058145039E+02  0.29391020157E+02 -0.22851987797E+04  0.22860512476E+04  0.12699999809E+01 0. -1.
       -4    1    3    3    0  502 -0.55058145039E+02 -0.29391020157E+02  0.12354807437E+03  0.13842315913E+03  0.12699999809E+01 0.  1.
</event>
<event>
 5   0  0.5712664E-03  0.1075135E+04  0.7818609E-02  0.9229771E-01
        1   -1    0    0  501    0  0.00000000000E+00  0.00000000000E+00  0.17078874849E+04  0.17078874849E+04  0.50400001928E-02 0.  1.
       -1   -1    0    0    0  501  0.00000000000E+00  0.00000000000E+00 -0.16920257514E+03  0.16920257521E+03  0.50400001928E-02 0. -1.
    10030    2    1    2    0    0  0.00000000000E+00  0.00000000000E+00  0.15386849098E+04  0.18770900601E+04  0.10751352670E+04 0.  0.
        5    1    3    3  502    0 -0.24578066754E+03 -0.15754580650E+03 -0.18696015255E+02  0.29257554353E+03  0.46999998093E+01 0. -1.
       -5    1    3    3    0  502  0.24578066754E+03  0.15754580650E+03  0.15573809250E+04  0.15845145166E+04  0.46999998093E+01 0.  1.
</event>
<event>
 5   0  0.9925021E-03  0.9641950E+03  0.7818609E-02  0.9348711E-01
        2   -1    0    0  501    0  0.00000000000E+00  0.00000000000E+00  0.85559450280E+03  0.85559450281E+03  0.25500000920E-02 0.  1.
       -2   -1    0    0    0  501  0.00000000000E+00  0.00000000000E+00 -0.27164505303E+03  0.27164505304E+03  0.25500000920E-02 0. -1.
    10030    2    1    2    0    0  0.00000000000E+00  0.00000000000E+00  0.58394944978E+03  0.11272395558E+04  0.96419503026E+03 0.  0.
        4    1    3    3  502    0 -0.30445493441E+03 -0.23778539289E+03  0.62915738309E+03  0.73829216829E+03  0.12699999809E+01 0.  1.
       -4    1    3    3    0  502  0.30445493441E+03  0.23778539289E+03 -0.45207933312E+02  0.38894738756E+03  0.12699999809E+01 0. -1.
</event>
<event>
 5   0  0.5789905E-03  0.1162208E+04  0.7818609E-02  0.9146594E-01
        1   -1    0    0  501    0  0.00000000000E+00  0.00000000000E+00  0.81900583212E+03  0.81900583213E+03  0.50400001928E-02 0.  1.
       -1   -1    0    0    0  501  0.00000000000E+00  0.00000000000E+00 -0.41230730146E+03  0.41230730149E+03  0.50400001928E-02 0. -1.
    10030    2    1    2    0    0  0.00000000000E+00  0.00000000000E+00  0.40669853066E+03  0.12313131336E+04  0.11622083884E+04 0.  0.
        1    1    3    3  502    0 -0.38747793241E+03 -0.42536664200E+03  0.28946032393E+03  0.64409875592E+03  0.50400001928E-02 0.  1.
       -1    1    3    3    0  502  0.38747793241E+03  0.42536664200E+03  0.11723820673E+03  0.58721437770E+03  0.50400001928E-02 0. -1.
</event>
<event>
 5   0  0.1028016E-02  0.1045621E+04  0.7818609E-02  0.9259877E-01
       -2   -1    0    0    0  501  0.00000000000E+00  0.00000000000E+00  0.27679700338E+03  0.27679700339E+03  0.25500000920E-02 0. -1.
        2   -1    0    0  501    0  0.00000000000E+00  0.00000000000E+00 -0.98747702022E+03  0.98747702023E+03  0.25500000920E-02 0.  1.
    10030    2    1    2    0    0  0.00000000000E+00  0.00000000000E+00 -0.71068001684E+03  0.12642740236E+04  0.10456207345E+04 0.  0.
        2    1    3    3  502    0  0.25568818592E+03  0.41146203211E+03 -0.11762318874E+03  0.49851044806E+03  0.25500000920E-02 0.  1.
       -2    1    3    3    0  502 -0.25568818592E+03 -0.41146203211E+03 -0.59305682810E+03  0.76576357556E+03  0.25500000920E-02 0. -1.
</event>
<event>
 5   0  0.9692981E-03  0.1158934E+04  0.7818609E-02  0.9149581E-01
        2   -1    0    0  501    0  0.00000000000E+00  0.00000000000E+00  0.83159318170E+03  0.83159318170E+03  0.25500000920E-02 0. -1.
       -2   -1    0    0    0  501  0.00000000000E+00  0.00000000000E+00 -0.40378186535E+03  0.40378186536E+03  0.25500000920E-02 0.  1.
    10030    2    1    2    0    0  0.00000000000E+00  0.00000000000E+00  0.42781131635E+03  0.12353750471E+04  0.11589344177E+04 0.  0.
        5    1    3    3  502    0 -0.17681678167E+03  0.50551186183E+03 -0.21942723231E+02  0.53601305006E+03  0.46999998093E+01 0.  1.
       -5    1    3    3    0  502  0.17681678167E+03 -0.50551186183E+03  0.44975403958E+03  0.69936199700E+03  0.46999998093E+01 0. -1.
</event>
<event>
 5   0  0.5998641E-03  0.1111172E+04  0.7818609E-02  0.9194371E-01
        1   -1    0    0  501    0  0.00000000000E+00  0.00000000000E+00  0.48597443369E+03  0.48597443372E+03  0.50400001928E-02 0.  1.
       -1   -1    0    0    0  501  0.00000000000E+00  0.00000000000E+00 -0.63516914168E+03  0.63516914170E+03  0.50400001928E-02 0. -1.
    10030    2    1    2    0    0  0.00000000000E+00  0.00000000000E+00 -0.14919470798E+03  0.11211435754E+04  0.11111722890E+04 0.  0.
        3    1    3    3  502    0  0.76220546253E+00  0.51555789798E+03 -0.28351929768E+03  0.58837380082E+03  0.10100000352E+00 0.  1.
       -3    1    3    3    0  502 -0.76220546253E+00 -0.51555789798E+03  0.13432458970E+03  0.53276977460E+03  0.10100000352E+00 0. -1.
</event>
<event>
 5   0  0.3949750E-03  0.1101057E+04  0.7818609E-02  0.9204162E-01
       -3   -1    0    0    0  501  0.00000000000E+00  0.00000000000E+00  0.75274506092E+03  0.75274506770E+03  0.10100000352E+00 0.  1.
        3   -1    0    0  501    0  0.00000000000E+00  0.00000000000E+00 -0.40263510186E+03  0.40263511453E+03  0.10100000352E+00 0. -1.
    10030    2    1    2    0    0  0.00000000000E+00  0.00000000000E+00  0.35010995906E+03  0.11553801822E+04  0.11010569386E+04 0.  0.
        4    1    3    3  502    0 -0.10625900639E+03  0.32093141847E+03  0.63099421324E+03  0.71585142442E+03  0.12699999809E+01 0.  1.
       -4    1    3    3    0  502  0.10625900639E+03 -0.32093141847E+03 -0.28088425418E+03  0.43952875781E+03  0.12699999809E+01 0. -1.
</event>
<event>
 5   0  0.5712664E-03  0.1073036E+04  0.7818609E-02  0.9231879E-01
       -1   -1    0    0    0  501  0.00000000000E+00  0.00000000000E+00  0.30984246415E+03  0.30984246419E+03  0.50400001928E-02 0.  1.
        1   -1    0    0  501    0  0.00000000000E+00  0.00000000000E+00 -0.92902585890E+03  0.92902585891E+03  0.50400001928E-02 0. -1.
    10030    2    1    2    0    0  0.00000000000E+00  0.00000000000E+00 -0.61918339475E+03  0.12388683231E+04  0.10730361810E+04 0.  0.
        5    1    3    3  502    0  0.16341194347E+03 -0.50809435493E+03 -0.37247184226E+03  0.65086150604E+03  0.46999998093E+01 0. -1.
       -5    1    3    3    0  502 -0.16341194347E+03  0.50809435493E+03 -0.24671155249E+03  0.58800681706E+03  0.46999998093E+01 0.  1.
</event>
<event>
 5   0  0.1028016E-02  0.1153066E+04  0.7818609E-02  0.9154960E-01
       -2   -1    0    0    0  501  0.00000000000E+00  0.00000000000E+00  0.72857416032E+03  0.72857416032E+03  0.25500000920E-02 0. -1.
        2   -1    0    0  501    0  0.00000000000E+00  0.00000000000E+00 -0.45622011599E+03  0.45622011600E+03  0.25500000920E-02 0.  1.
    10030    2    1    2    0    0  0.00000000000E+00  0.00000000000E+00  0.27235404432E+03  0.11847942763E+04  0.11530658055E+04 0.  0.
        2    1    3    3  502    0  0.52962787620E+03  0.19274149723E+03  0.11448118083E+02  0.56372513818E+03  0.25500000920E-02 0.  1.
       -2    1    3    3    0  502 -0.52962787620E+03 -0.19274149723E+03  0.26090592624E+03  0.62106913814E+03  0.25500000920E-02 0. -1.
</event>
<event>
 5   0  0.5854579E-03  0.1123995E+04  0.7818609E-02  0.9182115E-01
        1   -1    0    0  501    0  0.00000000000E+00  0.00000000000E+00  0.57167119880E+03  0.57167119882E+03  0.50400001928E-02 0. -1.
       -1   -1    0    0    0  501  0.00000000000E+00  0.00000000000E+00 -0.55248784986E+03  0.55248784989E+03  0.50400001928E-02 0.  1.
    10030    2    1    2    0    0  0.00000000000E+00  0.00000000000E+00  0.19183348937E+02  0.11241590487E+04  0.11239953585E+04 0.  0.
        4    1    3    3  502    0  0.20897610619E+03 -0.31400999067E+03  0.42626546641E+03  0.56918990500E+03  0.12699999809E+01 0. -1.
       -4    1    3    3    0  502 -0.20897610619E+03  0.31400999067E+03 -0.40708211748E+03  0.55496914371E+03  0.12699999809E+01 0.  1.
</event>
<event>
 5   0  0.9719260E-03  0.1089010E+04  0.7818609E-02  0.9215970E-01
       -2   -1    0    0    0  501  0.00000000000E+00  0.00000000000E+00  0.53370990438E+03  0.53370990439E+03  0.25500000920E-02 0.  1.
        2   -1    0    0  501    0  0.00000000000E+00  0.00000000000E+00 -0.55551887294E+03  0.55551887295E+03  0.25500000920E-02 0. -1.
    10030    2    1    2    0    0  0.00000000000E+00  0.00000000000E+00 -0.21808968558E+02  0.10892287773E+04  0.10890104216E+04 0.  0.
        3    1    3    3  502    0 -0.53314976205E+03 -0.10383883537E+03  0.27244241767E+02  0.54385055982E+03  0.10100000352E+00 0.  1.
       -3    1    3    3    0  502  0.53314976205E+03  0.10383883537E+03 -0.49053210325E+02  0.54537821752E+03  0.10100000352E+00 0. -1.
</event>
<event>
 5   0  0.9692981E-03  0.1130856E+04  0.7818609E-02  0.9175629E-01
       -2   -1    0    0    0  501  0.00000000000E+00  0.00000000000E+00  0.31516033166E+03  0.31516033167E+03  0.25500000920E-02 0. -1.
        2   -1    0    0  501    0  0.00000000000E+00  0.00000000000E+00 -0.10144318422E+04  0.10144318422E+04  0.25500000920E-02 0.  1.
    10030    2    1    2    0    0  0.00000000000E+00  0.00000000000E+00 -0.69927151051E+03  0.13295921738E+04  0.11308557394E+04 0.  0.
        5    1    3    3  502    0 -0.20541855665E+03 -0.32062847571E+03  0.14177172641E+03  0.40635048327E+03  0.46999998093E+01 0. -1.
       -5    1    3    3    0  502  0.20541855665E+03  0.32062847571E+03 -0.84104323692E+03  0.92324169057E+03  0.46999998093E+01 0.  1.
</event>
<event>
 5   0  0.9925021E-03  0.9814325E+03  0.7818609E-02  0.9329147E-01
       -2   -1    0    0    0  501  0.00000000000E+00  0.00000000000E+00  0.32293090257E+03  0.32293090258E+03  0.25500000920E-02 0.  1.
        2   -1    0    0  501    0  0.00000000000E+00  0.00000000000E+00 -0.74567790752E+03  0.74567790753E+03  0.25500000920E-02 0. -1.
    10030    2    1    2    0    0  0.00000000000E+00  0.00000000000E+00 -0.42274700496E+03  0.10686088101E+04  0.98143250345E+03 0.  0.
        4    1    3    3  502    0  0.16796724202E+03 -0.31200711076E+03  0.15824933670E+03  0.38807975601E+03  0.12699999809E+01 0. -1.
       -4    1    3    3    0  502 -0.16796724202E+03  0.31200711076E+03 -0.58099634165E+03  0.68052905410E+03  0.12699999809E+01 0.  1.
</event>
<event>
 5   0  0.5854579E-03  0.1091653E+04  0.7818609E-02  0.9213366E-01
        1   -1    0    0  501    0  0.00000000000E+00  0.00000000000E+00  0.99220615271E+03  0.99220615272E+03  0.50400001928E-02 0. -1.
       -1   -1    0    0    0  501  0.00000000000E+00  0.00000000000E+00 -0.30026672786E+03  0.30026672790E+03  0.50400001928E-02 0.  1.
    10030    2    1    2    0    0  0.00000000000E+00  0.00000000000E+00  0.69193942484E+03  0.12924728806E+04  0.10916528658E+04 0.  0.
        4    1    3    3  502    0 -0.69827952070E+02 -0.30747685533E+03  0.87347243839E+03  0.92864076638E+03  0.12699999809E+01 0. -1.
       -4    1    3    3    0  502  0.69827952070E+02  0.30747685533E+03 -0.18153301354E+03  0.36383211425E+03  0.12699999809E+01 0.  1.
</event>
<event>
 5   0  0.1019384E-02  0.1125562E+04  0.7818609E-02  0.9180629E-01
        2   -1    0    0  501    0  0.00000000000E+00  0.00000000000E+00  0.20127969736E+04  0.20127969736E+04  0.25500000920E-02 0. -1.
       -2   -1    0    0    0  501  0.00000000000E+00  0.00000000000E+00 -0.15735448873E+03  0.15735448875E+03  0.25500000920E-02 0.  1.
    10030    2    1    2    0    0  0.00000000000E+00  0.00000000000E+00  0.18554424849E+04  0.21701514623E+04  0.11255623283E+04 0.  0.
        1    1    3    3  502    0 -0.36120407768E+03 -0.38956546924E+02  0.99021855946E+02  0.37655189053E+03  0.50400001928E-02 0.  1.
       -1    1    3    3    0  502  0.36120407768E+03  0.38956546924E+02  0.17564206289E+04  0.17935995718E+04  0.50400001928E-02 0. -1.
</event>
<event>
 5   0  0.5854579E-03  0.1133655E+04  0.7818609E-02  0.9172996E-01
        1   -1    0    0  501    0  0.00000000000E+00  0.00000000000E+00  0.96669228927E+03  0.96669228929E+03  0.50400001928E-02 0. -1.
       -1   -1    0    0    0  501  0.00000000000E+00  0.00000000000E+00 -0.33236377040E+03  0.33236377044E+03  0.50400001928E-02 0.  1.
    10030    2    1    2    0    0  0.00000000000E+00  0.00000000000E+00  0.63432851887E+03  0.12990560597E+04  0.11336551400E+04 0.  0.
        4    1    3    3  502    0 -0.37066400750E+03 -0.28329773935E+03 -0.51741809359E+02  0.46939135411E+03  0.12699999809E+01 0.  1.
       -4    1    3    3    0  502  0.37066400750E+03  0.28329773935E+03  0.68607032823E+03  0.82966470562E+03  0.12699999809E+01 0. -1.
</event>
<event>
 5   0  0.9925021E-03  0.1073317E+04  0.7818609E-02  0.9231596E-01
       -2   -1    0    0    0  501  0.00000000000E+00  0.00000000000E+00  0.25694494881E+03  0.25694494883E+03  0.25500000920E-02 0.  1.
        2   -1    0    0  501    0  0.00000000000E+00  0.00000000000E+00 -0.11208721770E+04  0.11208721770E+04  0.25500000920E-02 0. -1.
    10030    2    1    2    0    0  0.00000000000E+00  0.00000000000E+00 -0.86392722815E+03  0.13778171258E+04  0.10733171836E+04 0.  0.
        4    1    3    3  502    0  0.35100731268E+02 -0.39810992047E+03  0.27803956738E+02  0.40062231967E+03  0.12699999809E+01 0.  1.
       -4    1    3    3    0  502 -0.35100731268E+02  0.39810992047E+03 -0.89173118489E+03  0.97719480612E+03  0.12699999809E+01 0. -1.
</event>
<event>
 5   0  0.5789905E-03  0.1076859E+04  0.7818609E-02  0.9228044E-01
        1   -1    0    0  501    0  0.00000000000E+00  0.00000000000E+00  0.75614442951E+03  0.75614442953E+03  0.50400001928E-02 0. -1.
       -1   -1    0    0    0  501  0.00000000000E+00  0.00000000000E+00 -0.38340107488E+03  0.38340107491E+03  0.50400001928E-02 0.  1.
    10030    2    1    2    0    0  0.00000000000E+00  0.00000000000E+00  0.37274335463E+03  0.11395455044E+04  0.10768594840E+04 0.  0.
        1    1    3    3  502    0 -0.32171807925E+03 -0.35298856866E+03  0.44944565255E+03  0.65582379245E+03  0.50400001928E-02 0.  1.
       -1    1    3    3    0  502  0.32171807925E+03  0.35298856866E+03 -0.76702297925E+02  0.48372171199E+03  0.50400001928E-02 0. -1.
</event>
<event>
 5   0  0.9692981E-03  0.1064058E+04  0.7818609E-02  0.9240949E-01
       -2   -1    0    0    0  501  0.00000000000E+00  0.00000000000E+00  0.80177267401E+03  0.80177267401E+03  0.25500000920E-02 0.  1.
        2   -1    0    0  501    0  0.00000000000E+00  0.00000000000E+00 -0.35303640830E+03  0.35303640831E+03  0.25500000920E-02 0. -1.
    10030    2    1    2    0    0  0.00000000000E+00  0.00000000000E+00  0.44873626571E+03  0.11548090823E+04  0.10640581659E+04 0.  0.
        5    1    3    3  502    0  0.15630128721E+03 -0.31914681120E+02 -0.32644520155E+03  0.36336923214E+03  0.46999998093E+01 0. -1.
       -5    1    3    3    0  502 -0.15630128721E+03  0.31914681120E+02  0.77518146726E+03  0.79143985017E+03  0.46999998093E+01 0.  1.
</event>
<event>
 5   0  0.9692981E-03  0.1108758E+04  0.7818609E-02  0.9196698E-01
        2   -1    0    0  501    0  0.00000000000E+00  0.00000000000E+00  0.32810695703E+03  0.32810695704E+03  0.25500000920E-02 0.  1.
       -2   -1    0    0    0  501  0.00000000000E+00  0.00000000000E+00 -0.93669455452E+03  0.93669455452E+03  0.25500000920E-02 0. -1.
    10030    2    1    2    0    0  0.00000000000E+00  0.00000000000E+00 -0.60858759749E+03  0.12648015116E+04  0.11087578635E+04 0.  0.
        5    1    3    3  502    0  0.37434217952E+03  0.25790941256E+03 -0.66622331352E+03  0.80655125437E+03  0.46999998093E+01 0. -1.
       -5    1    3    3    0  502 -0.37434217952E+03 -0.25790941256E+03  0.57635716026E+02  0.45825025719E+03  0.46999998093E+01 0.  1.
</event>
<event>
 5   0  0.1028016E-02  0.1092598E+04  0.7818609E-02  0.9212437E-01
        2   -1    0    0  501    0  0.00000000000E+00  0.00000000000E+00  0.90945050033E+03  0.90945050034E+03  0.25500000920E-02 0.  1.
       -2   -1    0    0    0  501  0.00000000000E+00  0.00000000000E+00 -0.32815685444E+03  0.32815685445E+03  0.25500000920E-02 0. -1.
    10030    2    1    2    0    0  0.00000000000E+00  0.00000000000E+00  0.58129364589E+03  0.12376073548E+04  0.10925976670E+04 0.  0.
        2    1    3    3  502    0  0.10612560300E+03  0.52905963505E+03  0.38726508932E+03  0.66418445515E+03  0.25500000920E-02 0. -1.
       -2    1    3    3    0  502 -0.10612560300E+03 -0.52905963505E+03  0.19402855657E+03  0.57342289963E+03  0.25500000920E-02 0.  1.
</event>
<event>
 5   0  0.1028016E-02  0.1052879E+04  0.7818609E-02  0.9252377E-01
        2   -1    0    0  501    0  0.00000000000E+00  0.00000000000E+00  0.94879978549E+03  0.94879978549E+03  0.25500000920E-02 0.  1.
       -2   -1    0    0    0  501  0.00000000000E+00  0.00000000000E+00 -0.29209380691E+03  0.29209380693E+03  0.25500000920E-02 0. -1.
    10030    2    1    2    0    0  0.00000000000E+00  0.00000000000E+00  0.65670597857E+03  0.12408935924E+04  0.10528789890E+04 0.  0.
        2    1    3    3  502    0 -0.11960897774E+03  0.31698425479E+03 -0.14652991011E+03  0.36912916425E+03  0.25500000920E-02 0. -1.
       -2    1    3    3    0  502  0.11960897774E+03 -0.31698425479E+03  0.80323588868E+03  0.87176442816E+03  0.25500000920E-02 0.  1.
</event>
<event>
 5   0  0.1019384E-02  0.1106708E+04  0.7818609E-02  0.9198678E-01
       -2   -1    0    0    0  501  0.00000000000E+00  0.00000000000E+00  0.26411398674E+03  0.26411398676E+03  0.25500000920E-02 0. -1.
        2   -1    0    0  501    0  0.00000000000E+00  0.00000000000E+00 -0.11593502336E+04  0.11593502336E+04  0.25500000920E-02 0.  1.
    10030    2    1    2    0    0  0.00000000000E+00  0.00000000000E+00 -0.89523624688E+03  0.14234642204E+04  0.11067079330E+04 0.  0.
        1    1    3    3  502    0  0.17507546284E+03 -0.11805458427E+03 -0.11054919674E+04  0.11254780284E+04  0.50400001928E-02 0.  1.
       -1    1    3    3    0  502 -0.17507546284E+03  0.11805458427E+03  0.21025572050E+03  0.29798619193E+03  0.50400001928E-02 0. -1.
</event>
<event>
 5   0  0.5998641E-03  0.1134972E+04  0.7818609E-02  0.9171760E-01
       -1   -1    0    0    0  501  0.00000000000E+00  0.00000000000E+00  0.42902068350E+03  0.42902068353E+03  0.50400001928E-02 0.  1.
        1   -1    0    0  501    0  0.00000000000E+00  0.00000000000E+00 -0.75064105308E+03  0.75064105310E+03  0.50400001928E-02 0. -1.
    10030    2    1    2    0    0  0.00000000000E+00  0.00000000000E+00 -0.32162036958E+03  0.11796617366E+04  0.11349723128E+04 0.  0.
        3    1    3    3  502    0  0.24327095829E+03  0.23077853981E+03  0.31503856871E+03  0.46009651548E+03  0.10100000352E+00 0.  1.
       -3    1    3    3    0  502 -0.24327095829E+03 -0.23077853981E+03 -0.63665893829E+03  0.71956522115E+03  0.10100000352E+00 0. -1.
</event>
<event>
 5   0  0.5998641E-03  0.1088386E+04  0.7818609E-02  0.9216587E-01
        1   -1    0    0  501    0  0.00000000000E+00  0.00000000000E+00  0.17026453622E+04  0.17026453622E+04  0.50400001928E-02 0. -1.
       -1   -1    0    0    0  501  0.00000000000E+00  0.00000000000E+00 -0.17393272633E+03  0.17393272640E+03  0.50400001928E-02 0.  1.
    10030    2    1    2    0    0  0.00000000000E+00  0.00000000000E+00  0.15287126358E+04  0.18765780886E+04  0.10883855013E+04 0.  0.
        3    1    3    3  502    0  0.29837308717E+03  0.39246720990E+03  0.11616256682E+04  0.12619156918E+04  0.10100000352E+00 0. -1.
       -3    1    3    3    0  502 -0.29837308717E+03 -0.39246720990E+03  0.36708696762E+03  0.61466239676E+03  0.10100000352E+00 0.  1.
</event>
<event>
 5   0  0.5712664E-03  0.1111382E+04  0.7818609E-02  0.9194169E-01
       -1   -1    0    0    0  501  0.00000000000E+00  0.00000000000E+00  0.49238529965E+03  0.49238529968E+03  0.50400001928E-02 0.  1.
        1   -1    0    0  501    0  0.00000000000E+00  0.00000000000E+00 -0.62713570729E+03  0.62713570731E+03  0.50400001928E-02 0. -1.
    10030    2    1    2    0    0  0.00000000000E+00  0.00000000000E+00 -0.13475040764E+03  0.11195210070E+04  0.11113818483E+04 0.  0.
        5    1    3    3  502    0  0.40387748409E+03  0.19147099773E+03  0.26518214846E+03  0.51973245712E+03  0.46999998093E+01 0.  1.
       -5    1    3    3    0  502 -0.40387748409E+03 -0.19147099773E+03 -0.39993255610E+03  0.59978854987E+03  0.46999998093E+01 0. -1.
</event>
<event>
 5   0  0.9719260E-03  0.1069421E+04  0.7818609E-02  0.9235520E-01
        2   -1    0    0  501    0  0.00000000000E+00  0.00000000000E+00  0.90381029260E+03  0.90381029260E+03  0.25500000920E-02 0.  1.
       -2   -1    0    0    0  501  0.00000000000E+00  0.00000000000E+00 -0.31634442810E+03  0.31634442811E+03  0.25500000920E-02 0. -1.
    10030    2    1    2    0    0  0.00000000000E+00  0.00000000000E+00  0.58746586450E+03  0.12201547207E+04  0.10694210586E+04 0.  0.
        3    1    3    3  502    0 -0.16889789565E+03 -0.48190663533E+03  0.47469056840E+03  0.69720273254E+03  0.10100000352E+00 0. -1.
       -3    1    3    3    0  502  0.16889789565E+03  0.48190663533E+03  0.11277529609E+03  0.52295198818E+03  0.10100000352E+00 0.  1.
</event>
<event>
 5   0  0.5854579E-03  0.1077989E+04  0.7818609E-02  0.9226915E-01
       -1   -1    0    0    0  501  0.00000000000E+00  0.00000000000E+00  0.43813467128E+03  0.43813467131E+03  0.50400001928E-02 0. -1.
        1   -1    0    0  501    0  0.00000000000E+00  0.00000000000E+00 -0.66307236510E+03  0.66307236512E+03  0.50400001928E-02 0.  1.
    10030    2    1    2    0    0  0.00000000000E+00  0.00000000000E+00 -0.22493769382E+03  0.11012070364E+04  0.10779888548E+04 0.  0.
        4    1    3    3  502    0  0.10725452332E+03  0.48021776930E+02  0.42488731607E+03  0.44084063797E+03  0.12699999809E+01 0. -1.
       -4    1    3    3    0  502 -0.10725452332E+03 -0.48021776930E+02 -0.64982500989E+03  0.66036639846E+03  0.12699999809E+01 0.  1.
</event>
<event>
 5   0  0.1028016E-02  0.1241954E+04  0.7818609E-02  0.9076906E-01
        2   -1    0    0  501    0  0.00000000000E+00  0.00000000000E+00  0.95584640955E+03  0.95584640955E+03  0.25500000920E-02 0.  1.
       -2   -1    0    0    0  501  0.00000000000E+00  0.00000000000E+00 -0.40342521480E+03  0.40342521481E+03  0.25500000920E-02 0. -1.
    10030    2    1    2    0    0  0.00000000000E+00  0.00000000000E+00  0.55242119474E+03  0.13592716244E+04  0.12419541748E+04 0.  0.
        2    1    3    3  502    0 -0.25282816814E+03  0.46267412433E+03 -0.82838185132E+02  0.53371489847E+03  0.25500000920E-02 0. -1.
       -2    1    3    3    0  502  0.25282816814E+03 -0.46267412433E+03  0.63525937988E+03  0.82555672589E+03  0.25500000920E-02 0.  1.
</event>
<event>
 5   0  0.5854579E-03  0.8411260E+03  0.7818609E-02  0.9502325E-01
        1   -1    0    0  501    0  0.00000000000E+00  0.00000000000E+00  0.14908441878E+04  0.14908441878E+04  0.50400001928E-02 0.  1.
       -1   -1    0    0    0  501  0.00000000000E+00  0.00000000000E+00 -0.11863965588E+03  0.11863965599E+03  0.50400001928E-02 0. -1.
    10030    2    1    2    0    0  0.00000000000E+00  0.00000000000E+00  0.13722045319E+04  0.16094838438E+04  0.84112601078E+03 0.  0.
        4    1    3    3  502    0  0.15457924387E+03 -0.30755875660E+03  0.22374857324E+03  0.41055105446E+03  0.12699999809E+01 0. -1.
       -4    1    3    3    0  502 -0.15457924387E+03  0.30755875660E+03  0.11484559587E+04  0.11989327893E+04  0.12699999809E+01 0.  1.
</event>
<event>
 5   0  0.5789905E-03  0.1111441E+04  0.7818609E-02  0.9194112E-01
       -1   -1    0    0    0  501  0.00000000000E+00  0.00000000000E+00  0.28463268373E+03  0.28463268377E+03  0.50400001928E-02 0. -1.
        1   -1    0    0  501    0  0.00000000000E+00  0.00000000000E+00 -0.10849957788E+04  0.10849957788E+04  0.50400001928E-02 0.  1.
    10030    2    1    2    0    0  0.00000000000E+00  0.00000000000E+00 -0.80036309509E+03  0.13696284626E+04  0.11114409753E+04 0.  0.
        1    1    3    3  502    0  0.43669200056E+03  0.18221110795E+03 -0.75929592205E+03  0.89466814433E+03  0.50400001928E-02 0.  1.
       -1    1    3    3    0  502 -0.43669200056E+03 -0.18221110795E+03 -0.41067173037E+02  0.47496031827E+03  0.50400001928E-02 0. -1.
</event>
<event>
 5   0  0.5958706E-03  0.1108386E+04  0.7818609E-02  0.9197057E-01
       -1   -1    0    0    0  501  0.00000000000E+00  0.00000000000E+00  0.50560442583E+03  0.50560442585E+03  0.50400001928E-02 0.  1.
        1   -1    0    0  501    0  0.00000000000E+00  0.00000000000E+00 -0.60745077258E+03  0.60745077260E+03  0.50400001928E-02 0. -1.
    10030    2    1    2    0    0  0.00000000000E+00  0.00000000000E+00 -0.10184634675E+03  0.11130551985E+04  0.11083858518E+04 0.  0.
        2    1    3    3  502    0  0.45303290109E+03  0.85203218050E+02 -0.35984127999E+03  0.58479410447E+03  0.25500000920E-02 0. -1.
       -2    1    3    3    0  502 -0.45303290109E+03 -0.85203218050E+02  0.25799493324E+03  0.52826109398E+03  0.25500000920E-02 0.  1.
</event>
<event>
 5   0  0.5998641E-03  0.1081011E+04  0.7818609E-02  0.9223900E-01
        1   -1    0    0  501    0  0.00000000000E+00  0.00000000000E+00  0.85591544771E+03  0.85591544773E+03  0.50400001928E-02 0. -1.
       -1   -1    0    0    0  501  0.00000000000E+00  0.00000000000E+00 -0.34132606797E+03  0.34132606801E+03  0.50400001928E-02 0.  1.
    10030    2    1    2    0    0  0.00000000000E+00  0.00000000000E+00  0.51458937974E+03  0.11972415157E+04  0.10810111088E+04 0.  0.
        3    1    3    3  502    0  0.24055186953E+03 -0.20276922473E+03  0.74405661377E+03  0.80783712166E+03  0.10100000352E+00 0. -1.
       -3    1    3    3    0  502 -0.24055186953E+03  0.20276922473E+03 -0.22946723403E+03  0.38940439408E+03  0.10100000352E+00 0.  1.
</event>
<event>
 5   0  0.9925021E-03  0.1133789E+04  0.7818609E-02  0.9172870E-01
        2   -1    0    0  501    0  0.00000000000E+00  0.00000000000E+00  0.81205460056E+03  0.81205460056E+03  0.25500000920E-02 0. -1.
       -2   -1    0    0    0  501  0.00000000000E+00  0.00000000000E+00 -0.39574872701E+03  0.39574872702E+03  0.25500000920E-02 0.  1.
    10030    2    1    2    0    0  0.00000000000E+00  0.00000000000E+00  0.41630587355E+03  0.12078033276E+04  0.11337893533E+04 0.  0.
        4    1    3    3  502    0  0.18947744918E+03 -0.46976245439E+03  0.47930701590E+03  0.69736310176E+03  0.12699999809E+01 0. -1.
       -4    1    3    3    0  502 -0.18947744918E+03  0.46976245439E+03 -0.63001142351E+02  0.51044022582E+03  0.12699999809E+01 0.  1.
</event>
<event>
 5   0  0.9925021E-03  0.1107411E+04  0.7818609E-02  0.9197999E-01
        2   -1    0    0  501    0  0.00000000000E+00  0.00000000000E+00  0.26305037741E+04  0.26305037741E+04  0.25500000920E-02 0.  1.
       -2   -1    0    0    0  501  0.00000000000E+00  0.00000000000E+00 -0.11655172354E+03  0.11655172357E+03  0.25500000920E-02 0. -1.
    10030    2    1    2    0    0  0.00000000000E+00  0.00000000000E+00  0.25139520506E+04  0.27470554977E+04  0.11074109421E+04 0.  0.
        4    1    3    3  502    0  0.44152893906E+03  0.58374208717E+02  0.44088606169E+03  0.62668770896E+03  0.12699999809E+01 0. -1.
       -4    1    3    3    0  502 -0.44152893906E+03 -0.58374208717E+02  0.20730659889E+04  0.21203677887E+04  0.12699999809E+01 0.  1.
</event>
<event>
 5   0  0.5958706E-03  0.1094882E+04  0.7818609E-02  0.9210194E-01
        1   -1    0    0  501    0  0.00000000000E+00  0.00000000000E+00  0.78719685498E+03  0.78719685500E+03  0.50400001928E-02 0. -1.
       -1   -1    0    0    0  501  0.00000000000E+00  0.00000000000E+00 -0.38070767687E+03  0.38070767691E+03  0.50400001928E-02 0.  1.
    10030    2    1    2    0    0  0.00000000000E+00  0.00000000000E+00  0.40648917811E+03  0.11679045319E+04  0.10948824337E+04 0.  0.
        2    1    3    3  502    0  0.17276141639E+03  0.41241658860E+03 -0.13366516447E+03  0.46669082457E+03  0.25500000920E-02 0.  1.
       -2    1    3    3    0  502 -0.17276141639E+03 -0.41241658860E+03  0.54015434258E+03  0.70121370733E+03  0.25500000920E-02 0. -1.
</event>
<event>
 5   0  0.9925021E-03  0.1105128E+04  0.7818609E-02  0.9200208E-01
        2   -1    0    0  501    0  0.00000000000E+00  0.00000000000E+00  0.21003126280E+04  0.21003126280E+04  0.25500000920E-02 0.  1.
       -2   -1    0    0    0  501  0.00000000000E+00  0.00000000000E+00 -0.14537219036E+03  0.14537219038E+03  0.25500000920E-02 0. -1.
    10030    2    1    2    0    0  0.00000000000E+00  0.00000000000E+00  0.19549404376E+04  0.22456848184E+04  0.11051281323E+04 0.  0.
        4    1    3    3  502    0  0.67227631929E+02  0.52185257150E+02 -0.13197143112E+03  0.15703797977E+03  0.12699999809E+01 0. -1.
       -4    1    3    3    0  502 -0.67227631929E+02 -0.52185257150E+02  0.20869118687E+04  0.20886468386E+04  0.12699999809E+01 0.  1.
</event>
<event>
 5   0  0.1019384E-02  0.1109454E+04  0.7818609E-02  0.9196026E-01
       -2   -1    0    0    0  501  0.00000000000E+00  0.00000000000E+00  0.77525865048E+03  0.77525865049E+03  0.25500000920E-02 0. -1.
        2   -1    0    0  501    0  0.00000000000E+00  0.00000000000E+00 -0.39692843074E+03  0.39692843075E+03  0.25500000920E-02 0.  1.
    10030    2    1    2    0    0  0.00000000000E+00  0.00000000000E+00  0.37833021975E+03  0.11721870812E+04  0.11094542795E+04 0.  0.
        1    1    3    3  502    0  0.34192597978E+03 -0.24887686073E+03 -0.19011666340E+03  0.46367813533E+03  0.50400001928E-02 0.  1.
       -1    1    3    3    0  502 -0.34192597978E+03  0.24887686073E+03  0.56844688314E+03  0.70850894591E+03  0.50400001928E-02 0. -1.
</event>
<event>
 5   0  0.3949750E-03  0.1135976E+04  0.7818609E-02  0.9170820E-01
       -3   -1    0    0    0  501  0.00000000000E+00  0.00000000000E+00  0.32366417075E+03  0.32366418651E+03  0.10100000352E+00 0.  1.
        3   -1    0    0  501    0  0.00000000000E+00  0.00000000000E+00 -0.99674344575E+03  0.99674345087E+03  0.10100000352E+00 0. -1.
    10030    2    1    2    0    0  0.00000000000E+00  0.00000000000E+00 -0.67307927500E+03  0.13204076374E+04  0.11359756240E+04 0.  0.
        3    1    3    3  502    0  0.90071964665E+01 -0.59677164576E+02 -0.99300578485E+03  0.99483817403E+03  0.10100000352E+00 0. -1.
       -3    1    3    3    0  502 -0.90071964665E+01  0.59677164576E+02  0.31992650985E+03  0.32556946335E+03  0.10100000352E+00 0.  1.
</event>
<event>
 5   0  0.9925021E-03  0.1154598E+04  0.7818609E-02  0.9153552E-01
        2   -1    0    0  501    0  0.00000000000E+00  0.00000000000E+00  0.22463482518E+04  0.22463482518E+04  0.25500000920E-02 0.  1.
       -2   -1    0    0    0  501  0.00000000000E+00  0.00000000000E+00 -0.14836258708E+03  0.14836258710E+03  0.25500000920E-02 0. -1.
    10030    2    1    2    0    0  0.00000000000E+00  0.00000000000E+00  0.20979856647E+04  0.23947108389E+04  0.11545978315E+04 0.  0.
        4    1    3    3  502    0 -0.26204556485E+03  0.27516704837E+03  0.19504064521E+04  0.19870761747E+04  0.12699999809E+01 0.  1.
       -4    1    3    3    0  502  0.26204556485E+03 -0.27516704837E+03  0.14757921253E+03  0.40763466417E+03  0.12699999809E+01 0. -1.
</event>
<event>
 5   0  0.5998641E-03  0.1086614E+04  0.7818609E-02  0.9218337E-01
        1   -1    0    0  501    0  0.00000000000E+00  0.00000000000E+00  0.18238126797E+04  0.18238126797E+04  0.50400001928E-02 0.  1.
       -1   -1    0    0    0  501  0.00000000000E+00  0.00000000000E+00 -0.16184924391E+03  0.16184924399E+03  0.50400001928E-02 0. -1.
    10030    2    1    2    0    0  0.00000000000E+00  0.00000000000E+00  0.16619634358E+04  0.19856619237E+04  0.10866143812E+04 0.  0.
        3    1    3    3  502    0 -0.52089318334E+03 -0.44690486601E+02  0.56082693066E+03  0.76671624765E+03  0.10100000352E+00 0. -1.
       -3    1    3    3    0  502  0.52089318334E+03  0.44690486601E+02  0.11011365051E+04  0.12189456760E+04  0.10100000352E+00 0.  1.
</event>
<event>
 5   0  0.9692981E-03  0.1418937E+04  0.7818609E-02  0.8940224E-01
       -2   -1    0    0    0  501  0.00000000000E+00  0.00000000000E+00  0.42904571586E+03  0.42904571587E+03  0.25500000920E-02 0. -1.
        2   -1    0    0  501    0  0.00000000000E+00  0.00000000000E+00 -0.11731754333E+04  0.11731754333E+04  0.25500000920E-02 0.  1.
    10030    2    1    2    0    0  0.00000000000E+00  0.00000000000E+00 -0.74412971747E+03  0.16022211492E+04  0.14189374808E+04 0.  0.
        5    1    3    3  502    0  0.67193335076E+03  0.13048492189E+03 -0.16141172684E+03  0.70327560619E+03  0.46999998093E+01 0. -1.
       -5    1    3    3    0  502 -0.67193335076E+03 -0.13048492189E+03 -0.58271799063E+03  0.89894554302E+03  0.46999998093E+01 0.  1.
</event>
<event>
 5   0  0.5998641E-03  0.1054446E+04  0.7818609E-02  0.9250766E-01
        1   -1    0    0  501    0  0.00000000000E+00  0.00000000000E+00  0.48518656322E+03  0.48518656325E+03  0.50400001928E-02 0. -1.
       -1   -1    0    0    0  501  0.00000000000E+00  0.00000000000E+00 -0.57290168645E+03  0.57290168647E+03  0.50400001928E-02 0.  1.
    10030    2    1    2    0    0  0.00000000000E+00  0.00000000000E+00 -0.87715123227E+02  0.10580882497E+04  0.10544462060E+04 0.  0.
        3    1    3    3  502    0  0.23852361121E+01  0.33339592036E+03 -0.45368672153E+03  0.56301881012E+03  0.10100000352E+00 0.  1.
       -3    1    3    3    0  502 -0.23852361121E+01 -0.33339592036E+03  0.36597159830E+03  0.49506943960E+03  0.10100000352E+00 0. -1.
</event>
<event>
 5   0  0.5998641E-03  0.1092739E+04  0.7818609E-02  0.9212298E-01
       -1   -1    0    0    0  501  0.00000000000E+00  0.00000000000E+00  0.39685737621E+03  0.39685737624E+03  0.50400001928E-02 0. -1.
        1   -1    0    0  501    0  0.00000000000E+00  0.00000000000E+00 -0.75220873445E+03  0.75220873446E+03  0.50400001928E-02 0.  1.
    10030    2    1    2    0    0  0.00000000000E+00  0.00000000000E+00 -0.35535135824E+03  0.11490661107E+04  0.10927389162E+04 0.  0.
        3    1    3    3  502    0  0.43129776281E+03  0.31521639865E+03 -0.57135037236E+02  0.53725558244E+03  0.10100000352E+00 0. -1.
       -3    1    3    3    0  502 -0.43129776281E+03 -0.31521639865E+03 -0.29821632100E+03  0.61181052826E+03  0.10100000352E+00 0.  1.
</event>
<event>
 5   0  0.9719260E-03  0.1111765E+04  0.7818609E-02  0.9193800E-01
        2   -1    0    0  501    0  0.00000000000E+00  0.00000000000E+00  0.72222691167E+03  0.72222691167E+03  0.25500000920E-02 0.  1.
       -2   -1    0    0    0  501  0.00000000000E+00  0.00000000000E+00 -0.42785085762E+03  0.42785085762E+03  0.25500000920E-02 0. -1.
    10030    2    1    2    0    0  0.00000000000E+00  0.00000000000E+00  0.29437605405E+03  0.11500777693E+04  0.11117650895E+04 0.  0.
        3    1    3    3  502    0 -0.16445645728E+03  0.46744929968E+03 -0.11338659025E+03  0.50834171888E+03  0.10100000352E+00 0. -1.
       -3    1    3    3    0  502  0.16445645728E+03 -0.46744929968E+03  0.40776264430E+03  0.64173605041E+03  0.10100000352E+00 0.  1.
</event>
<event>
 5   0  0.5789905E-03  0.1098155E+04  0.7818609E-02  0.9206992E-01
       -1   -1    0    0    0  501  0.00000000000E+00  0.00000000000E+00  0.61828835928E+03  0.61828835930E+03  0.50400001928E-02 0. -1.
        1   -1    0    0  501    0  0.00000000000E+00  0.00000000000E+00 -0.48761391131E+03  0.48761391134E+03  0.50400001928E-02 0.  1.
    10030    2    1    2    0    0  0.00000000000E+00  0.00000000000E+00  0.13067444797E+03  0.11059022706E+04  0.10981548255E+04 0.  0.
        1    1    3    3  502    0 -0.17908476862E+03 -0.51904495804E+03  0.67998282217E+02  0.55326556845E+03  0.50400001928E-02 0.  1.
       -1    1    3    3    0  502  0.17908476862E+03  0.51904495804E+03  0.62676165749E+02  0.55263670218E+03  0.50400001928E-02 0. -1.
</event>
<event>
 5   0  0.5854579E-03  0.6824398E+03  0.7818609E-02  0.9747743E-01
        1   -1    0    0  501    0  0.00000000000E+00  0.00000000000E+00  0.84906712186E+03  0.84906712187E+03  0.50400001928E-02 0.  1.
       -1   -1    0    0    0  501  0.00000000000E+00  0.00000000000E+00 -0.13712818293E+03  0.13712818302E+03  0.50400001928E-02 0. -1.
    10030    2    1    2    0    0  0.00000000000E+00  0.00000000000E+00  0.71193893893E+03  0.98619530490E+03  0.68243983371E+03 0.  0.
        4    1    3    3  502    0 -0.59301609185E+02 -0.18442464735E+03 -0.49948104814E+02  0.20006388349E+03  0.12699999809E+01 0. -1.
       -4    1    3    3    0  502  0.59301609185E+02  0.18442464735E+03  0.76188704374E+03  0.78613142141E+03  0.12699999809E+01 0.  1.
</event>
<event>
 5   0  0.5712664E-03  0.1087162E+04  0.7818609E-02  0.9217796E-01
        1   -1    0    0  501    0  0.00000000000E+00  0.00000000000E+00  0.11211827351E+04  0.11211827351E+04  0.50400001928E-02 0. -1.
       -1   -1    0    0    0  501  0.00000000000E+00  0.00000000000E+00 -0.26354334885E+03  0.26354334890E+03  0.50400001928E-02 0.  1.
    10030    2    1    2    0    0  0.00000000000E+00  0.00000000000E+00  0.85763938625E+03  0.13847260840E+04  0.10871619065E+04 0.  0.
        5    1    3    3  502    0 -0.25247397755E+03 -0.44492693076E+03  0.66283227877E+03  0.83730030624E+03  0.46999998093E+01 0. -1.
       -5    1    3    3    0  502  0.25247397755E+03  0.44492693076E+03  0.19480710749E+03  0.54742577778E+03  0.46999998093E+01 0.  1.
</event>
<event>
 5   0  0.5854579E-03  0.1100206E+04  0.7818609E-02  0.9204991E-01
        1   -1    0    0  501    0  0.00000000000E+00  0.00000000000E+00  0.63690622338E+03  0.63690622340E+03  0.50400001928E-02 0.  1.
       -1   -1    0    0    0  501  0.00000000000E+00  0.00000000000E+00 -0.47513042732E+03  0.47513042735E+03  0.50400001928E-02 0. -1.
    10030    2    1    2    0    0  0.00000000000E+00  0.00000000000E+00  0.16177579606E+03  0.11120366507E+04  0.11002063917E+04 0.  0.
        4    1    3    3  502    0  0.14401202277E+03  0.53077188783E+03  0.93416894863E+02  0.55784100670E+03  0.12699999809E+01 0. -1.
       -4    1    3    3    0  502 -0.14401202277E+03 -0.53077188783E+03  0.68358901194E+02  0.55419564405E+03  0.12699999809E+01 0.  1.
</event>
<event>
 5   0  0.5789905E-03  0.1079324E+04  0.7818609E-02  0.9225582E-01
        1   -1    0    0  501    0  0.00000000000E+00  0.00000000000E+00  0.10381774221E+04  0.10381774221E+04  0.50400001928E-02 0.  1.
       -1   -1    0    0    0  501  0.00000000000E+00  0.00000000000E+00 -0.28052518935E+03  0.28052518940E+03  0.50400001928E-02 0. -1.
    10030    2    1    2    0    0  0.00000000000E+00  0.00000000000E+00  0.75765223273E+03  0.13187026115E+04  0.10793237104E+04 0.  0.
        1    1    3    3  502    0  0.17192702004E+02 -0.56951878791E+02  0.10341589368E+04  0.10358686268E+04  0.50400001928E-02 0.  1.
       -1    1    3    3    0  502 -0.17192702004E+02  0.56951878791E+02 -0.27650670403E+03  0.28283398469E+03  0.50400001928E-02 0. -1.
</event>
<event>
 5   0  0.9925021E-03  0.1052454E+04  0.7818609E-02  0.9252815E-01
        2   -1    0    0  501    0  0.00000000000E+00  0.00000000000E+00  0.34642150959E+04  0.34642150959E+04  0.25500000920E-02 0. -1.
       -2   -1    0    0    0  501  0.00000000000E+00  0.00000000000E+00 -0.79935750381E+02  0.79935750421E+02  0.25500000920E-02 0.  1.
    10030    2    1    2    0    0  0.00000000000E+00  0.00000000000E+00  0.33842793456E+04  0.35441508464E+04  0.10524535776E+04 0.  0.
        4    1    3    3  502    0 -0.18892051245E+03  0.33115317079E+03  0.29135753012E+04  0.29384138632E+04  0.12699999809E+01 0. -1.
       -4    1    3    3    0  502  0.18892051245E+03 -0.33115317079E+03  0.47070404438E+03  0.60573698322E+03  0.12699999809E+01 0.  1.
</event>
<event>
 5   0  0.5854579E-03  0.1104832E+04  0.7818609E-02  0.9200495E-01
        1   -1    0    0  501    0  0.00000000000E+00  0.00000000000E+00  0.14267170633E+04  0.14267170633E+04  0.50400001928E-02 0.  1.
       -1   -1    0    0    0  501  0.00000000000E+00  0.00000000000E+00 -0.21389201975E+03  0.21389201981E+03  0.50400001928E-02 0. -1.
    10030    2    1    2    0    0  0.00000000000E+00  0.00000000000E+00  0.12128250435E+04  0.16406090831E+04  0.11048319227E+04 0.  0.
        4    1    3    3  502    0  0.33182450520E+03  0.30970821621E+03  0.10739566660E+04  0.11659379121E+04  0.12699999809E+01 0.  1.
       -4    1    3    3    0  502 -0.33182450520E+03 -0.30970821621E+03  0.13886837753E+03  0.47467117104E+03  0.12699999809E+01 0. -1.
</event>
<event>
 5   0  0.5854579E-03  0.1076211E+04  0.7818609E-02  0.9228693E-01
       -1   -1    0    0    0  501  0.00000000000E+00  0.00000000000E+00  0.10302146539E+04  0.10302146539E+04  0.50400001928E-02 0.  1.
        1   -1    0    0  501    0  0.00000000000E+00  0.00000000000E+00 -0.28106531996E+03  0.28106532001E+03  0.50400001928E-02 0. -1.
    10030    2    1    2    0    0  0.00000000000E+00  0.00000000000E+00  0.74914933395E+03  0.13112799739E+04  0.10762111528E+04 0.  0.
        4    1    3    3  502    0 -0.13022772443E+03  0.50640754781E+03  0.52940609153E+03  0.74409696098E+03  0.12699999809E+01 0.  1.
       -4    1    3    3    0  502  0.13022772443E+03 -0.50640754781E+03  0.21974324242E+03  0.56718301295E+03  0.12699999809E+01 0. -1.
</event>
<event>
 5   0  0.5998641E-03  0.1099796E+04  0.7818609E-02  0.9205390E-01
       -1   -1    0    0    0  501  0.00000000000E+00  0.00000000000E+00  0.42782724854E+03  0.42782724857E+03  0.50400001928E-02 0.  1.
        1   -1    0    0  501    0  0.00000000000E+00  0.00000000000E+00 -0.70679941722E+03  0.70679941724E+03  0.50400001928E-02 0. -1.
    10030    2    1    2    0    0  0.00000000000E+00  0.00000000000E+00 -0.27897216867E+03  0.11346266658E+04  0.10997964357E+04 0.  0.
        3    1    3    3  502    0 -0.50727030739E+03  0.55467984566E+02  0.71913530394E+02  0.51533622823E+03  0.10100000352E+00 0.  1.
       -3    1    3    3    0  502  0.50727030739E+03 -0.55467984566E+02 -0.35088569907E+03  0.61929043758E+03  0.10100000352E+00 0. -1.
</event>
<event>
 5   0  0.5998641E-03  0.1159998E+04  0.7818609E-02  0.9148609E-01
        1   -1    0    0  501    0  0.00000000000E+00  0.00000000000E+00  0.96292355972E+03  0.96292355973E+03  0.50400001928E-02 0. -1.
       -1   -1    0    0    0  501  0.00000000000E+00  0.00000000000E+00 -0.34935179428E+03  0.34935179432E+03  0.50400001928E-02 0.  1.
    10030    2    1    2    0    0  0.00000000000E+00  0.00000000000E+00  0.61357176544E+03  0.13122753541E+04  0.11599984024E+04 0.  0.
        3    1    3    3  502    0  0.26388526698E+03 -0.11578297822E+03  0.87620865734E+03  0.92237885578E+03  0.10100000352E+00 0. -1.
       -3    1    3    3    0  502 -0.26388526698E+03  0.11578297822E+03 -0.26263689191E+03  0.38989649828E+03  0.10100000352E+00 0.  1.
</event>
<event>
 5   0  0.3949750E-03  0.1056592E+04  0.7818609E-02  0.9248564E-01
        3   -1    0    0  501    0  0.00000000000E+00  0.00000000000E+00  0.23285019202E+03  0.23285021392E+03  0.10100000352E+00 0. -1.
       -3   -1    0    0    0  501  0.00000000000E+00  0.00000000000E+00 -0.11986108437E+04  0.11986108480E+04  0.10100000352E+00 0.  1.
    10030    2    1    2    0    0  0.00000000000E+00  0.00000000000E+00 -0.96576065169E+03  0.14314610619E+04  0.10565922276E+04 0.  0.
        5    1    3    3  502    0 -0.33144618144E+03  0.36516802223E+03 -0.73947076399E+03  0.88884383130E+03  0.46999998093E+01 0.  1.
       -5    1    3    3    0  502  0.33144618144E+03 -0.36516802223E+03 -0.22628988770E+03  0.54261723058E+03  0.46999998093E+01 0. -1.
</event>
<event>
 5   0  0.9925021E-03  0.1015937E+04  0.7818609E-02  0.9291237E-01
       -2   -1    0    0    0  501  0.00000000000E+00  0.00000000000E+00  0.16249404471E+03  0.16249404473E+03  0.25500000920E-02 0.  1.
        2   -1    0    0  501    0  0.00000000000E+00  0.00000000000E+00 -0.15879459032E+04  0.15879459032E+04  0.25500000920E-02 0. -1.
    10030    2    1    2    0    0  0.00000000000E+00  0.00000000000E+00 -0.14254518585E+04  0.17504399479E+04  0.10159365189E+04 0.  0.
        4    1    3    3  502    0  0.40131813906E+03 -0.30514305466E+03 -0.60565669646E+03  0.78802930111E+03  0.12699999809E+01 0. -1.
       -4    1    3    3    0  502 -0.40131813906E+03  0.30514305466E+03 -0.81979516203E+03  0.96241064683E+03  0.12699999809E+01 0.  1.
</event>
<event>
 5   0  0.5958706E-03  0.1113027E+04  0.7818609E-02  0.9192587E-01
        1   -1    0    0  501    0  0.00000000000E+00  0.00000000000E+00  0.65914179633E+03  0.65914179635E+03  0.50400001928E-02 0. -1.
       -1   -1    0    0    0  501  0.00000000000E+00  0.00000000000E+00 -0.46986410184E+03  0.46986410187E+03  0.50400001928E-02 0.  1.
    10030    2    1    2    0    0  0.00000000000E+00  0.00000000000E+00  0.18927769449E+03  0.11290058982E+04  0.11130266271E+04 0.  0.
        2    1    3    3  502    0 -0.12518631577E+03 -0.18472033183E+03 -0.42249786584E+03  0.47780504528E+03  0.25500000920E-02 0.  1.
       -2    1    3    3    0  502  0.12518631577E+03  0.18472033183E+03  0.61177556033E+03  0.65120085294E+03  0.25500000920E-02 0. -1.
</event>
<event>
 5   0  0.5854579E-03  0.1129323E+04  0.7818609E-02  0.9177074E-01
       -1   -1    0    0    0  501  0.00000000000E+00  0.00000000000E+00  0.21559294436E+03  0.21559294442E+03  0.50400001928E-02 0. -1.
        1   -1    0    0  501    0  0.00000000000E+00  0.00000000000E+00 -0.14789103329E+04  0.14789103329E+04  0.50400001928E-02 0.  1.
    10030    2    1    2    0    0  0.00000000000E+00  0.00000000000E+00 -0.12633173886E+04  0.16945032774E+04  0.11293230418E+04 0.  0.
        4    1    3    3  502    0  0.45395408459E+02 -0.20675675527E+03  0.15380262332E+03  0.26166000611E+03  0.12699999809E+01 0. -1.
       -4    1    3    3    0  502 -0.45395408459E+02  0.20675675527E+03 -0.14171200119E+04  0.14328432713E+04  0.12699999809E+01 0.  1.
</event>
<event>
 5   0  0.9925021E-03  0.1089967E+04  0.7818609E-02  0.9215026E-01
       -2   -1    0    0    0  501  0.00000000000E+00  0.00000000000E+00  0.40434109529E+03  0.40434109530E+03  0.25500000920E-02 0. -1.
        2   -1    0    0  501    0  0.00000000000E+00  0.00000000000E+00 -0.73454534124E+03  0.73454534124E+03  0.25500000920E-02 0.  1.
    10030    2    1    2    0    0  0.00000000000E+00  0.00000000000E+00 -0.33020424595E+03  0.11388864365E+04  0.10899667294E+04 0.  0.
        4    1    3    3  502    0 -0.48623632592E+03  0.97509642481E+02 -0.40123469104E+03  0.63790656464E+03  0.12699999809E+01 0. -1.
       -4    1    3    3    0  502  0.48623632592E+03 -0.97509642481E+02  0.71030445093E+02  0.50097987190E+03  0.12699999809E+01 0.  1.
</event>
<event>
 5   0  0.9692981E-03  0.1130420E+04  0.7818609E-02  0.9176039E-01
        2   -1    0    0  501    0  0.00000000000E+00  0.00000000000E+00  0.10852676045E+04  0.10852676045E+04  0.25500000920E-02 0. -1.
       -2   -1    0    0    0  501  0.00000000000E+00  0.00000000000E+00 -0.29436274986E+03  0.29436274987E+03  0.25500000920E-02 0.  1.
    10030    2    1    2    0    0  0.00000000000E+00  0.00000000000E+00  0.79090485460E+03  0.13796303543E+04  0.11304200218E+04 0.  0.
        5    1    3    3  502    0 -0.52493407715E+03  0.70889434093E+02  0.63603804169E+03  0.82773641801E+03  0.46999998093E+01 0. -1.
       -5    1    3    3    0  502  0.52493407715E+03 -0.70889434093E+02  0.15486681291E+03  0.55189393633E+03  0.46999998093E+01 0.  1.
</event>
<event>
 5   0  0.5854579E-03  0.1078867E+04  0.7818609E-02  0.9226038E-01
       -1   -1    0    0    0  501  0.00000000000E+00  0.00000000000E+00  0.43987833488E+03  0.43987833491E+03  0.50400001928E-02 0. -1.
        1   -1    0    0  501    0  0.00000000000E+00  0.00000000000E+00 -0.66151995365E+03  0.66151995367E+03  0.50400001928E-02 0.  1.
    10030    2    1    2    0    0  0.00000000000E+00  0.00000000000E+00 -0.22164161878E+03  0.11013982886E+04  0.10788666196E+04 0.  0.
        4    1    3    3  502    0  0.85837064889E+02  0.32098682672E+03  0.32300845713E+03  0.46339682877E+03  0.12699999809E+01 0. -1.
       -4    1    3    3    0  502 -0.85837064889E+02 -0.32098682672E+03 -0.54465007590E+03  0.63800145981E+03  0.12699999809E+01 0.  1.
</event>
<event>
 5   0  0.9925021E-03  0.1143197E+04  0.7818609E-02  0.9164083E-01
       -2   -1    0    0    0  501  0.00000000000E+00  0.00000000000E+00  0.28421961801E+03  0.28421961803E+03  0.25500000920E-02 0.  1.
        2   -1    0    0  501    0  0.00000000000E+00  0.00000000000E+00 -0.11495500236E+04  0.11495500236E+04  0.25500000920E-02 0. -1.
    10030    2    1    2    0    0  0.00000000000E+00  0.00000000000E+00 -0.86533040557E+03  0.14337696416E+04  0.11431966910E+04 0.  0.
        4    1    3    3  502    0 -0.27399281657E+03 -0.47244157533E+03 -0.22112195096E+03  0.58921102818E+03  0.12699999809E+01 0.  1.
       -4    1    3    3    0  502  0.27399281657E+03  0.47244157533E+03 -0.64420845462E+03  0.84455861344E+03  0.12699999809E+01 0. -1.
</event>
<event>
 5   0  0.9719260E-03  0.9324597E+03  0.7818609E-02  0.9385891E-01
       -2   -1    0    0    0  501  0.00000000000E+00  0.00000000000E+00  0.24457796200E+03  0.24457796202E+03  0.25500000920E-02 0.  1.
        2   -1    0    0  501    0  0.00000000000E+00  0.00000000000E+00 -0.88875663482E+03  0.88875663482E+03  0.25500000920E-02 0. -1.
    10030    2    1    2    0    0  0.00000000000E+00  0.00000000000E+00 -0.64417867282E+03  0.11333345968E+04  0.93245972882E+03 0.  0.
        3    1    3    3  502    0 -0.24632198219E+03 -0.14410783322E+03  0.12601962312E+03  0.31196561047E+03  0.10100000352E+00 0.  1.
       -3    1    3    3    0  502  0.24632198219E+03  0.14410783322E+03 -0.77019829594E+03  0.82136898637E+03  0.10100000352E+00 0. -1.
</event>
<event>
 5   0  0.5712664E-03  0.1215640E+04  0.7818609E-02  0.9099276E-01
        1   -1    0    0  501    0  0.00000000000E+00  0.00000000000E+00  0.35640834956E+03  0.35640834959E+03  0.50400001928E-02 0.  1.
       -1   -1    0    0    0  501  0.00000000000E+00  0.00000000000E+00 -0.10365775534E+04  0.10365775534E+04  0.50400001928E-02 0. -1.
    10030    2    1    2    0    0  0.00000000000E+00  0.00000000000E+00 -0.68016920385E+03  0.13929859030E+04  0.12156395766E+04 0.  0.
        5    1    3    3  502    0  0.25240693246E+03 -0.15417645994E+03  0.26836228847E+03  0.39939960969E+03  0.46999998093E+01 0.  1.
       -5    1    3    3    0  502 -0.25240693246E+03  0.15417645994E+03 -0.94853149232E+03  0.99358629332E+03  0.46999998093E+01 0. -1.
</event>
<event>
 5   0  0.1028016E-02  0.1179930E+04  0.7818609E-02  0.9130608E-01
       -2   -1    0    0    0  501  0.00000000000E+00  0.00000000000E+00  0.22766351327E+03  0.22766351328E+03  0.25500000920E-02 0. -1.
        2   -1    0    0  501    0  0.00000000000E+00  0.00000000000E+00 -0.15288290819E+04  0.15288290819E+04  0.25500000920E-02 0.  1.
    10030    2    1    2    0    0  0.00000000000E+00  0.00000000000E+00 -0.13011655686E+04  0.17564925951E+04  0.11799298284E+04 0.  0.
        2    1    3    3  502    0  0.15259696323E+03 -0.10692512611E+03 -0.14838761288E+04  0.14955290640E+04  0.25500000920E-02 0.  1.
       -2    1    3    3    0  502 -0.15259696323E+03  0.10692512611E+03  0.18271056016E+03  0.26096353114E+03  0.25500000920E-02 0. -1.
</event>
<event>
 5   0  0.5712664E-03  0.1093326E+04  0.7818609E-02  0.9211722E-01
       -1   -1    0    0    0  501  0.00000000000E+00  0.00000000000E+00  0.26757994857E+03  0.26757994862E+03  0.50400001928E-02 0. -1.
        1   -1    0    0  501    0  0.00000000000E+00  0.00000000000E+00 -0.11168262468E+04  0.11168262468E+04  0.50400001928E-02 0.  1.
    10030    2    1    2    0    0  0.00000000000E+00  0.00000000000E+00 -0.84924629822E+03  0.13844061954E+04  0.10933257698E+04 0.  0.
        5    1    3    3  502    0 -0.41587586222E+02  0.50028487681E+03 -0.69856236149E+03  0.86024760865E+03  0.46999998093E+01 0.  1.
       -5    1    3    3    0  502  0.41587586222E+02 -0.50028487681E+03 -0.15068393673E+03  0.52415858677E+03  0.46999998093E+01 0. -1.
</event>
<event>
 5   0  0.1028016E-02  0.1084348E+04  0.7818609E-02  0.9220583E-01
        2   -1    0    0  501    0  0.00000000000E+00  0.00000000000E+00  0.70220994684E+03  0.70220994684E+03  0.25500000920E-02 0.  1.
       -2   -1    0    0    0  501  0.00000000000E+00  0.00000000000E+00 -0.41861062343E+03  0.41861062344E+03  0.25500000920E-02 0. -1.
    10030    2    1    2    0    0  0.00000000000E+00  0.00000000000E+00  0.28359932341E+03  0.11208205703E+04  0.10843478107E+04 0.  0.
        2    1    3    3  502    0  0.34606428733E+03 -0.30821303620E+03 -0.14908528013E+03  0.48680816284E+03  0.25500000920E-02 0. -1.
       -2    1    3    3    0  502 -0.34606428733E+03  0.30821303620E+03  0.43268460354E+03  0.63401240744E+03  0.25500000920E-02 0.  1.
</event>
<event>
 5   0  0.5998641E-03  0.1079212E+04  0.7818609E-02  0.9225694E-01
       -1   -1    0    0    0  501  0.00000000000E+00  0.00000000000E+00  0.45273450576E+03  0.45273450579E+03  0.50400001928E-02 0.  1.
        1   -1    0    0  501    0  0.00000000000E+00  0.00000000000E+00 -0.64314635514E+03  0.64314635516E+03  0.50400001928E-02 0. -1.
    10030    2    1    2    0    0  0.00000000000E+00  0.00000000000E+00 -0.19041184938E+03  0.10958808610E+04  0.10792118370E+04 0.  0.
        3    1    3    3  502    0 -0.21775506369E+02  0.40127020192E+03 -0.46088278460E+03  0.61147763571E+03  0.10100000352E+00 0. -1.
       -3    1    3    3    0  502  0.21775506369E+02 -0.40127020192E+03  0.27047093522E+03  0.48440322524E+03  0.10100000352E+00 0.  1.
</event>
<event>
 5   0  0.9719260E-03  0.1097835E+04  0.7818609E-02  0.9207305E-01
       -2   -1    0    0    0  501  0.00000000000E+00  0.00000000000E+00  0.15421885092E+03  0.15421885094E+03  0.25500000920E-02 0.  1.
        2   -1    0    0  501    0  0.00000000000E+00  0.00000000000E+00 -0.19537846035E+04  0.19537846035E+04  0.25500000920E-02 0. -1.
    10030    2    1    2    0    0  0.00000000000E+00  0.00000000000E+00 -0.17995657526E+04  0.21080034544E+04  0.10978349904E+04 0.  0.
        3    1    3    3  502    0 -0.19782429328E+03  0.39665029268E+03 -0.27804535505E+03  0.52323525814E+03  0.10100000352E+00 0.  1.
       -3    1    3    3    0  502  0.19782429328E+03 -0.39665029268E+03 -0.15215203975E+04  0.15847681963E+04  0.10100000352E+00 0. -1.
</event>
<event>
 5   0  0.5958706E-03  0.1152823E+04  0.7818609E-02  0.9155183E-01
        1   -1    0    0  501    0  0.00000000000E+00  0.00000000000E+00  0.33302278239E+03  0.33302278243E+03  0.50400001928E-02 0. -1.
       -1   -1    0    0    0  501  0.00000000000E+00  0.00000000000E+00 -0.99768066892E+03  0.99768066893E+03  0.50400001928E-02 0.  1.
    10030    2    1    2    0    0  0.00000000000E+00  0.00000000000E+00 -0.66465788653E+03  0.13307034514E+04  0.11528233036E+04 0.  0.
        2    1    3    3  502    0 -0.36616882578E+03 -0.99040786110E+02  0.16864466107E+03  0.41512613505E+03  0.25500000920E-02 0. -1.
       -2    1    3    3    0  502  0.36616882578E+03  0.99040786110E+02 -0.83330254760E+03  0.91557731630E+03  0.25500000920E-02 0.  1.
</event>
<event>
 5   0  0.5789905E-03  0.1094504E+04  0.7818609E-02  0.9210566E-01
        1   -1    0    0  501    0  0.00000000000E+00  0.00000000000E+00  0.11271340522E+04  0.11271340522E+04  0.50400001928E-02 0. -1.
       -1   -1    0    0    0  501  0.00000000000E+00  0.00000000000E+00 -0.26570446373E+03  0.26570446378E+03  0.50400001928E-02 0.  1.
    10030    2    1    2    0    0  0.00000000000E+00  0.00000000000E+00  0.86142958847E+03  0.13928385160E+04  0.10945036298E+04 0.  0.
        1    1    3    3  502    0  0.18515179225E+03 -0.43305023252E+03  0.76054463062E+02  0.47707229163E+03  0.50400001928E-02 0.  1.
       -1    1    3    3    0  502 -0.18515179225E+03  0.43305023252E+03  0.78537512541E+03  0.91576622437E+03  0.50400001928E-02 0. -1.
</event>
<event>
 5   0  0.1028016E-02  0.1195669E+04  0.7818609E-02  0.9116656E-01
        2   -1    0    0  501    0  0.00000000000E+00  0.00000000000E+00  0.20745519543E+04  0.20745519543E+04  0.25500000920E-02 0. -1.
       -2   -1    0    0    0  501  0.00000000000E+00  0.00000000000E+00 -0.17228110708E+03  0.17228110710E+03  0.25500000920E-02 0.  1.
    10030    2    1    2    0    0  0.00000000000E+00  0.00000000000E+00  0.19022708472E+04  0.22468330614E+04  0.11956690301E+04 0.  0.
        2    1    3    3  502    0  0.18498442970E+03  0.52243585054E+03  0.52990696582E+03  0.76678539996E+03  0.25500000920E-02 0.  1.
       -2    1    3    3    0  502 -0.18498442970E+03 -0.52243585054E+03  0.13723638814E+04  0.14800476615E+04  0.25500000920E-02 0. -1.
</event>
<event>
 5   0  0.5998641E-03  0.1102351E+04  0.7818609E-02  0.9202904E-01
        1   -1    0    0  501    0  0.00000000000E+00  0.00000000000E+00  0.24744253754E+03  0.24744253760E+03  0.50400001928E-02 0.  1.
       -1   -1    0    0    0  501  0.00000000000E+00  0.00000000000E+00 -0.12277365740E+04  0.12277365740E+04  0.50400001928E-02 0. -1.
    10030    2    1    2    0    0  0.00000000000E+00  0.00000000000E+00 -0.98029403644E+03  0.14751791116E+04  0.11023506762E+04 0.  0.
        3    1    3    3  502    0 -0.26165391308E+03 -0.48215610662E+03 -0.56167520159E+03  0.78512185275E+03  0.10100000352E+00 0. -1.
       -3    1    3    3    0  502  0.26165391308E+03  0.48215610662E+03 -0.41861883485E+03  0.69005725884E+03  0.10100000352E+00 0.  1.
</event>
<event>
 5   0  0.9925021E-03  0.1103552E+04  0.7818609E-02  0.9201737E-01
        2   -1    0    0  501    0  0.00000000000E+00  0.00000000000E+00  0.52088795889E+03  0.52088795889E+03  0.25500000920E-02 0.  1.
       -2   -1    0    0    0  501  0.00000000000E+00  0.00000000000E+00 -0.58449571094E+03  0.58449571095E+03  0.25500000920E-02 0. -1.
    10030    2    1    2    0    0  0.00000000000E+00  0.00000000000E+00 -0.63607752052E+02  0.11053836698E+04  0.11035520429E+04 0.  0.
        4    1    3    3  502    0 -0.50153597967E+03 -0.20707592106E+03 -0.13215193298E+03  0.55846622304E+03  0.12699999809E+01 0.  1.
       -4    1    3    3    0  502  0.50153597967E+03  0.20707592106E+03  0.68544180932E+02  0.54691744681E+03  0.12699999809E+01 0. -1.
</event>
<event>
 5   0  0.9719260E-03  0.8433735E+03  0.7818609E-02  0.9499274E-01
        2   -1    0    0  501    0  0.00000000000E+00  0.00000000000E+00  0.90192062553E+03  0.90192062554E+03  0.25500000920E-02 0. -1.
       -2   -1    0    0    0  501  0.00000000000E+00  0.00000000000E+00 -0.19715672709E+03  0.19715672710E+03  0.25500000920E-02 0.  1.
    10030    2    1    2    0    0  0.00000000000E+00  0.00000000000E+00  0.70476389845E+03  0.10990773526E+04  0.84337350832E+03 0.  0.
        3    1    3    3  502    0 -0.12351720304E+03 -0.39767201685E+03  0.43902387267E+03  0.60509627615E+03  0.10100000352E+00 0.  1.
       -3    1    3    3    0  502  0.12351720304E+03  0.39767201685E+03  0.26574002578E+03  0.49398107649E+03  0.10100000352E+00 0. -1.
</event>
<event>
 5   0  0.9692981E-03  0.1097273E+04  0.7818609E-02  0.9207854E-01
       -2   -1    0    0    0  501  0.00000000000E+00  0.00000000000E+00  0.24067721488E+03  0.24067721490E+03  0.25500000920E-02 0.  1.
        2   -1    0    0  501    0  0.00000000000E+00  0.00000000000E+00 -0.12506456447E+04  0.12506456447E+04  0.25500000920E-02 0. -1.
    10030    2    1    2    0    0  0.00000000000E+00  0.00000000000E+00 -0.10099684298E+04  0.14913228596E+04  0.10972728204E+04 0.  0.
        5    1    3    3  502    0 -0.96948267953E+02 -0.43481525949E+03 -0.69819141128E+02  0.45095463077E+03  0.46999998093E+01 0.  1.
       -5    1    3    3    0  502  0.96948267953E+02  0.43481525949E+03 -0.94014928870E+03  0.10403682288E+04  0.46999998093E+01 0. -1.
</event>
<event>
 5   0  0.5854579E-03  0.1075548E+04  0.7818609E-02  0.9229358E-01
       -1   -1    0    0    0  501  0.00000000000E+00  0.00000000000E+00  0.12492849202E+04  0.12492849202E+04  0.50400001928E-02 0.  1.
        1   -1    0    0  501    0  0.00000000000E+00  0.00000000000E+00 -0.23149297960E+03  0.23149297966E+03  0.50400001928E-02 0. -1.
    10030    2    1    2    0    0  0.00000000000E+00  0.00000000000E+00  0.10177919406E+04  0.14807778999E+04  0.10755476532E+04 0.  0.
        4    1    3    3  502    0 -0.38717499517E+03 -0.65820901290E+02  0.10146814463E+04  0.10880335097E+04  0.12699999809E+01 0.  1.
       -4    1    3    3    0  502  0.38717499517E+03  0.65820901290E+02  0.31104943329E+01  0.39274439017E+03  0.12699999809E+01 0. -1.
</event>
<event>
 5   0  0.5789905E-03  0.9054928E+03  0.7818609E-02  0.9418741E-01
        1   -1    0    0  501    0  0.00000000000E+00  0.00000000000E+00  0.19655059000E+03  0.19655059006E+03  0.50400001928E-02 0. -1.
       -1   -1    0    0    0  501  0.00000000000E+00  0.00000000000E+00 -0.10428832727E+04  0.10428832727E+04  0.50400001928E-02 0.  1.
    10030    2    1    2    0    0  0.00000000000E+00  0.00000000000E+00 -0.84633268273E+03  0.12394338628E+04  0.90549284393E+03 0.  0.
        1    1    3    3  502    0 -0.21105834143E+03  0.38221620092E+03 -0.25922795291E+03  0.50777355123E+03  0.50400001928E-02 0. -1.
       -1    1    3    3    0  502  0.21105834143E+03 -0.38221620092E+03 -0.58710472982E+03  0.73166031157E+03  0.50400001928E-02 0.  1.
</event>
<event>
 5   0  0.5712664E-03  0.1028136E+04  0.7818609E-02  0.9278213E-01
       -1   -1    0    0    0  501  0.00000000000E+00  0.00000000000E+00  0.40775220901E+03  0.40775220904E+03  0.50400001928E-02 0.  1.
        1   -1    0    0  501    0  0.00000000000E+00  0.00000000000E+00 -0.64810360197E+03  0.64810360199E+03  0.50400001928E-02 0. -1.
    10030    2    1    2    0    0  0.00000000000E+00  0.00000000000E+00 -0.24035139296E+03  0.10558558110E+04  0.10281355463E+04 0.  0.
        5    1    3    3  502    0  0.40106263652E+03  0.28457416919E+03 -0.27391117171E+03  0.56292372145E+03  0.46999998093E+01 0.  1.
       -5    1    3    3    0  502 -0.40106263652E+03 -0.28457416919E+03  0.33559778750E+02  0.49293208958E+03  0.46999998093E+01 0. -1.
</event>
<event>
 5   0  0.9925021E-03  0.1047559E+04  0.7818609E-02  0.9257868E-01
       -2   -1    0    0    0  501  0.00000000000E+00  0.00000000000E+00  0.28565149890E+03  0.28565149891E+03  0.25500000920E-02 0. -1.
        2   -1    0    0  501    0  0.00000000000E+00  0.00000000000E+00 -0.96041824773E+03  0.96041824774E+03  0.25500000920E-02 0.  1.
    10030    2    1    2    0    0  0.00000000000E+00  0.00000000000E+00 -0.67476674884E+03  0.12460697466E+04  0.10475588996E+04 0.  0.
        4    1    3    3  502    0 -0.25777646107E+03 -0.12295937540E+03 -0.85964716741E+03  0.90584909185E+03  0.12699999809E+01 0.  1.
       -4    1    3    3    0  502  0.25777646107E+03  0.12295937540E+03  0.18488041857E+03  0.34022065479E+03  0.12699999809E+01 0. -1.
</event>
<event>
 5   0  0.1019384E-02  0.1150828E+04  0.7818609E-02  0.9157020E-01
        2   -1    0    0  501    0  0.00000000000E+00  0.00000000000E+00  0.27955530756E+03  0.27955530758E+03  0.25500000920E-02 0. -1.
       -2   -1    0    0    0  501  0.00000000000E+00  0.00000000000E+00 -0.11843862671E+04  0.11843862671E+04  0.25500000920E-02 0.  1.
    10030    2    1    2    0    0  0.00000000000E+00  0.00000000000E+00 -0.90483095950E+03  0.14639415746E+04  0.11508283402E+04 0.  0.
        1    1    3    3  502    0  0.41692971252E+03  0.37070670527E+03 -0.27320334158E+03  0.62120359979E+03  0.50400001928E-02 0.  1.
       -1    1    3    3    0  502 -0.41692971252E+03 -0.37070670527E+03 -0.63162761791E+03  0.84273797485E+03  0.50400001928E-02 0. -1.
</event>
<event>
 5   0  0.9692981E-03  0.1077218E+04  0.7818609E-02  0.9227685E-01
        2   -1    0    0  501    0  0.00000000000E+00  0.00000000000E+00  0.32024304920E+03  0.32024304921E+03  0.25500000920E-02 0. -1.
       -2   -1    0    0    0  501  0.00000000000E+00  0.00000000000E+00 -0.90587417331E+03  0.90587417332E+03  0.25500000920E-02 0.  1.
    10030    2    1    2    0    0  0.00000000000E+00  0.00000000000E+00 -0.58563112411E+03  0.12261172225E+04  0.10772184690E+04 0.  0.
        5    1    3    3  502    0 -0.28920368193E+03  0.25280980626E+03  0.13689460642E+03  0.40781587886E+03  0.46999998093E+01 0. -1.
       -5    1    3    3    0  502  0.28920368193E+03 -0.25280980626E+03 -0.72252573053E+03  0.81830134368E+03  0.46999998093E+01 0.  1.
</event>
<event>
 5   0  0.9925021E-03  0.1112910E+04  0.7818609E-02  0.9192699E-01
        2   -1    0    0  501    0  0.00000000000E+00  0.00000000000E+00  0.37900375280E+03  0.37900375281E+03  0.25500000920E-02 0. -1.
       -2   -1    0    0    0  501  0.00000000000E+00  0.00000000000E+00 -0.81699022357E+03  0.81699022357E+03  0.25500000920E-02 0.  1.
    10030    2    1    2    0    0  0.00000000000E+00  0.00000000000E+00 -0.43798647077E+03  0.11959939764E+04  0.11129103481E+04 0.  0.
        4    1    3    3  502    0 -0.28764536975E+02 -0.13893453947E+03 -0.79722374596E+03  0.80975151674E+03  0.12699999809E+01 0.  1.
       -4    1    3    3    0  502  0.28764536975E+02  0.13893453947E+03  0.35923727519E+03  0.38624245964E+03  0.12699999809E+01 0. -1.
</event>
<event>
 5   0  0.1028016E-02  0.1101449E+04  0.7818609E-02  0.9203780E-01
       -2   -1    0    0    0  501  0.00000000000E+00  0.00000000000E+00  0.30016165515E+03  0.30016165516E+03  0.25500000920E-02 0. -1.
        2   -1    0    0  501    0  0.00000000000E+00  0.00000000000E+00 -0.10104476187E+04  0.10104476187E+04  0.25500000920E-02 0.  1.
    10030    2    1    2    0    0  0.00000000000E+00  0.00000000000E+00 -0.71028596351E+03  0.13106092738E+04  0.11014492810E+04 0.  0.
        2    1    3    3  502    0  0.98858582501E+02 -0.50493343105E+03 -0.12146609176E+03  0.52866322038E+03  0.25500000920E-02 0. -1.
       -2    1    3    3    0  502 -0.98858582501E+02  0.50493343105E+03 -0.58881987175E+03  0.78194605345E+03  0.25500000920E-02 0.  1.
</event>
<event>
 5   0  0.9692981E-03  0.1076441E+04  0.7818609E-02  0.9228463E-01
       -2   -1    0    0    0  501  0.00000000000E+00  0.00000000000E+00  0.69060435752E+03  0.69060435752E+03  0.25500000920E-02 0.  1.
        2   -1    0    0  501    0  0.00000000000E+00  0.00000000000E+00 -0.41946079515E+03  0.41946079515E+03  0.25500000920E-02 0. -1.
    10030    2    1    2    0    0  0.00000000000E+00  0.00000000000E+00  0.27114356237E+03  0.11100651527E+04  0.10764412719E+04 0.  0.
        5    1    3    3  502    0  0.15526300209E+03  0.13262190784E+03 -0.37794260416E+03  0.42960199289E+03  0.46999998093E+01 0. -1.
       -5    1    3    3    0  502 -0.15526300209E+03 -0.13262190784E+03  0.64908616653E+03  0.68046315979E+03  0.46999998093E+01 0.  1.
</event>
<event>
 5   0  0.9692981E-03  0.1197766E+04  0.7818609E-02  0.9114814E-01
       -2   -1    0    0    0  501  0.00000000000E+00  0.00000000000E+00  0.38614101002E+03  0.38614101003E+03  0.25500000920E-02 0. -1.
        2   -1    0    0  501    0  0.00000000000E+00  0.00000000000E+00 -0.92883369061E+03  0.92883369062E+03  0.25500000920E-02 0.  1.
    10030    2    1    2    0    0  0.00000000000E+00  0.00000000000E+00 -0.54269268059E+03  0.13149747006E+04  0.11977658860E+04 0.  0.
        5    1    3    3  502    0  0.43007708596E+03  0.33587631330E+03 -0.54218435287E+03  0.76926273808E+03  0.46999998093E+01 0.  1.
       -5    1    3    3    0  502 -0.43007708596E+03 -0.33587631330E+03 -0.50832772123E+00  0.54571196257E+03  0.46999998093E+01 0. -1.
</event>
<event>
 5   0  0.3949750E-03  0.1149273E+04  0.7818609E-02  0.9158454E-01
        4   -1    0    0  501    0  0.00000000000E+00  0.00000000000E+00  0.27109129960E+03  0.27109427441E+03  0.12699999809E+01 0. -1.
       -4   -1    0    0    0  501  0.00000000000E+00  0.00000000000E+00 -0.12180569096E+04  0.12180575717E+04  0.12699999809E+01 0.  1.
    10030    2    1    2    0    0  0.00000000000E+00  0.00000000000E+00 -0.94696561003E+03  0.14891518461E+04  0.11492734027E+04 0.  0.
        3    1    3    3  502    0  0.10601765853E+03 -0.21134622711E+03  0.20514056940E+03  0.31303296160E+03  0.10100000352E+00 0. -1.
       -3    1    3    3    0  502 -0.10601765853E+03  0.21134622711E+03 -0.11521061794E+04  0.11761188845E+04  0.10100000352E+00 0.  1.
</event>
<event>
 5   0  0.5958706E-03  0.1199021E+04  0.7818609E-02  0.9113714E-01
       -1   -1    0    0    0  501  0.00000000000E+00  0.00000000000E+00  0.22276778332E+03  0.22276778338E+03  0.50400001928E-02 0. -1.
        1   -1    0    0  501    0  0.00000000000E+00  0.00000000000E+00 -0.16133958791E+04  0.16133958791E+04  0.50400001928E-02 0.  1.
    10030    2    1    2    0    0  0.00000000000E+00  0.00000000000E+00 -0.13906280958E+04  0.18361636625E+04  0.11990206398E+04 0.  0.
        2    1    3    3  502    0 -0.20263799823E+03  0.39879022289E+03 -0.13065593704E+04  0.13810116540E+04  0.25500000920E-02 0.  1.
       -2    1    3    3    0  502  0.20263799823E+03 -0.39879022289E+03 -0.84068725386E+02  0.45515200845E+03  0.25500000920E-02 0. -1.
</event>
<event>
 5   0  0.9692981E-03  0.1102034E+04  0.7818609E-02  0.9203211E-01
       -2   -1    0    0    0  501  0.00000000000E+00  0.00000000000E+00  0.64899253139E+03  0.64899253139E+03  0.25500000920E-02 0.  1.
        2   -1    0    0  501    0  0.00000000000E+00  0.00000000000E+00 -0.46783266683E+03  0.46783266683E+03  0.25500000920E-02 0. -1.
    10030    2    1    2    0    0  0.00000000000E+00  0.00000000000E+00  0.18115986456E+03  0.11168251982E+04  0.11020343129E+04 0.  0.
        5    1    3    3  502    0  0.30341415277E+03  0.46445506259E+02  0.55430245137E+03  0.63363288326E+03  0.46999998093E+01 0.  1.
       -5    1    3    3    0  502 -0.30341415277E+03 -0.46445506259E+02 -0.37314258681E+03  0.48319231497E+03  0.46999998093E+01 0. -1.
</event>
<event>
 5   0  0.5998641E-03  0.1083687E+04  0.7818609E-02  0.9221240E-01
        1   -1    0    0  501    0  0.00000000000E+00  0.00000000000E+00  0.10202123411E+04  0.10202123411E+04  0.50400001928E-02 0.  1.
       -1   -1    0    0    0  501  0.00000000000E+00  0.00000000000E+00 -0.28777747070E+03  0.28777747074E+03  0.50400001928E-02 0. -1.
    10030    2    1    2    0    0  0.00000000000E+00  0.00000000000E+00  0.73243487041E+03  0.13079898119E+04  0.10836865361E+04 0.  0.
        3    1    3    3  502    0  0.11048985542E+02 -0.53568233392E+03  0.46365064636E+03  0.70855456743E+03  0.10100000352E+00 0. -1.
       -3    1    3    3    0  502 -0.11048985542E+02  0.53568233392E+03  0.26878422405E+03  0.59943524442E+03  0.10100000352E+00 0.  1.
</event>
<event>
 5   0  0.9719260E-03  0.7371492E+03  0.7818609E-02  0.9655730E-01
        2   -1    0    0  501    0  0.00000000000E+00  0.00000000000E+00  0.43213402682E+03  0.43213402683E+03  0.25500000920E-02 0. -1.
       -2   -1    0    0    0  501  0.00000000000E+00  0.00000000000E+00 -0.31436368693E+03  0.31436368694E+03  0.25500000920E-02 0.  1.
    10030    2    1    2    0    0  0.00000000000E+00  0.00000000000E+00  0.11777033989E+03  0.74649771377E+03  0.73714922757E+03 0.  0.
        3    1    3    3  502    0 -0.10691089892E+03  0.38625913760E+02  0.41393864371E+03  0.42926345347E+03  0.10100000352E+00 0. -1.
       -3    1    3    3    0  502  0.10691089892E+03 -0.38625913760E+02 -0.29616830382E+03  0.31723426031E+03  0.10100000352E+00 0.  1.
</event>
<event>
 5   0  0.5789905E-03  0.1106211E+04  0.7818609E-02  0.9199160E-01
       -1   -1    0    0    0  501  0.00000000000E+00  0.00000000000E+00  0.35035751141E+03  0.35035751145E+03  0.50400001928E-02 0. -1.
        1   -1    0    0  501    0  0.00000000000E+00  0.00000000000E+00 -0.87318104168E+03  0.87318104169E+03  0.50400001928E-02 0.  1.
    10030    2    1    2    0    0  0.00000000000E+00  0.00000000000E+00 -0.52282353027E+03  0.12235385531E+04  0.11062107156E+04 0.  0.
        1    1    3    3  502    0  0.16213774630E+03 -0.24405581411E+03  0.25746451534E+03  0.39005110673E+03  0.50400001928E-02 0. -1.
       -1    1    3    3    0  502 -0.16213774630E+03  0.24405581411E+03 -0.78028804561E+03  0.83348744641E+03  0.50400001928E-02 0.  1.
</event>
<event>
 5   0  0.5958706E-03  0.6505000E+03  0.7818609E-02  0.9805841E-01
        1   -1    0    0  501    0  0.00000000000E+00  0.00000000000E+00  0.10112650900E+04  0.10112650900E+04  0.50400001928E-02 0. -1.
       -1   -1    0    0    0  501  0.00000000000E+00  0.00000000000E+00 -0.10460914513E+03  0.10460914525E+03  0.50400001928E-02 0.  1.
    10030    2    1    2    0    0  0.00000000000E+00  0.00000000000E+00  0.90665594483E+03  0.11158742352E+04  0.65050004346E+03 0.  0.
        2    1    3    3  502    0 -0.18621566562E+03 -0.26639527627E+03  0.47397421803E+03  0.57471234257E+03  0.25500000920E-02 0.  1.
       -2    1    3    3    0  502  0.18621566562E+03  0.26639527627E+03  0.43268172680E+03  0.54116189265E+03  0.25500000920E-02 0. -1.
</event>
<event>
 5   0  0.5712664E-03  0.8580492E+03  0.7818609E-02  0.9479597E-01
       -1   -1    0    0    0  501  0.00000000000E+00  0.00000000000E+00  0.32201215641E+03  0.32201215645E+03  0.50400001928E-02 0. -1.
        1   -1    0    0  501    0  0.00000000000E+00  0.00000000000E+00 -0.57159992350E+03  0.57159992352E+03  0.50400001928E-02 0.  1.
    10030    2    1    2    0    0  0.00000000000E+00  0.00000000000E+00 -0.24958776709E+03  0.89361207997E+03  0.85804923867E+03 0.  0.
        5    1    3    3  502    0 -0.18971500013E+03  0.26886096564E+02 -0.52453205470E+03  0.55845376700E+03  0.46999998093E+01 0.  1.
       -5    1    3    3    0  502  0.18971500013E+03 -0.26886096564E+02  0.27494428761E+03  0.33515831297E+03  0.46999998093E+01 0. -1.
</event>
<event>
 5   0  0.1028016E-02  0.1086798E+04  0.7818609E-02  0.9218156E-01
       -2   -1    0    0    0  501  0.00000000000E+00  0.00000000000E+00  0.22273016287E+03  0.22273016289E+03  0.25500000920E-02 0.  1.
        2   -1    0    0  501    0  0.00000000000E+00  0.00000000000E+00 -0.13257407394E+04  0.13257407394E+04  0.25500000920E-02 0. -1.
    10030    2    1    2    0    0  0.00000000000E+00  0.00000000000E+00 -0.11030105765E+04  0.15484709022E+04  0.10867979588E+04 0.  0.
        2    1    3    3  502    0  0.16407782310E+03  0.50727407808E+03 -0.40184060974E+03  0.66762594165E+03  0.25500000920E-02 0.  1.
       -2    1    3    3    0  502 -0.16407782310E+03 -0.50727407808E+03 -0.70116996675E+03  0.88084496059E+03  0.25500000920E-02 0. -1.
</event>
<event>
 5   0  0.9925021E-03  0.1095066E+04  0.7818609E-02  0.9210014E-01
       -2   -1    0    0    0  501  0.00000000000E+00  0.00000000000E+00  0.12255867011E+04  0.12255867011E+04  0.25500000920E-02 0. -1.
        2   -1    0    0  501    0  0.00000000000E+00  0.00000000000E+00 -0.24461123876E+03  0.24461123877E+03  0.25500000920E-02 0.  1.
    10030    2    1    2    0    0  0.00000000000E+00  0.00000000000E+00  0.98097546232E+03  0.14701979398E+04  0.10950658084E+04 0.  0.
        4    1    3    3  502    0 -0.20236166451E+03 -0.30809406943E+03  0.10340502918E+04  0.10977858706E+04  0.12699999809E+01 0. -1.
       -4    1    3    3    0  502  0.20236166451E+03  0.30809406943E+03 -0.53074829472E+02  0.37241206923E+03  0.12699999809E+01 0.  1.
</event>
<event>
 5   0  0.5998641E-03  0.1107283E+04  0.7818609E-02  0.9198122E-01
       -1   -1    0    0    0  501  0.00000000000E+00  0.00000000000E+00  0.17939370002E+03  0.17939370010E+03  0.50400001928E-02 0.  1.
        1   -1    0    0  501    0  0.00000000000E+00  0.00000000000E+00 -0.17086388363E+04  0.17086388363E+04  0.50400001928E-02 0. -1.
    10030    2    1    2    0    0  0.00000000000E+00  0.00000000000E+00 -0.15292451363E+04  0.18880325364E+04  0.11072832391E+04 0.  0.
        3    1    3    3  502    0  0.38726513964E+03  0.21550972700E+03 -0.13303991963E+04  0.14022769920E+04  0.10100000352E+00 0. -1.
       -3    1    3    3    0  502 -0.38726513964E+03 -0.21550972700E+03 -0.19884594002E+03  0.48575554436E+03  0.10100000352E+00 0.  1.
</event>
<event>
 5   0  0.1028016E-02  0.1068556E+04  0.7818609E-02  0.9236393E-01
        2   -1    0    0  501    0  0.00000000000E+00  0.00000000000E+00  0.97374340143E+03  0.97374340143E+03  0.25500000920E-02 0. -1.
       -2   -1    0    0    0  501  0.00000000000E+00  0.00000000000E+00 -0.29315010715E+03  0.29315010716E+03  0.25500000920E-02 0.  1.
    10030    2    1    2    0    0  0.00000000000E+00  0.00000000000E+00  0.68059329428E+03  0.12668935086E+04  0.10685560022E+04 0.  0.
        2    1    3    3  502    0  0.30566906781E+03 -0.19037831325E+03 -0.12764575644E+03  0.38206140909E+03  0.25500000920E-02 0.  1.
       -2    1    3    3    0  502 -0.30566906781E+03  0.19037831325E+03  0.80823905073E+03  0.88483209950E+03  0.25500000920E-02 0. -1.
</event>
<event>
 5   0  0.5712664E-03  0.6868601E+03  0.7818609E-02  0.9739971E-01
        1   -1    0    0  501    0  0.00000000000E+00  0.00000000000E+00  0.29060463180E+03  0.29060463185E+03  0.50400001928E-02 0.  1.
       -1   -1    0    0    0  501  0.00000000000E+00  0.00000000000E+00 -0.40585797205E+03  0.40585797208E+03  0.50400001928E-02 0. -1.
    10030    2    1    2    0    0  0.00000000000E+00  0.00000000000E+00 -0.11525334025E+03  0.69646260393E+03  0.68686012130E+03 0.  0.
        5    1    3    3  502    0 -0.57209811292E+02  0.25350691280E+03  0.16997384066E+03  0.31056708430E+03  0.46999998093E+01 0.  1.
       -5    1    3    3    0  502  0.57209811292E+02 -0.25350691280E+03 -0.28522718091E+03  0.38589551963E+03  0.46999998093E+01 0. -1.
</event>
<event>
 5   0  0.5712664E-03  0.1109725E+04  0.7818609E-02  0.9195765E-01
        1   -1    0    0  501    0  0.00000000000E+00  0.00000000000E+00  0.41196894423E+03  0.41196894426E+03  0.50400001928E-02 0. -1.
       -1   -1    0    0    0  501  0.00000000000E+00  0.00000000000E+00 -0.74731927036E+03  0.74731927038E+03  0.50400001928E-02 0.  1.
    10030    2    1    2    0    0  0.00000000000E+00  0.00000000000E+00 -0.33535032614E+03  0.11592882146E+04  0.11097248863E+04 0.  0.
        5    1    3    3  502    0  0.89999373692E+02  0.32388242393E+03 -0.62880889284E+03  0.71303746431E+03  0.46999998093E+01 0.  1.
       -5    1    3    3    0  502 -0.89999373692E+02 -0.32388242393E+03  0.29345856670E+03  0.44625075033E+03  0.46999998093E+01 0. -1.
</event>
<event>
 5   0  0.5854579E-03  0.1061335E+04  0.7818609E-02  0.9243719E-01
       -1   -1    0    0    0  501  0.00000000000E+00  0.00000000000E+00  0.26443045745E+03  0.26443045750E+03  0.50400001928E-02 0.  1.
        1   -1    0    0  501    0  0.00000000000E+00  0.00000000000E+00 -0.10649603668E+04  0.10649603668E+04  0.50400001928E-02 0. -1.
    10030    2    1    2    0    0  0.00000000000E+00  0.00000000000E+00 -0.80052990935E+03  0.13293908243E+04  0.10613349274E+04 0.  0.
        4    1    3    3  502    0 -0.71356370429E+02 -0.38342721065E+03 -0.85101114395E+03  0.93612485145E+03  0.12699999809E+01 0. -1.
       -4    1    3    3    0  502  0.71356370429E+02  0.38342721065E+03  0.50481234604E+02  0.39326597287E+03  0.12699999809E+01 0.  1.
</event>
<event>
 5   0  0.5958706E-03  0.1105712E+04  0.7818609E-02  0.9199642E-01
        1   -1    0    0  501    0  0.00000000000E+00  0.00000000000E+00  0.78561462434E+03  0.78561462436E+03  0.50400001928E-02 0.  1.
       -1   -1    0    0    0  501  0.00000000000E+00  0.00000000000E+00 -0.38905835415E+03  0.38905835419E+03  0.50400001928E-02 0. -1.
    10030    2    1    2    0    0  0.00000000000E+00  0.00000000000E+00  0.39655627019E+03  0.11746729785E+04  0.11057123184E+04 0.  0.
        2    1    3    3  502    0 -0.45450046128E+03  0.45447190667E+02  0.52917421736E+03  0.69904325243E+03  0.25500000920E-02 0.  1.
       -2    1    3    3    0  502  0.45450046128E+03 -0.45447190667E+02 -0.13261794717E+03  0.47562972611E+03  0.25500000920E-02 0. -1.
</event>
<event>
 5   0  0.5712664E-03  0.7110074E+03  0.7818609E-02  0.9698591E-01
       -1   -1    0    0    0  501  0.00000000000E+00  0.00000000000E+00  0.30560726019E+03  0.30560726023E+03  0.50400001928E-02 0. -1.
        1   -1    0    0  501    0  0.00000000000E+00  0.00000000000E+00 -0.41354668225E+03  0.41354668228E+03  0.50400001928E-02 0.  1.
    10030    2    1    2    0    0  0.00000000000E+00  0.00000000000E+00 -0.10793942206E+03  0.71915394251E+03  0.71100736578E+03 0.  0.
        5    1    3    3  502    0  0.26630714554E+03 -0.13552590854E+03  0.14078256973E+03  0.33034616630E+03  0.46999998093E+01 0. -1.
       -5    1    3    3    0  502 -0.26630714554E+03  0.13552590854E+03 -0.24872199178E+03  0.38880777621E+03  0.46999998093E+01 0.  1.
</event>
<event>
 5   0  0.5789905E-03  0.1140561E+04  0.7818609E-02  0.9166536E-01
        1   -1    0    0  501    0  0.00000000000E+00  0.00000000000E+00  0.11202440562E+04  0.11202440562E+04  0.50400001928E-02 0.  1.
       -1   -1    0    0    0  501  0.00000000000E+00  0.00000000000E+00 -0.29031154165E+03  0.29031154169E+03  0.50400001928E-02 0. -1.
    10030    2    1    2    0    0  0.00000000000E+00  0.00000000000E+00  0.82993251455E+03  0.14105555979E+04  0.11405608778E+04 0.  0.
        1    1    3    3  502    0 -0.18923900815E+03  0.53727900100E+03  0.44860079145E+03  0.72506744323E+03  0.50400001928E-02 0.  1.
       -1    1    3    3    0  502  0.18923900815E+03 -0.53727900100E+03  0.38133172309E+03  0.68548815466E+03  0.50400001928E-02 0. -1.
</event>
<event>
 5   0  0.9719260E-03  0.1149694E+04  0.7818609E-02  0.9158066E-01
        2   -1    0    0  501    0  0.00000000000E+00  0.00000000000E+00  0.14205800363E+04  0.14205800363E+04  0.25500000920E-02 0. -1.
       -2   -1    0    0    0  501  0.00000000000E+00  0.00000000000E+00 -0.23261545630E+03  0.23261545631E+03  0.25500000920E-02 0.  1.
    10030    2    1    2    0    0  0.00000000000E+00  0.00000000000E+00  0.11879645800E+04  0.16531954926E+04  0.11496936520E+04 0.  0.
        3    1    3    3  502    0  0.51430737227E+03  0.22632742202E+03  0.41956557914E+03  0.70126418740E+03  0.10100000352E+00 0.  1.
       -3    1    3    3    0  502 -0.51430737227E+03 -0.22632742202E+03  0.76839900085E+03  0.95193130520E+03  0.10100000352E+00 0. -1.
</event>
<event>
 5   0  0.9719260E-03  0.1103122E+04  0.7818609E-02  0.9202154E-01
       -2   -1    0    0    0  501  0.00000000000E+00  0.00000000000E+00  0.33258942028E+03  0.33258942029E+03  0.25500000920E-02 0.  1.
        2   -1    0    0  501    0  0.00000000000E+00  0.00000000000E+00 -0.91470010675E+03  0.91470010676E+03  0.25500000920E-02 0. -1.
    10030    2    1    2    0    0  0.00000000000E+00  0.00000000000E+00 -0.58211068647E+03  0.12472895271E+04  0.11031220753E+04 0.  0.
        3    1    3    3  502    0  0.39203406303E+02 -0.23860893710E+03  0.26946203444E+03  0.36205100488E+03  0.10100000352E+00 0.  1.
       -3    1    3    3    0  502 -0.39203406303E+02  0.23860893710E+03 -0.85157272091E+03  0.88523852217E+03  0.10100000352E+00 0. -1.
</event>
<event>
 5   0  0.5712664E-03  0.1077637E+04  0.7818609E-02  0.9227267E-01
       -1   -1    0    0    0  501  0.00000000000E+00  0.00000000000E+00  0.66740664080E+03  0.66740664082E+03  0.50400001928E-02 0.  1.
        1   -1    0    0  501    0  0.00000000000E+00  0.00000000000E+00 -0.43500530426E+03  0.43500530429E+03  0.50400001928E-02 0. -1.
    10030    2    1    2    0    0  0.00000000000E+00  0.00000000000E+00  0.23240133654E+03  0.11024119451E+04  0.10776370982E+04 0.  0.
        5    1    3    3  502    0 -0.43840722110E+03  0.26000511368E+03  0.29485756599E+03  0.58886893692E+03  0.46999998093E+01 0.  1.
       -5    1    3    3    0  502  0.43840722110E+03 -0.26000511368E+03 -0.62456229447E+02  0.51354300818E+03  0.46999998093E+01 0. -1.
</event>
<event>
 5   0  0.5789905E-03  0.1122346E+04  0.7818609E-02  0.9183682E-01
        1   -1    0    0  501    0  0.00000000000E+00  0.00000000000E+00  0.20247575274E+03  0.20247575280E+03  0.50400001928E-02 0.  1.
       -1   -1    0    0    0  501  0.00000000000E+00  0.00000000000E+00 -0.15553219446E+04  0.15553219446E+04  0.50400001928E-02 0. -1.
    10030    2    1    2    0    0  0.00000000000E+00  0.00000000000E+00 -0.13528461919E+04  0.17577976974E+04  0.11223457249E+04 0.  0.
        1    1    3    3  502    0  0.50280451769E+03 -0.15888157906E+02 -0.10659277629E+04  0.11786716304E+04  0.50400001928E-02 0. -1.
       -1    1    3    3    0  502 -0.50280451769E+03  0.15888157906E+02 -0.28691842895E+03  0.57912606699E+03  0.50400001928E-02 0.  1.
</event>
<event>
 5   0  0.5998641E-03  0.1031191E+04  0.7818609E-02  0.9274982E-01
        1   -1    0    0  501    0  0.00000000000E+00  0.00000000000E+00  0.64319595380E+03  0.64319595382E+03  0.50400001928E-02 0. -1.
       -1   -1    0    0    0  501  0.00000000000E+00  0.00000000000E+00 -0.41330889976E+03  0.41330889979E+03  0.50400001928E-02 0.  1.
    10030    2    1    2    0    0  0.00000000000E+00  0.00000000000E+00  0.22988705404E+03  0.10565048536E+04  0.10311907913E+04 0.  0.
        3    1    3    3  502    0 -0.33394931605E+03  0.20540832011E+03 -0.22812551192E+03  0.45360333227E+03  0.10100000352E+00 0.  1.
       -3    1    3    3    0  502  0.33394931605E+03 -0.20540832011E+03  0.45801256595E+03  0.60290152134E+03  0.10100000352E+00 0. -1.
</event>
<event>
 5   0  0.1028016E-02  0.1088243E+04  0.7818609E-02  0.9216727E-01
       -2   -1    0    0    0  501  0.00000000000E+00  0.00000000000E+00  0.47958296396E+03  0.47958296397E+03  0.25500000920E-02 0. -1.
        2   -1    0    0  501    0  0.00000000000E+00  0.00000000000E+00 -0.61734514054E+03  0.61734514055E+03  0.25500000920E-02 0.  1.
    10030    2    1    2    0    0  0.00000000000E+00  0.00000000000E+00 -0.13776217658E+03  0.10969281045E+04  0.10882430102E+04 0.  0.
        2    1    3    3  502    0 -0.22993387787E+03 -0.44180841441E+03  0.15196553353E+03  0.52072813120E+03  0.25500000920E-02 0.  1.
       -2    1    3    3    0  502  0.22993387787E+03  0.44180841441E+03 -0.28972771011E+03  0.57619997331E+03  0.25500000920E-02 0. -1.
</event>
<event>
 5   0  0.1028016E-02  0.1015225E+04  0.7818609E-02  0.9292002E-01
        2   -1    0    0  501    0  0.00000000000E+00  0.00000000000E+00  0.84786745406E+03  0.84786745407E+03  0.25500000920E-02 0. -1.
       -2   -1    0    0    0  501  0.00000000000E+00  0.00000000000E+00 -0.30390423167E+03  0.30390423168E+03  0.25500000920E-02 0.  1.
    10030    2    1    2    0    0  0.00000000000E+00  0.00000000000E+00  0.54396322239E+03  0.11517716857E+04  0.10152251124E+04 0.  0.
        2    1    3    3  502    0 -0.34175555324E+03 -0.26337136356E+02  0.69674500351E+03  0.77649475391E+03  0.25500000920E-02 0. -1.
       -2    1    3    3    0  502  0.34175555324E+03  0.26337136356E+02 -0.15278178112E+03  0.37527693184E+03  0.25500000920E-02 0.  1.
</event>
<event>
 5   0  0.5854579E-03  0.1095340E+04  0.7818609E-02  0.9209746E-01
       -1   -1    0    0    0  501  0.00000000000E+00  0.00000000000E+00  0.25737744650E+03  0.25737744655E+03  0.50400001928E-02 0. -1.
        1   -1    0    0  501    0  0.00000000000E+00  0.00000000000E+00 -0.11653793522E+04  0.11653793522E+04  0.50400001928E-02 0.  1.
    10030    2    1    2    0    0  0.00000000000E+00  0.00000000000E+00 -0.90800190573E+03  0.14227567988E+04  0.10953398777E+04 0.  0.
        4    1    3    3  502    0  0.27819957349E+03 -0.18667885623E+03 -0.10167440131E+04  0.10705204337E+04  0.12699999809E+01 0.  1.
       -4    1    3    3    0  502 -0.27819957349E+03  0.18667885623E+03  0.10874210733E+03  0.35223636505E+03  0.12699999809E+01 0. -1.
</event>
<event>
 5   0  0.1019384E-02  0.1016171E+04  0.7818609E-02  0.9290985E-01
        2   -1    0    0  501    0  0.00000000000E+00  0.00000000000E+00  0.14474806016E+04  0.14474806017E+04  0.25500000920E-02 0. -1.
       -2   -1    0    0    0  501  0.00000000000E+00  0.00000000000E+00 -0.17834489525E+03  0.17834489527E+03  0.25500000920E-02 0.  1.
    10030    2    1    2    0    0  0.00000000000E+00  0.00000000000E+00  0.12691357064E+04  0.16258254969E+04  0.10161708051E+04 0.  0.
        1    1    3    3  502    0  0.43686635526E+03  0.25932451798E+03  0.62332731194E+03  0.80413826909E+03  0.50400001928E-02 0.  1.
       -1    1    3    3    0  502 -0.43686635526E+03 -0.25932451798E+03  0.64580839446E+03  0.82168722782E+03  0.50400001928E-02 0. -1.
</event>
<event>
 5   0  0.5712664E-03  0.1041117E+04  0.7818609E-02  0.9264564E-01
        1   -1    0    0  501    0  0.00000000000E+00  0.00000000000E+00  0.70053597359E+03  0.70053597361E+03  0.50400001928E-02 0.  1.
       -1   -1    0    0    0  501  0.00000000000E+00  0.00000000000E+00 -0.38681970273E+03  0.38681970277E+03  0.50400001928E-02 0. -1.
    10030    2    1    2    0    0  0.00000000000E+00  0.00000000000E+00  0.31371627086E+03  0.10873556764E+04  0.10411169331E+04 0.  0.
        5    1    3    3  502    0 -0.17044571109E+03 -0.19709988740E+02 -0.35641388401E+03  0.39559217738E+03  0.46999998093E+01 0. -1.
       -5    1    3    3    0  502  0.17044571109E+03  0.19709988740E+02  0.67013015487E+03  0.69176349900E+03  0.46999998093E+01 0.  1.
</event>
<event>
 5   0  0.9692981E-03  0.1075314E+04  0.7818609E-02  0.9229592E-01
       -2   -1    0    0    0  501  0.00000000000E+00  0.00000000000E+00  0.20323881644E+03  0.20323881646E+03  0.25500000920E-02 0.  1.
        2   -1    0    0  501    0  0.00000000000E+00  0.00000000000E+00 -0.14223422079E+04  0.14223422079E+04  0.25500000920E-02 0. -1.
    10030    2    1    2    0    0  0.00000000000E+00  0.00000000000E+00 -0.12191033915E+04  0.16255810244E+04  0.10753141809E+04 0.  0.
        5    1    3    3  502    0  0.40828008457E+03 -0.33888484901E+03 -0.74062360824E+03  0.91108780446E+03  0.46999998093E+01 0. -1.
       -5    1    3    3    0  502 -0.40828008457E+03  0.33888484901E+03 -0.47847978322E+03  0.71449321991E+03  0.46999998093E+01 0.  1.
</event>
<event>
 5   0  0.9692981E-03  0.1130381E+04  0.7818609E-02  0.9176076E-01
        2   -1    0    0  501    0  0.00000000000E+00  0.00000000000E+00  0.97421831614E+03  0.97421831615E+03  0.25500000920E-02 0. -1.
       -2   -1    0    0    0  501  0.00000000000E+00  0.00000000000E+00 -0.32789397717E+03  0.32789397718E+03  0.25500000920E-02 0.  1.
    10030    2    1    2    0    0  0.00000000000E+00  0.00000000000E+00  0.64632433898E+03  0.13021122933E+04  0.11303810301E+04 0.  0.
        5    1    3    3  502    0  0.17327472801E+03  0.48598748809E+03  0.57443993653E+02  0.51916266464E+03  0.46999998093E+01 0.  1.
       -5    1    3    3    0  502 -0.17327472801E+03 -0.48598748809E+03  0.58888034533E+03  0.78294962869E+03  0.46999998093E+01 0. -1.
</event>
<event>
 5   0  0.3949750E-03  0.1043260E+04  0.7818609E-02  0.9262330E-01
       -3   -1    0    0    0  501  0.00000000000E+00  0.00000000000E+00  0.20485409038E+03  0.20485411528E+03  0.10100000352E+00 0.  1.
        3   -1    0    0  501    0  0.00000000000E+00  0.00000000000E+00 -0.13282525430E+04  0.13282525469E+04  0.10100000352E+00 0. -1.
    10030    2    1    2    0    0  0.00000000000E+00  0.00000000000E+00 -0.11233984526E+04  0.15331066621E+04  0.10432602523E+04 0.  0.
        3    1    3    3  502    0  0.22687486256E+03 -0.19080681920E+03 -0.11924334103E+04  0.12287297887E+04  0.10100000352E+00 0. -1.
       -3    1    3    3    0  502 -0.22687486256E+03  0.19080681920E+03  0.69034957627E+02  0.30437687345E+03  0.10100000352E+00 0.  1.
</event>
<event>
 5   0  0.1028016E-02  0.1096500E+04  0.7818609E-02  0.9208610E-01
       -2   -1    0    0    0  501  0.00000000000E+00  0.00000000000E+00  0.20863729956E+03  0.20863729957E+03  0.25500000920E-02 0. -1.
        2   -1    0    0  501    0  0.00000000000E+00  0.00000000000E+00 -0.14406717573E+04  0.14406717573E+04  0.25500000920E-02 0.  1.
    10030    2    1    2    0    0  0.00000000000E+00  0.00000000000E+00 -0.12320344577E+04  0.16493090568E+04  0.10964996398E+04 0.  0.
        2    1    3    3  502    0  0.45404842554E+03 -0.47664739308E+02 -0.15942163997E+03  0.48357745957E+03  0.25500000920E-02 0. -1.
       -2    1    3    3    0  502 -0.45404842554E+03  0.47664739308E+02 -0.10726128177E+04  0.11657315973E+04  0.25500000920E-02 0.  1.
</event>
<event>
 5   0  0.5712664E-03  0.1028181E+04  0.7818609E-02  0.9278165E-01
       -1   -1    0    0    0  501  0.00000000000E+00  0.00000000000E+00  0.54416854057E+03  0.54416854059E+03  0.50400001928E-02 0. -1.
        1   -1    0    0  501    0  0.00000000000E+00  0.00000000000E+00 -0.48567541583E+03  0.48567541586E+03  0.50400001928E-02 0.  1.
    10030    2    1    2    0    0  0.00000000000E+00  0.00000000000E+00  0.58493124733E+02  0.10298439564E+04  0.10281814670E+04 0.  0.
        5    1    3    3  502    0  0.14367980498E+03 -0.38700292768E+03 -0.27760158921E+03  0.49749360270E+03  0.46999998093E+01 0.  1.
       -5    1    3    3    0  502 -0.14367980498E+03  0.38700292768E+03  0.33609471395E+03  0.53235035375E+03  0.46999998093E+01 0. -1.
</event>
<event>
 5   0  0.9719260E-03  0.1124353E+04  0.7818609E-02  0.9181776E-01
       -2   -1    0    0    0  501  0.00000000000E+00  0.00000000000E+00  0.43910086158E+03  0.43910086159E+03  0.25500000920E-02 0.  1.
        2   -1    0    0  501    0  0.00000000000E+00  0.00000000000E+00 -0.71974878273E+03  0.71974878273E+03  0.25500000920E-02 0. -1.
    10030    2    1    2    0    0  0.00000000000E+00  0.00000000000E+00 -0.28064792115E+03  0.11588496443E+04  0.11243528105E+04 0.  0.
        3    1    3    3  502    0  0.95013977647E+02  0.28114245524E+03  0.35179117978E+03  0.46024534811E+03  0.10100000352E+00 0.  1.
       -3    1    3    3    0  502 -0.95013977647E+02 -0.28114245524E+03 -0.63243910093E+03  0.69860429620E+03  0.10100000352E+00 0. -1.
</event>
<event>
 5   0  0.5998641E-03  0.1078245E+04  0.7818609E-02  0.9226659E-01
       -1   -1    0    0    0  501  0.00000000000E+00  0.00000000000E+00  0.19171885679E+03  0.19171885685E+03  0.50400001928E-02 0.  1.
        1   -1    0    0  501    0  0.00000000000E+00  0.00000000000E+00 -0.15160385035E+04  0.15160385035E+04  0.50400001928E-02 0. -1.
    10030    2    1    2    0    0  0.00000000000E+00  0.00000000000E+00 -0.13243196468E+04  0.17077573604E+04  0.10782451833E+04 0.  0.
        3    1    3    3  502    0  0.38010102461E+03 -0.28702026113E+03 -0.10622007980E+04  0.11640996370E+04  0.10100000352E+00 0. -1.
       -3    1    3    3    0  502 -0.38010102461E+03  0.28702026113E+03 -0.26211884870E+03  0.54365772344E+03  0.10100000352E+00 0.  1.
</event>
<event>
 5   0  0.9925021E-03  0.1111023E+04  0.7818609E-02  0.9194514E-01
        2   -1    0    0  501    0  0.00000000000E+00  0.00000000000E+00  0.74041599276E+03  0.74041599276E+03  0.25500000920E-02 0. -1.
       -2   -1    0    0    0  501  0.00000000000E+00  0.00000000000E+00 -0.41678359615E+03  0.41678359616E+03  0.25500000920E-02 0.  1.
    10030    2    1    2    0    0  0.00000000000E+00  0.00000000000E+00  0.32363239661E+03  0.11571995889E+04  0.11110233843E+04 0.  0.
        4    1    3    3  502    0  0.19974607828E+03 -0.21606245027E+02 -0.37761461625E+03  0.42773793019E+03  0.12699999809E+01 0.  1.
       -4    1    3    3    0  502 -0.19974607828E+03  0.21606245027E+02  0.70124701286E+03  0.72946165873E+03  0.12699999809E+01 0. -1.
</event>
<event>
 5   0  0.5958706E-03  0.1158882E+04  0.7818609E-02  0.9149629E-01
       -1   -1    0    0    0  501  0.00000000000E+00  0.00000000000E+00  0.26008290021E+03  0.26008290026E+03  0.50400001928E-02 0. -1.
        1   -1    0    0  501    0  0.00000000000E+00  0.00000000000E+00 -0.12909406747E+04  0.12909406747E+04  0.50400001928E-02 0.  1.
    10030    2    1    2    0    0  0.00000000000E+00  0.00000000000E+00 -0.10308577745E+04  0.15510235750E+04  0.11588815206E+04 0.  0.
        2    1    3    3  502    0  0.16583929573E+03 -0.51613596034E+03 -0.24162440895E+03  0.59353294481E+03  0.25500000920E-02 0. -1.
       -2    1    3    3    0  502 -0.16583929573E+03  0.51613596034E+03 -0.78923336554E+03  0.95749063017E+03  0.25500000920E-02 0.  1.
</event>
<event>
 5   0  0.5789905E-03  0.1271922E+04  0.7818609E-02  0.9052133E-01
        1   -1    0    0  501    0  0.00000000000E+00  0.00000000000E+00  0.10280532307E+04  0.10280532307E+04  0.50400001928E-02 0. -1.
       -1   -1    0    0    0  501  0.00000000000E+00  0.00000000000E+00 -0.39340967963E+03  0.39340967967E+03  0.50400001928E-02 0.  1.
    10030    2    1    2    0    0  0.00000000000E+00  0.00000000000E+00  0.63464355103E+03  0.14214629103E+04  0.12719215261E+04 0.  0.
        1    1    3    3  502    0  0.15655630981E+03  0.58188255879E+03  0.54457350885E+03  0.81219301704E+03  0.50400001928E-02 0. -1.
       -1    1    3    3    0  502 -0.15655630981E+03 -0.58188255879E+03  0.90070042183E+02  0.60926989330E+03  0.50400001928E-02 0.  1.
</event>
<event>
 5   0  0.9692981E-03  0.1094122E+04  0.7818609E-02  0.9210940E-01
        2   -1    0    0  501    0  0.00000000000E+00  0.00000000000E+00  0.23214029610E+04  0.23214029610E+04  0.25500000920E-02 0.  1.
       -2   -1    0    0    0  501  0.00000000000E+00  0.00000000000E+00 -0.12892018938E+03  0.12892018941E+03  0.25500000920E-02 0. -1.
    10030    2    1    2    0    0  0.00000000000E+00  0.00000000000E+00  0.21924827716E+04  0.24503231504E+04  0.10941219482E+04 0.  0.
        5    1    3    3  502    0  0.46106713092E+03 -0.29306138593E+03  0.11590180508E+04  0.12813324343E+04  0.46999998093E+01 0. -1.
       -5    1    3    3    0  502 -0.46106713092E+03  0.29306138593E+03  0.10334647207E+04  0.11689907160E+04  0.46999998093E+01 0.  1.
</event>
<event>
 5   0  0.5712664E-03  0.1255363E+04  0.7818609E-02  0.9065731E-01
       -1   -1    0    0    0  501  0.00000000000E+00  0.00000000000E+00  0.16729596055E+04  0.16729596055E+04  0.50400001928E-02 0.  1.
        1   -1    0    0  501    0  0.00000000000E+00  0.00000000000E+00 -0.23550139094E+03  0.23550139099E+03  0.50400001928E-02 0. -1.
    10030    2    1    2    0    0  0.00000000000E+00  0.00000000000E+00  0.14374582145E+04  0.19084609965E+04  0.12553633962E+04 0.  0.
        5    1    3    3  502    0  0.61132169029E+03  0.25066874801E+02  0.93167028032E+03  0.11146183914E+04  0.46999998093E+01 0.  1.
       -5    1    3    3    0  502 -0.61132169029E+03 -0.25066874801E+02  0.50578793423E+03  0.79384260508E+03  0.46999998093E+01 0. -1.
</event>
<event>
 5   0  0.9719260E-03  0.1084873E+04  0.7818609E-02  0.9220063E-01
       -2   -1    0    0    0  501  0.00000000000E+00  0.00000000000E+00  0.31260608382E+03  0.31260608384E+03  0.25500000920E-02 0. -1.
        2   -1    0    0  501    0  0.00000000000E+00  0.00000000000E+00 -0.94123971088E+03  0.94123971088E+03  0.25500000920E-02 0.  1.
    10030    2    1    2    0    0  0.00000000000E+00  0.00000000000E+00 -0.62863362705E+03  0.12538457947E+04  0.10848728220E+04 0.  0.
        3    1    3    3  502    0  0.36582099538E+02  0.30236190936E+03 -0.83308968265E+03  0.88701713838E+03  0.10100000352E+00 0.  1.
       -3    1    3    3    0  502 -0.36582099538E+02 -0.30236190936E+03  0.20445605560E+03  0.36682865634E+03  0.10100000352E+00 0. -1.
</event>
<event>
 5   0  0.1019384E-02  0.6254770E+03  0.7818609E-02  0.9853915E-01
       -2   -1    0    0    0  501  0.00000000000E+00  0.00000000000E+00  0.11558752395E+03  0.11558752398E+03  0.25500000920E-02 0.  1.
        2   -1    0    0  501    0  0.00000000000E+00  0.00000000000E+00 -0.84615853699E+03  0.84615853700E+03  0.25500000920E-02 0. -1.
    10030    2    1    2    0    0  0.00000000000E+00  0.00000000000E+00 -0.73057101304E+03  0.96174606097E+03  0.62547700254E+03 0.  0.
        1    1    3    3  502    0 -0.28600145404E+03 -0.69749084779E+02 -0.20296929500E+03  0.35757279159E+03  0.50400001928E-02 0.  1.
       -1    1    3    3    0  502  0.28600145404E+03  0.69749084779E+02 -0.52760171804E+03  0.60417326939E+03  0.50400001928E-02 0. -1.
</event>
<event>
 5   0  0.5958706E-03  0.1101312E+04  0.7818609E-02  0.9203914E-01
       -1   -1    0    0    0  501  0.00000000000E+00  0.00000000000E+00  0.57300869784E+03  0.57300869786E+03  0.50400001928E-02 0. -1.
        1   -1    0    0  501    0  0.00000000000E+00  0.00000000000E+00 -0.52917521450E+03  0.52917521452E+03  0.50400001928E-02 0.  1.
    10030    2    1    2    0    0  0.00000000000E+00  0.00000000000E+00  0.43833483341E+02  0.11021839124E+04  0.11013119460E+04 0.  0.
        2    1    3    3  502    0  0.77048103027E+02 -0.39612987512E+03  0.39686883436E+03  0.56600367476E+03  0.25500000920E-02 0. -1.
       -2    1    3    3    0  502 -0.77048103027E+02  0.39612987512E+03 -0.35303535102E+03  0.53618023763E+03  0.25500000920E-02 0.  1.
</event>
<event>
 5   0  0.3949750E-03  0.1042907E+04  0.7818609E-02  0.9262698E-01
        4   -1    0    0  501    0  0.00000000000E+00  0.00000000000E+00  0.96742186390E+03  0.96742269750E+03  0.12699999809E+01 0. -1.
       -4   -1    0    0    0  501  0.00000000000E+00  0.00000000000E+00 -0.28106827413E+03  0.28107114335E+03  0.12699999809E+01 0.  1.
    10030    2    1    2    0    0  0.00000000000E+00  0.00000000000E+00  0.68635358977E+03  0.12484938408E+04  0.10429072924E+04 0.  0.
        3    1    3    3  502    0  0.95361248139E+02  0.50137148801E+03  0.21509660705E+03  0.55383544235E+03  0.10100000352E+00 0.  1.
       -3    1    3    3    0  502 -0.95361248139E+02 -0.50137148801E+03  0.47125698272E+03  0.69465839850E+03  0.10100000352E+00 0. -1.
</event>
<event>
 5   0  0.9719260E-03  0.1097321E+04  0.7818609E-02  0.9207807E-01
        2   -1    0    0  501    0  0.00000000000E+00  0.00000000000E+00  0.96802924548E+03  0.96802924548E+03  0.25500000920E-02 0.  1.
       -2   -1    0    0    0  501  0.00000000000E+00  0.00000000000E+00 -0.31097017555E+03  0.31097017556E+03  0.25500000920E-02 0. -1.
    10030    2    1    2    0    0  0.00000000000E+00  0.00000000000E+00  0.65705906993E+03  0.12789994210E+04  0.10973207816E+04 0.  0.
        3    1    3    3  502    0  0.16903259233E+03  0.22050309492E+02 -0.27932159594E+03  0.32722896812E+03  0.10100000352E+00 0. -1.
       -3    1    3    3    0  502 -0.16903259233E+03 -0.22050309492E+02  0.93638066588E+03  0.95177045292E+03  0.10100000352E+00 0.  1.
</event>
<event>
 5   0  0.9719260E-03  0.1078730E+04  0.7818609E-02  0.9226175E-01
        2   -1    0    0  501    0  0.00000000000E+00  0.00000000000E+00  0.13082276347E+04  0.13082276347E+04  0.25500000920E-02 0. -1.
       -2   -1    0    0    0  501  0.00000000000E+00  0.00000000000E+00 -0.22237307884E+03  0.22237307885E+03  0.25500000920E-02 0.  1.
    10030    2    1    2    0    0  0.00000000000E+00  0.00000000000E+00  0.10858545559E+04  0.15306007136E+04  0.10787300069E+04 0.  0.
        3    1    3    3  502    0  0.32604645733E+03 -0.33959902738E+03  0.16945737004E+03  0.50034948006E+03  0.10100000352E+00 0.  1.
       -3    1    3    3    0  502 -0.32604645733E+03  0.33959902738E+03  0.91639718582E+03  0.10302512335E+04  0.10100000352E+00 0. -1.
</event>
<event>
 5   0  0.5854579E-03  0.1094211E+04  0.7818609E-02  0.9210852E-01
       -1   -1    0    0    0  501  0.00000000000E+00  0.00000000000E+00  0.15084120885E+03  0.15084120894E+03  0.50400001928E-02 0. -1.
        1   -1    0    0  501    0  0.00000000000E+00  0.00000000000E+00 -0.19843689293E+04  0.19843689294E+04  0.50400001928E-02 0.  1.
    10030    2    1    2    0    0  0.00000000000E+00  0.00000000000E+00 -0.18335277205E+04  0.21352101383E+04  0.10942113292E+04 0.  0.
        4    1    3    3  502    0 -0.33063881537E+03 -0.36000753894E+03 -0.13963226480E+04  0.14794073153E+04  0.12699999809E+01 0.  1.
       -4    1    3    3    0  502  0.33063881537E+03  0.36000753894E+03 -0.43720507244E+03  0.65580282295E+03  0.12699999809E+01 0. -1.
</event>
<event>
 5   0  0.5854579E-03  0.1077426E+04  0.7818609E-02  0.9227477E-01
        1   -1    0    0  501    0  0.00000000000E+00  0.00000000000E+00  0.15726468042E+04  0.15726468042E+04  0.50400001928E-02 0.  1.
       -1   -1    0    0    0  501  0.00000000000E+00  0.00000000000E+00 -0.18453721309E+03  0.18453721316E+03  0.50400001928E-02 0. -1.
    10030    2    1    2    0    0  0.00000000000E+00  0.00000000000E+00  0.13881095911E+04  0.17571840174E+04  0.10774263010E+04 0.  0.
        4    1    3    3  502    0  0.68971612231E+02 -0.30358577700E+02 -0.17589634700E+03  0.19136317389E+03  0.12699999809E+01 0. -1.
       -4    1    3    3    0  502 -0.68971612231E+02  0.30358577700E+02  0.15640059381E+04  0.15658208435E+04  0.12699999809E+01 0.  1.
</event>
<event>
 5   0  0.5789905E-03  0.1125950E+04  0.7818609E-02  0.9180262E-01
       -1   -1    0    0    0  501  0.00000000000E+00  0.00000000000E+00  0.19200194453E+04  0.19200194453E+04  0.50400001928E-02 0.  1.
        1   -1    0    0  501    0  0.00000000000E+00  0.00000000000E+00 -0.16507172855E+03  0.16507172863E+03  0.50400001928E-02 0. -1.
    10030    2    1    2    0    0  0.00000000000E+00  0.00000000000E+00  0.17549477167E+04  0.20850911739E+04  0.11259501388E+04 0.  0.
        1    1    3    3  502    0  0.49099285890E+03  0.19887675600E+03  0.52457619809E+03  0.74552407017E+03  0.50400001928E-02 0.  1.
       -1    1    3    3    0  502 -0.49099285890E+03 -0.19887675600E+03  0.12303715186E+04  0.13395671037E+04  0.50400001928E-02 0. -1.
</event>
<event>
 5   0  0.5789905E-03  0.1121980E+04  0.7818609E-02  0.9184030E-01
       -1   -1    0    0    0  501  0.00000000000E+00  0.00000000000E+00  0.31808910675E+03  0.31808910679E+03  0.50400001928E-02 0. -1.
        1   -1    0    0  501    0  0.00000000000E+00  0.00000000000E+00 -0.98937549256E+03  0.98937549258E+03  0.50400001928E-02 0.  1.
    10030    2    1    2    0    0  0.00000000000E+00  0.00000000000E+00 -0.67128638581E+03  0.13074645994E+04  0.11219796196E+04 0.  0.
        1    1    3    3  502    0  0.52095725922E+03  0.16681419829E+03 -0.48065933149E+03  0.72818736302E+03  0.50400001928E-02 0.  1.
       -1    1    3    3    0  502 -0.52095725922E+03 -0.16681419829E+03 -0.19062705433E+03  0.57927723635E+03  0.50400001928E-02 0. -1.
</event>
<event>
 5   0  0.5958706E-03  0.1111371E+04  0.7818609E-02  0.9194180E-01
        1   -1    0    0  501    0  0.00000000000E+00  0.00000000000E+00  0.86061705881E+03  0.86061705882E+03  0.50400001928E-02 0. -1.
       -1   -1    0    0    0  501  0.00000000000E+00  0.00000000000E+00 -0.35879621451E+03  0.35879621455E+03  0.50400001928E-02 0.  1.
    10030    2    1    2    0    0  0.00000000000E+00  0.00000000000E+00  0.50182084430E+03  0.12194132734E+04  0.11113705824E+04 0.  0.
        2    1    3    3  502    0  0.35763048770E+03  0.10718743310E+03  0.70250158153E+03  0.79554835403E+03  0.25500000920E-02 0. -1.
       -2    1    3    3    0  502 -0.35763048770E+03 -0.10718743310E+03 -0.20068073723E+03  0.42386491934E+03  0.25500000920E-02 0.  1.
</event>
<event>
 5   0  0.5712664E-03  0.1143804E+04  0.7818609E-02  0.9163519E-01
        1   -1    0    0  501    0  0.00000000000E+00  0.00000000000E+00  0.52454656550E+03  0.52454656553E+03  0.50400001928E-02 0. -1.
       -1   -1    0    0    0  501  0.00000000000E+00  0.00000000000E+00 -0.62353246348E+03  0.62353246350E+03  0.50400001928E-02 0.  1.
    10030    2    1    2    0    0  0.00000000000E+00  0.00000000000E+00 -0.98985897973E+02  0.11480790290E+04  0.11438038507E+04 0.  0.
        5    1    3    3  502    0  0.35938210438E+03  0.64714475730E+02 -0.49125871719E+03  0.61212799114E+03  0.46999998093E+01 0.  1.
       -5    1    3    3    0  502 -0.35938210438E+03 -0.64714475730E+02  0.39227281922E+03  0.53595103789E+03  0.46999998093E+01 0. -1.
</event>
<event>
 5   0  0.3949750E-03  0.1136210E+04  0.7818609E-02  0.9170600E-01
        3   -1    0    0  501    0  0.00000000000E+00  0.00000000000E+00  0.50267562391E+03  0.50267563406E+03  0.10100000352E+00 0. -1.
       -3   -1    0    0    0  501  0.00000000000E+00  0.00000000000E+00 -0.64205124795E+03  0.64205125590E+03  0.10100000352E+00 0.  1.
    10030    2    1    2    0    0  0.00000000000E+00  0.00000000000E+00 -0.13937562404E+03  0.11447268900E+04  0.11362104066E+04 0.  0.
        3    1    3    3  502    0  0.26868163043E+02  0.32591314444E+03 -0.53771501051E+03  0.62934785185E+03  0.10100000352E+00 0.  1.
       -3    1    3    3    0  502 -0.26868163043E+02 -0.32591314444E+03  0.39833938647E+03  0.51537903811E+03  0.10100000352E+00 0. -1.
</event>
<event>
 5   0  0.5958706E-03  0.1074695E+04  0.7818609E-02  0.9230213E-01
        1   -1    0    0  501    0  0.00000000000E+00  0.00000000000E+00  0.14525664433E+04  0.14525664433E+04  0.50400001928E-02 0. -1.
       -1   -1    0    0    0  501  0.00000000000E+00  0.00000000000E+00 -0.19878086480E+03  0.19878086486E+03  0.50400001928E-02 0.  1.
    10030    2    1    2    0    0  0.00000000000E+00  0.00000000000E+00  0.12537855785E+04  0.16513473082E+04  0.10746951453E+04 0.  0.
        2    1    3    3  502    0 -0.47949420481E+00  0.42892278565E+03  0.11242475469E+04  0.12032902944E+04  0.25500000920E-02 0. -1.
       -2    1    3    3    0  502  0.47949420481E+00 -0.42892278565E+03  0.12953803167E+03  0.44805701381E+03  0.25500000920E-02 0.  1.
</event>
<event>
 5   0  0.1019384E-02  0.1140763E+04  0.7818609E-02  0.9166347E-01
       -2   -1    0    0    0  501  0.00000000000E+00  0.00000000000E+00  0.20234336850E+03  0.20234336851E+03  0.25500000920E-02 0.  1.
        2   -1    0    0  501    0  0.00000000000E+00  0.00000000000E+00 -0.16078377364E+04  0.16078377364E+04  0.25500000920E-02 0. -1.
    10030    2    1    2    0    0  0.00000000000E+00  0.00000000000E+00 -0.14054943679E+04  0.18101811049E+04  0.11407634349E+04 0.  0.
        1    1    3    3  502    0 -0.14699349731E+03  0.54721191363E+03 -0.59884606110E+03  0.82441771669E+03  0.50400001928E-02 0. -1.
       -1    1    3    3    0  502  0.14699349731E+03 -0.54721191363E+03 -0.80664830676E+03  0.98576338819E+03  0.50400001928E-02 0.  1.
</event>
<event>
 5   0  0.1019384E-02  0.1109474E+04  0.7818609E-02  0.9196007E-01
       -2   -1    0    0    0  501  0.00000000000E+00  0.00000000000E+00  0.29142362625E+03  0.29142362626E+03  0.25500000920E-02 0.  1.
        2   -1    0    0  501    0  0.00000000000E+00  0.00000000000E+00 -0.10559652679E+04  0.10559652679E+04  0.25500000920E-02 0. -1.
    10030    2    1    2    0    0  0.00000000000E+00  0.00000000000E+00 -0.76454164169E+03  0.13473888942E+04  0.11094741594E+04 0.  0.
        1    1    3    3  502    0  0.27474407390E+03  0.17584703681E+03 -0.92718298591E+03  0.98289102950E+03  0.50400001928E-02 0. -1.
       -1    1    3    3    0  502 -0.27474407390E+03 -0.17584703681E+03  0.16264134422E+03  0.36449786470E+03  0.50400001928E-02 0.  1.
</event>
<event>
 5   0  0.1028016E-02  0.1131217E+04  0.7818609E-02  0.9175289E-01
       -2   -1    0    0    0  501  0.00000000000E+00  0.00000000000E+00  0.24716118514E+03  0.24716118515E+03  0.25500000920E-02 0. -1.
        2   -1    0    0  501    0  0.00000000000E+00  0.00000000000E+00 -0.12943491404E+04  0.12943491404E+04  0.25500000920E-02 0.  1.
    10030    2    1    2    0    0  0.00000000000E+00  0.00000000000E+00 -0.10471879553E+04  0.15415103256E+04  0.11312168095E+04 0.  0.
        2    1    3    3  502    0  0.47810607433E+03 -0.26035218374E+03 -0.73268840661E+03  0.91279843289E+03  0.25500000920E-02 0. -1.
       -2    1    3    3    0  502 -0.47810607433E+03  0.26035218374E+03 -0.31449954868E+03  0.62871189270E+03  0.25500000920E-02 0.  1.
</event>
<event>
 5   0  0.5958706E-03  0.1115843E+04  0.7818609E-02  0.9189887E-01
        1   -1    0    0  501    0  0.00000000000E+00  0.00000000000E+00  0.16600040840E+04  0.16600040840E+04  0.50400001928E-02 0.  1.
       -1   -1    0    0    0  501  0.00000000000E+00  0.00000000000E+00 -0.18751537216E+03  0.18751537223E+03  0.50400001928E-02 0. -1.
    10030    2    1    2    0    0  0.00000000000E+00  0.00000000000E+00  0.14724887118E+04  0.18475194562E+04  0.11158427912E+04 0.  0.
        2    1    3    3  502    0 -0.10303529332E+03  0.17831927865E+03 -0.12227663946E+03  0.23951119676E+03  0.25500000920E-02 0. -1.
       -2    1    3    3    0  502  0.10303529332E+03 -0.17831927865E+03  0.15947653513E+04  0.16080082595E+04  0.25500000920E-02 0.  1.
</event>
<event>
 5   0  0.5854579E-03  0.1063904E+04  0.7818609E-02  0.9241106E-01
       -1   -1    0    0    0  501  0.00000000000E+00  0.00000000000E+00  0.15141470123E+03  0.15141470131E+03  0.50400001928E-02 0.  1.
        1   -1    0    0  501    0  0.00000000000E+00  0.00000000000E+00 -0.18688605483E+04  0.18688605483E+04  0.50400001928E-02 0. -1.
    10030    2    1    2    0    0  0.00000000000E+00  0.00000000000E+00 -0.17174458471E+04  0.20202752496E+04  0.10639040589E+04 0.  0.
        4    1    3    3  502    0  0.22779433779E+03  0.23518173890E+03 -0.62597959556E+02  0.33334790847E+03  0.12699999809E+01 0.  1.
       -4    1    3    3    0  502 -0.22779433779E+03 -0.23518173890E+03 -0.16548478875E+04  0.16869273412E+04  0.12699999809E+01 0. -1.
</event>
<event>
 5   0  0.5789905E-03  0.1078792E+04  0.7818609E-02  0.9226112E-01
        1   -1    0    0  501    0  0.00000000000E+00  0.00000000000E+00  0.95098620160E+03  0.95098620161E+03  0.50400001928E-02 0. -1.
       -1   -1    0    0    0  501  0.00000000000E+00  0.00000000000E+00 -0.30594363292E+03  0.30594363296E+03  0.50400001928E-02 0.  1.
    10030    2    1    2    0    0  0.00000000000E+00  0.00000000000E+00  0.64504256868E+03  0.12569298346E+04  0.10787922384E+04 0.  0.
        1    1    3    3  502    0  0.14450386261E+03 -0.17960978694E+03  0.89070091328E+03  0.92004845460E+03  0.50400001928E-02 0. -1.
       -1    1    3    3    0  502 -0.14450386261E+03  0.17960978694E+03 -0.24565834459E+03  0.33688137997E+03  0.50400001928E-02 0.  1.
</event>
<event>
 5   0  0.5958706E-03  0.1094271E+04  0.7818609E-02  0.9210793E-01
        1   -1    0    0  501    0  0.00000000000E+00  0.00000000000E+00  0.20342612610E+04  0.20342612610E+04  0.50400001928E-02 0.  1.
       -1   -1    0    0    0  501  0.00000000000E+00  0.00000000000E+00 -0.14715783014E+03  0.14715783022E+03  0.50400001928E-02 0. -1.
    10030    2    1    2    0    0  0.00000000000E+00  0.00000000000E+00  0.18871034309E+04  0.21814190913E+04  0.10942713982E+04 0.  0.
        2    1    3    3  502    0 -0.14961081229E+03 -0.25760984788E+03  0.18584121352E+04  0.18821375861E+04  0.25500000920E-02 0.  1.
       -2    1    3    3    0  502  0.14961081229E+03  0.25760984788E+03  0.28691295736E+02  0.29928150517E+03  0.25500000920E-02 0. -1.
</event>
<event>
 5   0  0.3949750E-03  0.8336917E+03  0.7818609E-02  0.9512491E-01
       -4   -1    0    0    0  501  0.00000000000E+00  0.00000000000E+00  0.50853268050E+03  0.50853426634E+03  0.12699999809E+01 0. -1.
        4   -1    0    0  501    0  0.00000000000E+00  0.00000000000E+00 -0.34168659397E+03  0.34168895416E+03  0.12699999809E+01 0.  1.
    10030    2    1    2    0    0  0.00000000000E+00  0.00000000000E+00  0.16684608653E+03  0.85022322050E+03  0.83369173445E+03 0.  0.
        4    1    3    3  502    0  0.32114912159E+03 -0.90090027898E+02  0.33839237584E+03  0.47514627679E+03  0.12699999809E+01 0. -1.
       -4    1    3    3    0  502 -0.32114912159E+03  0.90090027898E+02 -0.17154628930E+03  0.37507694371E+03  0.12699999809E+01 0.  1.
</event>
<event>
 5   0  0.9719260E-03  0.1091381E+04  0.7818609E-02  0.9213634E-01
       -2   -1    0    0    0  501  0.00000000000E+00  0.00000000000E+00  0.18883963564E+03  0.18883963565E+03  0.25500000920E-02 0.  1.
        2   -1    0    0  501    0  0.00000000000E+00  0.00000000000E+00 -0.15768828343E+04  0.15768828343E+04  0.25500000920E-02 0. -1.
    10030    2    1    2    0    0  0.00000000000E+00  0.00000000000E+00 -0.13880431987E+04  0.17657224700E+04  0.10913807400E+04 0.  0.
        3    1    3    3  502    0  0.39901010591E+03 -0.13566607813E+03 -0.13318976089E+03  0.44198854281E+03  0.10100000352E+00 0.  1.
       -3    1    3    3    0  502 -0.39901010591E+03  0.13566607813E+03 -0.12548534378E+04  0.13237339272E+04  0.10100000352E+00 0. -1.
</event>
<event>
 5   0  0.1019384E-02  0.1105254E+04  0.7818609E-02  0.9200086E-01
        2   -1    0    0  501    0  0.00000000000E+00  0.00000000000E+00  0.13056838574E+04  0.13056838574E+04  0.25500000920E-02 0. -1.
       -2   -1    0    0    0  501  0.00000000000E+00  0.00000000000E+00 -0.23389775736E+03  0.23389775738E+03  0.25500000920E-02 0.  1.
    10030    2    1    2    0    0  0.00000000000E+00  0.00000000000E+00  0.10717861000E+04  0.15395816147E+04  0.11052538642E+04 0.  0.
        1    1    3    3  502    0  0.33443577440E+02 -0.54600023734E+03  0.64523687493E+03  0.84591096272E+03  0.50400001928E-02 0. -1.
       -1    1    3    3    0  502 -0.33443577440E+02  0.54600023734E+03  0.42654922507E+03  0.69367065203E+03  0.50400001928E-02 0.  1.
</event>
<event>
 5   0  0.9719260E-03  0.1095723E+04  0.7818609E-02  0.9209371E-01
        2   -1    0    0  501    0  0.00000000000E+00  0.00000000000E+00  0.69551852159E+03  0.69551852159E+03  0.25500000920E-02 0. -1.
       -2   -1    0    0    0  501  0.00000000000E+00  0.00000000000E+00 -0.43155156774E+03  0.43155156775E+03  0.25500000920E-02 0.  1.
    10030    2    1    2    0    0  0.00000000000E+00  0.00000000000E+00  0.26396695385E+03  0.11270700893E+04  0.10957227905E+04 0.  0.
        3    1    3    3  502    0 -0.20431111021E+03  0.48324574371E+03  0.29423854834E+03  0.60153621013E+03  0.10100000352E+00 0. -1.
       -3    1    3    3    0  502  0.20431111021E+03 -0.48324574371E+03 -0.30271594492E+02  0.52553387921E+03  0.10100000352E+00 0.  1.
</event>
<event>
 5   0  0.5854579E-03  0.1133891E+04  0.7818609E-02  0.9172775E-01
        1   -1    0    0  501    0  0.00000000000E+00  0.00000000000E+00  0.37103011495E+03  0.37103011499E+03  0.50400001928E-02 0. -1.
       -1   -1    0    0    0  501  0.00000000000E+00  0.00000000000E+00 -0.86630981016E+03  0.86630981018E+03  0.50400001928E-02 0.  1.
    10030    2    1    2    0    0  0.00000000000E+00  0.00000000000E+00 -0.49527969521E+03  0.12373399252E+04  0.11338906975E+04 0.  0.
        4    1    3    3  502    0  0.33111660980E+03  0.35079082086E+03 -0.57269752809E+03  0.74878333373E+03  0.12699999809E+01 0.  1.
       -4    1    3    3    0  502 -0.33111660980E+03 -0.35079082086E+03  0.77417832884E+02  0.48855659144E+03  0.12699999809E+01 0. -1.
</event>
<event>
 5   0  0.1028016E-02  0.1087089E+04  0.7818609E-02  0.9217868E-01
        2   -1    0    0  501    0  0.00000000000E+00  0.00000000000E+00  0.12341266388E+04  0.12341266388E+04  0.25500000920E-02 0.  1.
       -2   -1    0    0    0  501  0.00000000000E+00  0.00000000000E+00 -0.23939232751E+03  0.23939232753E+03  0.25500000920E-02 0. -1.
    10030    2    1    2    0    0  0.00000000000E+00  0.00000000000E+00  0.99473431129E+03  0.14735189663E+04  0.10870886781E+04 0.  0.
        2    1    3    3  502    0  0.12123333851E+03 -0.30236350675E+03 -0.92410247795E+02  0.33861610488E+03  0.25500000920E-02 0. -1.
       -2    1    3    3    0  502 -0.12123333851E+03  0.30236350675E+03  0.10871445591E+04  0.11349028615E+04  0.25500000920E-02 0.  1.
</event>
<event>
 5   0  0.1028016E-02  0.1113299E+04  0.7818609E-02  0.9192326E-01
        2   -1    0    0  501    0  0.00000000000E+00  0.00000000000E+00  0.50716290712E+03  0.50716290712E+03  0.25500000920E-02 0. -1.
       -2   -1    0    0    0  501  0.00000000000E+00  0.00000000000E+00 -0.61096487127E+03  0.61096487127E+03  0.25500000920E-02 0.  1.
    10030    2    1    2    0    0  0.00000000000E+00  0.00000000000E+00 -0.10380196415E+03  0.11181277784E+04  0.11132990978E+04 0.  0.
        2    1    3    3  502    0 -0.41645015081E+02  0.34427303417E+03  0.38541898700E+03  0.51846506621E+03  0.25500000920E-02 0. -1.
       -2    1    3    3    0  502  0.41645015081E+02 -0.34427303417E+03 -0.48922095115E+03  0.59966271218E+03  0.25500000920E-02 0.  1.
</event>
<event>
 5   0  0.5854579E-03  0.1084707E+04  0.7818609E-02  0.9220227E-01
       -1   -1    0    0    0  501  0.00000000000E+00  0.00000000000E+00  0.33282626975E+03  0.33282626979E+03  0.50400001928E-02 0. -1.
        1   -1    0    0  501    0  0.00000000000E+00  0.00000000000E+00 -0.88378641913E+03  0.88378641915E+03  0.50400001928E-02 0.  1.
    10030    2    1    2    0    0  0.00000000000E+00  0.00000000000E+00 -0.55096014938E+03  0.12166126889E+04  0.10847070336E+04 0.  0.
        4    1    3    3  502    0  0.10630550379E+03  0.22214938678E+03 -0.81745379192E+03  0.85374675695E+03  0.12699999809E+01 0.  1.
       -4    1    3    3    0  502 -0.10630550379E+03 -0.22214938678E+03  0.26649364254E+03  0.36286593199E+03  0.12699999809E+01 0. -1.
</event>
<event>
 5   0  0.5958706E-03  0.1064889E+04  0.7818609E-02  0.9240106E-01
        1   -1    0    0  501    0  0.00000000000E+00  0.00000000000E+00  0.80440199496E+03  0.80440199498E+03  0.50400001928E-02 0.  1.
       -1   -1    0    0    0  501  0.00000000000E+00  0.00000000000E+00 -0.35243202019E+03  0.35243202023E+03  0.50400001928E-02 0. -1.
    10030    2    1    2    0    0  0.00000000000E+00  0.00000000000E+00  0.45196997477E+03  0.11568340152E+04  0.10648887644E+04 0.  0.
        2    1    3    3  502    0  0.47394499276E+03 -0.24258262028E+03  0.22035732072E+03  0.57621830292E+03  0.25500000920E-02 0. -1.
       -2    1    3    3    0  502 -0.47394499276E+03  0.24258262028E+03  0.23161265406E+03  0.58061571228E+03  0.25500000920E-02 0.  1.
</event>
<event>
 5   0  0.5712664E-03  0.1112180E+04  0.7818609E-02  0.9193401E-01
        1   -1    0    0  501    0  0.00000000000E+00  0.00000000000E+00  0.34248682463E+03  0.34248682467E+03  0.50400001928E-02 0.  1.
       -1   -1    0    0    0  501  0.00000000000E+00  0.00000000000E+00 -0.90291354438E+03  0.90291354440E+03  0.50400001928E-02 0. -1.
    10030    2    1    2    0    0  0.00000000000E+00  0.00000000000E+00 -0.56042671975E+03  0.12454003691E+04  0.11121798286E+04 0.  0.
        5    1    3    3  502    0 -0.25387739745E+03 -0.48633922456E+03 -0.17860064146E+03  0.57697474243E+03  0.46999998093E+01 0.  1.
       -5    1    3    3    0  502  0.25387739745E+03  0.48633922456E+03 -0.38182607829E+03  0.66842562663E+03  0.46999998093E+01 0. -1.
</event>
<event>
 5   0  0.9925021E-03  0.1121713E+04  0.7818609E-02  0.9184284E-01
       -2   -1    0    0    0  501  0.00000000000E+00  0.00000000000E+00  0.44917709273E+03  0.44917709274E+03  0.25500000920E-02 0.  1.
        2   -1    0    0  501    0  0.00000000000E+00  0.00000000000E+00 -0.70030251653E+03  0.70030251654E+03  0.25500000920E-02 0. -1.
    10030    2    1    2    0    0  0.00000000000E+00  0.00000000000E+00 -0.25112542380E+03  0.11494796093E+04  0.11217127055E+04 0.  0.
        4    1    3    3  502    0  0.41078637993E+03 -0.16214559226E+03  0.22871417361E+03  0.49734136077E+03  0.12699999809E+01 0.  1.
       -4    1    3    3    0  502 -0.41078637993E+03  0.16214559226E+03 -0.47983959741E+03  0.65213824851E+03  0.12699999809E+01 0. -1.
</event>
<event>
 5   0  0.5712664E-03  0.1119990E+04  0.7818609E-02  0.9185924E-01
        1   -1    0    0  501    0  0.00000000000E+00  0.00000000000E+00  0.96894318180E+03  0.96894318182E+03  0.50400001928E-02 0.  1.
       -1   -1    0    0    0  501  0.00000000000E+00  0.00000000000E+00 -0.32364579935E+03  0.32364579939E+03  0.50400001928E-02 0. -1.
    10030    2    1    2    0    0  0.00000000000E+00  0.00000000000E+00  0.64529738245E+03  0.12925889812E+04  0.11199899832E+04 0.  0.
        5    1    3    3  502    0  0.39238624319E+02 -0.16747494894E+03 -0.29237782113E+03  0.33925566826E+03  0.46999998093E+01 0. -1.
       -5    1    3    3    0  502 -0.39238624319E+02  0.16747494894E+03  0.93767520358E+03  0.95333331295E+03  0.46999998093E+01 0.  1.
</event>
<event>
 5   0  0.1019384E-02  0.1084942E+04  0.7818609E-02  0.9219994E-01
        2   -1    0    0  501    0  0.00000000000E+00  0.00000000000E+00  0.10300847490E+04  0.10300847491E+04  0.25500000920E-02 0.  1.
       -2   -1    0    0    0  501  0.00000000000E+00  0.00000000000E+00 -0.28568010564E+03  0.28568010565E+03  0.25500000920E-02 0. -1.
    10030    2    1    2    0    0  0.00000000000E+00  0.00000000000E+00  0.74440464341E+03  0.13157648547E+04  0.10849418785E+04 0.  0.
        1    1    3    3  502    0 -0.88129643522E+02  0.53029481335E+03  0.46045277836E+03  0.70781083932E+03  0.50400001928E-02 0.  1.
       -1    1    3    3    0  502  0.88129643522E+02 -0.53029481335E+03  0.28395186504E+03  0.60795401538E+03  0.50400001928E-02 0. -1.
</event>
<event>
 5   0  0.5712664E-03  0.1110373E+04  0.7818609E-02  0.9195140E-01
        1   -1    0    0  501    0  0.00000000000E+00  0.00000000000E+00  0.70258837872E+03  0.70258837874E+03  0.50400001928E-02 0.  1.
       -1   -1    0    0    0  501  0.00000000000E+00  0.00000000000E+00 -0.43870948642E+03  0.43870948645E+03  0.50400001928E-02 0. -1.
    10030    2    1    2    0    0  0.00000000000E+00  0.00000000000E+00  0.26387889230E+03  0.11412978652E+04  0.11103732468E+04 0.  0.
        5    1    3    3  502    0  0.33632937532E+03  0.44029782298E+03  0.16799452479E+03  0.57898520878E+03  0.46999998093E+01 0.  1.
       -5    1    3    3    0  502 -0.33632937532E+03 -0.44029782298E+03  0.95884367507E+02  0.56231265641E+03  0.46999998093E+01 0. -1.
</event>
<event>
 5   0  0.5789905E-03  0.1132074E+04  0.7818609E-02  0.9174482E-01
       -1   -1    0    0    0  501  0.00000000000E+00  0.00000000000E+00  0.24277862849E+03  0.24277862855E+03  0.50400001928E-02 0.  1.
        1   -1    0    0  501    0  0.00000000000E+00  0.00000000000E+00 -0.13197120970E+04  0.13197120970E+04  0.50400001928E-02 0. -1.
    10030    2    1    2    0    0  0.00000000000E+00  0.00000000000E+00 -0.10769334685E+04  0.15624907255E+04  0.11320740134E+04 0.  0.
        1    1    3    3  502    0 -0.30322634658E+03 -0.37025139504E+03 -0.12127669096E+03  0.49370066699E+03  0.50400001928E-02 0.  1.
       -1    1    3    3    0  502  0.30322634658E+03  0.37025139504E+03 -0.95565677750E+03  0.10687900585E+04  0.50400001928E-02 0. -1.
</event>
<event>
 5   0  0.5789905E-03  0.1080602E+04  0.7818609E-02  0.9224308E-01
       -1   -1    0    0    0  501  0.00000000000E+00  0.00000000000E+00  0.65970245978E+03  0.65970245980E+03  0.50400001928E-02 0.  1.
        1   -1    0    0  501    0  0.00000000000E+00  0.00000000000E+00 -0.44251009417E+03  0.44251009420E+03  0.50400001928E-02 0. -1.
    10030    2    1    2    0    0  0.00000000000E+00  0.00000000000E+00  0.21719236560E+03  0.11022125540E+04  0.10806016799E+04 0.  0.
        1    1    3    3  502    0 -0.26119481507E+03  0.43996694116E+03 -0.68459169383E+02  0.51621729788E+03  0.50400001928E-02 0. -1.
       -1    1    3    3    0  502  0.26119481507E+03 -0.43996694116E+03  0.28565153499E+03  0.58599525612E+03  0.50400001928E-02 0.  1.
</event>
<event>
 5   0  0.5712664E-03  0.1075351E+04  0.7818609E-02  0.9229555E-01
       -1   -1    0    0    0  501  0.00000000000E+00  0.00000000000E+00  0.19220640136E+03  0.19220640143E+03  0.50400001928E-02 0. -1.
        1   -1    0    0  501    0  0.00000000000E+00  0.00000000000E+00 -0.15040853928E+04  0.15040853928E+04  0.50400001928E-02 0.  1.
    10030    2    1    2    0    0  0.00000000000E+00  0.00000000000E+00 -0.13118789915E+04  0.16962917943E+04  0.10753508093E+04 0.  0.
        5    1    3    3  502    0  0.13023160256E+03  0.50144880013E+03 -0.88268160023E+03  0.10235038187E+04  0.46999998093E+01 0.  1.
       -5    1    3    3    0  502 -0.13023160256E+03 -0.50144880013E+03 -0.42919739123E+03  0.67278797559E+03  0.46999998093E+01 0. -1.
</event>
<event>
 5   0  0.9925021E-03  0.1077049E+04  0.7818609E-02  0.9227855E-01
       -2   -1    0    0    0  501  0.00000000000E+00  0.00000000000E+00  0.15199167698E+03  0.15199167700E+03  0.25500000920E-02 0.  1.
        2   -1    0    0  501    0  0.00000000000E+00  0.00000000000E+00 -0.19080551740E+04  0.19080551740E+04  0.25500000920E-02 0. -1.
    10030    2    1    2    0    0  0.00000000000E+00  0.00000000000E+00 -0.17560634970E+04  0.20600468510E+04  0.10770487560E+04 0.  0.
        4    1    3    3  502    0 -0.48447287635E+03 -0.18806980192E+03 -0.11480017777E+04  0.12601563049E+04  0.12699999809E+01 0.  1.
       -4    1    3    3    0  502  0.48447287635E+03  0.18806980192E+03 -0.60806171931E+03  0.79989054607E+03  0.12699999809E+01 0. -1.
</event>
<event>
 5   0  0.9719260E-03  0.1068789E+04  0.7818609E-02  0.9236157E-01
        2   -1    0    0  501    0  0.00000000000E+00  0.00000000000E+00  0.11509514505E+04  0.11509514505E+04  0.25500000920E-02 0. -1.
       -2   -1    0    0    0  501  0.00000000000E+00  0.00000000000E+00 -0.24812308093E+03  0.24812308094E+03  0.25500000920E-02 0.  1.
    10030    2    1    2    0    0  0.00000000000E+00  0.00000000000E+00  0.90282836957E+03  0.13990745314E+04  0.10687892588E+04 0.  0.
        3    1    3    3  502    0  0.12857516311E+03  0.34662341123E+03  0.95653302111E+03  0.10254924634E+04  0.10100000352E+00 0.  1.
       -3    1    3    3    0  502 -0.12857516311E+03 -0.34662341123E+03 -0.53704651542E+02  0.37358206806E+03  0.10100000352E+00 0. -1.
</event>
<event>
 5   0  0.1028016E-02  0.1064386E+04  0.7818609E-02  0.9240616E-01
        2   -1    0    0  501    0  0.00000000000E+00  0.00000000000E+00  0.15806017315E+04  0.15806017315E+04  0.25500000920E-02 0. -1.
       -2   -1    0    0    0  501  0.00000000000E+00  0.00000000000E+00 -0.17919075086E+03  0.17919075088E+03  0.25500000920E-02 0.  1.
    10030    2    1    2    0    0  0.00000000000E+00  0.00000000000E+00  0.14014109807E+04  0.17597924824E+04  0.10643856652E+04 0.  0.
        2    1    3    3  502    0  0.26355744423E+03  0.76244580166E+02  0.14546606274E+04  0.14803085163E+04  0.25500000920E-02 0. -1.
       -2    1    3    3    0  502 -0.26355744423E+03 -0.76244580166E+02 -0.53249646780E+02  0.27948396609E+03  0.25500000920E-02 0.  1.
</event>
<event>
 5   0  0.1019384E-02  0.1100080E+04  0.7818609E-02  0.9205114E-01
       -2   -1    0    0    0  501  0.00000000000E+00  0.00000000000E+00  0.12988292412E+03  0.12988292414E+03  0.25500000920E-02 0.  1.
        2   -1    0    0  501    0  0.00000000000E+00  0.00000000000E+00 -0.23293589926E+04  0.23293589926E+04  0.25500000920E-02 0. -1.
    10030    2    1    2    0    0  0.00000000000E+00  0.00000000000E+00 -0.21994760685E+04  0.24592419167E+04  0.11000799195E+04 0.  0.
        1    1    3    3  502    0  0.92643961608E+02  0.24553406686E+02  0.11107230135E+03  0.14670661047E+03  0.50400001928E-02 0.  1.
       -1    1    3    3    0  502 -0.92643961608E+02 -0.24553406686E+02 -0.23105483698E+04  0.23125353063E+04  0.50400001928E-02 0. -1.
</event>
<event>
 5   0  0.9692981E-03  0.8878618E+03  0.7818609E-02  0.9440883E-01
        2   -1    0    0  501    0  0.00000000000E+00  0.00000000000E+00  0.95085566284E+03  0.95085566285E+03  0.25500000920E-02 0. -1.
       -2   -1    0    0    0  501  0.00000000000E+00  0.00000000000E+00 -0.20726033285E+03  0.20726033287E+03  0.25500000920E-02 0.  1.
    10030    2    1    2    0    0  0.00000000000E+00  0.00000000000E+00  0.74359532999E+03  0.11581159957E+04  0.88786183877E+03 0.  0.
        5    1    3    3  502    0  0.36167766765E+03 -0.45034218345E+02  0.41260191057E+02  0.36682871952E+03  0.46999998093E+01 0.  1.
       -5    1    3    3    0  502 -0.36167766765E+03  0.45034218345E+02  0.70233513893E+03  0.79128727620E+03  0.46999998093E+01 0. -1.
</event>
<event>
 5   0  0.9719260E-03  0.1081315E+04  0.7818609E-02  0.9223598E-01
       -2   -1    0    0    0  501  0.00000000000E+00  0.00000000000E+00  0.27464273582E+03  0.27464273584E+03  0.25500000920E-02 0.  1.
        2   -1    0    0  501    0  0.00000000000E+00  0.00000000000E+00 -0.10643294046E+04  0.10643294046E+04  0.25500000920E-02 0. -1.
    10030    2    1    2    0    0  0.00000000000E+00  0.00000000000E+00 -0.78968666882E+03  0.13389721405E+04  0.10813146434E+04 0.  0.
        3    1    3    3  502    0 -0.28289475624E+03 -0.18332231363E+03 -0.91826285150E+03  0.97818361692E+03  0.10100000352E+00 0. -1.
       -3    1    3    3    0  502  0.28289475624E+03  0.18332231363E+03  0.12857618267E+03  0.36078852356E+03  0.10100000352E+00 0.  1.
</event>
<event>
 5   0  0.5789905E-03  0.1094315E+04  0.7818609E-02  0.9210750E-01
       -1   -1    0    0    0  501  0.00000000000E+00  0.00000000000E+00  0.71892247796E+03  0.71892247798E+03  0.50400001928E-02 0. -1.
        1   -1    0    0  501    0  0.00000000000E+00  0.00000000000E+00 -0.41643096819E+03  0.41643096822E+03  0.50400001928E-02 0.  1.
    10030    2    1    2    0    0  0.00000000000E+00  0.00000000000E+00  0.30249150977E+03  0.11353534462E+04  0.10943154638E+04 0.  0.
        1    1    3    3  502    0  0.14367686433E+03  0.31838839089E+03  0.58818938779E+03  0.68409134239E+03  0.50400001928E-02 0. -1.
       -1    1    3    3    0  502 -0.14367686433E+03 -0.31838839089E+03 -0.28569787803E+03  0.45126210381E+03  0.50400001928E-02 0.  1.
</event>
<event>
 5   0  0.5998641E-03  0.1094316E+04  0.7818609E-02  0.9210750E-01
        1   -1    0    0  501    0  0.00000000000E+00  0.00000000000E+00  0.27642411264E+04  0.27642411264E+04  0.50400001928E-02 0. -1.
       -1   -1    0    0    0  501  0.00000000000E+00  0.00000000000E+00 -0.10830519345E+03  0.10830519356E+03  0.50400001928E-02 0.  1.
    10030    2    1    2    0    0  0.00000000000E+00  0.00000000000E+00  0.26559359330E+04  0.28725463200E+04  0.10943156219E+04 0.  0.
        3    1    3    3  502    0 -0.85813546747E+02 -0.23391320874E+03  0.49248076421E+02  0.25397782829E+03  0.10100000352E+00 0.  1.
       -3    1    3    3    0  502  0.85813546747E+02  0.23391320874E+03  0.26066878566E+04  0.26185684917E+04  0.10100000352E+00 0. -1.
</event>
<event>
 5   0  0.5712664E-03  0.8698144E+03  0.7818609E-02  0.9464122E-01
       -1   -1    0    0    0  501  0.00000000000E+00  0.00000000000E+00  0.26747784233E+03  0.26747784238E+03  0.50400001928E-02 0.  1.
        1   -1    0    0  501    0  0.00000000000E+00  0.00000000000E+00 -0.70714000261E+03  0.70714000263E+03  0.50400001928E-02 0. -1.
    10030    2    1    2    0    0  0.00000000000E+00  0.00000000000E+00 -0.43966216028E+03  0.97461784501E+03  0.86981442194E+03 0.  0.
        5    1    3    3  502    0 -0.26828728200E+03  0.14826859828E+03 -0.56548081234E+03  0.64323579039E+03  0.46999998093E+01 0. -1.
       -5    1    3    3    0  502  0.26828728200E+03 -0.14826859828E+03  0.12581865205E+03  0.33138205462E+03  0.46999998093E+01 0.  1.
</event>
<event>
 5   0  0.5998641E-03  0.1093779E+04  0.7818609E-02  0.9211277E-01
       -1   -1    0    0    0  501  0.00000000000E+00  0.00000000000E+00  0.16942932344E+03  0.16942932352E+03  0.50400001928E-02 0. -1.
        1   -1    0    0  501    0  0.00000000000E+00  0.00000000000E+00 -0.17652667465E+04  0.17652667465E+04  0.50400001928E-02 0.  1.
    10030    2    1    2    0    0  0.00000000000E+00  0.00000000000E+00 -0.15958374231E+04  0.19346960701E+04  0.10937786808E+04 0.  0.
        3    1    3    3  502    0  0.47927166719E+03  0.25197389970E+03 -0.93373545612E+03  0.10793767134E+04  0.10100000352E+00 0. -1.
       -3    1    3    3    0  502 -0.47927166719E+03 -0.25197389970E+03 -0.66210196697E+03  0.85531935672E+03  0.10100000352E+00 0.  1.
</event>
<event>
 5   0  0.1028016E-02  0.1114943E+04  0.7818609E-02  0.9190749E-01
        2   -1    0    0  501    0  0.00000000000E+00  0.00000000000E+00  0.14274545379E+04  0.14274545379E+04  0.25500000920E-02 0. -1.
       -2   -1    0    0    0  501  0.00000000000E+00  0.00000000000E+00 -0.21771218214E+03  0.21771218216E+03  0.25500000920E-02 0.  1.
    10030    2    1    2    0    0  0.00000000000E+00  0.00000000000E+00  0.12097423557E+04  0.16451667200E+04  0.11149425857E+04 0.  0.
        2    1    3    3  502    0 -0.34273266701E+03 -0.13286504824E+03 -0.13555497479E+02  0.36783495429E+03  0.25500000920E-02 0.  1.
       -2    1    3    3    0  502  0.34273266701E+03  0.13286504824E+03  0.12232978532E+04  0.12773317657E+04  0.25500000920E-02 0. -1.
</event>
<event>
 5   0  0.9719260E-03  0.1096764E+04  0.7818609E-02  0.9208352E-01
       -2   -1    0    0    0  501  0.00000000000E+00  0.00000000000E+00  0.10458733335E+04  0.10458733335E+04  0.25500000920E-02 0.  1.
        2   -1    0    0  501    0  0.00000000000E+00  0.00000000000E+00 -0.28753261409E+03  0.28753261410E+03  0.25500000920E-02 0. -1.
    10030    2    1    2    0    0  0.00000000000E+00  0.00000000000E+00  0.75834071941E+03  0.13334059476E+04  0.10967637733E+04 0.  0.
        3    1    3    3  502    0 -0.31295890090E+03  0.13215753623E+03 -0.14419282116E+03  0.36905347568E+03  0.10100000352E+00 0. -1.
       -3    1    3    3    0  502  0.31295890090E+03 -0.13215753623E+03  0.90253354057E+03  0.96435247192E+03  0.10100000352E+00 0.  1.
</event>
<event>
 5   0  0.5998641E-03  0.1073964E+04  0.7818609E-02  0.9230946E-01
       -1   -1    0    0    0  501  0.00000000000E+00  0.00000000000E+00  0.24339471867E+03  0.24339471872E+03  0.50400001928E-02 0. -1.
        1   -1    0    0  501    0  0.00000000000E+00  0.00000000000E+00 -0.11847008403E+04  0.11847008403E+04  0.50400001928E-02 0.  1.
    10030    2    1    2    0    0  0.00000000000E+00  0.00000000000E+00 -0.94130612166E+03  0.14280955591E+04  0.10739644832E+04 0.  0.
        3    1    3    3  502    0 -0.18859068644E+03 -0.44835457073E+03 -0.16812100179E+03  0.51463865921E+03  0.10100000352E+00 0. -1.
       -3    1    3    3    0  502  0.18859068644E+03  0.44835457073E+03 -0.77318511988E+03  0.91345689986E+03  0.10100000352E+00 0.  1.
</event>
<event>
 5   0  0.5958706E-03  0.1076625E+04  0.7818609E-02  0.9228279E-01
       -1   -1    0    0    0  501  0.00000000000E+00  0.00000000000E+00  0.46699054522E+03  0.46699054524E+03  0.50400001928E-02 0. -1.
        1   -1    0    0  501    0  0.00000000000E+00  0.00000000000E+00 -0.62052777696E+03  0.62052777698E+03  0.50400001928E-02 0.  1.
    10030    2    1    2    0    0  0.00000000000E+00  0.00000000000E+00 -0.15353723174E+03  0.10875183222E+04  0.10766254779E+04 0.  0.
        2    1    3    3  502    0 -0.44699476374E+03  0.62889930703E+02  0.21949241747E+03  0.50193264840E+03  0.25500000920E-02 0. -1.
       -2    1    3    3    0  502  0.44699476374E+03 -0.62889930703E+02 -0.37302964921E+03  0.58558567383E+03  0.25500000920E-02 0.  1.
</event>
<event>
 5   0  0.1028016E-02  0.1092514E+04  0.7818609E-02  0.9212519E-01
        2   -1    0    0  501    0  0.00000000000E+00  0.00000000000E+00  0.16099247242E+04  0.16099247242E+04  0.25500000920E-02 0. -1.
       -2   -1    0    0    0  501  0.00000000000E+00  0.00000000000E+00 -0.18534820890E+03  0.18534820892E+03  0.25500000920E-02 0.  1.
    10030    2    1    2    0    0  0.00000000000E+00  0.00000000000E+00  0.14245765153E+04  0.17952729331E+04  0.10925139159E+04 0.  0.
        2    1    3    3  502    0 -0.15742490246E+03 -0.22745285554E+03 -0.61748994843E+02  0.28342607463E+03  0.25500000920E-02 0.  1.
       -2    1    3    3    0  502  0.15742490246E+03  0.22745285554E+03  0.14863255101E+04  0.15118468585E+04  0.25500000920E-02 0. -1.
</event>
<event>
 5   0  0.5958706E-03  0.1047243E+04  0.7818609E-02  0.9258196E-01
        1   -1    0    0  501    0  0.00000000000E+00  0.00000000000E+00  0.83483720840E+03  0.83483720842E+03  0.50400001928E-02 0. -1.
       -1   -1    0    0    0  501  0.00000000000E+00  0.00000000000E+00 -0.32842242059E+03  0.32842242063E+03  0.50400001928E-02 0.  1.
    10030    2    1    2    0    0  0.00000000000E+00  0.00000000000E+00  0.50641478781E+03  0.11632596290E+04  0.10472425828E+04 0.  0.
        2    1    3    3  502    0  0.37470862352E+03 -0.20507163287E+03  0.58960851270E+03  0.72807906535E+03  0.25500000920E-02 0. -1.
       -2    1    3    3    0  502 -0.37470862352E+03  0.20507163287E+03 -0.83193724894E+02  0.43518056369E+03  0.25500000920E-02 0.  1.
</event>
<event>
 5   0  0.3949750E-03  0.1119860E+04  0.7818609E-02  0.9186048E-01
        3   -1    0    0  501    0  0.00000000000E+00  0.00000000000E+00  0.55266281750E+03  0.55266282673E+03  0.10100000352E+00 0. -1.
       -3   -1    0    0    0  501  0.00000000000E+00  0.00000000000E+00 -0.56729316686E+03  0.56729317585E+03  0.10100000352E+00 0.  1.
    10030    2    1    2    0    0  0.00000000000E+00  0.00000000000E+00 -0.14630349362E+02  0.11199560026E+04  0.11198604380E+04 0.  0.
        2    1    3    3  502    0 -0.32310123542E+03 -0.34925701154E+03  0.28791669336E+03  0.55612129142E+03  0.25500000920E-02 0. -1.
       -2    1    3    3    0  502  0.32310123542E+03  0.34925701154E+03 -0.30254704273E+03  0.56383471116E+03  0.25500000920E-02 0.  1.
</event>
<event>
 5   0  0.1019384E-02  0.1034553E+04  0.7818609E-02  0.9271439E-01
        2   -1    0    0  501    0  0.00000000000E+00  0.00000000000E+00  0.13662776607E+04  0.13662776607E+04  0.25500000920E-02 0.  1.
       -2   -1    0    0    0  501  0.00000000000E+00  0.00000000000E+00 -0.19584239982E+03  0.19584239984E+03  0.25500000920E-02 0. -1.
    10030    2    1    2    0    0  0.00000000000E+00  0.00000000000E+00  0.11704352609E+04  0.15621200606E+04  0.10345532290E+04 0.  0.
        1    1    3    3  502    0  0.12438979055E+03 -0.14494432682E+03 -0.14064653578E+03  0.23719849477E+03  0.50400001928E-02 0. -1.
       -1    1    3    3    0  502 -0.12438979055E+03  0.14494432682E+03  0.13110817967E+04  0.13249215658E+04  0.50400001928E-02 0.  1.
</event>
<event>
 5   0  0.5958706E-03  0.1104204E+04  0.7818609E-02  0.9201104E-01
       -1   -1    0    0    0  501  0.00000000000E+00  0.00000000000E+00  0.42408478832E+03  0.42408478835E+03  0.50400001928E-02 0.  1.
        1   -1    0    0  501    0  0.00000000000E+00  0.00000000000E+00 -0.71876367512E+03  0.71876367514E+03  0.50400001928E-02 0. -1.
    10030    2    1    2    0    0  0.00000000000E+00  0.00000000000E+00 -0.29467888680E+03  0.11428484635E+04  0.11042042221E+04 0.  0.
        2    1    3    3  502    0 -0.25870803987E+03  0.20542137631E+03 -0.60518857630E+03  0.68947879201E+03  0.25500000920E-02 0. -1.
       -2    1    3    3    0  502  0.25870803987E+03 -0.20542137631E+03  0.31050968950E+03  0.45336967148E+03  0.25500000920E-02 0.  1.
</event>
<event>
 5   0  0.5789905E-03  0.1106619E+04  0.7818609E-02  0.9198764E-01
       -1   -1    0    0    0  501  0.00000000000E+00  0.00000000000E+00  0.42415658262E+03  0.42415658265E+03  0.50400001928E-02 0.  1.
        1   -1    0    0  501    0  0.00000000000E+00  0.00000000000E+00 -0.72178907701E+03  0.72178907703E+03  0.50400001928E-02 0. -1.
    10030    2    1    2    0    0  0.00000000000E+00  0.00000000000E+00 -0.29763249440E+03  0.11459456597E+04  0.11066193353E+04 0.  0.
        1    1    3    3  502    0 -0.23635334061E+03  0.49961739887E+03 -0.12198920547E+03  0.56600513527E+03  0.50400001928E-02 0. -1.
       -1    1    3    3    0  502  0.23635334061E+03 -0.49961739887E+03 -0.17564328892E+03  0.57994052440E+03  0.50400001928E-02 0.  1.
</event>
<event>
 5   0  0.5958706E-03  0.1103954E+04  0.7818609E-02  0.9201347E-01
        1   -1    0    0  501    0  0.00000000000E+00  0.00000000000E+00  0.21139104188E+03  0.21139104194E+03  0.50400001928E-02 0.  1.
       -1   -1    0    0    0  501  0.00000000000E+00  0.00000000000E+00 -0.14413031726E+04  0.14413031726E+04  0.50400001928E-02 0. -1.
    10030    2    1    2    0    0  0.00000000000E+00  0.00000000000E+00 -0.12299121307E+04  0.16526942145E+04  0.11039539472E+04 0.  0.
        2    1    3    3  502    0  0.16672725152E+03  0.39533788195E+03 -0.11348258882E+04  0.12132270248E+04  0.25500000920E-02 0. -1.
       -2    1    3    3    0  502 -0.16672725152E+03 -0.39533788195E+03 -0.95086242534E+02  0.43946718971E+03  0.25500000920E-02 0.  1.
</event>
<event>
 5   0  0.1019384E-02  0.1123269E+04  0.7818609E-02  0.9182805E-01
        2   -1    0    0  501    0  0.00000000000E+00  0.00000000000E+00  0.61549640351E+03  0.61549640351E+03  0.25500000920E-02 0.  1.
       -2   -1    0    0    0  501  0.00000000000E+00  0.00000000000E+00 -0.51248601369E+03  0.51248601370E+03  0.25500000920E-02 0. -1.
    10030    2    1    2    0    0  0.00000000000E+00  0.00000000000E+00  0.10301038981E+03  0.11279824172E+04  0.11232689763E+04 0.  0.
        1    1    3    3  502    0  0.84779221069E+02  0.35703469889E+03 -0.37545182069E+03  0.52500034497E+03  0.50400001928E-02 0. -1.
       -1    1    3    3    0  502 -0.84779221069E+02 -0.35703469889E+03  0.47846221050E+03  0.60298207224E+03  0.50400001928E-02 0.  1.
</event>
<event>
 5   0  0.9692981E-03  0.8693433E+03  0.7818609E-02  0.9464737E-01
        2   -1    0    0  501    0  0.00000000000E+00  0.00000000000E+00  0.22969851135E+03  0.22969851136E+03  0.25500000920E-02 0. -1.
       -2   -1    0    0    0  501  0.00000000000E+00  0.00000000000E+00 -0.82255411311E+03  0.82255411311E+03  0.25500000920E-02 0.  1.
    10030    2    1    2    0    0  0.00000000000E+00  0.00000000000E+00 -0.59285560176E+03  0.10522526245E+04  0.86934332756E+03 0.  0.
        5    1    3    3  502    0 -0.40979974910E+03  0.75440602074E+02 -0.14675739518E+03  0.44179966256E+03  0.46999998093E+01 0.  1.
       -5    1    3    3    0  502  0.40979974910E+03 -0.75440602074E+02 -0.44609820658E+03  0.61045296191E+03  0.46999998093E+01 0. -1.
</event>
<event>
 5   0  0.5998641E-03  0.1113792E+04  0.7818609E-02  0.9191853E-01
        1   -1    0    0  501    0  0.00000000000E+00  0.00000000000E+00  0.57134577847E+03  0.57134577850E+03  0.50400001928E-02 0.  1.
       -1   -1    0    0    0  501  0.00000000000E+00  0.00000000000E+00 -0.54281167819E+03  0.54281167822E+03  0.50400001928E-02 0. -1.
    10030    2    1    2    0    0  0.00000000000E+00  0.00000000000E+00  0.28534100280E+02  0.11141574567E+04  0.11137920109E+04 0.  0.
        3    1    3    3  502    0 -0.14141307041E+03 -0.45619920730E+02 -0.52261596766E+03  0.54332889993E+03  0.10100000352E+00 0. -1.
       -3    1    3    3    0  502  0.14141307041E+03  0.45619920730E+02  0.55115006794E+03  0.57082855678E+03  0.10100000352E+00 0.  1.
</event>
<event>
 5   0  0.9925021E-03  0.1102706E+04  0.7818609E-02  0.9202559E-01
        2   -1    0    0  501    0  0.00000000000E+00  0.00000000000E+00  0.53377321504E+03  0.53377321505E+03  0.25500000920E-02 0.  1.
       -2   -1    0    0    0  501  0.00000000000E+00  0.00000000000E+00 -0.56951146294E+03  0.56951146294E+03  0.25500000920E-02 0. -1.
    10030    2    1    2    0    0  0.00000000000E+00  0.00000000000E+00 -0.35738247891E+02  0.11032846780E+04  0.11027056989E+04 0.  0.
        4    1    3    3  502    0  0.73887510748E+02 -0.98756302652E+02  0.51979201974E+03  0.53422610217E+03  0.12699999809E+01 0.  1.
       -4    1    3    3    0  502 -0.73887510748E+02  0.98756302652E+02 -0.55553026763E+03  0.56905857582E+03  0.12699999809E+01 0. -1.
</event>
<event>
 5   0  0.5854579E-03  0.1088633E+04  0.7818609E-02  0.9216343E-01
        1   -1    0    0  501    0  0.00000000000E+00  0.00000000000E+00  0.46864626135E+03  0.46864626138E+03  0.50400001928E-02 0.  1.
       -1   -1    0    0    0  501  0.00000000000E+00  0.00000000000E+00 -0.63220442235E+03  0.63220442237E+03  0.50400001928E-02 0. -1.
    10030    2    1    2    0    0  0.00000000000E+00  0.00000000000E+00 -0.16355816100E+03  0.11008506837E+04  0.10886326083E+04 0.  0.
        4    1    3    3  502    0  0.22665448204E+03  0.17597461403E+03  0.38594784347E+03  0.48093312403E+03  0.12699999809E+01 0.  1.
       -4    1    3    3    0  502 -0.22665448204E+03 -0.17597461403E+03 -0.54950600446E+03  0.61991755972E+03  0.12699999809E+01 0. -1.
</event>
<event>
 5   0  0.5712664E-03  0.1120096E+04  0.7818609E-02  0.9185823E-01
        1   -1    0    0  501    0  0.00000000000E+00  0.00000000000E+00  0.83497055987E+03  0.83497055988E+03  0.50400001928E-02 0. -1.
       -1   -1    0    0    0  501  0.00000000000E+00  0.00000000000E+00 -0.37564645833E+03  0.37564645836E+03  0.50400001928E-02 0.  1.
    10030    2    1    2    0    0  0.00000000000E+00  0.00000000000E+00  0.45932410154E+03  0.12106170182E+04  0.11200959488E+04 0.  0.
        5    1    3    3  502    0 -0.17940901262E+03  0.42313883711E+03  0.57551890163E+03  0.73653117070E+03  0.46999998093E+01 0. -1.
       -5    1    3    3    0  502  0.17940901262E+03 -0.42313883711E+03 -0.11619480010E+03  0.47408584755E+03  0.46999998093E+01 0.  1.
</event>
<event>
 5   0  0.5958706E-03  0.1088952E+04  0.7818609E-02  0.9216028E-01
       -1   -1    0    0    0  501  0.00000000000E+00  0.00000000000E+00  0.42371678179E+03  0.42371678182E+03  0.50400001928E-02 0. -1.
        1   -1    0    0  501    0  0.00000000000E+00  0.00000000000E+00 -0.69965123444E+03  0.69965123445E+03  0.50400001928E-02 0.  1.
    10030    2    1    2    0    0  0.00000000000E+00  0.00000000000E+00 -0.27593445265E+03  0.11233680163E+04  0.10889517335E+04 0.  0.
        2    1    3    3  502    0  0.35511448211E+03  0.46615138202E+02  0.28508477980E+03  0.45776915383E+03  0.25500000920E-02 0. -1.
       -2    1    3    3    0  502 -0.35511448211E+03 -0.46615138202E+02 -0.56101923245E+03  0.66559886245E+03  0.25500000920E-02 0.  1.
</event>
<event>
 5   0  0.5958706E-03  0.1062048E+04  0.7818609E-02  0.9242993E-01
        1   -1    0    0  501    0  0.00000000000E+00  0.00000000000E+00  0.78477203196E+03  0.78477203198E+03  0.50400001928E-02 0.  1.
       -1   -1    0    0    0  501  0.00000000000E+00  0.00000000000E+00 -0.35932253308E+03  0.35932253312E+03  0.50400001928E-02 0. -1.
    10030    2    1    2    0    0  0.00000000000E+00  0.00000000000E+00  0.42544949888E+03  0.11440945651E+04  0.10620475968E+04 0.  0.
        2    1    3    3  502    0  0.34129192798E+03 -0.14272502006E+03  0.62312253862E+03  0.72466013386E+03  0.25500000920E-02 0.  1.
       -2    1    3    3    0  502 -0.34129192798E+03  0.14272502006E+03 -0.19767303975E+03  0.41943443124E+03  0.25500000920E-02 0. -1.
</event>
<event>
 5   0  0.5712664E-03  0.1079605E+04  0.7818609E-02  0.9225302E-01
       -1   -1    0    0    0  501  0.00000000000E+00  0.00000000000E+00  0.79888333950E+03  0.79888333951E+03  0.50400001928E-02 0. -1.
        1   -1    0    0  501    0  0.00000000000E+00  0.00000000000E+00 -0.36474222802E+03  0.36474222805E+03  0.50400001928E-02 0.  1.
    10030    2    1    2    0    0  0.00000000000E+00  0.00000000000E+00  0.43414111148E+03  0.11636255676E+04  0.10796045372E+04 0.  0.
        5    1    3    3  502    0 -0.43683651943E+02 -0.37494130873E+03  0.63294253958E+03  0.73697190913E+03  0.46999998093E+01 0. -1.
       -5    1    3    3    0  502  0.43683651943E+02  0.37494130873E+03 -0.19880142810E+03  0.42665365843E+03  0.46999998093E+01 0.  1.
</event>
<event>
 5   0  0.5712664E-03  0.1021659E+04  0.7818609E-02  0.9285103E-01
        1   -1    0    0  501    0  0.00000000000E+00  0.00000000000E+00  0.42222441318E+03  0.42222441321E+03  0.50400001928E-02 0. -1.
       -1   -1    0    0    0  501  0.00000000000E+00  0.00000000000E+00 -0.61802894135E+03  0.61802894137E+03  0.50400001928E-02 0.  1.
    10030    2    1    2    0    0  0.00000000000E+00  0.00000000000E+00 -0.19580452817E+03  0.10402533546E+04  0.10216592526E+04 0.  0.
        5    1    3    3  502    0  0.35945098527E+03 -0.27899182135E+03  0.13845035928E+03  0.47563855938E+03  0.46999998093E+01 0. -1.
       -5    1    3    3    0  502 -0.35945098527E+03  0.27899182135E+03 -0.33425488745E+03  0.56461479521E+03  0.46999998093E+01 0.  1.
</event>
<event>
 5   0  0.5958706E-03  0.1106272E+04  0.7818609E-02  0.9199100E-01
       -1   -1    0    0    0  501  0.00000000000E+00  0.00000000000E+00  0.59738141246E+03  0.59738141249E+03  0.50400001928E-02 0. -1.
        1   -1    0    0  501    0  0.00000000000E+00  0.00000000000E+00 -0.51216781275E+03  0.51216781277E+03  0.50400001928E-02 0.  1.
    10030    2    1    2    0    0  0.00000000000E+00  0.00000000000E+00  0.85213599714E+02  0.11095492253E+04  0.11062721752E+04 0.  0.
        2    1    3    3  502    0  0.20312211269E+03  0.51176029472E+03  0.95700740510E+02  0.55885223776E+03  0.25500000920E-02 0.  1.
       -2    1    3    3    0  502 -0.20312211269E+03 -0.51176029472E+03 -0.10487140796E+02  0.55069698750E+03  0.25500000920E-02 0. -1.
</event>
<event>
 5   0  0.3949750E-03  0.1092137E+04  0.7818609E-02  0.9212889E-01
        4   -1    0    0  501    0  0.00000000000E+00  0.00000000000E+00  0.62615177819E+03  0.62615306614E+03  0.12699999809E+01 0.  1.
       -4   -1    0    0    0  501  0.00000000000E+00  0.00000000000E+00 -0.47622542389E+03  0.47622711731E+03  0.12699999809E+01 0. -1.
    10030    2    1    2    0    0  0.00000000000E+00  0.00000000000E+00  0.14992635430E+03  0.11023801834E+04  0.10921374259E+04 0.  0.
        3    1    3    3  502    0 -0.80820063096E+02  0.51654772148E+03 -0.84114376568E+02  0.52955516211E+03  0.10100000352E+00 0. -1.
       -3    1    3    3    0  502  0.80820063096E+02 -0.51654772148E+03  0.23404073087E+03  0.57282502134E+03  0.10100000352E+00 0.  1.
</event>
<event>
 5   0  0.9692981E-03  0.1121556E+04  0.7818609E-02  0.9184433E-01
        2   -1    0    0  501    0  0.00000000000E+00  0.00000000000E+00  0.89481627321E+03  0.89481627322E+03  0.25500000920E-02 0. -1.
       -2   -1    0    0    0  501  0.00000000000E+00  0.00000000000E+00 -0.35143767387E+03  0.35143767388E+03  0.25500000920E-02 0.  1.
    10030    2    1    2    0    0  0.00000000000E+00  0.00000000000E+00  0.54337859934E+03  0.12462539471E+04  0.11215563287E+04 0.  0.
        5    1    3    3  502    0 -0.51076566089E+03 -0.23083617946E+03  0.29038748690E+03  0.63127956140E+03  0.46999998093E+01 0. -1.
       -5    1    3    3    0  502  0.51076566089E+03  0.23083617946E+03  0.25299111244E+03  0.61497438570E+03  0.46999998093E+01 0.  1.
</event>
<event>
 5   0  0.1019384E-02  0.1091871E+04  0.7818609E-02  0.9213152E-01
       -2   -1    0    0    0  501  0.00000000000E+00  0.00000000000E+00  0.48441738143E+03  0.48441738144E+03  0.25500000920E-02 0.  1.
        2   -1    0    0  501    0  0.00000000000E+00  0.00000000000E+00 -0.61526553538E+03  0.61526553538E+03  0.25500000920E-02 0. -1.
    10030    2    1    2    0    0  0.00000000000E+00  0.00000000000E+00 -0.13084815395E+03  0.10996829168E+04  0.10918705409E+04 0.  0.
        1    1    3    3  502    0  0.25871683142E+03  0.34104605320E+03 -0.40666763055E+03  0.59044506182E+03  0.50400001928E-02 0. -1.
       -1    1    3    3    0  502 -0.25871683142E+03 -0.34104605320E+03  0.27581947660E+03  0.50923785500E+03  0.50400001928E-02 0.  1.
</event>
<event>
 5   0  0.5712664E-03  0.9617485E+03  0.7818609E-02  0.9351523E-01
       -1   -1    0    0    0  501  0.00000000000E+00  0.00000000000E+00  0.20634811612E+03  0.20634811618E+03  0.50400001928E-02 0. -1.
        1   -1    0    0  501    0  0.00000000000E+00  0.00000000000E+00 -0.11206306532E+04  0.11206306532E+04  0.50400001928E-02 0.  1.
    10030    2    1    2    0    0  0.00000000000E+00  0.00000000000E+00 -0.91428253705E+03  0.13269787694E+04  0.96174845816E+03 0.  0.
        5    1    3    3  502    0  0.13730783178E+03 -0.81981314915E+02  0.16854990708E+03  0.23239091600E+03  0.46999998093E+01 0. -1.
       -5    1    3    3    0  502 -0.13730783178E+03  0.81981314915E+02 -0.10828324441E+04  0.10945878534E+04  0.46999998093E+01 0.  1.
</event>
<event>
 5   0  0.5958706E-03  0.1104797E+04  0.7818609E-02  0.9200529E-01
        1   -1    0    0  501    0  0.00000000000E+00  0.00000000000E+00  0.15453948620E+04  0.15453948620E+04  0.50400001928E-02 0. -1.
       -1   -1    0    0    0  501  0.00000000000E+00  0.00000000000E+00 -0.19745379705E+03  0.19745379711E+03  0.50400001928E-02 0.  1.
    10030    2    1    2    0    0  0.00000000000E+00  0.00000000000E+00  0.13479410650E+04  0.17428486592E+04  0.11047969651E+04 0.  0.
        2    1    3    3  502    0 -0.54388234066E+03  0.80124631928E+02  0.75915891548E+03  0.93731009601E+03  0.25500000920E-02 0.  1.
       -2    1    3    3    0  502  0.54388234066E+03 -0.80124631928E+02  0.58878214951E+03  0.80553856314E+03  0.25500000920E-02 0. -1.
</event>
<event>
 5   0  0.5789905E-03  0.1065114E+04  0.7818609E-02  0.9239877E-01
       -1   -1    0    0    0  501  0.00000000000E+00  0.00000000000E+00  0.63430353461E+03  0.63430353463E+03  0.50400001928E-02 0.  1.
        1   -1    0    0  501    0  0.00000000000E+00  0.00000000000E+00 -0.44713130446E+03  0.44713130449E+03  0.50400001928E-02 0. -1.
    10030    2    1    2    0    0  0.00000000000E+00  0.00000000000E+00  0.18717223015E+03  0.10814348391E+04  0.10651140162E+04 0.  0.
        1    1    3    3  502    0  0.27068923155E+03  0.23589841843E+03 -0.30575510452E+03  0.47160036881E+03  0.50400001928E-02 0. -1.
       -1    1    3    3    0  502 -0.27068923155E+03 -0.23589841843E+03  0.49292733466E+03  0.60983447031E+03  0.50400001928E-02 0.  1.
</event>
<event>
 5   0  0.9692981E-03  0.1140789E+04  0.7818609E-02  0.9166323E-01
       -2   -1    0    0    0  501  0.00000000000E+00  0.00000000000E+00  0.23196082713E+03  0.23196082715E+03  0.25500000920E-02 0.  1.
        2   -1    0    0  501    0  0.00000000000E+00  0.00000000000E+00 -0.14026077233E+04  0.14026077233E+04  0.25500000920E-02 0. -1.
    10030    2    1    2    0    0  0.00000000000E+00  0.00000000000E+00 -0.11706468961E+04  0.16345685504E+04  0.11407892840E+04 0.  0.
        5    1    3    3  502    0  0.19658344212E+02  0.38563909228E+03  0.16169070944E+02  0.38650677723E+03  0.46999998093E+01 0.  1.
       -5    1    3    3    0  502 -0.19658344212E+02 -0.38563909228E+03 -0.11868159671E+04  0.12480617732E+04  0.46999998093E+01 0. -1.
</event>
<event>
 5   0  0.9692981E-03  0.1091020E+04  0.7818609E-02  0.9213989E-01
       -2   -1    0    0    0  501  0.00000000000E+00  0.00000000000E+00  0.59071642808E+03  0.59071642809E+03  0.25500000920E-02 0.  1.
        2   -1    0    0  501    0  0.00000000000E+00  0.00000000000E+00 -0.50376285290E+03  0.50376285291E+03  0.25500000920E-02 0. -1.
    10030    2    1    2    0    0  0.00000000000E+00  0.00000000000E+00  0.86953575177E+02  0.10944792810E+04  0.10910196938E+04 0.  0.
        5    1    3    3  502    0  0.38745470156E+03 -0.35707288173E+03 -0.98168375499E+02  0.53598629514E+03  0.46999998093E+01 0. -1.
       -5    1    3    3    0  502 -0.38745470156E+03  0.35707288173E+03  0.18512195068E+03  0.55849298586E+03  0.46999998093E+01 0.  1.
</event>
<event>
 5   0  0.9925021E-03  0.1124588E+04  0.7818609E-02  0.9181552E-01
       -2   -1    0    0    0  501  0.00000000000E+00  0.00000000000E+00  0.37466462498E+03  0.37466462499E+03  0.25500000920E-02 0.  1.
        2   -1    0    0  501    0  0.00000000000E+00  0.00000000000E+00 -0.84388747948E+03  0.84388747948E+03  0.25500000920E-02 0. -1.
    10030    2    1    2    0    0  0.00000000000E+00  0.00000000000E+00 -0.46922285450E+03  0.12185521045E+04  0.11245884332E+04 0.  0.
        4    1    3    3  502    0 -0.25015809035E+03  0.15995257519E+01 -0.78026609678E+03  0.81938905493E+03  0.12699999809E+01 0. -1.
       -4    1    3    3    0  502  0.25015809035E+03 -0.15995257519E+01  0.31104324228E+03  0.39916304954E+03  0.12699999809E+01 0.  1.
</event>
<event>
 5   0  0.5712664E-03  0.1092378E+04  0.7818609E-02  0.9212653E-01
        1   -1    0    0  501    0  0.00000000000E+00  0.00000000000E+00  0.18931380246E+04  0.18931380246E+04  0.50400001928E-02 0. -1.
       -1   -1    0    0    0  501  0.00000000000E+00  0.00000000000E+00 -0.15758095289E+03  0.15758095297E+03  0.50400001928E-02 0.  1.
    10030    2    1    2    0    0  0.00000000000E+00  0.00000000000E+00  0.17355570717E+04  0.20507189776E+04  0.10923781286E+04 0.  0.
        5    1    3    3  502    0 -0.29820832224E+03 -0.40165039348E+03  0.12792844325E+04  0.13736236716E+04  0.46999998093E+01 0.  1.
       -5    1    3    3    0  502  0.29820832224E+03  0.40165039348E+03  0.45627263921E+03  0.67709530594E+03  0.46999998093E+01 0. -1.
</event>
<event>
 5   0  0.1028016E-02  0.1058046E+04  0.7818609E-02  0.9247076E-01
       -2   -1    0    0    0  501  0.00000000000E+00  0.00000000000E+00  0.14379772754E+03  0.14379772756E+03  0.25500000920E-02 0. -1.
        2   -1    0    0  501    0  0.00000000000E+00  0.00000000000E+00 -0.19462428434E+04  0.19462428434E+04  0.25500000920E-02 0.  1.
    10030    2    1    2    0    0  0.00000000000E+00  0.00000000000E+00 -0.18024451158E+04  0.20900405709E+04  0.10580459312E+04 0.  0.
        2    1    3    3  502    0 -0.12318324767E+03  0.36976199006E+03 -0.19458026862E+03  0.43561396069E+03  0.25500000920E-02 0. -1.
       -2    1    3    3    0  502  0.12318324767E+03 -0.36976199006E+03 -0.16078648472E+04  0.16544266102E+04  0.25500000920E-02 0.  1.
</event>
<event>
 5   0  0.5958706E-03  0.1128122E+04  0.7818609E-02  0.9178207E-01
        1   -1    0    0  501    0  0.00000000000E+00  0.00000000000E+00  0.29142119963E+03  0.29142119967E+03  0.50400001928E-02 0.  1.
       -1   -1    0    0    0  501  0.00000000000E+00  0.00000000000E+00 -0.10917700822E+04  0.10917700822E+04  0.50400001928E-02 0. -1.
    10030    2    1    2    0    0  0.00000000000E+00  0.00000000000E+00 -0.80034888254E+03  0.13831912819E+04  0.11281222400E+04 0.  0.
        2    1    3    3  502    0  0.39662137158E+03 -0.33730615814E+03 -0.66621562827E+03  0.84553368949E+03  0.25500000920E-02 0. -1.
       -2    1    3    3    0  502 -0.39662137158E+03  0.33730615814E+03 -0.13413325427E+03  0.53765759236E+03  0.25500000920E-02 0.  1.
</event>
<event>
 5   0  0.1028016E-02  0.1183979E+04  0.7818609E-02  0.9126996E-01
       -2   -1    0    0    0  501  0.00000000000E+00  0.00000000000E+00  0.21048144986E+03  0.21048144988E+03  0.25500000920E-02 0. -1.
        2   -1    0    0  501    0  0.00000000000E+00  0.00000000000E+00 -0.16649996178E+04  0.16649996178E+04  0.25500000920E-02 0.  1.
    10030    2    1    2    0    0  0.00000000000E+00  0.00000000000E+00 -0.14545181680E+04  0.18754810677E+04  0.11839789417E+04 0.  0.
        2    1    3    3  502    0 -0.52538058457E+03  0.17337189555E+03 -0.10609223026E+04  0.11965110551E+04  0.25500000920E-02 0.  1.
       -2    1    3    3    0  502  0.52538058457E+03 -0.17337189555E+03 -0.39359586541E+03  0.67897001266E+03  0.25500000920E-02 0. -1.
</event>
<event>
 5   0  0.5712664E-03  0.1100802E+04  0.7818609E-02  0.9204411E-01
       -1   -1    0    0    0  501  0.00000000000E+00  0.00000000000E+00  0.62787090478E+03  0.62787090480E+03  0.50400001928E-02 0. -1.
        1   -1    0    0  501    0  0.00000000000E+00  0.00000000000E+00 -0.48248971662E+03  0.48248971665E+03  0.50400001928E-02 0.  1.
    10030    2    1    2    0    0  0.00000000000E+00  0.00000000000E+00  0.14538118816E+03  0.11103606215E+04  0.11008019894E+04 0.  0.
        5    1    3    3  502    0 -0.28134102150E+03 -0.45912473881E+03 -0.42188070560E+02  0.54013907418E+03  0.46999998093E+01 0.  1.
       -5    1    3    3    0  502  0.28134102150E+03  0.45912473881E+03  0.18756925872E+03  0.57022154727E+03  0.46999998093E+01 0. -1.
</event>
<event>
 5   0  0.9925021E-03  0.1109949E+04  0.7818609E-02  0.9195549E-01
       -2   -1    0    0    0  501  0.00000000000E+00  0.00000000000E+00  0.34668829063E+03  0.34668829064E+03  0.25500000920E-02 0. -1.
        2   -1    0    0  501    0  0.00000000000E+00  0.00000000000E+00 -0.88839628825E+03  0.88839628826E+03  0.25500000920E-02 0.  1.
    10030    2    1    2    0    0  0.00000000000E+00  0.00000000000E+00 -0.54170799762E+03  0.12350845789E+04  0.11099488107E+04 0.  0.
        4    1    3    3  502    0  0.47956367564E+03 -0.65481104887E+02  0.31282882550E+02  0.48502507743E+03  0.12699999809E+01 0. -1.
       -4    1    3    3    0  502 -0.47956367564E+03  0.65481104887E+02 -0.57299088017E+03  0.75005950147E+03  0.12699999809E+01 0.  1.
</event>
<event>
 5   0  0.5789905E-03  0.1056539E+04  0.7818609E-02  0.9248619E-01
       -1   -1    0    0    0  501  0.00000000000E+00  0.00000000000E+00  0.31161954587E+03  0.31161954591E+03  0.50400001928E-02 0.  1.
        1   -1    0    0  501    0  0.00000000000E+00  0.00000000000E+00 -0.89554294075E+03  0.89554294076E+03  0.50400001928E-02 0. -1.
    10030    2    1    2    0    0  0.00000000000E+00  0.00000000000E+00 -0.58392339488E+03  0.12071624867E+04  0.10565390377E+04 0.  0.
        1    1    3    3  502    0  0.32036885194E+03  0.36740534658E+03 -0.52456743201E+03  0.71609627897E+03  0.50400001928E-02 0. -1.
       -1    1    3    3    0  502 -0.32036885194E+03 -0.36740534658E+03 -0.59355962862E+02  0.49106620770E+03  0.50400001928E-02 0.  1.
</event>
<event>
 5   0  0.5712664E-03  0.1126462E+04  0.7818609E-02  0.9179777E-01
       -1   -1    0    0    0  501  0.00000000000E+00  0.00000000000E+00  0.16154051626E+03  0.16154051634E+03  0.50400001928E-02 0.  1.
        1   -1    0    0  501    0  0.00000000000E+00  0.00000000000E+00 -0.19637740480E+04  0.19637740480E+04  0.50400001928E-02 0. -1.
    10030    2    1    2    0    0  0.00000000000E+00  0.00000000000E+00 -0.18022335317E+04  0.21253145643E+04  0.11264618478E+04 0.  0.
        5    1    3    3  502    0 -0.23954852511E+03  0.15449499894E+03 -0.18175928237E+04  0.18398146547E+04  0.46999998093E+01 0. -1.
       -5    1    3    3    0  502  0.23954852511E+03 -0.15449499894E+03  0.15359291998E+02  0.28549990968E+03  0.46999998093E+01 0.  1.
</event>
<event>
 5   0  0.5854579E-03  0.1060939E+04  0.7818609E-02  0.9244122E-01
       -1   -1    0    0    0  501  0.00000000000E+00  0.00000000000E+00  0.34618680567E+03  0.34618680571E+03  0.50400001928E-02 0. -1.
        1   -1    0    0  501    0  0.00000000000E+00  0.00000000000E+00 -0.81285046885E+03  0.81285046887E+03  0.50400001928E-02 0.  1.
    10030    2    1    2    0    0  0.00000000000E+00  0.00000000000E+00 -0.46666366319E+03  0.11590372746E+04  0.10609394089E+04 0.  0.
        4    1    3    3  502    0  0.41463749728E+03  0.23395069473E+03  0.22265603577E+02  0.47660733494E+03  0.12699999809E+01 0. -1.
       -4    1    3    3    0  502 -0.41463749728E+03 -0.23395069473E+03 -0.48892926676E+03  0.68242993964E+03  0.12699999809E+01 0.  1.
</event>
<event>
 5   0  0.1028016E-02  0.1076125E+04  0.7818609E-02  0.9228780E-01
       -2   -1    0    0    0  501  0.00000000000E+00  0.00000000000E+00  0.39813710808E+03  0.39813710809E+03  0.25500000920E-02 0.  1.
        2   -1    0    0  501    0  0.00000000000E+00  0.00000000000E+00 -0.72716404873E+03  0.72716404874E+03  0.25500000920E-02 0. -1.
    10030    2    1    2    0    0  0.00000000000E+00  0.00000000000E+00 -0.32902694065E+03  0.11253011568E+04  0.10761245123E+04 0.  0.
        2    1    3    3  502    0 -0.44994604403E+03  0.16253643904E+03  0.92994720419E+02  0.48735772753E+03  0.25500000920E-02 0.  1.
       -2    1    3    3    0  502  0.44994604403E+03 -0.16253643904E+03 -0.42202166107E+03  0.63794342929E+03  0.25500000920E-02 0. -1.
</event>
<event>
 5   0  0.9719260E-03  0.1084291E+04  0.7818609E-02  0.9220640E-01
       -2   -1    0    0    0  501  0.00000000000E+00  0.00000000000E+00  0.44809992718E+03  0.44809992719E+03  0.25500000920E-02 0. -1.
        2   -1    0    0  501    0  0.00000000000E+00  0.00000000000E+00 -0.65592893773E+03  0.65592893773E+03  0.25500000920E-02 0.  1.
    10030    2    1    2    0    0  0.00000000000E+00  0.00000000000E+00 -0.20782901055E+03  0.11040288649E+04  0.10842909374E+04 0.  0.
        3    1    3    3  502    0  0.20896541300E+03 -0.48062032489E+03  0.37389470538E+02  0.52541452514E+03  0.10100000352E+00 0. -1.
       -3    1    3    3    0  502 -0.20896541300E+03  0.48062032489E+03 -0.24521848109E+03  0.57861433977E+03  0.10100000352E+00 0.  1.
</event>
<event>
 5   0  0.5998641E-03  0.6970326E+03  0.7818609E-02  0.9722320E-01
       -1   -1    0    0    0  501  0.00000000000E+00  0.00000000000E+00  0.12929561965E+03  0.12929561975E+03  0.50400001928E-02 0.  1.
        1   -1    0    0  501    0  0.00000000000E+00  0.00000000000E+00 -0.93942548003E+03  0.93942548004E+03  0.50400001928E-02 0. -1.
    10030    2    1    2    0    0  0.00000000000E+00  0.00000000000E+00 -0.81012986037E+03  0.10687210998E+04  0.69703256629E+03 0.  0.
        3    1    3    3  502    0 -0.91582049769E+01 -0.14347859390E+03 -0.89183942414E+03  0.90335350128E+03  0.10100000352E+00 0. -1.
       -3    1    3    3    0  502  0.91582049769E+01  0.14347859390E+03  0.81709563766E+02  0.16536759851E+03  0.10100000352E+00 0.  1.
</event>
<event>
 5   0  0.9692981E-03  0.1026638E+04  0.7818609E-02  0.9279802E-01
       -2   -1    0    0    0  501  0.00000000000E+00  0.00000000000E+00  0.90775530509E+03  0.90775530509E+03  0.25500000920E-02 0. -1.
        2   -1    0    0  501    0  0.00000000000E+00  0.00000000000E+00 -0.29027248342E+03  0.29027248343E+03  0.25500000920E-02 0.  1.
    10030    2    1    2    0    0  0.00000000000E+00  0.00000000000E+00  0.61748282167E+03  0.11980277885E+04  0.10266379825E+04 0.  0.
        5    1    3    3  502    0  0.32538785102E+03  0.51890493876E+02  0.76802557204E+03  0.83573634972E+03  0.46999998093E+01 0. -1.
       -5    1    3    3    0  502 -0.32538785102E+03 -0.51890493876E+02 -0.15054275037E+03  0.36229143880E+03  0.46999998093E+01 0.  1.
</event>
<event>
 5   0  0.9692981E-03  0.1111792E+04  0.7818609E-02  0.9193775E-01
        2   -1    0    0  501    0  0.00000000000E+00  0.00000000000E+00  0.41376579785E+03  0.41376579785E+03  0.25500000920E-02 0. -1.
       -2   -1    0    0    0  501  0.00000000000E+00  0.00000000000E+00 -0.74684790712E+03  0.74684790712E+03  0.25500000920E-02 0.  1.
    10030    2    1    2    0    0  0.00000000000E+00  0.00000000000E+00 -0.33308210927E+03  0.11606137050E+04  0.11117915635E+04 0.  0.
        5    1    3    3  502    0 -0.17935401889E+03 -0.34627117861E+03 -0.58007615459E+03  0.69898642930E+03  0.46999998093E+01 0.  1.
       -5    1    3    3    0  502  0.17935401889E+03  0.34627117861E+03  0.24699404532E+03  0.46162727567E+03  0.46999998093E+01 0. -1.
</event>
<event>
 5   0  0.9692981E-03  0.1099443E+04  0.7818609E-02  0.9205735E-01
        2   -1    0    0  501    0  0.00000000000E+00  0.00000000000E+00  0.12982714943E+04  0.12982714943E+04  0.25500000920E-02 0. -1.
       -2   -1    0    0    0  501  0.00000000000E+00  0.00000000000E+00 -0.23276615710E+03  0.23276615711E+03  0.25500000920E-02 0.  1.
    10030    2    1    2    0    0  0.00000000000E+00  0.00000000000E+00  0.10655053372E+04  0.15310376514E+04  0.10994428891E+04 0.  0.
        5    1    3    3  502    0  0.46931211588E+03 -0.20764056243E+03  0.80706572006E+03  0.95642335384E+03  0.46999998093E+01 0. -1.
       -5    1    3    3    0  502 -0.46931211588E+03  0.20764056243E+03  0.25843961715E+03  0.57461429758E+03  0.46999998093E+01 0.  1.
</event>
<event>
 5   0  0.5854579E-03  0.1098129E+04  0.7818609E-02  0.9207017E-01
       -1   -1    0    0    0  501  0.00000000000E+00  0.00000000000E+00  0.15155220331E+03  0.15155220339E+03  0.50400001928E-02 0.  1.
        1   -1    0    0  501    0  0.00000000000E+00  0.00000000000E+00 -0.19892278143E+04  0.19892278143E+04  0.50400001928E-02 0. -1.
    10030    2    1    2    0    0  0.00000000000E+00  0.00000000000E+00 -0.18376756110E+04  0.21407800177E+04  0.10981290602E+04 0.  0.
        4    1    3    3  502    0 -0.29426439533E+03 -0.28707935690E+02 -0.18207845705E+04  0.18446337699E+04  0.12699999809E+01 0. -1.
       -4    1    3    3    0  502  0.29426439533E+03  0.28707935690E+02 -0.16891040457E+02  0.29614624778E+03  0.12699999809E+01 0.  1.
</event>
<event>
 5   0  0.9925021E-03  0.1213184E+04  0.7818609E-02  0.9101394E-01
        2   -1    0    0  501    0  0.00000000000E+00  0.00000000000E+00  0.11851417993E+04  0.11851417993E+04  0.25500000920E-02 0.  1.
       -2   -1    0    0    0  501  0.00000000000E+00  0.00000000000E+00 -0.31047267118E+03  0.31047267119E+03  0.25500000920E-02 0. -1.
    10030    2    1    2    0    0  0.00000000000E+00  0.00000000000E+00  0.87466912816E+03  0.14956144705E+04  0.12131844710E+04 0.  0.
        4    1    3    3  502    0  0.26781113691E+02 -0.72712283901E+02 -0.30434453443E+03  0.31405654399E+03  0.12699999809E+01 0. -1.
       -4    1    3    3    0  502 -0.26781113691E+02  0.72712283901E+02  0.11790136626E+04  0.11815579265E+04  0.12699999809E+01 0.  1.
</event>
<event>
 5   0  0.5854579E-03  0.1102825E+04  0.7818609E-02  0.9202443E-01
        1   -1    0    0  501    0  0.00000000000E+00  0.00000000000E+00  0.46581305417E+03  0.46581305420E+03  0.50400001928E-02 0.  1.
       -1   -1    0    0    0  501  0.00000000000E+00  0.00000000000E+00 -0.65274153713E+03  0.65274153715E+03  0.50400001928E-02 0. -1.
    10030    2    1    2    0    0  0.00000000000E+00  0.00000000000E+00 -0.18692848296E+03  0.11185545914E+04  0.11028246080E+04 0.  0.
        4    1    3    3  502    0  0.21564335558E+03  0.17901116874E+03 -0.57511318968E+03  0.63976859033E+03  0.12699999809E+01 0. -1.
       -4    1    3    3    0  502 -0.21564335558E+03 -0.17901116874E+03  0.38818470672E+03  0.47878600102E+03  0.12699999809E+01 0.  1.
</event>
<event>
 5   0  0.3949750E-03  0.6935824E+03  0.7818609E-02  0.9728271E-01
       -3   -1    0    0    0  501  0.00000000000E+00  0.00000000000E+00  0.78105156929E+02  0.78105222232E+02  0.10100000352E+00 0.  1.
        3   -1    0    0  501    0  0.00000000000E+00  0.00000000000E+00 -0.15397712608E+04  0.15397712641E+04  0.10100000352E+00 0. -1.
    10030    2    1    2    0    0  0.00000000000E+00  0.00000000000E+00 -0.14616661039E+04  0.16178764864E+04  0.69358238578E+03 0.  0.
        1    1    3    3  502    0  0.49540320687E+02  0.24568191611E+03 -0.17172802313E+03  0.30381632811E+03  0.50400001928E-02 0.  1.
       -1    1    3    3    0  502 -0.49540320687E+02 -0.24568191611E+03 -0.12899380808E+04  0.13140601583E+04  0.50400001928E-02 0. -1.
</event>
<event>
 5   0  0.5789905E-03  0.1050164E+04  0.7818609E-02  0.9255174E-01
        1   -1    0    0  501    0  0.00000000000E+00  0.00000000000E+00  0.70254927955E+03  0.70254927957E+03  0.50400001928E-02 0. -1.
       -1   -1    0    0    0  501  0.00000000000E+00  0.00000000000E+00 -0.39244406352E+03  0.39244406355E+03  0.50400001928E-02 0.  1.
    10030    2    1    2    0    0  0.00000000000E+00  0.00000000000E+00  0.31010521603E+03  0.10949933431E+04  0.10501643569E+04 0.  0.
        1    1    3    3  502    0 -0.76925609457E+02  0.20218870728E+03  0.65392547116E+03  0.68877887932E+03  0.50400001928E-02 0. -1.
       -1    1    3    3    0  502  0.76925609457E+02 -0.20218870728E+03 -0.34382025513E+03  0.40621446381E+03  0.50400001928E-02 0.  1.
</event>
<event>
 5   0  0.5958706E-03  0.8261304E+03  0.7818609E-02  0.9522946E-01
       -1   -1    0    0    0  501  0.00000000000E+00  0.00000000000E+00  0.92560109994E+02  0.92560110131E+02  0.50400001928E-02 0. -1.
        1   -1    0    0  501    0  0.00000000000E+00  0.00000000000E+00 -0.18433735339E+04  0.18433735340E+04  0.50400001928E-02 0.  1.
    10030    2    1    2    0    0  0.00000000000E+00  0.00000000000E+00 -0.17508134240E+04  0.19359336441E+04  0.82613039455E+03 0.  0.
        2    1    3    3  502    0 -0.39217413130E+03 -0.62861147650E+02 -0.11412614279E+04  0.12083996524E+04  0.25500000920E-02 0.  1.
       -2    1    3    3    0  502  0.39217413130E+03  0.62861147650E+02 -0.60955199610E+03  0.72753399171E+03  0.25500000920E-02 0. -1.
</event>
<event>
 5   0  0.9925021E-03  0.1177989E+04  0.7818609E-02  0.9132344E-01
       -2   -1    0    0    0  501  0.00000000000E+00  0.00000000000E+00  0.18965304911E+03  0.18965304913E+03  0.25500000920E-02 0. -1.
        2   -1    0    0  501    0  0.00000000000E+00  0.00000000000E+00 -0.18292046449E+04  0.18292046449E+04  0.25500000920E-02 0.  1.
    10030    2    1    2    0    0  0.00000000000E+00  0.00000000000E+00 -0.16395515958E+04  0.20188576941E+04  0.11779885201E+04 0.  0.
        4    1    3    3  502    0  0.15567845934E+03  0.12555843637E+03 -0.17692245512E+04  0.17804937037E+04  0.12699999809E+01 0.  1.
       -4    1    3    3    0  502 -0.15567845934E+03 -0.12555843637E+03  0.12967295534E+03  0.23836399034E+03  0.12699999809E+01 0. -1.
</event>
<event>
 5   0  0.5854579E-03  0.1032763E+04  0.7818609E-02  0.9273323E-01
        1   -1    0    0  501    0  0.00000000000E+00  0.00000000000E+00  0.48395712061E+03  0.48395712063E+03  0.50400001928E-02 0. -1.
       -1   -1    0    0    0  501  0.00000000000E+00  0.00000000000E+00 -0.55097860457E+03  0.55097860459E+03  0.50400001928E-02 0.  1.
    10030    2    1    2    0    0  0.00000000000E+00  0.00000000000E+00 -0.67021483964E+02  0.10349357252E+04  0.10327633204E+04 0.  0.
        4    1    3    3  502    0  0.39579871570E+03  0.28605086390E+03  0.13467162094E+03  0.50657652775E+03  0.12699999809E+01 0. -1.
       -4    1    3    3    0  502 -0.39579871570E+03 -0.28605086390E+03 -0.20169310490E+03  0.52835919747E+03  0.12699999809E+01 0.  1.
</event>
<event>
 5   0  0.5789905E-03  0.1095753E+04  0.7818609E-02  0.9209342E-01
        1   -1    0    0  501    0  0.00000000000E+00  0.00000000000E+00  0.97099771537E+03  0.97099771538E+03  0.50400001928E-02 0.  1.
       -1   -1    0    0    0  501  0.00000000000E+00  0.00000000000E+00 -0.30913404605E+03  0.30913404609E+03  0.50400001928E-02 0. -1.
    10030    2    1    2    0    0  0.00000000000E+00  0.00000000000E+00  0.66186366932E+03  0.12801317615E+04  0.10957526226E+04 0.  0.
        1    1    3    3  502    0 -0.44496565618E+03 -0.15884205060E+03  0.65499325678E+03  0.80761463500E+03  0.50400001928E-02 0.  1.
       -1    1    3    3    0  502  0.44496565618E+03  0.15884205060E+03  0.68704125355E+01  0.47251712647E+03  0.50400001928E-02 0. -1.
</event>
<event>
 5   0  0.1019384E-02  0.1121297E+04  0.7818609E-02  0.9184679E-01
        2   -1    0    0  501    0  0.00000000000E+00  0.00000000000E+00  0.33854948121E+03  0.33854948122E+03  0.25500000920E-02 0. -1.
       -2   -1    0    0    0  501  0.00000000000E+00  0.00000000000E+00 -0.92845220083E+03  0.92845220084E+03  0.25500000920E-02 0.  1.
    10030    2    1    2    0    0  0.00000000000E+00  0.00000000000E+00 -0.58990271962E+03  0.12670016821E+04  0.11212974823E+04 0.  0.
        1    1    3    3  502    0  0.42570623052E+02 -0.30544574410E+03  0.23409545467E+03  0.38718218251E+03  0.50400001928E-02 0. -1.
       -1    1    3    3    0  502 -0.42570623052E+02  0.30544574410E+03 -0.82399817429E+03  0.87981949955E+03  0.50400001928E-02 0.  1.
</event>
<event>
 5   0  0.9692981E-03  0.1140817E+04  0.7818609E-02  0.9166298E-01
        2   -1    0    0  501    0  0.00000000000E+00  0.00000000000E+00  0.94754097540E+03  0.94754097541E+03  0.25500000920E-02 0.  1.
       -2   -1    0    0    0  501  0.00000000000E+00  0.00000000000E+00 -0.34337889600E+03  0.34337889601E+03  0.25500000920E-02 0. -1.
    10030    2    1    2    0    0  0.00000000000E+00  0.00000000000E+00  0.60416207940E+03  0.12909198714E+04  0.11408165042E+04 0.  0.
        5    1    3    3  502    0  0.42903666248E+03 -0.19197970520E+03  0.66773018344E+03  0.81658701486E+03  0.46999998093E+01 0.  1.
       -5    1    3    3    0  502 -0.42903666248E+03  0.19197970520E+03 -0.63568104036E+02  0.47433285656E+03  0.46999998093E+01 0. -1.
</event>
<event>
 5   0  0.5854579E-03  0.1090853E+04  0.7818609E-02  0.9214153E-01
       -1   -1    0    0    0  501  0.00000000000E+00  0.00000000000E+00  0.37302939742E+03  0.37302939746E+03  0.50400001928E-02 0.  1.
        1   -1    0    0  501    0  0.00000000000E+00  0.00000000000E+00 -0.79749823837E+03  0.79749823839E+03  0.50400001928E-02 0. -1.
    10030    2    1    2    0    0  0.00000000000E+00  0.00000000000E+00 -0.42446884094E+03  0.11705276358E+04  0.10908534041E+04 0.  0.
        4    1    3    3  502    0  0.25041886892E+02 -0.31518823713E+03 -0.68912480850E+03  0.75819874408E+03  0.12699999809E+01 0. -1.
       -4    1    3    3    0  502 -0.25041886892E+02  0.31518823713E+03  0.26465596756E+03  0.41232889177E+03  0.12699999809E+01 0.  1.
</event>
<event>
 5   0  0.9925021E-03  0.1115205E+04  0.7818609E-02  0.9190498E-01
        2   -1    0    0  501    0  0.00000000000E+00  0.00000000000E+00  0.10871788318E+04  0.10871788318E+04  0.25500000920E-02 0. -1.
       -2   -1    0    0    0  501  0.00000000000E+00  0.00000000000E+00 -0.28598824322E+03  0.28598824323E+03  0.25500000920E-02 0.  1.
    10030    2    1    2    0    0  0.00000000000E+00  0.00000000000E+00  0.80119058860E+03  0.13731670750E+04  0.11152046703E+04 0.  0.
        4    1    3    3  502    0  0.79504130842E+02 -0.10695950878E+03 -0.26608760083E+03  0.29759950866E+03  0.12699999809E+01 0.  1.
       -4    1    3    3    0  502 -0.79504130842E+02  0.10695950878E+03  0.10672781894E+04  0.10755675664E+04  0.12699999809E+01 0. -1.
</event>
<event>
 5   0  0.1028016E-02  0.1146187E+04  0.7818609E-02  0.9161308E-01
        2   -1    0    0  501    0  0.00000000000E+00  0.00000000000E+00  0.59868721153E+03  0.59868721154E+03  0.25500000920E-02 0.  1.
       -2   -1    0    0    0  501  0.00000000000E+00  0.00000000000E+00 -0.54859414474E+03  0.54859414475E+03  0.25500000920E-02 0. -1.
    10030    2    1    2    0    0  0.00000000000E+00  0.00000000000E+00  0.50093066791E+02  0.11472813563E+04  0.11461872426E+04 0.  0.
        2    1    3    3  502    0  0.38982925922E+03  0.14565990800E+03 -0.36935070101E+03  0.55642034514E+03  0.25500000920E-02 0. -1.
       -2    1    3    3    0  502 -0.38982925922E+03 -0.14565990800E+03  0.41944376780E+03  0.59086101115E+03  0.25500000920E-02 0.  1.
</event>
<event>
 5   0  0.5789905E-03  0.1069929E+04  0.7818609E-02  0.9235007E-01
       -1   -1    0    0    0  501  0.00000000000E+00  0.00000000000E+00  0.27972929962E+03  0.27972929966E+03  0.50400001928E-02 0.  1.
        1   -1    0    0  501    0  0.00000000000E+00  0.00000000000E+00 -0.10230858772E+04  0.10230858773E+04  0.50400001928E-02 0. -1.
    10030    2    1    2    0    0  0.00000000000E+00  0.00000000000E+00 -0.74335657763E+03  0.13028151769E+04  0.10699291489E+04 0.  0.
        1    1    3    3  502    0  0.52943739797E+03 -0.44759629293E+02 -0.29583317692E+03  0.60813210027E+03  0.50400001928E-02 0.  1.
       -1    1    3    3    0  502 -0.52943739797E+03  0.44759629293E+02 -0.44752340071E+03  0.69468307666E+03  0.50400001928E-02 0. -1.
</event>
<event>
 5   0  0.1028016E-02  0.1092304E+04  0.7818609E-02  0.9212725E-01
        2   -1    0    0  501    0  0.00000000000E+00  0.00000000000E+00  0.16447292069E+04  0.16447292069E+04  0.25500000920E-02 0.  1.
       -2   -1    0    0    0  501  0.00000000000E+00  0.00000000000E+00 -0.18135635386E+03  0.18135635387E+03  0.25500000920E-02 0. -1.
    10030    2    1    2    0    0  0.00000000000E+00  0.00000000000E+00  0.14633728530E+04  0.18260855608E+04  0.10923041556E+04 0.  0.
        2    1    3    3  502    0 -0.25064763020E+03 -0.39044407866E+01  0.15428717247E+04  0.15631035276E+04  0.25500000920E-02 0.  1.
       -2    1    3    3    0  502  0.25064763020E+03  0.39044407866E+01 -0.79498871626E+02  0.26298203318E+03  0.25500000920E-02 0. -1.
</event>
<event>
 5   0  0.5958706E-03  0.1138922E+04  0.7818609E-02  0.9168065E-01
       -1   -1    0    0    0  501  0.00000000000E+00  0.00000000000E+00  0.17707033847E+03  0.17707033854E+03  0.50400001928E-02 0. -1.
        1   -1    0    0  501    0  0.00000000000E+00  0.00000000000E+00 -0.18313945633E+04  0.18313945633E+04  0.50400001928E-02 0.  1.
    10030    2    1    2    0    0  0.00000000000E+00  0.00000000000E+00 -0.16543242249E+04  0.20084649019E+04  0.11389216923E+04 0.  0.
        2    1    3    3  502    0 -0.41748082186E+03 -0.38727701186E+03 -0.83325434843E+03  0.10092504792E+04  0.25500000920E-02 0. -1.
       -2    1    3    3    0  502  0.41748082186E+03  0.38727701186E+03 -0.82106987642E+03  0.99921442269E+03  0.25500000920E-02 0.  1.
</event>
<event>
 5   0  0.5854579E-03  0.1095490E+04  0.7818609E-02  0.9209599E-01
        1   -1    0    0  501    0  0.00000000000E+00  0.00000000000E+00  0.30974390872E+04  0.30974390872E+04  0.50400001928E-02 0.  1.
       -1   -1    0    0    0  501  0.00000000000E+00  0.00000000000E+00 -0.96862103330E+02  0.96862103461E+02  0.50400001928E-02 0. -1.
    10030    2    1    2    0    0  0.00000000000E+00  0.00000000000E+00  0.30005769839E+04  0.31943011907E+04  0.10954897811E+04 0.  0.
        4    1    3    3  502    0 -0.52886398397E+03  0.11055717587E+03  0.17627625709E+04  0.18437064563E+04  0.12699999809E+01 0.  1.
       -4    1    3    3    0  502  0.52886398397E+03 -0.11055717587E+03  0.12378144130E+04  0.13505947344E+04  0.12699999809E+01 0. -1.
</event>
<event>
 5   0  0.1019384E-02  0.1113947E+04  0.7818609E-02  0.9191704E-01
       -2   -1    0    0    0  501  0.00000000000E+00  0.00000000000E+00  0.65532502401E+03  0.65532502401E+03  0.25500000920E-02 0. -1.
        2   -1    0    0  501    0  0.00000000000E+00  0.00000000000E+00 -0.47338264301E+03  0.47338264302E+03  0.25500000920E-02 0.  1.
    10030    2    1    2    0    0  0.00000000000E+00  0.00000000000E+00  0.18194238099E+03  0.11287076670E+04  0.11139470219E+04 0.  0.
        1    1    3    3  502    0 -0.38857377562E+03  0.36641497372E+03  0.25108398369E+03  0.59016326467E+03  0.50400001928E-02 0. -1.
       -1    1    3    3    0  502  0.38857377562E+03 -0.36641497372E+03 -0.69141602701E+02  0.53854440236E+03  0.50400001928E-02 0.  1.
</event>
<event>
 5   0  0.1028016E-02  0.1058875E+04  0.7818609E-02  0.9246228E-01
       -2   -1    0    0    0  501  0.00000000000E+00  0.00000000000E+00  0.28704200235E+03  0.28704200236E+03  0.25500000920E-02 0. -1.
        2   -1    0    0  501    0  0.00000000000E+00  0.00000000000E+00 -0.97652707641E+03  0.97652707642E+03  0.25500000920E-02 0.  1.
    10030    2    1    2    0    0  0.00000000000E+00  0.00000000000E+00 -0.68948507406E+03  0.12635690788E+04  0.10588754174E+04 0.  0.
        2    1    3    3  502    0  0.59489012252E+00  0.39983328773E+03  0.69385453332E+02  0.40580950335E+03  0.25500000920E-02 0. -1.
       -2    1    3    3    0  502 -0.59489012252E+00 -0.39983328773E+03 -0.75887052739E+03  0.85775957542E+03  0.25500000920E-02 0.  1.
</event>
<event>
 5   0  0.5789905E-03  0.1080341E+04  0.7818609E-02  0.9224567E-01
       -1   -1    0    0    0  501  0.00000000000E+00  0.00000000000E+00  0.28181902339E+03  0.28181902344E+03  0.50400001928E-02 0. -1.
        1   -1    0    0  501    0  0.00000000000E+00  0.00000000000E+00 -0.10353601995E+04  0.10353601995E+04  0.50400001928E-02 0.  1.
    10030    2    1    2    0    0  0.00000000000E+00  0.00000000000E+00 -0.75354117606E+03  0.13171792229E+04  0.10803410578E+04 0.  0.
        1    1    3    3  502    0 -0.30429662338E+03  0.22733630323E+03 -0.84503245215E+03  0.92647615996E+03  0.50400001928E-02 0.  1.
       -1    1    3    3    0  502  0.30429662338E+03 -0.22733630323E+03  0.91491276088E+02  0.39070306294E+03  0.50400001928E-02 0. -1.
</event>
<event>
 5   0  0.5958706E-03  0.1077598E+04  0.7818609E-02  0.9227306E-01
       -1   -1    0    0    0  501  0.00000000000E+00  0.00000000000E+00  0.16660785348E+03  0.16660785355E+03  0.50400001928E-02 0.  1.
        1   -1    0    0  501    0  0.00000000000E+00  0.00000000000E+00 -0.17424397490E+04  0.17424397490E+04  0.50400001928E-02 0. -1.
    10030    2    1    2    0    0  0.00000000000E+00  0.00000000000E+00 -0.15758318955E+04  0.19090476025E+04  0.10775975992E+04 0.  0.
        2    1    3    3  502    0 -0.26611789773E+03 -0.22089553209E+03 -0.15198381362E+04  0.15586922506E+04  0.25500000920E-02 0. -1.
       -2    1    3    3    0  502  0.26611789773E+03  0.22089553209E+03 -0.55993759281E+02  0.35035535199E+03  0.25500000920E-02 0.  1.
</event>
<event>
 5   0  0.1019384E-02  0.1064817E+04  0.7818609E-02  0.9240178E-01
       -2   -1    0    0    0  501  0.00000000000E+00  0.00000000000E+00  0.28621304113E+03  0.28621304114E+03  0.25500000920E-02 0. -1.
        2   -1    0    0  501    0  0.00000000000E+00  0.00000000000E+00 -0.99037772719E+03  0.99037772719E+03  0.25500000920E-02 0.  1.
    10030    2    1    2    0    0  0.00000000000E+00  0.00000000000E+00 -0.70416468605E+03  0.12765907683E+04  0.10648173950E+04 0.  0.
        1    1    3    3  502    0  0.26223421483E+03  0.12884796295E+03 -0.88567312802E+03  0.93262289845E+03  0.50400001928E-02 0.  1.
       -1    1    3    3    0  502 -0.26223421483E+03 -0.12884796295E+03  0.18150844197E+03  0.34396786989E+03  0.50400001928E-02 0. -1.
</event>
<event>
 5   0  0.5958706E-03  0.1086322E+04  0.7818609E-02  0.9218627E-01
       -1   -1    0    0    0  501  0.00000000000E+00  0.00000000000E+00  0.31750581172E+03  0.31750581176E+03  0.50400001928E-02 0.  1.
        1   -1    0    0  501    0  0.00000000000E+00  0.00000000000E+00 -0.92919193146E+03  0.92919193147E+03  0.50400001928E-02 0. -1.
    10030    2    1    2    0    0  0.00000000000E+00  0.00000000000E+00 -0.61168611974E+03  0.12466977432E+04  0.10863219384E+04 0.  0.
        2    1    3    3  502    0 -0.47849164204E+02  0.53890490979E+03 -0.25061591392E+03  0.59625194392E+03  0.25500000920E-02 0. -1.
       -2    1    3    3    0  502  0.47849164204E+02 -0.53890490979E+03 -0.36107020581E+03  0.65044579931E+03  0.25500000920E-02 0.  1.
</event>
<event>
 5   0  0.5789905E-03  0.1110741E+04  0.7818609E-02  0.9194786E-01
       -1   -1    0    0    0  501  0.00000000000E+00  0.00000000000E+00  0.19874226838E+03  0.19874226844E+03  0.50400001928E-02 0. -1.
        1   -1    0    0  501    0  0.00000000000E+00  0.00000000000E+00 -0.15519407631E+04  0.15519407631E+04  0.50400001928E-02 0.  1.
    10030    2    1    2    0    0  0.00000000000E+00  0.00000000000E+00 -0.13531984947E+04  0.17506830316E+04  0.11107407037E+04 0.  0.
        1    1    3    3  502    0  0.40322345011E+03  0.34338782894E+03 -0.41318158754E+03  0.67173162505E+03  0.50400001928E-02 0. -1.
       -1    1    3    3    0  502 -0.40322345011E+03 -0.34338782894E+03 -0.94001690718E+03  0.10789514065E+04  0.50400001928E-02 0.  1.
</event>
<event>
 5   0  0.9925021E-03  0.1099314E+04  0.7818609E-02  0.9205860E-01
        2   -1    0    0  501    0  0.00000000000E+00  0.00000000000E+00  0.11639719151E+04  0.11639719152E+04  0.25500000920E-02 0.  1.
       -2   -1    0    0    0  501  0.00000000000E+00  0.00000000000E+00 -0.25956208198E+03  0.25956208200E+03  0.25500000920E-02 0. -1.
    10030    2    1    2    0    0  0.00000000000E+00  0.00000000000E+00  0.90440983316E+03  0.14235339971E+04  0.10993142839E+04 0.  0.
        4    1    3    3  502    0 -0.30294088399E+03  0.22234260238E+03  0.97165057384E+03  0.10417849407E+04  0.12699999809E+01 0.  1.
       -4    1    3    3    0  502  0.30294088399E+03 -0.22234260238E+03 -0.67240740676E+02  0.38174905649E+03  0.12699999809E+01 0. -1.
</event>
<event>
 5   0  0.9925021E-03  0.1120805E+04  0.7818609E-02  0.9185147E-01
       -2   -1    0    0    0  501  0.00000000000E+00  0.00000000000E+00  0.29931531429E+03  0.29931531431E+03  0.25500000920E-02 0. -1.
        2   -1    0    0  501    0  0.00000000000E+00  0.00000000000E+00 -0.10492320882E+04  0.10492320882E+04  0.25500000920E-02 0.  1.
    10030    2    1    2    0    0  0.00000000000E+00  0.00000000000E+00 -0.74991677394E+03  0.13485474025E+04  0.11208054823E+04 0.  0.
        4    1    3    3  502    0  0.85763164632E+02  0.38446298619E+03 -0.85455269265E+03  0.94097238301E+03  0.12699999809E+01 0.  1.
       -4    1    3    3    0  502 -0.85763164632E+02 -0.38446298619E+03  0.10463591872E+03  0.40757501953E+03  0.12699999809E+01 0. -1.
</event>
<event>
 5   0  0.9925021E-03  0.1099575E+04  0.7818609E-02  0.9205606E-01
        2   -1    0    0  501    0  0.00000000000E+00  0.00000000000E+00  0.14352175401E+04  0.14352175401E+04  0.25500000920E-02 0.  1.
       -2   -1    0    0    0  501  0.00000000000E+00  0.00000000000E+00 -0.21060653154E+03  0.21060653156E+03  0.25500000920E-02 0. -1.
    10030    2    1    2    0    0  0.00000000000E+00  0.00000000000E+00  0.12246110085E+04  0.16458240716E+04  0.10995748053E+04 0.  0.
        4    1    3    3  502    0  0.13733424075E+03  0.44293679318E+03  0.17028342707E+03  0.49401594596E+03  0.12699999809E+01 0. -1.
       -4    1    3    3    0  502 -0.13733424075E+03 -0.44293679318E+03  0.10543275815E+04  0.11518081257E+04  0.12699999809E+01 0.  1.
</event>
<event>
 5   0  0.9719260E-03  0.1099348E+04  0.7818609E-02  0.9205828E-01
       -2   -1    0    0    0  501  0.00000000000E+00  0.00000000000E+00  0.12013712349E+04  0.12013712349E+04  0.25500000920E-02 0. -1.
        2   -1    0    0  501    0  0.00000000000E+00  0.00000000000E+00 -0.25149700155E+03  0.25149700156E+03  0.25500000920E-02 0.  1.
    10030    2    1    2    0    0  0.00000000000E+00  0.00000000000E+00  0.94987423334E+03  0.14528682365E+04  0.10993475580E+04 0.  0.
        3    1    3    3  502    0 -0.36274817939E+03 -0.25057914552E+03  0.41096421036E+02  0.44279236200E+03  0.10100000352E+00 0.  1.
       -3    1    3    3    0  502  0.36274817939E+03  0.25057914552E+03  0.90877781230E+03  0.10100758745E+04  0.10100000352E+00 0. -1.
</event>
<event>
 5   0  0.5789905E-03  0.1044209E+04  0.7818609E-02  0.9261344E-01
        1   -1    0    0  501    0  0.00000000000E+00  0.00000000000E+00  0.94340887479E+03  0.94340887481E+03  0.50400001928E-02 0. -1.
       -1   -1    0    0    0  501  0.00000000000E+00  0.00000000000E+00 -0.28894461217E+03  0.28894461222E+03  0.50400001928E-02 0.  1.
    10030    2    1    2    0    0  0.00000000000E+00  0.00000000000E+00  0.65446426262E+03  0.12323534870E+04  0.10442086218E+04 0.  0.
        1    1    3    3  502    0  0.98377650317E+02  0.50098673447E+03  0.19834356750E+03  0.54772807212E+03  0.50400001928E-02 0. -1.
       -1    1    3    3    0  502 -0.98377650317E+02 -0.50098673447E+03  0.45612069512E+03  0.68462541491E+03  0.50400001928E-02 0.  1.
</event>
<event>
 5   0  0.1028016E-02  0.1091681E+04  0.7818609E-02  0.9213338E-01
       -2   -1    0    0    0  501  0.00000000000E+00  0.00000000000E+00  0.66028701690E+03  0.66028701690E+03  0.25500000920E-02 0. -1.
        2   -1    0    0  501    0  0.00000000000E+00  0.00000000000E+00 -0.45123068790E+03  0.45123068790E+03  0.25500000920E-02 0.  1.
    10030    2    1    2    0    0  0.00000000000E+00  0.00000000000E+00  0.20905632900E+03  0.11115177048E+04  0.10916808414E+04 0.  0.
        2    1    3    3  502    0 -0.75710701819E+02  0.36344588915E+03  0.51194508885E+03  0.63238658960E+03  0.25500000920E-02 0. -1.
       -2    1    3    3    0  502  0.75710701819E+02 -0.36344588915E+03 -0.30288875984E+03  0.47913111520E+03  0.25500000920E-02 0.  1.
</event>
<event>
 5   0  0.1019384E-02  0.1094072E+04  0.7818609E-02  0.9210989E-01
       -2   -1    0    0    0  501  0.00000000000E+00  0.00000000000E+00  0.24738121969E+03  0.24738121970E+03  0.25500000920E-02 0.  1.
        2   -1    0    0  501    0  0.00000000000E+00  0.00000000000E+00 -0.12096639380E+04  0.12096639380E+04  0.25500000920E-02 0. -1.
    10030    2    1    2    0    0  0.00000000000E+00  0.00000000000E+00 -0.96228271828E+03  0.14570451577E+04  0.10940715523E+04 0.  0.
        1    1    3    3  502    0  0.44222725776E+03  0.10468620761E+03 -0.75611026658E+02  0.46069640432E+03  0.50400001928E-02 0.  1.
       -1    1    3    3    0  502 -0.44222725776E+03 -0.10468620761E+03 -0.88667169163E+03  0.99634875336E+03  0.50400001928E-02 0. -1.
</event>
<event>
 5   0  0.5958706E-03  0.1067892E+04  0.7818609E-02  0.9237064E-01
       -1   -1    0    0    0  501  0.00000000000E+00  0.00000000000E+00  0.31394704625E+03  0.31394704629E+03  0.50400001928E-02 0. -1.
        1   -1    0    0  501    0  0.00000000000E+00  0.00000000000E+00 -0.90810945351E+03  0.90810945353E+03  0.50400001928E-02 0.  1.
    10030    2    1    2    0    0  0.00000000000E+00  0.00000000000E+00 -0.59416240727E+03  0.12220564998E+04  0.10678919058E+04 0.  0.
        2    1    3    3  502    0  0.51271219878E+03  0.83325332864E+02 -0.15561746005E+03  0.54224874712E+03  0.25500000920E-02 0. -1.
       -2    1    3    3    0  502 -0.51271219878E+03 -0.83325332864E+02 -0.43854494722E+03  0.67980775269E+03  0.25500000920E-02 0.  1.
</event>
<event>
 5   0  0.5958706E-03  0.1080836E+04  0.7818609E-02  0.9224074E-01
       -1   -1    0    0    0  501  0.00000000000E+00  0.00000000000E+00  0.95486762220E+03  0.95486762221E+03  0.50400001928E-02 0.  1.
        1   -1    0    0  501    0  0.00000000000E+00  0.00000000000E+00 -0.30585571009E+03  0.30585571014E+03  0.50400001928E-02 0. -1.
    10030    2    1    2    0    0  0.00000000000E+00  0.00000000000E+00  0.64901191211E+03  0.12607233323E+04  0.10808361849E+04 0.  0.
        2    1    3    3  502    0  0.68760157339E+02  0.52058635914E+03  0.17552361511E+03  0.55366655672E+03  0.25500000920E-02 0.  1.
       -2    1    3    3    0  502 -0.68760157339E+02 -0.52058635914E+03  0.47348829699E+03  0.70705677563E+03  0.25500000920E-02 0. -1.
</event>
<event>
 5   0  0.9925021E-03  0.1061682E+04  0.7818609E-02  0.9243366E-01
       -2   -1    0    0    0  501  0.00000000000E+00  0.00000000000E+00  0.20906427508E+03  0.20906427509E+03  0.25500000920E-02 0. -1.
        2   -1    0    0  501    0  0.00000000000E+00  0.00000000000E+00 -0.13478725269E+04  0.13478725269E+04  0.25500000920E-02 0.  1.
    10030    2    1    2    0    0  0.00000000000E+00  0.00000000000E+00 -0.11388082519E+04  0.15569368020E+04  0.10616816712E+04 0.  0.
        4    1    3    3  502    0  0.31877962782E+03 -0.27541157804E+03 -0.95754601684E+02  0.43202146367E+03  0.12699999809E+01 0. -1.
       -4    1    3    3    0  502 -0.31877962782E+03  0.27541157804E+03 -0.10430536502E+04  0.11249153384E+04  0.12699999809E+01 0.  1.
</event>
<event>
 5   0  0.9925021E-03  0.1089567E+04  0.7818609E-02  0.9215420E-01
        2   -1    0    0  501    0  0.00000000000E+00  0.00000000000E+00  0.10427756446E+04  0.10427756446E+04  0.25500000920E-02 0.  1.
       -2   -1    0    0    0  501  0.00000000000E+00  0.00000000000E+00 -0.28461456946E+03  0.28461456947E+03  0.25500000920E-02 0. -1.
    10030    2    1    2    0    0  0.00000000000E+00  0.00000000000E+00  0.75816107513E+03  0.13273902141E+04  0.10895671455E+04 0.  0.
        4    1    3    3  502    0 -0.17063413024E+03  0.14822775626E+03  0.98295579892E+03  0.10086085413E+04  0.12699999809E+01 0.  1.
       -4    1    3    3    0  502  0.17063413024E+03 -0.14822775626E+03 -0.22479472378E+03  0.31878167273E+03  0.12699999809E+01 0. -1.
</event>
<event>
 5   0  0.9925021E-03  0.1130600E+04  0.7818609E-02  0.9175870E-01
        2   -1    0    0  501    0  0.00000000000E+00  0.00000000000E+00  0.14469042127E+04  0.14469042127E+04  0.25500000920E-02 0.  1.
       -2   -1    0    0    0  501  0.00000000000E+00  0.00000000000E+00 -0.22086044196E+03  0.22086044198E+03  0.25500000920E-02 0. -1.
    10030    2    1    2    0    0  0.00000000000E+00  0.00000000000E+00  0.12260437707E+04  0.16677646546E+04  0.11305996708E+04 0.  0.
        4    1    3    3  502    0 -0.45053127311E+02  0.44142795390E+03  0.11296784368E+04  0.12136982352E+04  0.12699999809E+01 0.  1.
       -4    1    3    3    0  502  0.45053127311E+02 -0.44142795390E+03  0.96365333922E+02  0.45406641942E+03  0.12699999809E+01 0. -1.
</event>
<event>
 5   0  0.5998641E-03  0.1097557E+04  0.7818609E-02  0.9207576E-01
       -1   -1    0    0    0  501  0.00000000000E+00  0.00000000000E+00  0.17107105783E+04  0.17107105783E+04  0.50400001928E-02 0.  1.
        1   -1    0    0  501    0  0.00000000000E+00  0.00000000000E+00 -0.17604256880E+03  0.17604256887E+03  0.50400001928E-02 0. -1.
    10030    2    1    2    0    0  0.00000000000E+00  0.00000000000E+00  0.15346680095E+04  0.18867531471E+04  0.10975570778E+04 0.  0.
        3    1    3    3  502    0  0.42689225472E+03  0.97432159079E+02  0.19867502029E+03  0.48083447948E+03  0.10100000352E+00 0. -1.
       -3    1    3    3    0  502 -0.42689225472E+03 -0.97432159079E+02  0.13359929892E+04  0.14059186677E+04  0.10100000352E+00 0.  1.
</event>
<event>
 5   0  0.3949750E-03  0.1084987E+04  0.7818609E-02  0.9219949E-01
        3   -1    0    0  501    0  0.00000000000E+00  0.00000000000E+00  0.41030725025E+03  0.41030726268E+03  0.10100000352E+00 0. -1.
       -3   -1    0    0    0  501  0.00000000000E+00  0.00000000000E+00 -0.71726527871E+03  0.71726528582E+03  0.10100000352E+00 0.  1.
    10030    2    1    2    0    0  0.00000000000E+00  0.00000000000E+00 -0.30695802846E+03  0.11275725485E+04  0.10849869220E+04 0.  0.
        4    1    3    3  502    0 -0.16700509275E+03 -0.41892028150E+03 -0.46683076331E+03  0.64908973010E+03  0.12699999809E+01 0.  1.
       -4    1    3    3    0  502  0.16700509275E+03  0.41892028150E+03  0.15987273485E+03  0.47848281840E+03  0.12699999809E+01 0. -1.
</event>
<event>
 5   0  0.5998641E-03  0.1149222E+04  0.7818609E-02  0.9158501E-01
        1   -1    0    0  501    0  0.00000000000E+00  0.00000000000E+00  0.18502501243E+04  0.18502501243E+04  0.50400001928E-02 0.  1.
       -1   -1    0    0    0  501  0.00000000000E+00  0.00000000000E+00 -0.17845048271E+03  0.17845048278E+03  0.50400001928E-02 0. -1.
    10030    2    1    2    0    0  0.00000000000E+00  0.00000000000E+00  0.16717996416E+04  0.20287006071E+04  0.11492223943E+04 0.  0.
        3    1    3    3  502    0 -0.88172098790E+02 -0.56318405266E+03  0.70826838946E+03  0.90917254571E+03  0.10100000352E+00 0.  1.
       -3    1    3    3    0  502  0.88172098790E+02  0.56318405266E+03  0.96353125212E+03  0.11195280614E+04  0.10100000352E+00 0. -1.
</event>
<event>
 5   0  0.1028016E-02  0.1070146E+04  0.7818609E-02  0.9234788E-01
        2   -1    0    0  501    0  0.00000000000E+00  0.00000000000E+00  0.20797579499E+04  0.20797579499E+04  0.25500000920E-02 0.  1.
       -2   -1    0    0    0  501  0.00000000000E+00  0.00000000000E+00 -0.13766176726E+03  0.13766176728E+03  0.25500000920E-02 0. -1.
    10030    2    1    2    0    0  0.00000000000E+00  0.00000000000E+00  0.19420961826E+04  0.22174197172E+04  0.10701460739E+04 0.  0.
        2    1    3    3  502    0  0.47504623968E+02  0.17201418870E+03  0.20162797188E+04  0.20241614251E+04  0.25500000920E-02 0.  1.
       -2    1    3    3    0  502 -0.47504623968E+02 -0.17201418870E+03 -0.74183536166E+02  0.19325829208E+03  0.25500000920E-02 0. -1.
</event>
<event>
 5   0  0.5958706E-03  0.6223553E+03  0.7818609E-02  0.9860081E-01
        1   -1    0    0  501    0  0.00000000000E+00  0.00000000000E+00  0.35214996800E+03  0.35214996804E+03  0.50400001928E-02 0.  1.
       -1   -1    0    0    0  501  0.00000000000E+00  0.00000000000E+00 -0.27497241230E+03  0.27497241234E+03  0.50400001928E-02 0. -1.
    10030    2    1    2    0    0  0.00000000000E+00  0.00000000000E+00  0.77177555706E+02  0.62712238038E+03  0.62235528829E+03 0.  0.
        2    1    3    3  502    0 -0.20218148407E+03  0.13066357872E+03 -0.16010476884E+03  0.28910873442E+03  0.25500000920E-02 0. -1.
       -2    1    3    3    0  502  0.20218148407E+03 -0.13066357872E+03  0.23728232454E+03  0.33801364596E+03  0.25500000920E-02 0.  1.
</event>
<event>
 5   0  0.5958706E-03  0.1092106E+04  0.7818609E-02  0.9212920E-01
        1   -1    0    0  501    0  0.00000000000E+00  0.00000000000E+00  0.59514535062E+03  0.59514535064E+03  0.50400001928E-02 0.  1.
       -1   -1    0    0    0  501  0.00000000000E+00  0.00000000000E+00 -0.50101050271E+03  0.50101050273E+03  0.50400001928E-02 0. -1.
    10030    2    1    2    0    0  0.00000000000E+00  0.00000000000E+00  0.94134847908E+02  0.10961558534E+04  0.10921063526E+04 0.  0.
        2    1    3    3  502    0  0.24647273838E+03  0.48305041643E+03  0.11123848462E+03  0.55358876077E+03  0.25500000920E-02 0.  1.
       -2    1    3    3    0  502 -0.24647273838E+03 -0.48305041643E+03 -0.17103636717E+02  0.54256709260E+03  0.25500000920E-02 0. -1.
</event>
<event>
 5   0  0.5789905E-03  0.1141743E+04  0.7818609E-02  0.9165435E-01
       -1   -1    0    0    0  501  0.00000000000E+00  0.00000000000E+00  0.37702894860E+03  0.37702894864E+03  0.50400001928E-02 0. -1.
        1   -1    0    0  501    0  0.00000000000E+00  0.00000000000E+00 -0.86437391056E+03  0.86437391057E+03  0.50400001928E-02 0.  1.
    10030    2    1    2    0    0  0.00000000000E+00  0.00000000000E+00 -0.48734496195E+03  0.12414028592E+04  0.11417425046E+04 0.  0.
        1    1    3    3  502    0  0.18865046492E+03 -0.41011274770E+03  0.13627596648E+03  0.47154279001E+03  0.50400001928E-02 0. -1.
       -1    1    3    3    0  502 -0.18865046492E+03  0.41011274770E+03 -0.62362092844E+03  0.76986006920E+03  0.50400001928E-02 0.  1.
</event>
<event>
 5   0  0.1028016E-02  0.1093555E+04  0.7818609E-02  0.9211496E-01
        2   -1    0    0  501    0  0.00000000000E+00  0.00000000000E+00  0.14733121316E+04  0.14733121316E+04  0.25500000920E-02 0.  1.
       -2   -1    0    0    0  501  0.00000000000E+00  0.00000000000E+00 -0.20292084560E+03  0.20292084562E+03  0.25500000920E-02 0. -1.
    10030    2    1    2    0    0  0.00000000000E+00  0.00000000000E+00  0.12703912860E+04  0.16762329772E+04  0.10935551995E+04 0.  0.
        2    1    3    3  502    0 -0.71362466250E+02  0.40255335264E+03  0.11917285068E+04  0.12599042175E+04  0.25500000920E-02 0.  1.
       -2    1    3    3    0  502  0.71362466250E+02 -0.40255335264E+03  0.78662779136E+02  0.41632875968E+03  0.25500000920E-02 0. -1.
</event>
<event>
 5   0  0.9925021E-03  0.1110261E+04  0.7818609E-02  0.9195248E-01
       -2   -1    0    0    0  501  0.00000000000E+00  0.00000000000E+00  0.16174691711E+03  0.16174691713E+03  0.25500000920E-02 0.  1.
        2   -1    0    0  501    0  0.00000000000E+00  0.00000000000E+00 -0.19052588966E+04  0.19052588966E+04  0.25500000920E-02 0. -1.
    10030    2    1    2    0    0  0.00000000000E+00  0.00000000000E+00 -0.17435119795E+04  0.20670058137E+04  0.11102607853E+04 0.  0.
        4    1    3    3  502    0 -0.19650157277E+03 -0.13879362325E+03 -0.18031637165E+04  0.18191419789E+04  0.12699999809E+01 0. -1.
       -4    1    3    3    0  502  0.19650157277E+03  0.13879362325E+03  0.59651737070E+02  0.24786383478E+03  0.12699999809E+01 0.  1.
</event>
<event>
 5   0  0.5789905E-03  0.1099645E+04  0.7818609E-02  0.9205538E-01
       -1   -1    0    0    0  501  0.00000000000E+00  0.00000000000E+00  0.22626758353E+03  0.22626758358E+03  0.50400001928E-02 0.  1.
        1   -1    0    0  501    0  0.00000000000E+00  0.00000000000E+00 -0.13360508660E+04  0.13360508660E+04  0.50400001928E-02 0. -1.
    10030    2    1    2    0    0  0.00000000000E+00  0.00000000000E+00 -0.11097832825E+04  0.15623184496E+04  0.10996453991E+04 0.  0.
        1    1    3    3  502    0  0.25505917615E+03  0.48707961302E+03 -0.55746008387E+03  0.78298370219E+03  0.50400001928E-02 0.  1.
       -1    1    3    3    0  502 -0.25505917615E+03 -0.48707961302E+03 -0.55232319859E+03  0.77933474739E+03  0.50400001928E-02 0. -1.
</event>
<event>
 5   0  0.1019384E-02  0.5897140E+03  0.7818609E-02  0.9926979E-01
        2   -1    0    0  501    0  0.00000000000E+00  0.00000000000E+00  0.67690138912E+03  0.67690138912E+03  0.25500000920E-02 0.  1.
       -2   -1    0    0    0  501  0.00000000000E+00  0.00000000000E+00 -0.12843915910E+03  0.12843915912E+03  0.25500000920E-02 0. -1.
    10030    2    1    2    0    0  0.00000000000E+00  0.00000000000E+00  0.54846223002E+03  0.80534054825E+03  0.58971398228E+03 0.  0.
        1    1    3    3  502    0  0.85121978906E+02 -0.15750755268E+03 -0.45709944723E+02  0.18478035479E+03  0.50400001928E-02 0. -1.
       -1    1    3    3    0  502 -0.85121978906E+02  0.15750755268E+03  0.59417217474E+03  0.62056019346E+03  0.50400001928E-02 0.  1.
</event>
<event>
 5   0  0.5958706E-03  0.1056473E+04  0.7818609E-02  0.9248686E-01
        1   -1    0    0  501    0  0.00000000000E+00  0.00000000000E+00  0.10815064306E+04  0.10815064306E+04  0.50400001928E-02 0. -1.
       -1   -1    0    0    0  501  0.00000000000E+00  0.00000000000E+00 -0.25800496664E+03  0.25800496669E+03  0.50400001928E-02 0.  1.
    10030    2    1    2    0    0  0.00000000000E+00  0.00000000000E+00  0.82350146394E+03  0.13395113973E+04  0.10564734366E+04 0.  0.
        2    1    3    3  502    0  0.52049519729E+03 -0.38389227453E+02  0.30839445131E+03  0.60621458312E+03  0.25500000920E-02 0.  1.
       -2    1    3    3    0  502 -0.52049519729E+03  0.38389227453E+02  0.51510701262E+03  0.73329681415E+03  0.25500000920E-02 0. -1.
</event>
<event>
 5   0  0.5854579E-03  0.1130070E+04  0.7818609E-02  0.9176369E-01
        1   -1    0    0  501    0  0.00000000000E+00  0.00000000000E+00  0.36274579613E+03  0.36274579617E+03  0.50400001928E-02 0. -1.
       -1   -1    0    0    0  501  0.00000000000E+00  0.00000000000E+00 -0.88013315482E+03  0.88013315484E+03  0.50400001928E-02 0.  1.
    10030    2    1    2    0    0  0.00000000000E+00  0.00000000000E+00 -0.51738735869E+03  0.12428789510E+04  0.11300700898E+04 0.  0.
        4    1    3    3  502    0  0.42525405555E+03  0.34362983674E+03 -0.41555085811E+03  0.68673619756E+03  0.12699999809E+01 0.  1.
       -4    1    3    3    0  502 -0.42525405555E+03 -0.34362983674E+03 -0.10183650058E+03  0.55614275345E+03  0.12699999809E+01 0. -1.
</event>
<event>
 5   0  0.5789905E-03  0.1100812E+04  0.7818609E-02  0.9204401E-01
        1   -1    0    0  501    0  0.00000000000E+00  0.00000000000E+00  0.13176915889E+03  0.13176915899E+03  0.50400001928E-02 0. -1.
       -1   -1    0    0    0  501  0.00000000000E+00  0.00000000000E+00 -0.22990718177E+04  0.22990718177E+04  0.50400001928E-02 0.  1.
    10030    2    1    2    0    0  0.00000000000E+00  0.00000000000E+00 -0.21673026588E+04  0.24308409767E+04  0.11008119908E+04 0.  0.
        1    1    3    3  502    0  0.12834103652E+03 -0.42966159460E+03 -0.17884394271E+04  0.18437993633E+04  0.50400001928E-02 0.  1.
       -1    1    3    3    0  502 -0.12834103652E+03  0.42966159460E+03 -0.37886323171E+03  0.58704161343E+03  0.50400001928E-02 0. -1.
</event>
<event>
 5   0  0.5789905E-03  0.1075022E+04  0.7818609E-02  0.9229885E-01
       -1   -1    0    0    0  501  0.00000000000E+00  0.00000000000E+00  0.35160239316E+03  0.35160239320E+03  0.50400001928E-02 0. -1.
        1   -1    0    0  501    0  0.00000000000E+00  0.00000000000E+00 -0.82171827945E+03  0.82171827946E+03  0.50400001928E-02 0.  1.
    10030    2    1    2    0    0  0.00000000000E+00  0.00000000000E+00 -0.47011588629E+03  0.11733206727E+04  0.10750220716E+04 0.  0.
        1    1    3    3  502    0 -0.11768808440E+03  0.44402908041E+03  0.69580178445E+02  0.46460059268E+03  0.50400001928E-02 0.  1.
       -1    1    3    3    0  502  0.11768808440E+03 -0.44402908041E+03 -0.53969606473E+03  0.70872007998E+03  0.50400001928E-02 0. -1.
</event>
<event>
 5   0  0.5789905E-03  0.9331876E+03  0.7818609E-02  0.9385020E-01
        1   -1    0    0  501    0  0.00000000000E+00  0.00000000000E+00  0.11118761132E+04  0.11118761132E+04  0.50400001928E-02 0. -1.
       -1   -1    0    0    0  501  0.00000000000E+00  0.00000000000E+00 -0.19580400093E+03  0.19580400099E+03  0.50400001928E-02 0.  1.
    10030    2    1    2    0    0  0.00000000000E+00  0.00000000000E+00  0.91607211229E+03  0.13076801142E+04  0.93318763720E+03 0.  0.
        1    1    3    3  502    0  0.11060908380E+03  0.27980634472E+03  0.95778109923E+03  0.10039275841E+04  0.50400001928E-02 0. -1.
       -1    1    3    3    0  502 -0.11060908380E+03 -0.27980634472E+03 -0.41708986935E+02  0.30375253017E+03  0.50400001928E-02 0.  1.
</event>
<event>
 5   0  0.5958706E-03  0.1157665E+04  0.7818609E-02  0.9150741E-01
        1   -1    0    0  501    0  0.00000000000E+00  0.00000000000E+00  0.13599321759E+04  0.13599321759E+04  0.50400001928E-02 0.  1.
       -1   -1    0    0    0  501  0.00000000000E+00  0.00000000000E+00 -0.24637041591E+03  0.24637041596E+03  0.50400001928E-02 0. -1.
    10030    2    1    2    0    0  0.00000000000E+00  0.00000000000E+00  0.11135617600E+04  0.16063025919E+04  0.11576649875E+04 0.  0.
        2    1    3    3  502    0  0.28368802138E+03  0.30721404666E+03  0.14407810282E+01  0.41816436936E+03  0.25500000920E-02 0. -1.
       -2    1    3    3    0  502 -0.28368802138E+03 -0.30721404666E+03  0.11121209790E+04  0.11881382225E+04  0.25500000920E-02 0.  1.
</event>
<event>
 5   0  0.5854579E-03  0.1177626E+04  0.7818609E-02  0.9132669E-01
        1   -1    0    0  501    0  0.00000000000E+00  0.00000000000E+00  0.67223063241E+03  0.67223063243E+03  0.50400001928E-02 0. -1.
       -1   -1    0    0    0  501  0.00000000000E+00  0.00000000000E+00 -0.51574677408E+03  0.51574677410E+03  0.50400001928E-02 0.  1.
    10030    2    1    2    0    0  0.00000000000E+00  0.00000000000E+00  0.15648385833E+03  0.11879774065E+04  0.11776260529E+04 0.  0.
        4    1    3    3  502    0 -0.40140162377E+03 -0.34305291507E+03 -0.18460663141E+03  0.55936552215E+03  0.12699999809E+01 0.  1.
       -4    1    3    3    0  502  0.40140162377E+03  0.34305291507E+03  0.34109048974E+03  0.62861188439E+03  0.12699999809E+01 0. -1.
</event>
<event>
 5   0  0.1028016E-02  0.1078088E+04  0.7818609E-02  0.9226816E-01
       -2   -1    0    0    0  501  0.00000000000E+00  0.00000000000E+00  0.50380314797E+03  0.50380314798E+03  0.25500000920E-02 0. -1.
        2   -1    0    0  501    0  0.00000000000E+00  0.00000000000E+00 -0.57675026225E+03  0.57675026226E+03  0.25500000920E-02 0.  1.
    10030    2    1    2    0    0  0.00000000000E+00  0.00000000000E+00 -0.72947114276E+02  0.10805534102E+04  0.10780883038E+04 0.  0.
        2    1    3    3  502    0 -0.13540231619E+03 -0.44444624501E+02 -0.55752712856E+03  0.57545252712E+03  0.25500000920E-02 0.  1.
       -2    1    3    3    0  502  0.13540231619E+03  0.44444624501E+02  0.48458001428E+03  0.50510088312E+03  0.25500000920E-02 0. -1.
</event>
<event>
 5   0  0.3949750E-03  0.1117067E+04  0.7818609E-02  0.9188715E-01
        4   -1    0    0  501    0  0.00000000000E+00  0.00000000000E+00  0.61247268283E+03  0.61247399954E+03  0.12699999809E+01 0.  1.
       -4   -1    0    0    0  501  0.00000000000E+00  0.00000000000E+00 -0.50934215951E+03  0.50934374283E+03  0.12699999809E+01 0. -1.
    10030    2    1    2    0    0  0.00000000000E+00  0.00000000000E+00  0.10313052332E+03  0.11218177424E+04  0.11170672058E+04 0.  0.
        5    1    3    3  502    0  0.37919886102E+03 -0.40694966622E+03  0.10215696178E+03  0.56555984818E+03  0.46999998093E+01 0. -1.
       -5    1    3    3    0  502 -0.37919886102E+03  0.40694966622E+03  0.97356154146E+00  0.55625789419E+03  0.46999998093E+01 0.  1.
</event>
<event>
 5   0  0.5712664E-03  0.1115345E+04  0.7818609E-02  0.9190363E-01
       -1   -1    0    0    0  501  0.00000000000E+00  0.00000000000E+00  0.18655433030E+03  0.18655433036E+03  0.50400001928E-02 0.  1.
        1   -1    0    0  501    0  0.00000000000E+00  0.00000000000E+00 -0.16670670673E+04  0.16670670673E+04  0.50400001928E-02 0. -1.
    10030    2    1    2    0    0  0.00000000000E+00  0.00000000000E+00 -0.14805127370E+04  0.18536213976E+04  0.11153449338E+04 0.  0.
        5    1    3    3  502    0 -0.36811405818E+03  0.22378925661E+03 -0.13287447817E+04  0.13968444352E+04  0.46999998093E+01 0. -1.
       -5    1    3    3    0  502  0.36811405818E+03 -0.22378925661E+03 -0.15176795530E+03  0.45677696248E+03  0.46999998093E+01 0.  1.
</event>
<event>
 5   0  0.1019384E-02  0.1116095E+04  0.7818609E-02  0.9189646E-01
       -2   -1    0    0    0  501  0.00000000000E+00  0.00000000000E+00  0.40895921238E+03  0.40895921239E+03  0.25500000920E-02 0.  1.
        2   -1    0    0  501    0  0.00000000000E+00  0.00000000000E+00 -0.76148609975E+03  0.76148609976E+03  0.25500000920E-02 0. -1.
    10030    2    1    2    0    0  0.00000000000E+00  0.00000000000E+00 -0.35252688737E+03  0.11704453121E+04  0.11160945401E+04 0.  0.
        1    1    3    3  502    0 -0.28305110984E+03 -0.27369297623E+03  0.23845752370E+03  0.46031268357E+03  0.50400001928E-02 0.  1.
       -1    1    3    3    0  502  0.28305110984E+03  0.27369297623E+03 -0.59098441107E+03  0.71013262858E+03  0.50400001928E-02 0. -1.
</event>
<event>
 5   0  0.1019384E-02  0.1087366E+04  0.7818609E-02  0.9217594E-01
        2   -1    0    0  501    0  0.00000000000E+00  0.00000000000E+00  0.94083153320E+03  0.94083153320E+03  0.25500000920E-02 0.  1.
       -2   -1    0    0    0  501  0.00000000000E+00  0.00000000000E+00 -0.31418068858E+03  0.31418068859E+03  0.25500000920E-02 0. -1.
    10030    2    1    2    0    0  0.00000000000E+00  0.00000000000E+00  0.62665084462E+03  0.12550122218E+04  0.10873658059E+04 0.  0.
        1    1    3    3  502    0 -0.50784372459E+03 -0.66656886550E+02  0.10288920207E+03  0.52243140895E+03  0.50400001928E-02 0. -1.
       -1    1    3    3    0  502  0.50784372459E+03  0.66656886550E+02  0.52376164255E+03  0.73258081285E+03  0.50400001928E-02 0.  1.
</event>
<event>
 5   0  0.1028016E-02  0.1246097E+04  0.7818609E-02  0.9073438E-01
        2   -1    0    0  501    0  0.00000000000E+00  0.00000000000E+00  0.71528509110E+03  0.71528509111E+03  0.25500000920E-02 0. -1.
       -2   -1    0    0    0  501  0.00000000000E+00  0.00000000000E+00 -0.54270615647E+03  0.54270615648E+03  0.25500000920E-02 0.  1.
    10030    2    1    2    0    0  0.00000000000E+00  0.00000000000E+00  0.17257893463E+03  0.12579912476E+04  0.12460973037E+04 0.  0.
        2    1    3    3  502    0  0.23846356712E+03  0.56771680051E+03 -0.96034034250E+01  0.61584045320E+03  0.25500000920E-02 0. -1.
       -2    1    3    3    0  502 -0.23846356712E+03 -0.56771680051E+03  0.18218233806E+03  0.64215079439E+03  0.25500000920E-02 0.  1.
</event>
<event>
 5   0  0.9692981E-03  0.1063305E+04  0.7818609E-02  0.9241714E-01
        2   -1    0    0  501    0  0.00000000000E+00  0.00000000000E+00  0.52362186968E+03  0.52362186968E+03  0.25500000920E-02 0. -1.
       -2   -1    0    0    0  501  0.00000000000E+00  0.00000000000E+00 -0.53980666790E+03  0.53980666791E+03  0.25500000920E-02 0.  1.
    10030    2    1    2    0    0  0.00000000000E+00  0.00000000000E+00 -0.16184798223E+02  0.10634285376E+04  0.10633053686E+04 0.  0.
        5    1    3    3  502    0  0.29523292728E+02 -0.47423514259E+03 -0.24657733680E+03  0.53534387855E+03  0.46999998093E+01 0.  1.
       -5    1    3    3    0  502 -0.29523292728E+02  0.47423514259E+03  0.23039253857E+03  0.52808465904E+03  0.46999998093E+01 0. -1.
</event>
<event>
 5   0  0.5958706E-03  0.1138959E+04  0.7818609E-02  0.9168030E-01
       -1   -1    0    0    0  501  0.00000000000E+00  0.00000000000E+00  0.24862486971E+03  0.24862486976E+03  0.50400001928E-02 0. -1.
        1   -1    0    0  501    0  0.00000000000E+00  0.00000000000E+00 -0.13044030841E+04  0.13044030841E+04  0.50400001928E-02 0.  1.
    10030    2    1    2    0    0  0.00000000000E+00  0.00000000000E+00 -0.10557782144E+04  0.15530279538E+04  0.11389592563E+04 0.  0.
        2    1    3    3  502    0  0.31051400181E+03 -0.44702889001E+03 -0.75627162359E+03  0.93177279552E+03  0.25500000920E-02 0. -1.
       -2    1    3    3    0  502 -0.31051400181E+03  0.44702889001E+03 -0.29950659076E+03  0.62125515832E+03  0.25500000920E-02 0.  1.
</event>
<event>
 5   0  0.1019384E-02  0.1090740E+04  0.7818609E-02  0.9214264E-01
       -2   -1    0    0    0  501  0.00000000000E+00  0.00000000000E+00  0.10306951499E+03  0.10306951503E+03  0.25500000920E-02 0.  1.
        2   -1    0    0  501    0  0.00000000000E+00  0.00000000000E+00 -0.28857079034E+04  0.28857079034E+04  0.25500000920E-02 0. -1.
    10030    2    1    2    0    0  0.00000000000E+00  0.00000000000E+00 -0.27826383884E+04  0.29887774184E+04  0.10907401415E+04 0.  0.
        1    1    3    3  502    0 -0.13366098626E+02  0.13301643838E+03 -0.28401146172E+04  0.28432592327E+04  0.50400001928E-02 0. -1.
       -1    1    3    3    0  502  0.13366098626E+02 -0.13301643838E+03  0.57476228806E+02  0.14551818572E+03  0.50400001928E-02 0.  1.
</event>
<event>
 5   0  0.5789905E-03  0.1085896E+04  0.7818609E-02  0.9219049E-01
       -1   -1    0    0    0  501  0.00000000000E+00  0.00000000000E+00  0.91401974701E+03  0.91401974702E+03  0.50400001928E-02 0. -1.
        1   -1    0    0  501    0  0.00000000000E+00  0.00000000000E+00 -0.32252288743E+03  0.32252288747E+03  0.50400001928E-02 0.  1.
    10030    2    1    2    0    0  0.00000000000E+00  0.00000000000E+00  0.59149685958E+03  0.12365426345E+04  0.10858955530E+04 0.  0.
        1    1    3    3  502    0  0.24179106793E+03 -0.17450963514E+03 -0.22093393951E+03  0.37111768880E+03  0.50400001928E-02 0.  1.
       -1    1    3    3    0  502 -0.24179106793E+03  0.17450963514E+03  0.81243079909E+03  0.86542494569E+03  0.50400001928E-02 0. -1.
</event>
<event>
 5   0  0.3949750E-03  0.1187876E+04  0.7818609E-02  0.9123535E-01
       -4   -1    0    0    0  501  0.00000000000E+00  0.00000000000E+00  0.12659199946E+04  0.12659206317E+04  0.12699999809E+01 0.  1.
        4   -1    0    0  501    0  0.00000000000E+00  0.00000000000E+00 -0.27865862173E+03  0.27866151576E+03  0.12699999809E+01 0. -1.
    10030    2    1    2    0    0  0.00000000000E+00  0.00000000000E+00  0.98726137290E+03  0.15445821474E+04  0.11878758318E+04 0.  0.
        4    1    3    3  502    0  0.14876286893E+03  0.20822481129E+03  0.11905574156E+04  0.12177506050E+04  0.12699999809E+01 0.  1.
       -4    1    3    3    0  502 -0.14876286893E+03 -0.20822481129E+03 -0.20329604275E+03  0.32683154240E+03  0.12699999809E+01 0. -1.
</event>
<event>
 5   0  0.5789905E-03  0.8723952E+03  0.7818609E-02  0.9460762E-01
       -1   -1    0    0    0  501  0.00000000000E+00  0.00000000000E+00  0.49985509811E+03  0.49985509813E+03  0.50400001928E-02 0. -1.
        1   -1    0    0  501    0  0.00000000000E+00  0.00000000000E+00 -0.38064703984E+03  0.38064703988E+03  0.50400001928E-02 0.  1.
    10030    2    1    2    0    0  0.00000000000E+00  0.00000000000E+00  0.11920805826E+03  0.88050213801E+03  0.87239523949E+03 0.  0.
        1    1    3    3  502    0  0.30736205435E+03 -0.66632804341E+02  0.36466598020E+03  0.48155232344E+03  0.50400001928E-02 0. -1.
       -1    1    3    3    0  502 -0.30736205435E+03  0.66632804341E+02 -0.24545792194E+03  0.39894981456E+03  0.50400001928E-02 0.  1.
</event>
<event>
 5   0  0.5712664E-03  0.1100655E+04  0.7818609E-02  0.9204553E-01
        1   -1    0    0  501    0  0.00000000000E+00  0.00000000000E+00  0.89806276591E+03  0.89806276593E+03  0.50400001928E-02 0.  1.
       -1   -1    0    0    0  501  0.00000000000E+00  0.00000000000E+00 -0.33723758218E+03  0.33723758221E+03  0.50400001928E-02 0. -1.
    10030    2    1    2    0    0  0.00000000000E+00  0.00000000000E+00  0.56082518374E+03  0.12353003481E+04  0.11006552882E+04 0.  0.
        5    1    3    3  502    0 -0.11636900849E+03 -0.14602165675E+03 -0.30057633715E+03  0.35388175260E+03  0.46999998093E+01 0. -1.
       -5    1    3    3    0  502  0.11636900849E+03  0.14602165675E+03  0.86140152088E+03  0.88141859553E+03  0.46999998093E+01 0.  1.
</event>
<event>
 5   0  0.3949750E-03  0.1094529E+04  0.7818609E-02  0.9210541E-01
       -4   -1    0    0    0  501  0.00000000000E+00  0.00000000000E+00  0.53510039128E+03  0.53510189838E+03  0.12699999809E+01 0.  1.
        4   -1    0    0  501    0  0.00000000000E+00  0.00000000000E+00 -0.55970174345E+03  0.55970318431E+03  0.12699999809E+01 0. -1.
    10030    2    1    2    0    0  0.00000000000E+00  0.00000000000E+00 -0.24601352174E+02  0.10948050827E+04  0.10945286394E+04 0.  0.
        4    1    3    3  502    0  0.13091293161E+03 -0.33772644304E+03  0.39804588672E+03  0.53818164854E+03  0.12699999809E+01 0.  1.
       -4    1    3    3    0  502 -0.13091293161E+03  0.33772644304E+03 -0.42264723890E+03  0.55662343414E+03  0.12699999809E+01 0. -1.
</event>
<event>
 5   0  0.1019384E-02  0.9860077E+03  0.7818609E-02  0.9324026E-01
        2   -1    0    0  501    0  0.00000000000E+00  0.00000000000E+00  0.91239042390E+03  0.91239042391E+03  0.25500000920E-02 0. -1.
       -2   -1    0    0    0  501  0.00000000000E+00  0.00000000000E+00 -0.26639119662E+03  0.26639119663E+03  0.25500000920E-02 0.  1.
    10030    2    1    2    0    0  0.00000000000E+00  0.00000000000E+00  0.64599922729E+03  0.11787816205E+04  0.98600766085E+03 0.  0.
        1    1    3    3  502    0 -0.48083459166E+03  0.72086326058E+02  0.42052296621E+03  0.64283583291E+03  0.50400001928E-02 0. -1.
       -1    1    3    3    0  502  0.48083459166E+03 -0.72086326058E+02  0.22547626108E+03  0.53594578762E+03  0.50400001928E-02 0.  1.
</event>
<event>
 5   0  0.9719260E-03  0.1075980E+04  0.7818609E-02  0.9228925E-01
       -2   -1    0    0    0  501  0.00000000000E+00  0.00000000000E+00  0.49744621062E+03  0.49744621062E+03  0.25500000920E-02 0. -1.
        2   -1    0    0  501    0  0.00000000000E+00  0.00000000000E+00 -0.58183829127E+03  0.58183829127E+03  0.25500000920E-02 0.  1.
    10030    2    1    2    0    0  0.00000000000E+00  0.00000000000E+00 -0.84392080649E+02  0.10792845019E+04  0.10759800243E+04 0.  0.
        3    1    3    3  502    0 -0.16067794455E+03 -0.27952932576E+03 -0.47419165266E+03  0.57342111879E+03  0.10100000352E+00 0.  1.
       -3    1    3    3    0  502  0.16067794455E+03  0.27952932576E+03  0.38979957201E+03  0.50586338310E+03  0.10100000352E+00 0. -1.
</event>
<event>
 5   0  0.5789905E-03  0.1135229E+04  0.7818609E-02  0.9171520E-01
       -1   -1    0    0    0  501  0.00000000000E+00  0.00000000000E+00  0.47245408192E+03  0.47245408195E+03  0.50400001928E-02 0. -1.
        1   -1    0    0  501    0  0.00000000000E+00  0.00000000000E+00 -0.68194176534E+03  0.68194176536E+03  0.50400001928E-02 0.  1.
    10030    2    1    2    0    0  0.00000000000E+00  0.00000000000E+00 -0.20948768342E+03  0.11543958473E+04  0.11352289121E+04 0.  0.
        1    1    3    3  502    0  0.24558656105E+03 -0.77653870183E+02  0.40960566377E+03  0.48385915548E+03  0.50400001928E-02 0. -1.
       -1    1    3    3    0  502 -0.24558656105E+03  0.77653870183E+02 -0.61909334720E+03  0.67053669183E+03  0.50400001928E-02 0.  1.
</event>
<event>
 5   0  0.5958706E-03  0.1094428E+04  0.7818609E-02  0.9210640E-01
       -1   -1    0    0    0  501  0.00000000000E+00  0.00000000000E+00  0.42524476957E+03  0.42524476960E+03  0.50400001928E-02 0. -1.
        1   -1    0    0  501    0  0.00000000000E+00  0.00000000000E+00 -0.70416602765E+03  0.70416602767E+03  0.50400001928E-02 0.  1.
    10030    2    1    2    0    0  0.00000000000E+00  0.00000000000E+00 -0.27892125808E+03  0.11294107973E+04  0.10944275585E+04 0.  0.
        2    1    3    3  502    0 -0.50186011628E+03 -0.74454462305E+02  0.72119545374E+02  0.51245319016E+03  0.25500000920E-02 0. -1.
       -2    1    3    3    0  502  0.50186011628E+03  0.74454462305E+02 -0.35104080345E+03  0.61695760711E+03  0.25500000920E-02 0.  1.
</event>
<event>
 5   0  0.3949750E-03  0.1164248E+04  0.7818609E-02  0.9144739E-01
       -3   -1    0    0    0  501  0.00000000000E+00  0.00000000000E+00  0.48580686436E+03  0.48580687486E+03  0.10100000352E+00 0. -1.
        3   -1    0    0  501    0  0.00000000000E+00  0.00000000000E+00 -0.69753694245E+03  0.69753694976E+03  0.10100000352E+00 0.  1.
    10030    2    1    2    0    0  0.00000000000E+00  0.00000000000E+00 -0.21173007809E+03  0.11833438246E+04  0.11642478178E+04 0.  0.
        2    1    3    3  502    0  0.35469756055E+03 -0.51979408313E+01  0.36325802353E+03  0.50773395565E+03  0.25500000920E-02 0. -1.
       -2    1    3    3    0  502 -0.35469756055E+03  0.51979408313E+01 -0.57498810161E+03  0.67560986897E+03  0.25500000920E-02 0.  1.
</event>
<event>
 5   0  0.5854579E-03  0.1318646E+04  0.7818609E-02  0.9014908E-01
        1   -1    0    0  501    0  0.00000000000E+00  0.00000000000E+00  0.52077442083E+03  0.52077442086E+03  0.50400001928E-02 0.  1.
       -1   -1    0    0    0  501  0.00000000000E+00  0.00000000000E+00 -0.83473190550E+03  0.83473190551E+03  0.50400001928E-02 0. -1.
    10030    2    1    2    0    0  0.00000000000E+00  0.00000000000E+00 -0.31395748466E+03  0.13555063264E+04  0.13186463129E+04 0.  0.
        4    1    3    3  502    0 -0.46465719581E+03 -0.15953846947E+03 -0.60898190134E+03  0.78244450405E+03  0.12699999809E+01 0. -1.
       -4    1    3    3    0  502  0.46465719581E+03  0.15953846947E+03  0.29502441668E+03  0.57306182232E+03  0.12699999809E+01 0.  1.
</event>
<event>
 5   0  0.5958706E-03  0.9544593E+03  0.7818609E-02  0.9359954E-01
        1   -1    0    0  501    0  0.00000000000E+00  0.00000000000E+00  0.77979303761E+03  0.77979303763E+03  0.50400001928E-02 0. -1.
       -1   -1    0    0    0  501  0.00000000000E+00  0.00000000000E+00 -0.29206226128E+03  0.29206226133E+03  0.50400001928E-02 0.  1.
    10030    2    1    2    0    0  0.00000000000E+00  0.00000000000E+00  0.48773077633E+03  0.10718552990E+04  0.95445925619E+03 0.  0.
        2    1    3    3  502    0 -0.39441436064E+03 -0.26834771147E+03  0.25871852244E+03  0.54268633297E+03  0.25500000920E-02 0.  1.
       -2    1    3    3    0  502  0.39441436064E+03  0.26834771147E+03  0.22901225389E+03  0.52916896599E+03  0.25500000920E-02 0. -1.
</event>
<event>
 5   0  0.5998641E-03  0.1039070E+04  0.7818609E-02  0.9266702E-01
       -1   -1    0    0    0  501  0.00000000000E+00  0.00000000000E+00  0.78580047855E+03  0.78580047856E+03  0.50400001928E-02 0. -1.
        1   -1    0    0  501    0  0.00000000000E+00  0.00000000000E+00 -0.34349275401E+03  0.34349275404E+03  0.50400001928E-02 0.  1.
    10030    2    1    2    0    0  0.00000000000E+00  0.00000000000E+00  0.44230772454E+03  0.11292932326E+04  0.10390702970E+04 0.  0.
        3    1    3    3  502    0 -0.35264905165E+03 -0.36849424808E+03  0.32856546306E+03  0.60671627488E+03  0.10100000352E+00 0. -1.
       -3    1    3    3    0  502  0.35264905165E+03  0.36849424808E+03  0.11374226148E+03  0.52257695772E+03  0.10100000352E+00 0.  1.
</event>
<event>
 5   0  0.1019384E-02  0.1084136E+04  0.7818609E-02  0.9220793E-01
       -2   -1    0    0    0  501  0.00000000000E+00  0.00000000000E+00  0.18280411934E+03  0.18280411936E+03  0.25500000920E-02 0.  1.
        2   -1    0    0  501    0  0.00000000000E+00  0.00000000000E+00 -0.16073916193E+04  0.16073916193E+04  0.25500000920E-02 0. -1.
    10030    2    1    2    0    0  0.00000000000E+00  0.00000000000E+00 -0.14245875000E+04  0.17901957387E+04  0.10841361712E+04 0.  0.
        1    1    3    3  502    0 -0.33137578591E+03  0.16612315563E+03 -0.59196149015E+02  0.37538113753E+03  0.50400001928E-02 0.  1.
       -1    1    3    3    0  502  0.33137578591E+03 -0.16612315563E+03 -0.13653913509E+04  0.14148146011E+04  0.50400001928E-02 0. -1.
</event>
<event>
 5   0  0.5712664E-03  0.1078999E+04  0.7818609E-02  0.9225906E-01
        1   -1    0    0  501    0  0.00000000000E+00  0.00000000000E+00  0.46692700971E+03  0.46692700974E+03  0.50400001928E-02 0.  1.
       -1   -1    0    0    0  501  0.00000000000E+00  0.00000000000E+00 -0.62335207373E+03  0.62335207375E+03  0.50400001928E-02 0. -1.
    10030    2    1    2    0    0  0.00000000000E+00  0.00000000000E+00 -0.15642506402E+03  0.10902790835E+04  0.10789993880E+04 0.  0.
        5    1    3    3  502    0 -0.26405579252E+03  0.29977384963E+02 -0.55260283041E+03  0.61320150305E+03  0.46999998093E+01 0. -1.
       -5    1    3    3    0  502  0.26405579252E+03 -0.29977384963E+02  0.39617776639E+03  0.47707758044E+03  0.46999998093E+01 0.  1.
</event>
<event>
 5   0  0.1028016E-02  0.1100811E+04  0.7818609E-02  0.9204402E-01
       -2   -1    0    0    0  501  0.00000000000E+00  0.00000000000E+00  0.19854030077E+03  0.19854030078E+03  0.25500000920E-02 0.  1.
        2   -1    0    0  501    0  0.00000000000E+00  0.00000000000E+00 -0.15258664020E+04  0.15258664020E+04  0.25500000920E-02 0. -1.
    10030    2    1    2    0    0  0.00000000000E+00  0.00000000000E+00 -0.13273261012E+04  0.17244067028E+04  0.11008105639E+04 0.  0.
        2    1    3    3  502    0  0.15910015932E+02  0.11435527917E+03 -0.15066836294E+04  0.15111008628E+04  0.25500000920E-02 0. -1.
       -2    1    3    3    0  502 -0.15910015932E+02 -0.11435527917E+03  0.17935752813E+03  0.21330584001E+03  0.25500000920E-02 0.  1.
</event>
<event>
 5   0  0.5958706E-03  0.1100884E+04  0.7818609E-02  0.9204331E-01
       -1   -1    0    0    0  501  0.00000000000E+00  0.00000000000E+00  0.49419405254E+03  0.49419405257E+03  0.50400001928E-02 0. -1.
        1   -1    0    0  501    0  0.00000000000E+00  0.00000000000E+00 -0.61309213637E+03  0.61309213639E+03  0.50400001928E-02 0.  1.
    10030    2    1    2    0    0  0.00000000000E+00  0.00000000000E+00 -0.11889808383E+03  0.11072861890E+04  0.11008841674E+04 0.  0.
        2    1    3    3  502    0 -0.11380768031E+03  0.35316047153E+03 -0.46839923913E+03  0.59755531457E+03  0.25500000920E-02 0.  1.
       -2    1    3    3    0  502  0.11380768031E+03 -0.35316047153E+03  0.34950115530E+03  0.50973087439E+03  0.25500000920E-02 0. -1.
</event>
<event>
 5   0  0.9719260E-03  0.1110831E+04  0.7818609E-02  0.9194699E-01
       -2   -1    0    0    0  501  0.00000000000E+00  0.00000000000E+00  0.42163477958E+03  0.42163477959E+03  0.25500000920E-02 0. -1.
        2   -1    0    0  501    0  0.00000000000E+00  0.00000000000E+00 -0.73164324313E+03  0.73164324314E+03  0.25500000920E-02 0.  1.
    10030    2    1    2    0    0  0.00000000000E+00  0.00000000000E+00 -0.31000846355E+03  0.11532780227E+04  0.11108307478E+04 0.  0.
        3    1    3    3  502    0  0.13598465667E+03 -0.37755003351E+03 -0.55367010524E+03  0.68380293235E+03  0.10100000352E+00 0.  1.
       -3    1    3    3    0  502 -0.13598465667E+03  0.37755003351E+03  0.24366164169E+03  0.46947509038E+03  0.10100000352E+00 0. -1.
</event>
<event>
 5   0  0.5789905E-03  0.1098560E+04  0.7818609E-02  0.9206596E-01
        1   -1    0    0  501    0  0.00000000000E+00  0.00000000000E+00  0.15464327599E+04  0.15464327599E+04  0.50400001928E-02 0. -1.
       -1   -1    0    0    0  501  0.00000000000E+00  0.00000000000E+00 -0.19509977158E+03  0.19509977164E+03  0.50400001928E-02 0.  1.
    10030    2    1    2    0    0  0.00000000000E+00  0.00000000000E+00  0.13513329884E+04  0.17415325316E+04  0.10985602911E+04 0.  0.
        1    1    3    3  502    0 -0.11776205765E+03  0.47953401384E+03  0.29424811776E+03  0.57480668705E+03  0.50400001928E-02 0.  1.
       -1    1    3    3    0  502  0.11776205765E+03 -0.47953401384E+03  0.10570848706E+04  0.11667258445E+04  0.50400001928E-02 0. -1.
</event>
<event>
 5   0  0.9719260E-03  0.9583177E+03  0.7818609E-02  0.9355481E-01
       -2   -1    0    0    0  501  0.00000000000E+00  0.00000000000E+00  0.46412042973E+03  0.46412042974E+03  0.25500000920E-02 0. -1.
        2   -1    0    0  501    0  0.00000000000E+00  0.00000000000E+00 -0.49468453025E+03  0.49468453026E+03  0.25500000920E-02 0.  1.
    10030    2    1    2    0    0  0.00000000000E+00  0.00000000000E+00 -0.30564100522E+02  0.95880496000E+03  0.95831768588E+03 0.  0.
        3    1    3    3  502    0 -0.16783678900E+01 -0.46603465610E+03  0.96139151889E+02  0.47585067440E+03  0.10100000352E+00 0.  1.
       -3    1    3    3    0  502  0.16783678900E+01  0.46603465610E+03 -0.12670325241E+03  0.48295428559E+03  0.10100000352E+00 0. -1.
</event>
<event>
 5   0  0.5998641E-03  0.1222780E+04  0.7818609E-02  0.9093148E-01
        1   -1    0    0  501    0  0.00000000000E+00  0.00000000000E+00  0.48039846224E+03  0.48039846227E+03  0.50400001928E-02 0. -1.
       -1   -1    0    0    0  501  0.00000000000E+00  0.00000000000E+00 -0.77809897530E+03  0.77809897531E+03  0.50400001928E-02 0.  1.
    10030    2    1    2    0    0  0.00000000000E+00  0.00000000000E+00 -0.29770051305E+03  0.12584974376E+04  0.12227797042E+04 0.  0.
        3    1    3    3  502    0  0.16510577903E+03 -0.58866973911E+03 -0.14642319258E+03  0.62867459114E+03  0.10100000352E+00 0. -1.
       -3    1    3    3    0  502 -0.16510577903E+03  0.58866973911E+03 -0.15127732047E+03  0.62982284645E+03  0.10100000352E+00 0.  1.
</event>
<event>
 5   0  0.5712664E-03  0.1126372E+04  0.7818609E-02  0.9179863E-01
       -1   -1    0    0    0  501  0.00000000000E+00  0.00000000000E+00  0.55804987095E+03  0.55804987097E+03  0.50400001928E-02 0.  1.
        1   -1    0    0  501    0  0.00000000000E+00  0.00000000000E+00 -0.56836929720E+03  0.56836929722E+03  0.50400001928E-02 0. -1.
    10030    2    1    2    0    0  0.00000000000E+00  0.00000000000E+00 -0.10319426255E+02  0.11264191682E+04  0.11263718977E+04 0.  0.
        5    1    3    3  502    0  0.35300541452E+03 -0.11569290610E+03 -0.42844884553E+03  0.56708744867E+03  0.46999998093E+01 0. -1.
       -5    1    3    3    0  502 -0.35300541452E+03  0.11569290610E+03  0.41812941927E+03  0.55933171952E+03  0.46999998093E+01 0.  1.
</event>
<event>
 5   0  0.5998641E-03  0.1165772E+04  0.7818609E-02  0.9143355E-01
       -1   -1    0    0    0  501  0.00000000000E+00  0.00000000000E+00  0.36138136358E+03  0.36138136361E+03  0.50400001928E-02 0.  1.
        1   -1    0    0  501    0  0.00000000000E+00  0.00000000000E+00 -0.94015925155E+03  0.94015925156E+03  0.50400001928E-02 0. -1.
    10030    2    1    2    0    0  0.00000000000E+00  0.00000000000E+00 -0.57877788797E+03  0.13015406152E+04  0.11657719028E+04 0.  0.
        3    1    3    3  502    0  0.45559633132E+03 -0.62166741688E+01  0.11647144752E+03  0.47028956233E+03  0.10100000352E+00 0.  1.
       -3    1    3    3    0  502 -0.45559633132E+03  0.62166741688E+01 -0.69524933549E+03  0.83125105284E+03  0.10100000352E+00 0. -1.
</event>
<event>
 5   0  0.9692981E-03  0.9852930E+03  0.7818609E-02  0.9324824E-01
       -2   -1    0    0    0  501  0.00000000000E+00  0.00000000000E+00  0.54828677359E+03  0.54828677359E+03  0.25500000920E-02 0. -1.
        2   -1    0    0  501    0  0.00000000000E+00  0.00000000000E+00 -0.44265264420E+03  0.44265264420E+03  0.25500000920E-02 0.  1.
    10030    2    1    2    0    0  0.00000000000E+00  0.00000000000E+00  0.10563412939E+03  0.99093941780E+03  0.98529303278E+03 0.  0.
        5    1    3    3  502    0  0.43325348803E+03  0.15779864001E+03  0.22721640095E+03  0.51406067594E+03  0.46999998093E+01 0.  1.
       -5    1    3    3    0  502 -0.43325348803E+03 -0.15779864001E+03 -0.12158227156E+03  0.47687874186E+03  0.46999998093E+01 0. -1.
</event>
<event>
 5   0  0.1019384E-02  0.1121241E+04  0.7818609E-02  0.9184733E-01
        2   -1    0    0  501    0  0.00000000000E+00  0.00000000000E+00  0.88586162497E+03  0.88586162497E+03  0.25500000920E-02 0.  1.
       -2   -1    0    0    0  501  0.00000000000E+00  0.00000000000E+00 -0.35479054839E+03  0.35479054840E+03  0.25500000920E-02 0. -1.
    10030    2    1    2    0    0  0.00000000000E+00  0.00000000000E+00  0.53107107658E+03  0.12406521734E+04  0.11212409763E+04 0.  0.
        1    1    3    3  502    0 -0.17637349396E+03  0.17695011565E+03  0.82085743755E+03  0.85803606311E+03  0.50400001928E-02 0.  1.
       -1    1    3    3    0  502  0.17637349396E+03 -0.17695011565E+03 -0.28978636096E+03  0.38261611026E+03  0.50400001928E-02 0. -1.
</event>
<event>
 5   0  0.1019384E-02  0.1100397E+04  0.7818609E-02  0.9204805E-01
       -2   -1    0    0    0  501  0.00000000000E+00  0.00000000000E+00  0.36882871896E+03  0.36882871897E+03  0.25500000920E-02 0. -1.
        2   -1    0    0  501    0  0.00000000000E+00  0.00000000000E+00 -0.82075623141E+03  0.82075623142E+03  0.25500000920E-02 0.  1.
    10030    2    1    2    0    0  0.00000000000E+00  0.00000000000E+00 -0.45192751245E+03  0.11895849504E+04  0.11003971454E+04 0.  0.
        1    1    3    3  502    0 -0.14273770063E+03 -0.33001536481E+03  0.22424451901E+03  0.42375676576E+03  0.50400001928E-02 0. -1.
       -1    1    3    3    0  502  0.14273770063E+03  0.33001536481E+03 -0.67617203147E+03  0.76582818462E+03  0.50400001928E-02 0.  1.
</event>
<event>
 5   0  0.5958706E-03  0.1103983E+04  0.7818609E-02  0.9201319E-01
        1   -1    0    0  501    0  0.00000000000E+00  0.00000000000E+00  0.77379952426E+03  0.77379952428E+03  0.50400001928E-02 0.  1.
       -1   -1    0    0    0  501  0.00000000000E+00  0.00000000000E+00 -0.39376415674E+03  0.39376415677E+03  0.50400001928E-02 0. -1.
    10030    2    1    2    0    0  0.00000000000E+00  0.00000000000E+00  0.38003536752E+03  0.11675636811E+04  0.11039828209E+04 0.  0.
        2    1    3    3  502    0 -0.19197111477E+03 -0.14615006017E+03  0.71507977281E+03  0.75468657765E+03  0.25500000920E-02 0.  1.
       -2    1    3    3    0  502  0.19197111477E+03  0.14615006017E+03 -0.33504440529E+03  0.41287710340E+03  0.25500000920E-02 0. -1.
</event>
<event>
 5   0  0.9692981E-03  0.9677894E+03  0.7818609E-02  0.9344596E-01
        2   -1    0    0  501    0  0.00000000000E+00  0.00000000000E+00  0.19643398524E+04  0.19643398524E+04  0.25500000920E-02 0.  1.
       -2   -1    0    0    0  501  0.00000000000E+00  0.00000000000E+00 -0.11920242203E+03  0.11920242206E+03  0.25500000920E-02 0. -1.
    10030    2    1    2    0    0  0.00000000000E+00  0.00000000000E+00  0.18451374304E+04  0.20835422745E+04  0.96778937404E+03 0.  0.
        5    1    3    3  502    0 -0.43462400295E+03 -0.14332693668E+02  0.46572743219E+03  0.63720293560E+03  0.46999998093E+01 0. -1.
       -5    1    3    3    0  502  0.43462400295E+03  0.14332693668E+02  0.13794099982E+04  0.14463393388E+04  0.46999998093E+01 0.  1.
</event>
<event>
 5   0  0.1028016E-02  0.1068508E+04  0.7818609E-02  0.9236442E-01
       -2   -1    0    0    0  501  0.00000000000E+00  0.00000000000E+00  0.39316782514E+03  0.39316782515E+03  0.25500000920E-02 0.  1.
        2   -1    0    0  501    0  0.00000000000E+00  0.00000000000E+00 -0.72596752781E+03  0.72596752782E+03  0.25500000920E-02 0. -1.
    10030    2    1    2    0    0  0.00000000000E+00  0.00000000000E+00 -0.33279970267E+03  0.11191353530E+04  0.10685075087E+04 0.  0.
        2    1    3    3  502    0  0.40972103099E+03  0.50853287042E+02 -0.52153750775E+03  0.66517573019E+03  0.25500000920E-02 0. -1.
       -2    1    3    3    0  502 -0.40972103099E+03 -0.50853287042E+02  0.18873780508E+03  0.45395962278E+03  0.25500000920E-02 0.  1.
</event>
<event>
 5   0  0.5712664E-03  0.1105749E+04  0.7818609E-02  0.9199607E-01
       -1   -1    0    0    0  501  0.00000000000E+00  0.00000000000E+00  0.28244759173E+03  0.28244759177E+03  0.50400001928E-02 0. -1.
        1   -1    0    0  501    0  0.00000000000E+00  0.00000000000E+00 -0.10822192961E+04  0.10822192961E+04  0.50400001928E-02 0.  1.
    10030    2    1    2    0    0  0.00000000000E+00  0.00000000000E+00 -0.79977170436E+03  0.13646668879E+04  0.11057490383E+04 0.  0.
        5    1    3    3  502    0  0.53623260663E+03  0.12746524484E+03 -0.45304556716E+03  0.71348803282E+03  0.46999998093E+01 0. -1.
       -5    1    3    3    0  502 -0.53623260663E+03 -0.12746524484E+03 -0.34672613720E+03  0.65117885506E+03  0.46999998093E+01 0.  1.
</event>
<event>
 5   0  0.5854579E-03  0.1061500E+04  0.7818609E-02  0.9243550E-01
       -1   -1    0    0    0  501  0.00000000000E+00  0.00000000000E+00  0.34926943924E+03  0.34926943927E+03  0.50400001928E-02 0.  1.
        1   -1    0    0  501    0  0.00000000000E+00  0.00000000000E+00 -0.80652857656E+03  0.80652857657E+03  0.50400001928E-02 0. -1.
    10030    2    1    2    0    0  0.00000000000E+00  0.00000000000E+00 -0.45725913732E+03  0.11557980158E+04  0.10615004168E+04 0.  0.
        4    1    3    3  502    0  0.45461809315E+03  0.26228240253E+03 -0.14272543481E+03  0.54391344159E+03  0.12699999809E+01 0. -1.
       -4    1    3    3    0  502 -0.45461809315E+03 -0.26228240253E+03 -0.31453370251E+03  0.61188457426E+03  0.12699999809E+01 0.  1.
</event>
<event>
 5   0  0.5998641E-03  0.1141174E+04  0.7818609E-02  0.9165964E-01
       -1   -1    0    0    0  501  0.00000000000E+00  0.00000000000E+00  0.70382802903E+03  0.70382802905E+03  0.50400001928E-02 0. -1.
        1   -1    0    0  501    0  0.00000000000E+00  0.00000000000E+00 -0.46257006428E+03  0.46257006431E+03  0.50400001928E-02 0.  1.
    10030    2    1    2    0    0  0.00000000000E+00  0.00000000000E+00  0.24125796475E+03  0.11663980934E+04  0.11411744418E+04 0.  0.
        3    1    3    3  502    0 -0.22118956381E+03 -0.51175310385E+03  0.24477857473E+03  0.60887816785E+03  0.10100000352E+00 0. -1.
       -3    1    3    3    0  502  0.22118956381E+03  0.51175310385E+03 -0.35206099826E+01  0.55751992551E+03  0.10100000352E+00 0.  1.
</event>
<event>
 5   0  0.5998641E-03  0.9917888E+03  0.7818609E-02  0.9317597E-01
        1   -1    0    0  501    0  0.00000000000E+00  0.00000000000E+00  0.64572502830E+03  0.64572502832E+03  0.50400001928E-02 0. -1.
       -1   -1    0    0    0  501  0.00000000000E+00  0.00000000000E+00 -0.38082965217E+03  0.38082965221E+03  0.50400001928E-02 0.  1.
    10030    2    1    2    0    0  0.00000000000E+00  0.00000000000E+00  0.26489537613E+03  0.10265546805E+04  0.99178876371E+03 0.  0.
        3    1    3    3  502    0 -0.38168178440E+03  0.25371071441E+02  0.45908308869E+03  0.59756335926E+03  0.10100000352E+00 0. -1.
       -3    1    3    3    0  502  0.38168178440E+03 -0.25371071441E+02 -0.19418771256E+03  0.42899132126E+03  0.10100000352E+00 0.  1.
</event>
<event>
 5   0  0.1028016E-02  0.1051783E+04  0.7818609E-02  0.9253505E-01
        2   -1    0    0  501    0  0.00000000000E+00  0.00000000000E+00  0.76392075257E+03  0.76392075257E+03  0.25500000920E-02 0.  1.
       -2   -1    0    0    0  501  0.00000000000E+00  0.00000000000E+00 -0.36202941360E+03  0.36202941361E+03  0.25500000920E-02 0. -1.
    10030    2    1    2    0    0  0.00000000000E+00  0.00000000000E+00  0.40189133897E+03  0.11259501662E+04  0.10517828333E+04 0.  0.
        2    1    3    3  502    0  0.13246008991E+03  0.29173617878E+02  0.74487412398E+03  0.75712233885E+03  0.25500000920E-02 0.  1.
       -2    1    3    3    0  502 -0.13246008991E+03 -0.29173617878E+02 -0.34298278501E+03  0.36882782734E+03  0.25500000920E-02 0. -1.
</event>
<event>
 5   0  0.1028016E-02  0.1093343E+04  0.7818609E-02  0.9211704E-01
       -2   -1    0    0    0  501  0.00000000000E+00  0.00000000000E+00  0.38481576362E+03  0.38481576363E+03  0.25500000920E-02 0. -1.
        2   -1    0    0  501    0  0.00000000000E+00  0.00000000000E+00 -0.77660536166E+03  0.77660536167E+03  0.25500000920E-02 0.  1.
    10030    2    1    2    0    0  0.00000000000E+00  0.00000000000E+00 -0.39178959804E+03  0.11614211253E+04  0.10933434690E+04 0.  0.
        2    1    3    3  502    0 -0.32930257678E+03  0.66300119077E+02  0.26225344881E+03  0.42616049123E+03  0.25500000920E-02 0. -1.
       -2    1    3    3    0  502  0.32930257678E+03 -0.66300119077E+02 -0.65404304685E+03  0.73526063407E+03  0.25500000920E-02 0.  1.
</event>
<event>
 5   0  0.5854579E-03  0.1158789E+04  0.7818609E-02  0.9149713E-01
       -1   -1    0    0    0  501  0.00000000000E+00  0.00000000000E+00  0.56358577629E+03  0.56358577631E+03  0.50400001928E-02 0.  1.
        1   -1    0    0  501    0  0.00000000000E+00  0.00000000000E+00 -0.59564716713E+03  0.59564716715E+03  0.50400001928E-02 0. -1.
    10030    2    1    2    0    0  0.00000000000E+00  0.00000000000E+00 -0.32061390835E+02  0.11592329435E+04  0.11587894910E+04 0.  0.
        4    1    3    3  502    0  0.40824325602E+02  0.37723500378E+03 -0.45406100561E+03  0.59173125940E+03  0.12699999809E+01 0. -1.
       -4    1    3    3    0  502 -0.40824325602E+02 -0.37723500378E+03  0.42199961477E+03  0.56750168406E+03  0.12699999809E+01 0.  1.
</event>
<event>
 5   0  0.5789905E-03  0.1076966E+04  0.7818609E-02  0.9227938E-01
        1   -1    0    0  501    0  0.00000000000E+00  0.00000000000E+00  0.80020388808E+03  0.80020388810E+03  0.50400001928E-02 0. -1.
       -1   -1    0    0    0  501  0.00000000000E+00  0.00000000000E+00 -0.36236270647E+03  0.36236270650E+03  0.50400001928E-02 0.  1.
    10030    2    1    2    0    0  0.00000000000E+00  0.00000000000E+00  0.43784118162E+03  0.11625665946E+04  0.10769661956E+04 0.  0.
        1    1    3    3  502    0 -0.35413634015E+03 -0.38294896509E+03  0.74489210053E+02  0.52688812828E+03  0.50400001928E-02 0.  1.
       -1    1    3    3    0  502  0.35413634015E+03  0.38294896509E+03  0.36335197156E+03  0.63567846632E+03  0.50400001928E-02 0. -1.
</event>
<event>
 5   0  0.5854579E-03  0.1106542E+04  0.7818609E-02  0.9198839E-01
        1   -1    0    0  501    0  0.00000000000E+00  0.00000000000E+00  0.13269437043E+04  0.13269437043E+04  0.50400001928E-02 0.  1.
       -1   -1    0    0    0  501  0.00000000000E+00  0.00000000000E+00 -0.23068718627E+03  0.23068718633E+03  0.50400001928E-02 0. -1.
    10030    2    1    2    0    0  0.00000000000E+00  0.00000000000E+00  0.10962565180E+04  0.15576308906E+04  0.11065421990E+04 0.  0.
        4    1    3    3  502    0 -0.50318445341E+03 -0.15205820914E+03  0.30516582093E+03  0.60781912136E+03  0.12699999809E+01 0. -1.
       -4    1    3    3    0  502  0.50318445341E+03  0.15205820914E+03  0.79109069710E+03  0.94981176928E+03  0.12699999809E+01 0.  1.
</event>
<event>
 5   0  0.3949750E-03  0.1104873E+04  0.7818609E-02  0.9200455E-01
       -3   -1    0    0    0  501  0.00000000000E+00  0.00000000000E+00  0.42487357334E+03  0.42487358535E+03  0.10100000352E+00 0.  1.
        3   -1    0    0  501    0  0.00000000000E+00  0.00000000000E+00 -0.71829883077E+03  0.71829883787E+03  0.10100000352E+00 0. -1.
    10030    2    1    2    0    0  0.00000000000E+00  0.00000000000E+00 -0.29342525743E+03  0.11431724232E+04  0.11048732088E+04 0.  0.
        5    1    3    3  502    0  0.15057575930E+03  0.52151607928E+03 -0.25279485521E+03  0.59881500403E+03  0.46999998093E+01 0. -1.
       -5    1    3    3    0  502 -0.15057575930E+03 -0.52151607928E+03 -0.40630402220E+02  0.54435741918E+03  0.46999998093E+01 0.  1.
</event>
<event>
 5   0  0.3949750E-03  0.1016056E+04  0.7818609E-02  0.9291108E-01
       -3   -1    0    0    0  501  0.00000000000E+00  0.00000000000E+00  0.61443742517E+03  0.61443743347E+03  0.10100000352E+00 0.  1.
        3   -1    0    0  501    0  0.00000000000E+00  0.00000000000E+00 -0.42004667334E+03  0.42004668549E+03  0.10100000352E+00 0. -1.
    10030    2    1    2    0    0  0.00000000000E+00  0.00000000000E+00  0.19439075182E+03  0.10344841190E+04  0.10160559177E+04 0.  0.
        2    1    3    3  502    0  0.23295826353E+03  0.49962685333E+02 -0.35963690138E+03  0.43139833485E+03  0.25500000920E-02 0. -1.
       -2    1    3    3    0  502 -0.23295826353E+03 -0.49962685333E+02  0.55402765320E+03  0.60308578410E+03  0.25500000920E-02 0.  1.
</event>
<event>
 5   0  0.5712664E-03  0.1102092E+04  0.7818609E-02  0.9203156E-01
        1   -1    0    0  501    0  0.00000000000E+00  0.00000000000E+00  0.12509279783E+04  0.12509279783E+04  0.50400001928E-02 0. -1.
       -1   -1    0    0    0  501  0.00000000000E+00  0.00000000000E+00 -0.24274095462E+03  0.24274095467E+03  0.50400001928E-02 0.  1.
    10030    2    1    2    0    0  0.00000000000E+00  0.00000000000E+00  0.10081870237E+04  0.14936689330E+04  0.11020915600E+04 0.  0.
        5    1    3    3  502    0 -0.22466625025E+03  0.33574744575E+02  0.11844873262E+04  0.12060822954E+04  0.46999998093E+01 0. -1.
       -5    1    3    3    0  502  0.22466625025E+03 -0.33574744575E+02 -0.17630030246E+03  0.28758663759E+03  0.46999998093E+01 0.  1.
</event>
<event>
 5   0  0.9925021E-03  0.1127320E+04  0.7818609E-02  0.9178966E-01
       -2   -1    0    0    0  501  0.00000000000E+00  0.00000000000E+00  0.51229606588E+03  0.51229606588E+03  0.25500000920E-02 0.  1.
        2   -1    0    0  501    0  0.00000000000E+00  0.00000000000E+00 -0.62017377060E+03  0.62017377061E+03  0.25500000920E-02 0. -1.
    10030    2    1    2    0    0  0.00000000000E+00  0.00000000000E+00 -0.10787770472E+03  0.11324698365E+04  0.11273199774E+04 0.  0.
        4    1    3    3  502    0  0.13082154206E+03 -0.53084778339E+02  0.49424502098E+03  0.51401558655E+03  0.12699999809E+01 0.  1.
       -4    1    3    3    0  502 -0.13082154206E+03  0.53084778339E+02 -0.60212272570E+03  0.61845424994E+03  0.12699999809E+01 0. -1.
</event>
<event>
 5   0  0.9719260E-03  0.1127929E+04  0.7818609E-02  0.9178390E-01
       -2   -1    0    0    0  501  0.00000000000E+00  0.00000000000E+00  0.21525278814E+03  0.21525278816E+03  0.25500000920E-02 0.  1.
        2   -1    0    0  501    0  0.00000000000E+00  0.00000000000E+00 -0.14775933429E+04  0.14775933429E+04  0.25500000920E-02 0. -1.
    10030    2    1    2    0    0  0.00000000000E+00  0.00000000000E+00 -0.12623405547E+04  0.16928461310E+04  0.11279292297E+04 0.  0.
        3    1    3    3  502    0 -0.30218002744E+03 -0.84953221677E+02  0.72029737114E+02  0.32205296472E+03  0.10100000352E+00 0.  1.
       -3    1    3    3    0  502  0.30218002744E+03  0.84953221677E+02 -0.13343702918E+04  0.13707931663E+04  0.10100000352E+00 0. -1.
</event>
<event>
 5   0  0.1019384E-02  0.1162076E+04  0.7818609E-02  0.9146715E-01
       -2   -1    0    0    0  501  0.00000000000E+00  0.00000000000E+00  0.16432834785E+03  0.16432834787E+03  0.25500000920E-02 0. -1.
        2   -1    0    0  501    0  0.00000000000E+00  0.00000000000E+00 -0.20544553174E+04  0.20544553174E+04  0.25500000920E-02 0.  1.
    10030    2    1    2    0    0  0.00000000000E+00  0.00000000000E+00 -0.18901269696E+04  0.22187836653E+04  0.11620761560E+04 0.  0.
        1    1    3    3  502    0 -0.74639927147E+02  0.26358454777E+03 -0.19234093894E+04  0.19428205300E+04  0.50400001928E-02 0.  1.
       -1    1    3    3    0  502  0.74639927147E+02 -0.26358454777E+03  0.33282419824E+02  0.27596313529E+03  0.50400001928E-02 0. -1.
</event>
<event>
 5   0  0.3949750E-03  0.1012154E+04  0.7818609E-02  0.9295314E-01
        3   -1    0    0  501    0  0.00000000000E+00  0.00000000000E+00  0.80246936090E+03  0.80246936725E+03  0.10100000352E+00 0. -1.
       -3   -1    0    0    0  501  0.00000000000E+00  0.00000000000E+00 -0.31915740376E+03  0.31915741975E+03  0.10100000352E+00 0.  1.
    10030    2    1    2    0    0  0.00000000000E+00  0.00000000000E+00  0.48331195713E+03  0.11216267870E+04  0.10121542380E+04 0.  0.
        3    1    3    3  502    0 -0.41791116238E+03 -0.26619853154E+03  0.35576204393E+03  0.60998199968E+03  0.10100000352E+00 0. -1.
       -3    1    3    3    0  502  0.41791116238E+03  0.26619853154E+03  0.12754991321E+03  0.51164478732E+03  0.10100000352E+00 0.  1.
</event>
<event>
 5   0  0.9719260E-03  0.1089454E+04  0.7818609E-02  0.9215533E-01
        2   -1    0    0  501    0  0.00000000000E+00  0.00000000000E+00  0.83197366261E+03  0.83197366261E+03  0.25500000920E-02 0.  1.
       -2   -1    0    0    0  501  0.00000000000E+00  0.00000000000E+00 -0.35665463205E+03  0.35665463206E+03  0.25500000920E-02 0. -1.
    10030    2    1    2    0    0  0.00000000000E+00  0.00000000000E+00  0.47531903056E+03  0.11886282947E+04  0.10894535521E+04 0.  0.
        3    1    3    3  502    0 -0.45272782006E+02 -0.84693896615E+02 -0.34734567701E+03  0.36037717804E+03  0.10100000352E+00 0. -1.
       -3    1    3    3    0  502  0.45272782006E+02  0.84693896615E+02  0.82266470757E+03  0.82825111663E+03  0.10100000352E+00 0.  1.
</event>
<event>
 5   0  0.9692981E-03  0.1100792E+04  0.7818609E-02  0.9204420E-01
       -2   -1    0    0    0  501  0.00000000000E+00  0.00000000000E+00  0.88837265621E+03  0.88837265621E+03  0.25500000920E-02 0.  1.
        2   -1    0    0  501    0  0.00000000000E+00  0.00000000000E+00 -0.34100074067E+03  0.34100074068E+03  0.25500000920E-02 0. -1.
    10030    2    1    2    0    0  0.00000000000E+00  0.00000000000E+00  0.54737191554E+03  0.12293733969E+04  0.11007919581E+04 0.  0.
        5    1    3    3  502    0 -0.46616305860E+03  0.12582086983E+03  0.56868983488E+03  0.74603559351E+03  0.46999998093E+01 0.  1.
       -5    1    3    3    0  502  0.46616305860E+03 -0.12582086983E+03 -0.21317919340E+02  0.48333780338E+03  0.46999998093E+01 0. -1.
</event>
<event>
 5   0  0.9692981E-03  0.1092224E+04  0.7818609E-02  0.9212804E-01
       -2   -1    0    0    0  501  0.00000000000E+00  0.00000000000E+00  0.29177796128E+03  0.29177796130E+03  0.25500000920E-02 0. -1.
        2   -1    0    0  501    0  0.00000000000E+00  0.00000000000E+00 -0.10221419440E+04  0.10221419440E+04  0.25500000920E-02 0.  1.
    10030    2    1    2    0    0  0.00000000000E+00  0.00000000000E+00 -0.73036398273E+03  0.13139199053E+04  0.10922243223E+04 0.  0.
        5    1    3    3  502    0 -0.24861201742E+03  0.39150586011E+03 -0.71203078926E+03  0.84976155982E+03  0.46999998093E+01 0.  1.
       -5    1    3    3    0  502  0.24861201742E+03 -0.39150586011E+03 -0.18333193473E+02  0.46415834549E+03  0.46999998093E+01 0. -1.
</event>
<event>
 5   0  0.5789905E-03  0.1178224E+04  0.7818609E-02  0.9132134E-01
        1   -1    0    0  501    0  0.00000000000E+00  0.00000000000E+00  0.97507695649E+03  0.97507695650E+03  0.50400001928E-02 0.  1.
       -1   -1    0    0    0  501  0.00000000000E+00  0.00000000000E+00 -0.35592350362E+03  0.35592350366E+03  0.50400001928E-02 0. -1.
    10030    2    1    2    0    0  0.00000000000E+00  0.00000000000E+00  0.61915345287E+03  0.13310004602E+04  0.11782237592E+04 0.  0.
        1    1    3    3  502    0  0.34001765113E+03 -0.23338637356E+03 -0.16565149500E+03  0.44443404490E+03  0.50400001928E-02 0. -1.
       -1    1    3    3    0  502 -0.34001765113E+03  0.23338637356E+03  0.78480494787E+03  0.88656641526E+03  0.50400001928E-02 0.  1.
</event>
<event>
 5   0  0.1019384E-02  0.1141751E+04  0.7818609E-02  0.9165428E-01
        2   -1    0    0  501    0  0.00000000000E+00  0.00000000000E+00  0.13637252460E+04  0.13637252460E+04  0.25500000920E-02 0. -1.
       -2   -1    0    0    0  501  0.00000000000E+00  0.00000000000E+00 -0.23897685576E+03  0.23897685578E+03  0.25500000920E-02 0.  1.
    10030    2    1    2    0    0  0.00000000000E+00  0.00000000000E+00  0.11247483902E+04  0.16027021018E+04  0.11417508860E+04 0.  0.
        1    1    3    3  502    0  0.27895621796E+03  0.13819606691E+03 -0.10933928275E+03  0.32995424415E+03  0.50400001928E-02 0.  1.
       -1    1    3    3    0  502 -0.27895621796E+03 -0.13819606691E+03  0.12340876730E+04  0.12727478576E+04  0.50400001928E-02 0. -1.
</event>
<event>
 5   0  0.5998641E-03  0.1121525E+04  0.7818609E-02  0.9184463E-01
        1   -1    0    0  501    0  0.00000000000E+00  0.00000000000E+00  0.49494148519E+03  0.49494148522E+03  0.50400001928E-02 0. -1.
       -1   -1    0    0    0  501  0.00000000000E+00  0.00000000000E+00 -0.63533643400E+03  0.63533643402E+03  0.50400001928E-02 0.  1.
    10030    2    1    2    0    0  0.00000000000E+00  0.00000000000E+00 -0.14039494882E+03  0.11302779192E+04  0.11215246021E+04 0.  0.
        3    1    3    3  502    0 -0.28107010084E+03  0.40335867554E+03  0.20164043780E+03  0.53137322013E+03  0.10100000352E+00 0. -1.
       -3    1    3    3    0  502  0.28107010084E+03 -0.40335867554E+03 -0.34203538661E+03  0.59890469911E+03  0.10100000352E+00 0.  1.
</event>
<event>
 5   0  0.5958706E-03  0.9946046E+03  0.7818609E-02  0.9314482E-01
        1   -1    0    0  501    0  0.00000000000E+00  0.00000000000E+00  0.67606825033E+03  0.67606825035E+03  0.50400001928E-02 0.  1.
       -1   -1    0    0    0  501  0.00000000000E+00  0.00000000000E+00 -0.36580560379E+03  0.36580560382E+03  0.50400001928E-02 0. -1.
    10030    2    1    2    0    0  0.00000000000E+00  0.00000000000E+00  0.31026264655E+03  0.10418738542E+04  0.99460455366E+03 0.  0.
        2    1    3    3  502    0  0.91432759981E+02 -0.10164273430E+02  0.66707708087E+03  0.67339074384E+03  0.25500000920E-02 0.  1.
       -2    1    3    3    0  502 -0.91432759981E+02  0.10164273430E+02 -0.35681443433E+03  0.36848311033E+03  0.25500000920E-02 0. -1.
</event>
<event>
 5   0  0.5854579E-03  0.1125570E+04  0.7818609E-02  0.9180622E-01
        1   -1    0    0  501    0  0.00000000000E+00  0.00000000000E+00  0.69344523526E+03  0.69344523528E+03  0.50400001928E-02 0.  1.
       -1   -1    0    0    0  501  0.00000000000E+00  0.00000000000E+00 -0.45674361819E+03  0.45674361822E+03  0.50400001928E-02 0. -1.
    10030    2    1    2    0    0  0.00000000000E+00  0.00000000000E+00  0.23670161707E+03  0.11501888535E+04  0.11255695195E+04 0.  0.
        4    1    3    3  502    0 -0.35889886960E+03  0.26451157211E+03 -0.23260009126E+03  0.50287094341E+03  0.12699999809E+01 0. -1.
       -4    1    3    3    0  502  0.35889886960E+03 -0.26451157211E+03  0.46930170833E+03  0.64731791008E+03  0.12699999809E+01 0.  1.
</event>
<event>
 5   0  0.9925021E-03  0.1090070E+04  0.7818609E-02  0.9214925E-01
       -2   -1    0    0    0  501  0.00000000000E+00  0.00000000000E+00  0.13893141774E+03  0.13893141776E+03  0.25500000920E-02 0.  1.
        2   -1    0    0  501    0  0.00000000000E+00  0.00000000000E+00 -0.21381983425E+04  0.21381983425E+04  0.25500000920E-02 0. -1.
    10030    2    1    2    0    0  0.00000000000E+00  0.00000000000E+00 -0.19992669248E+04  0.22771297603E+04  0.10900695889E+04 0.  0.
        4    1    3    3  502    0  0.31511498876E+03  0.15653969384E+03 -0.18691576870E+04  0.19019869094E+04  0.12699999809E+01 0. -1.
       -4    1    3    3    0  502 -0.31511498876E+03 -0.15653969384E+03 -0.13010923780E+03  0.37514285086E+03  0.12699999809E+01 0.  1.
</event>
<event>
 5   0  0.5712664E-03  0.1098765E+04  0.7818609E-02  0.9206397E-01
       -1   -1    0    0    0  501  0.00000000000E+00  0.00000000000E+00  0.49871701313E+03  0.49871701316E+03  0.50400001928E-02 0.  1.
        1   -1    0    0  501    0  0.00000000000E+00  0.00000000000E+00 -0.60519498555E+03  0.60519498557E+03  0.50400001928E-02 0. -1.
    10030    2    1    2    0    0  0.00000000000E+00  0.00000000000E+00 -0.10647797242E+03  0.11039119987E+04  0.10987648258E+04 0.  0.
        5    1    3    3  502    0 -0.28266431856E+03 -0.38250171725E+03 -0.32946742233E+03  0.57859964834E+03  0.46999998093E+01 0. -1.
       -5    1    3    3    0  502  0.28266431856E+03  0.38250171725E+03  0.22298944991E+03  0.52531235038E+03  0.46999998093E+01 0.  1.
</event>
<event>
 5   0  0.5998641E-03  0.1116067E+04  0.7818609E-02  0.9189671E-01
        1   -1    0    0  501    0  0.00000000000E+00  0.00000000000E+00  0.73262859355E+03  0.73262859357E+03  0.50400001928E-02 0.  1.
       -1   -1    0    0    0  501  0.00000000000E+00  0.00000000000E+00 -0.42504703365E+03  0.42504703368E+03  0.50400001928E-02 0. -1.
    10030    2    1    2    0    0  0.00000000000E+00  0.00000000000E+00  0.30758155990E+03  0.11576756272E+04  0.11160674003E+04 0.  0.
        3    1    3    3  502    0 -0.53650278593E+03  0.15138481052E+03  0.12736554508E+03  0.57181692213E+03  0.10100000352E+00 0. -1.
       -3    1    3    3    0  502  0.53650278593E+03 -0.15138481052E+03  0.18021601483E+03  0.58585870512E+03  0.10100000352E+00 0.  1.
</event>
<event>
 5   0  0.5712664E-03  0.1114753E+04  0.7818609E-02  0.9190931E-01
       -1   -1    0    0    0  501  0.00000000000E+00  0.00000000000E+00  0.41758773916E+03  0.41758773919E+03  0.50400001928E-02 0. -1.
        1   -1    0    0  501    0  0.00000000000E+00  0.00000000000E+00 -0.74395966081E+03  0.74395966083E+03  0.50400001928E-02 0.  1.
    10030    2    1    2    0    0  0.00000000000E+00  0.00000000000E+00 -0.32637192165E+03  0.11615474000E+04  0.11147527669E+04 0.  0.
        5    1    3    3  502    0  0.11872913934E+03 -0.28995700257E+03  0.31711334697E+03  0.44581906273E+03  0.46999998093E+01 0. -1.
       -5    1    3    3    0  502 -0.11872913934E+03  0.28995700257E+03 -0.64348526862E+03  0.71572833729E+03  0.46999998093E+01 0.  1.
</event>
<event>
 5   0  0.9692981E-03  0.1108006E+04  0.7818609E-02  0.9197424E-01
        2   -1    0    0  501    0  0.00000000000E+00  0.00000000000E+00  0.10371197955E+04  0.10371197955E+04  0.25500000920E-02 0.  1.
       -2   -1    0    0    0  501  0.00000000000E+00  0.00000000000E+00 -0.29593417072E+03  0.29593417073E+03  0.25500000920E-02 0. -1.
    10030    2    1    2    0    0  0.00000000000E+00  0.00000000000E+00  0.74118562479E+03  0.13330539662E+04  0.11080057520E+04 0.  0.
        5    1    3    3  502    0  0.52050680694E+02 -0.32357511974E+01 -0.29295031399E+03  0.29759321214E+03  0.46999998093E+01 0. -1.
       -5    1    3    3    0  502 -0.52050680694E+02  0.32357511974E+01  0.10341359388E+04  0.10354607541E+04  0.46999998093E+01 0.  1.
</event>
<event>
 5   0  0.1019384E-02  0.1086051E+04  0.7818609E-02  0.9218895E-01
       -2   -1    0    0    0  501  0.00000000000E+00  0.00000000000E+00  0.29052691944E+03  0.29052691945E+03  0.25500000920E-02 0.  1.
        2   -1    0    0  501    0  0.00000000000E+00  0.00000000000E+00 -0.10149718759E+04  0.10149718759E+04  0.25500000920E-02 0. -1.
    10030    2    1    2    0    0  0.00000000000E+00  0.00000000000E+00 -0.72444495643E+03  0.13054987953E+04  0.10860509241E+04 0.  0.
        1    1    3    3  502    0 -0.41839393649E+03 -0.11465260021E+03 -0.75483451638E+03  0.87061693757E+03  0.50400001928E-02 0. -1.
       -1    1    3    3    0  502  0.41839393649E+03  0.11465260021E+03  0.30389559956E+02  0.43488185776E+03  0.50400001928E-02 0.  1.
</event>
<event>
 5   0  0.3949750E-03  0.1105202E+04  0.7818609E-02  0.9200137E-01
        4   -1    0    0  501    0  0.00000000000E+00  0.00000000000E+00  0.10968191248E+04  0.10968198601E+04  0.12699999809E+01 0. -1.
       -4   -1    0    0    0  501  0.00000000000E+00  0.00000000000E+00 -0.27840987955E+03  0.27841277616E+03  0.12699999809E+01 0.  1.
    10030    2    1    2    0    0  0.00000000000E+00  0.00000000000E+00  0.81840924528E+03  0.13752326362E+04  0.11052018418E+04 0.  0.
        5    1    3    3  502    0  0.24305718033E+03  0.49478159975E+03  0.45675132794E+03  0.71591164953E+03  0.46999998093E+01 0. -1.
       -5    1    3    3    0  502 -0.24305718033E+03 -0.49478159975E+03  0.36165791734E+03  0.65932098672E+03  0.46999998093E+01 0.  1.
</event>
<event>
 5   0  0.9692981E-03  0.1092686E+04  0.7818609E-02  0.9212350E-01
        2   -1    0    0  501    0  0.00000000000E+00  0.00000000000E+00  0.12681677949E+04  0.12681677949E+04  0.25500000920E-02 0. -1.
       -2   -1    0    0    0  501  0.00000000000E+00  0.00000000000E+00 -0.23537155298E+03  0.23537155299E+03  0.25500000920E-02 0.  1.
    10030    2    1    2    0    0  0.00000000000E+00  0.00000000000E+00  0.10327962419E+04  0.15035393479E+04  0.10926859079E+04 0.  0.
        5    1    3    3  502    0 -0.51416091451E+03  0.18452608337E+03  0.50599023362E+03  0.74462039186E+03  0.46999998093E+01 0. -1.
       -5    1    3    3    0  502  0.51416091451E+03 -0.18452608337E+03  0.52680600830E+03  0.75891895604E+03  0.46999998093E+01 0.  1.
</event>
<event>
 5   0  0.1019384E-02  0.1101304E+04  0.7818609E-02  0.9203922E-01
       -2   -1    0    0    0  501  0.00000000000E+00  0.00000000000E+00  0.23068786878E+03  0.23068786880E+03  0.25500000920E-02 0.  1.
        2   -1    0    0  501    0  0.00000000000E+00  0.00000000000E+00 -0.13144071626E+04  0.13144071626E+04  0.25500000920E-02 0. -1.
    10030    2    1    2    0    0  0.00000000000E+00  0.00000000000E+00 -0.10837192939E+04  0.15450950314E+04  0.11013042941E+04 0.  0.
        1    1    3    3  502    0 -0.17522471108E+03 -0.12200738693E+03 -0.12539656301E+04  0.12720138771E+04  0.50400001928E-02 0. -1.
       -1    1    3    3    0  502  0.17522471108E+03  0.12200738693E+03  0.17024633628E+03  0.27308115438E+03  0.50400001928E-02 0.  1.
</event>
<event>
 5   0  0.5712664E-03  0.1076607E+04  0.7818609E-02  0.9228297E-01
        1   -1    0    0  501    0  0.00000000000E+00  0.00000000000E+00  0.14899438326E+04  0.14899438326E+04  0.50400001928E-02 0.  1.
       -1   -1    0    0    0  501  0.00000000000E+00  0.00000000000E+00 -0.19448443521E+03  0.19448443527E+03  0.50400001928E-02 0. -1.
    10030    2    1    2    0    0  0.00000000000E+00  0.00000000000E+00  0.12954593974E+04  0.16844282678E+04  0.10766074212E+04 0.  0.
        5    1    3    3  502    0  0.41317700628E+03  0.19819158376E+03  0.10895752052E+04  0.11820284938E+04  0.46999998093E+01 0.  1.
       -5    1    3    3    0  502 -0.41317700628E+03 -0.19819158376E+03  0.20588419218E+03  0.50239977406E+03  0.46999998093E+01 0. -1.
</event>
<event>
 5   0  0.1019384E-02  0.1098996E+04  0.7818609E-02  0.9206171E-01
       -2   -1    0    0    0  501  0.00000000000E+00  0.00000000000E+00  0.48420665587E+03  0.48420665588E+03  0.25500000920E-02 0.  1.
        2   -1    0    0  501    0  0.00000000000E+00  0.00000000000E+00 -0.62359311812E+03  0.62359311813E+03  0.25500000920E-02 0. -1.
    10030    2    1    2    0    0  0.00000000000E+00  0.00000000000E+00 -0.13938646225E+03  0.11077997740E+04  0.10989957932E+04 0.  0.
        1    1    3    3  502    0  0.55550886093E+02 -0.54030612197E+02  0.47867095150E+03  0.48490317367E+03  0.50400001928E-02 0.  1.
       -1    1    3    3    0  502 -0.55550886093E+02  0.54030612197E+02 -0.61805741375E+03  0.62289660034E+03  0.50400001928E-02 0. -1.
</event>
<event>
 5   0  0.9719260E-03  0.1077805E+04  0.7818609E-02  0.9227099E-01
       -2   -1    0    0    0  501  0.00000000000E+00  0.00000000000E+00  0.24388770352E+03  0.24388770354E+03  0.25500000920E-02 0. -1.
        2   -1    0    0  501    0  0.00000000000E+00  0.00000000000E+00 -0.11907763214E+04  0.11907763214E+04  0.25500000920E-02 0.  1.
    10030    2    1    2    0    0  0.00000000000E+00  0.00000000000E+00 -0.94688861784E+03  0.14346640249E+04  0.10778046250E+04 0.  0.
        3    1    3    3  502    0 -0.12306283988E+03 -0.28264952255E+03 -0.10618146172E+04  0.11056606652E+04  0.10100000352E+00 0.  1.
       -3    1    3    3    0  502  0.12306283988E+03  0.28264952255E+03  0.11492599934E+03  0.32900335968E+03  0.10100000352E+00 0. -1.
</event>
<event>
 5   0  0.5854579E-03  0.7382869E+03  0.7818609E-02  0.9653908E-01
        1   -1    0    0  501    0  0.00000000000E+00  0.00000000000E+00  0.91558465220E+03  0.91558465221E+03  0.50400001928E-02 0.  1.
       -1   -1    0    0    0  501  0.00000000000E+00  0.00000000000E+00 -0.14883047064E+03  0.14883047072E+03  0.50400001928E-02 0. -1.
    10030    2    1    2    0    0  0.00000000000E+00  0.00000000000E+00  0.76675418156E+03  0.10644151229E+04  0.73828692187E+03 0.  0.
        4    1    3    3  502    0 -0.70331236540E+02  0.32994911543E+02 -0.13690826960E+03  0.15741865902E+03  0.12699999809E+01 0. -1.
       -4    1    3    3    0  502  0.70331236540E+02 -0.32994911543E+02  0.90366245116E+03  0.90699646392E+03  0.12699999809E+01 0.  1.
</event>
<event>
 5   0  0.5854579E-03  0.1006241E+04  0.7818609E-02  0.9301726E-01
       -1   -1    0    0    0  501  0.00000000000E+00  0.00000000000E+00  0.14814427806E+03  0.14814427815E+03  0.50400001928E-02 0.  1.
        1   -1    0    0  501    0  0.00000000000E+00  0.00000000000E+00 -0.17086744605E+04  0.17086744605E+04  0.50400001928E-02 0. -1.
    10030    2    1    2    0    0  0.00000000000E+00  0.00000000000E+00 -0.15605301825E+04  0.18568187387E+04  0.10062412126E+04 0.  0.
        4    1    3    3  502    0  0.32426965685E+03 -0.19265355822E+03 -0.13946772448E+04  0.14447811025E+04  0.12699999809E+01 0. -1.
       -4    1    3    3    0  502 -0.32426965685E+03  0.19265355822E+03 -0.16585293763E+03  0.41203763623E+03  0.12699999809E+01 0.  1.
</event>
<event>
 5   0  0.5789905E-03  0.1094968E+04  0.7818609E-02  0.9210110E-01
       -1   -1    0    0    0  501  0.00000000000E+00  0.00000000000E+00  0.68002031357E+03  0.68002031359E+03  0.50400001928E-02 0.  1.
        1   -1    0    0  501    0  0.00000000000E+00  0.00000000000E+00 -0.44077902669E+03  0.44077902672E+03  0.50400001928E-02 0. -1.
    10030    2    1    2    0    0  0.00000000000E+00  0.00000000000E+00  0.23924128688E+03  0.11207993403E+04  0.10949679301E+04 0.  0.
        1    1    3    3  502    0  0.46383004804E+03  0.28733230792E+03  0.16585845247E+03  0.57026940556E+03  0.50400001928E-02 0.  1.
       -1    1    3    3    0  502 -0.46383004804E+03 -0.28733230792E+03  0.73382834410E+02  0.55052993474E+03  0.50400001928E-02 0. -1.
</event>
<event>
 5   0  0.9692981E-03  0.1107982E+04  0.7818609E-02  0.9197447E-01
       -2   -1    0    0    0  501  0.00000000000E+00  0.00000000000E+00  0.15408809965E+03  0.15408809968E+03  0.25500000920E-02 0.  1.
        2   -1    0    0  501    0  0.00000000000E+00  0.00000000000E+00 -0.19917565000E+04  0.19917565000E+04  0.25500000920E-02 0. -1.
    10030    2    1    2    0    0  0.00000000000E+00  0.00000000000E+00 -0.18376684003E+04  0.21458445997E+04  0.11079819025E+04 0.  0.
        5    1    3    3  502    0 -0.30972045802E+03 -0.72684276140E+02 -0.17971595604E+04  0.18251066658E+04  0.46999998093E+01 0. -1.
       -5    1    3    3    0  502  0.30972045802E+03  0.72684276140E+02 -0.40508839977E+02  0.32073793388E+03  0.46999998093E+01 0.  1.
</event>
<event>
 5   0  0.5789905E-03  0.1065264E+04  0.7818609E-02  0.9239726E-01
        1   -1    0    0  501    0  0.00000000000E+00  0.00000000000E+00  0.32635930834E+03  0.32635930838E+03  0.50400001928E-02 0. -1.
       -1   -1    0    0    0  501  0.00000000000E+00  0.00000000000E+00 -0.86927714476E+03  0.86927714477E+03  0.50400001928E-02 0.  1.
    10030    2    1    2    0    0  0.00000000000E+00  0.00000000000E+00 -0.54291783642E+03  0.11956364532E+04  0.10652637002E+04 0.  0.
        1    1    3    3  502    0 -0.19345697743E+03 -0.53979401499E+02  0.28222794196E+03  0.34639859866E+03  0.50400001928E-02 0. -1.
       -1    1    3    3    0  502  0.19345697743E+03  0.53979401499E+02 -0.82514577838E+03  0.84923785449E+03  0.50400001928E-02 0.  1.
</event>
<event>
 5   0  0.3949750E-03  0.1099332E+04  0.7818609E-02  0.9205843E-01
        3   -1    0    0  501    0  0.00000000000E+00  0.00000000000E+00  0.14315088081E+04  0.14315088116E+04  0.10100000352E+00 0.  1.
       -3   -1    0    0    0  501  0.00000000000E+00  0.00000000000E+00 -0.21105909112E+03  0.21105911529E+03  0.10100000352E+00 0. -1.
    10030    2    1    2    0    0  0.00000000000E+00  0.00000000000E+00  0.12204497170E+04  0.16425679269E+04  0.10993324715E+04 0.  0.
        2    1    3    3  502    0 -0.24972529895E+03  0.15151217783E+03 -0.85501166805E+02  0.30435031542E+03  0.25500000920E-02 0. -1.
       -2    1    3    3    0  502  0.24972529895E+03 -0.15151217783E+03  0.13059508838E+04  0.13382176115E+04  0.25500000920E-02 0.  1.
</event>
<event>
 5   0  0.9692981E-03  0.1109932E+04  0.7818609E-02  0.9195565E-01
        2   -1    0    0  501    0  0.00000000000E+00  0.00000000000E+00  0.27433883319E+03  0.27433883320E+03  0.25500000920E-02 0.  1.
       -2   -1    0    0    0  501  0.00000000000E+00  0.00000000000E+00 -0.11226530289E+04  0.11226530289E+04  0.25500000920E-02 0. -1.
    10030    2    1    2    0    0  0.00000000000E+00  0.00000000000E+00 -0.84831419567E+03  0.13969918621E+04  0.11099321097E+04 0.  0.
        5    1    3    3  502    0 -0.14349574827E+03 -0.11803796519E+03 -0.10823140437E+04  0.10981574432E+04  0.46999998093E+01 0. -1.
       -5    1    3    3    0  502  0.14349574827E+03  0.11803796519E+03  0.23399984802E+03  0.29883441882E+03  0.46999998093E+01 0.  1.
</event>
<event>
 5   0  0.1019384E-02  0.1019724E+04  0.7818609E-02  0.9287172E-01
        2   -1    0    0  501    0  0.00000000000E+00  0.00000000000E+00  0.46726796065E+03  0.46726796066E+03  0.25500000920E-02 0. -1.
       -2   -1    0    0    0  501  0.00000000000E+00  0.00000000000E+00 -0.55633914914E+03  0.55633914915E+03  0.25500000920E-02 0.  1.
    10030    2    1    2    0    0  0.00000000000E+00  0.00000000000E+00 -0.89071188490E+02  0.10236071098E+04  0.10197243935E+04 0.  0.
        1    1    3    3  502    0  0.13291201487E+03  0.24506916405E+03  0.38397970698E+03  0.47451545208E+03  0.50400001928E-02 0. -1.
       -1    1    3    3    0  502 -0.13291201487E+03 -0.24506916405E+03 -0.47305089547E+03  0.54909165773E+03  0.50400001928E-02 0.  1.
</event>
<event>
 5   0  0.9925021E-03  0.1019809E+04  0.7818609E-02  0.9287081E-01
       -2   -1    0    0    0  501  0.00000000000E+00  0.00000000000E+00  0.30619429517E+03  0.30619429519E+03  0.25500000920E-02 0. -1.
        2   -1    0    0  501    0  0.00000000000E+00  0.00000000000E+00 -0.84914269008E+03  0.84914269008E+03  0.25500000920E-02 0.  1.
    10030    2    1    2    0    0  0.00000000000E+00  0.00000000000E+00 -0.54294839490E+03  0.11553369853E+04  0.10198090949E+04 0.  0.
        4    1    3    3  502    0 -0.28008907006E+03  0.24099856870E+02 -0.75341478414E+03  0.80415554474E+03  0.12699999809E+01 0.  1.
       -4    1    3    3    0  502  0.28008907006E+03 -0.24099856870E+02  0.21046638924E+03  0.35118144053E+03  0.12699999809E+01 0. -1.
</event>
<event>
 5   0  0.9692981E-03  0.1115063E+04  0.7818609E-02  0.9190633E-01
       -2   -1    0    0    0  501  0.00000000000E+00  0.00000000000E+00  0.20414723520E+03  0.20414723522E+03  0.25500000920E-02 0. -1.
        2   -1    0    0  501    0  0.00000000000E+00  0.00000000000E+00 -0.15226335229E+04  0.15226335229E+04  0.25500000920E-02 0.  1.
    10030    2    1    2    0    0  0.00000000000E+00  0.00000000000E+00 -0.13184862877E+04  0.17267807581E+04  0.11150630905E+04 0.  0.
        5    1    3    3  502    0  0.30943397915E+03  0.36173477152E+03 -0.11086502838E+04  0.12065359399E+04  0.46999998093E+01 0.  1.
       -5    1    3    3    0  502 -0.30943397915E+03 -0.36173477152E+03 -0.20983600384E+03  0.52024481822E+03  0.46999998093E+01 0. -1.
</event>
<event>
 5   0  0.5854579E-03  0.1116315E+04  0.7818609E-02  0.9189435E-01
        1   -1    0    0  501    0  0.00000000000E+00  0.00000000000E+00  0.72021292832E+03  0.72021292833E+03  0.50400001928E-02 0. -1.
       -1   -1    0    0    0  501  0.00000000000E+00  0.00000000000E+00 -0.43256619515E+03  0.43256619518E+03  0.50400001928E-02 0.  1.
    10030    2    1    2    0    0  0.00000000000E+00  0.00000000000E+00  0.28764673316E+03  0.11527791235E+04  0.11163149486E+04 0.  0.
        4    1    3    3  502    0 -0.24557105808E+03 -0.12654089707E+03  0.64466089519E+03  0.70136083857E+03  0.12699999809E+01 0. -1.
       -4    1    3    3    0  502  0.24557105808E+03  0.12654089707E+03 -0.35701416203E+03  0.45141828495E+03  0.12699999809E+01 0.  1.
</event>
<event>
 5   0  0.1019384E-02  0.1104314E+04  0.7818609E-02  0.9200997E-01
       -2   -1    0    0    0  501  0.00000000000E+00  0.00000000000E+00  0.16352970987E+03  0.16352970989E+03  0.25500000920E-02 0. -1.
        2   -1    0    0  501    0  0.00000000000E+00  0.00000000000E+00 -0.18643556713E+04  0.18643556713E+04  0.25500000920E-02 0.  1.
    10030    2    1    2    0    0  0.00000000000E+00  0.00000000000E+00 -0.17008259614E+04  0.20278853812E+04  0.11043143430E+04 0.  0.
        1    1    3    3  502    0 -0.48979376589E+03  0.63435565077E+02 -0.39703828627E+03  0.63368872864E+03  0.50400001928E-02 0.  1.
       -1    1    3    3    0  502  0.48979376589E+03 -0.63435565077E+02 -0.13037876752E+04  0.13941966526E+04  0.50400001928E-02 0. -1.
</event>
<event>
 5   0  0.5854579E-03  0.1154101E+04  0.7818609E-02  0.9154008E-01
       -1   -1    0    0    0  501  0.00000000000E+00  0.00000000000E+00  0.14516058119E+04  0.14516058119E+04  0.50400001928E-02 0.  1.
        1   -1    0    0  501    0  0.00000000000E+00  0.00000000000E+00 -0.22939254228E+03  0.22939254233E+03  0.50400001928E-02 0. -1.
    10030    2    1    2    0    0  0.00000000000E+00  0.00000000000E+00  0.12222132696E+04  0.16809983542E+04  0.11541014646E+04 0.  0.
        4    1    3    3  502    0  0.49292907072E+03  0.14865751282E+03  0.23154425754E+03  0.56452854753E+03  0.12699999809E+01 0.  1.
       -4    1    3    3    0  502 -0.49292907072E+03 -0.14865751282E+03  0.99066901208E+03  0.11164698067E+04  0.12699999809E+01 0. -1.
</event>
<event>
 5   0  0.5958706E-03  0.1105475E+04  0.7818609E-02  0.9199872E-01
        1   -1    0    0  501    0  0.00000000000E+00  0.00000000000E+00  0.73948995403E+03  0.73948995405E+03  0.50400001928E-02 0. -1.
       -1   -1    0    0    0  501  0.00000000000E+00  0.00000000000E+00 -0.41314818691E+03  0.41314818694E+03  0.50400001928E-02 0.  1.
    10030    2    1    2    0    0  0.00000000000E+00  0.00000000000E+00  0.32634176712E+03  0.11526381410E+04  0.11054753435E+04 0.  0.
        2    1    3    3  502    0 -0.18067384460E+03 -0.51901492818E+03  0.22485036557E+03  0.59378213235E+03  0.25500000920E-02 0. -1.
       -2    1    3    3    0  502  0.18067384460E+03  0.51901492818E+03  0.10149140155E+03  0.55885600864E+03  0.25500000920E-02 0.  1.
</event>
<event>
 5   0  0.3949750E-03  0.1243472E+04  0.7818609E-02  0.9075634E-01
       -4   -1    0    0    0  501  0.00000000000E+00  0.00000000000E+00  0.44536418699E+03  0.44536599775E+03  0.12699999809E+01 0.  1.
        4   -1    0    0  501    0  0.00000000000E+00  0.00000000000E+00 -0.86794977973E+03  0.86795070887E+03  0.12699999809E+01 0. -1.
    10030    2    1    2    0    0  0.00000000000E+00  0.00000000000E+00 -0.42258559274E+03  0.13133167066E+04  0.12434718287E+04 0.  0.
        2    1    3    3  502    0 -0.29474231406E+03 -0.34281194742E+03  0.23948549016E+03  0.51161153525E+03  0.25500000920E-02 0.  1.
       -2    1    3    3    0  502  0.29474231406E+03  0.34281194742E+03 -0.66207108290E+03  0.80170517138E+03  0.25500000920E-02 0. -1.
</event>
<event>
 5   0  0.5854579E-03  0.1144094E+04  0.7818609E-02  0.9163249E-01
        1   -1    0    0  501    0  0.00000000000E+00  0.00000000000E+00  0.67486520819E+03  0.67486520821E+03  0.50400001928E-02 0.  1.
       -1   -1    0    0    0  501  0.00000000000E+00  0.00000000000E+00 -0.48489360908E+03  0.48489360910E+03  0.50400001928E-02 0. -1.
    10030    2    1    2    0    0  0.00000000000E+00  0.00000000000E+00  0.18997159911E+03  0.11597588173E+04  0.11440940983E+04 0.  0.
        4    1    3    3  502    0 -0.18359906866E+03  0.54155169122E+03  0.78978412099E+02  0.57725735573E+03  0.12699999809E+01 0.  1.
       -4    1    3    3    0  502  0.18359906866E+03 -0.54155169122E+03  0.11099318701E+03  0.58250146157E+03  0.12699999809E+01 0. -1.
</event>
<event>
 5   0  0.5854579E-03  0.1089237E+04  0.7818609E-02  0.9215746E-01
       -1   -1    0    0    0  501  0.00000000000E+00  0.00000000000E+00  0.57388612129E+03  0.57388612131E+03  0.50400001928E-02 0.  1.
        1   -1    0    0  501    0  0.00000000000E+00  0.00000000000E+00 -0.51684342928E+03  0.51684342930E+03  0.50400001928E-02 0. -1.
    10030    2    1    2    0    0  0.00000000000E+00  0.00000000000E+00  0.57042692006E+02  0.10907295506E+04  0.10892369273E+04 0.  0.
        4    1    3    3  502    0  0.38112667077E+03 -0.29362163519E+03  0.28408952582E+03  0.55873041389E+03  0.12699999809E+01 0.  1.
       -4    1    3    3    0  502 -0.38112667077E+03  0.29362163519E+03 -0.22704683382E+03  0.53199913672E+03  0.12699999809E+01 0. -1.
</event>
<event>
 5   0  0.9925021E-03  0.1096457E+04  0.7818609E-02  0.9208652E-01
        2   -1    0    0  501    0  0.00000000000E+00  0.00000000000E+00  0.19867396281E+04  0.19867396281E+04  0.25500000920E-02 0. -1.
       -2   -1    0    0    0  501  0.00000000000E+00  0.00000000000E+00 -0.15128034469E+03  0.15128034471E+03  0.25500000920E-02 0.  1.
    10030    2    1    2    0    0  0.00000000000E+00  0.00000000000E+00  0.18354592834E+04  0.21380199728E+04  0.10964573056E+04 0.  0.
        4    1    3    3  502    0 -0.86842892184E+02 -0.25119075732E+03 -0.17252397801E+02  0.26634140237E+03  0.12699999809E+01 0.  1.
       -4    1    3    3    0  502  0.86842892184E+02  0.25119075732E+03  0.18527116812E+04  0.18716785704E+04  0.12699999809E+01 0. -1.
</event>
<event>
 5   0  0.9925021E-03  0.8326418E+03  0.7818609E-02  0.9513935E-01
        2   -1    0    0  501    0  0.00000000000E+00  0.00000000000E+00  0.12915368659E+04  0.12915368659E+04  0.25500000920E-02 0.  1.
       -2   -1    0    0    0  501  0.00000000000E+00  0.00000000000E+00 -0.13419911610E+03  0.13419911612E+03  0.25500000920E-02 0. -1.
    10030    2    1    2    0    0  0.00000000000E+00  0.00000000000E+00  0.11573377498E+04  0.14257359820E+04  0.83264183376E+03 0.  0.
        4    1    3    3  502    0  0.37405469567E+03  0.20587861619E+02  0.88963346144E+03  0.96529274524E+03  0.12699999809E+01 0.  1.
       -4    1    3    3    0  502 -0.37405469567E+03 -0.20587861619E+02  0.26770428836E+03  0.46044323679E+03  0.12699999809E+01 0. -1.
</event>
<event>
 5   0  0.5998641E-03  0.1079439E+04  0.7818609E-02  0.9225467E-01
        1   -1    0    0  501    0  0.00000000000E+00  0.00000000000E+00  0.96220053966E+03  0.96220053968E+03  0.50400001928E-02 0. -1.
       -1   -1    0    0    0  501  0.00000000000E+00  0.00000000000E+00 -0.30274060810E+03  0.30274060814E+03  0.50400001928E-02 0.  1.
    10030    2    1    2    0    0  0.00000000000E+00  0.00000000000E+00  0.65945993156E+03  0.12649411478E+04  0.10794390701E+04 0.  0.
        3    1    3    3  502    0 -0.15553310816E+03  0.41154722262E+02  0.93344668966E+03  0.94721010950E+03  0.10100000352E+00 0. -1.
       -3    1    3    3    0  502  0.15553310816E+03 -0.41154722262E+02 -0.27398675810E+03  0.31773103832E+03  0.10100000352E+00 0.  1.
</event>
<event>
 5   0  0.1028016E-02  0.8744668E+03  0.7818609E-02  0.9458074E-01
       -2   -1    0    0    0  501  0.00000000000E+00  0.00000000000E+00  0.28698506616E+03  0.28698506617E+03  0.25500000920E-02 0.  1.
        2   -1    0    0  501    0  0.00000000000E+00  0.00000000000E+00 -0.66614279553E+03  0.66614279553E+03  0.25500000920E-02 0. -1.
    10030    2    1    2    0    0  0.00000000000E+00  0.00000000000E+00 -0.37915772936E+03  0.95312786170E+03  0.87446677297E+03 0.  0.
        2    1    3    3  502    0 -0.28802808440E+03  0.19654435064E+03 -0.47709351133E+03  0.59093830282E+03  0.25500000920E-02 0. -1.
       -2    1    3    3    0  502  0.28802808440E+03 -0.19654435064E+03  0.97935781972E+02  0.36218955889E+03  0.25500000920E-02 0.  1.
</event>
<event>
 5   0  0.5712664E-03  0.9116479E+03  0.7818609E-02  0.9411137E-01
       -1   -1    0    0    0  501  0.00000000000E+00  0.00000000000E+00  0.17433223423E+03  0.17433223431E+03  0.50400001928E-02 0.  1.
        1   -1    0    0  501    0  0.00000000000E+00  0.00000000000E+00 -0.11918361945E+04  0.11918361946E+04  0.50400001928E-02 0. -1.
    10030    2    1    2    0    0  0.00000000000E+00  0.00000000000E+00 -0.10175039603E+04  0.13661684289E+04  0.91164788530E+03 0.  0.
        5    1    3    3  502    0  0.11595963878E+03  0.43613154536E+03 -0.41284331807E+03  0.61165272660E+03  0.46999998093E+01 0. -1.
       -5    1    3    3    0  502 -0.11595963878E+03 -0.43613154536E+03 -0.60466064224E+03  0.75451570226E+03  0.46999998093E+01 0.  1.
</event>
<event>
 5   0  0.1019384E-02  0.1082143E+04  0.7818609E-02  0.9222774E-01
       -2   -1    0    0    0  501  0.00000000000E+00  0.00000000000E+00  0.48159463112E+03  0.48159463113E+03  0.25500000920E-02 0. -1.
        2   -1    0    0  501    0  0.00000000000E+00  0.00000000000E+00 -0.60789348242E+03  0.60789348243E+03  0.25500000920E-02 0.  1.
    10030    2    1    2    0    0  0.00000000000E+00  0.00000000000E+00 -0.12629885130E+03  0.10894881136E+04  0.10821427585E+04 0.  0.
        1    1    3    3  502    0 -0.95424750153E+02  0.31088204126E+03 -0.49852515238E+03  0.59521496462E+03  0.50400001928E-02 0.  1.
       -1    1    3    3    0  502  0.95424750153E+02 -0.31088204126E+03  0.37222630108E+03  0.49427314894E+03  0.50400001928E-02 0. -1.
</event>
<event>
 5   0  0.9925021E-03  0.1104105E+04  0.7818609E-02  0.9201200E-01
        2   -1    0    0  501    0  0.00000000000E+00  0.00000000000E+00  0.12378196164E+04  0.12378196164E+04  0.25500000920E-02 0. -1.
       -2   -1    0    0    0  501  0.00000000000E+00  0.00000000000E+00 -0.24620858999E+03  0.24620859000E+03  0.25500000920E-02 0.  1.
    10030    2    1    2    0    0  0.00000000000E+00  0.00000000000E+00  0.99161102636E+03  0.14840282064E+04  0.11041047458E+04 0.  0.
        4    1    3    3  502    0  0.93079151671E+02 -0.14832632099E+03  0.11994982302E+04  0.12122136953E+04  0.12699999809E+01 0. -1.
       -4    1    3    3    0  502 -0.93079151671E+02  0.14832632099E+03 -0.20788720385E+03  0.27181451102E+03  0.12699999809E+01 0.  1.
</event>
<event>
 5   0  0.5998641E-03  0.1113675E+04  0.7818609E-02  0.9191965E-01
       -1   -1    0    0    0  501  0.00000000000E+00  0.00000000000E+00  0.39407452846E+03  0.39407452849E+03  0.50400001928E-02 0. -1.
        1   -1    0    0  501    0  0.00000000000E+00  0.00000000000E+00 -0.78682617925E+03  0.78682617926E+03  0.50400001928E-02 0.  1.
    10030    2    1    2    0    0  0.00000000000E+00  0.00000000000E+00 -0.39275165079E+03  0.11809007078E+04  0.11136752769E+04 0.  0.
        3    1    3    3  502    0  0.81696924998E+02 -0.55065943777E+03 -0.18263433820E+03  0.58588012054E+03  0.10100000352E+00 0.  1.
       -3    1    3    3    0  502 -0.81696924998E+02  0.55065943777E+03 -0.21011731259E+03  0.59502058721E+03  0.10100000352E+00 0. -1.
</event>
<event>
 5   0  0.9925021E-03  0.1080354E+04  0.7818609E-02  0.9224555E-01
       -2   -1    0    0    0  501  0.00000000000E+00  0.00000000000E+00  0.63977500419E+03  0.63977500419E+03  0.25500000920E-02 0.  1.
        2   -1    0    0  501    0  0.00000000000E+00  0.00000000000E+00 -0.45608377479E+03  0.45608377479E+03  0.25500000920E-02 0. -1.
    10030    2    1    2    0    0  0.00000000000E+00  0.00000000000E+00  0.18369122940E+03  0.10958587790E+04  0.10803536438E+04 0.  0.
        4    1    3    3  502    0  0.42783329377E+03  0.24872754253E+03  0.31147720743E+03  0.58474471466E+03  0.12699999809E+01 0.  1.
       -4    1    3    3    0  502 -0.42783329377E+03 -0.24872754253E+03 -0.12778597804E+03  0.51111406433E+03  0.12699999809E+01 0. -1.
</event>
<event>
 5   0  0.9692981E-03  0.5529407E+03  0.7818609E-02  0.1000816E+00
        2   -1    0    0  501    0  0.00000000000E+00  0.00000000000E+00  0.70012982599E+02  0.70012982645E+02  0.25500000920E-02 0. -1.
       -2   -1    0    0    0  501  0.00000000000E+00  0.00000000000E+00 -0.10917384650E+04  0.10917384650E+04  0.25500000920E-02 0.  1.
    10030    2    1    2    0    0  0.00000000000E+00  0.00000000000E+00 -0.10217254824E+04  0.11617514476E+04  0.55294074250E+03 0.  0.
        5    1    3    3  502    0  0.58613892950E+02 -0.22500870846E+03 -0.82496155109E+03  0.85711618705E+03  0.46999998093E+01 0.  1.
       -5    1    3    3    0  502 -0.58613892950E+02  0.22500870846E+03 -0.19676393130E+03  0.30463526058E+03  0.46999998093E+01 0. -1.
</event>
<event>
 5   0  0.1019384E-02  0.1092229E+04  0.7818609E-02  0.9212799E-01
       -2   -1    0    0    0  501  0.00000000000E+00  0.00000000000E+00  0.40940074786E+03  0.40940074786E+03  0.25500000920E-02 0.  1.
        2   -1    0    0  501    0  0.00000000000E+00  0.00000000000E+00 -0.72848221623E+03  0.72848221624E+03  0.25500000920E-02 0. -1.
    10030    2    1    2    0    0  0.00000000000E+00  0.00000000000E+00 -0.31908146838E+03  0.11378829641E+04  0.10922292143E+04 0.  0.
        1    1    3    3  502    0 -0.31011947450E+03  0.30627529557E+03 -0.50232657191E+03  0.66506438035E+03  0.50400001928E-02 0. -1.
       -1    1    3    3    0  502  0.31011947450E+03 -0.30627529557E+03  0.18324510353E+03  0.47281858375E+03  0.50400001928E-02 0.  1.
</event>
<event>
 5   0  0.5854579E-03  0.1105392E+04  0.7818609E-02  0.9199952E-01
       -1   -1    0    0    0  501  0.00000000000E+00  0.00000000000E+00  0.21237458722E+03  0.21237458728E+03  0.50400001928E-02 0. -1.
        1   -1    0    0  501    0  0.00000000000E+00  0.00000000000E+00 -0.14383687102E+04  0.14383687102E+04  0.50400001928E-02 0.  1.
    10030    2    1    2    0    0  0.00000000000E+00  0.00000000000E+00 -0.12259941229E+04  0.16507432974E+04  0.11053921678E+04 0.  0.
        4    1    3    3  502    0 -0.14051098544E+03 -0.25340131253E+03 -0.13158516752E+04  0.13473762676E+04  0.12699999809E+01 0.  1.
       -4    1    3    3    0  502  0.14051098544E+03  0.25340131253E+03  0.89857552299E+02  0.30336702990E+03  0.12699999809E+01 0. -1.
</event>
<event>
 5   0  0.1019384E-02  0.1123690E+04  0.7818609E-02  0.9182405E-01
       -2   -1    0    0    0  501  0.00000000000E+00  0.00000000000E+00  0.24019200022E+03  0.24019200023E+03  0.25500000920E-02 0. -1.
        2   -1    0    0  501    0  0.00000000000E+00  0.00000000000E+00 -0.13142392714E+04  0.13142392714E+04  0.25500000920E-02 0.  1.
    10030    2    1    2    0    0  0.00000000000E+00  0.00000000000E+00 -0.10740472712E+04  0.15544312716E+04  0.11236899205E+04 0.  0.
        1    1    3    3  502    0  0.22304728446E+03  0.49199650139E+03 -0.32334939602E+03  0.62957563518E+03  0.50400001928E-02 0. -1.
       -1    1    3    3    0  502 -0.22304728446E+03 -0.49199650139E+03 -0.75069787516E+03  0.92485563645E+03  0.50400001928E-02 0.  1.
</event>
<event>
 5   0  0.5958706E-03  0.1055455E+04  0.7818609E-02  0.9249731E-01
        1   -1    0    0  501    0  0.00000000000E+00  0.00000000000E+00  0.45559875450E+03  0.45559875453E+03  0.50400001928E-02 0.  1.
       -1   -1    0    0    0  501  0.00000000000E+00  0.00000000000E+00 -0.61127488489E+03  0.61127488491E+03  0.50400001928E-02 0. -1.
    10030    2    1    2    0    0  0.00000000000E+00  0.00000000000E+00 -0.15567613039E+03  0.10668736394E+04  0.10554545490E+04 0.  0.
        2    1    3    3  502    0 -0.26869059037E+03  0.43047299432E+03 -0.22430029369E+03  0.55480830378E+03  0.25500000920E-02 0.  1.
       -2    1    3    3    0  502  0.26869059037E+03 -0.43047299432E+03  0.68624163300E+02  0.51206533566E+03  0.25500000920E-02 0. -1.
</event>
<event>
 5   0  0.9719260E-03  0.1079594E+04  0.7818609E-02  0.9225312E-01
        2   -1    0    0  501    0  0.00000000000E+00  0.00000000000E+00  0.40801348441E+03  0.40801348442E+03  0.25500000920E-02 0. -1.
       -2   -1    0    0    0  501  0.00000000000E+00  0.00000000000E+00 -0.71414529896E+03  0.71414529896E+03  0.25500000920E-02 0.  1.
    10030    2    1    2    0    0  0.00000000000E+00  0.00000000000E+00 -0.30613181455E+03  0.11221587834E+04  0.10795942049E+04 0.  0.
        3    1    3    3  502    0 -0.22647487327E+03  0.21514285094E+03 -0.61065395702E+03  0.68591222467E+03  0.10100000352E+00 0.  1.
       -3    1    3    3    0  502  0.22647487327E+03 -0.21514285094E+03  0.30452214247E+03  0.43624655871E+03  0.10100000352E+00 0. -1.
</event>
<event>
 5   0  0.5854579E-03  0.1103182E+04  0.7818609E-02  0.9202096E-01
       -1   -1    0    0    0  501  0.00000000000E+00  0.00000000000E+00  0.20389888567E+03  0.20389888573E+03  0.50400001928E-02 0. -1.
        1   -1    0    0  501    0  0.00000000000E+00  0.00000000000E+00 -0.14921730379E+04  0.14921730380E+04  0.50400001928E-02 0.  1.
    10030    2    1    2    0    0  0.00000000000E+00  0.00000000000E+00 -0.12882741523E+04  0.16960719237E+04  0.11031816165E+04 0.  0.
        4    1    3    3  502    0  0.31360673637E+03 -0.25247315862E+03 -0.64462416563E+02  0.40773630813E+03  0.12699999809E+01 0. -1.
       -4    1    3    3    0  502 -0.31360673637E+03  0.25247315862E+03 -0.12238117357E+04  0.12883356155E+04  0.12699999809E+01 0.  1.
</event>
<event>
 5   0  0.5854579E-03  0.1094712E+04  0.7818609E-02  0.9210362E-01
        1   -1    0    0  501    0  0.00000000000E+00  0.00000000000E+00  0.18753149365E+03  0.18753149372E+03  0.50400001928E-02 0.  1.
       -1   -1    0    0    0  501  0.00000000000E+00  0.00000000000E+00 -0.15975896285E+04  0.15975896285E+04  0.50400001928E-02 0. -1.
    10030    2    1    2    0    0  0.00000000000E+00  0.00000000000E+00 -0.14100581348E+04  0.17851211222E+04  0.10947115955E+04 0.  0.
        4    1    3    3  502    0 -0.32082561862E+02 -0.50738211751E+03 -0.37431564175E+03  0.63133170085E+03  0.12699999809E+01 0.  1.
       -4    1    3    3    0  502  0.32082561862E+02  0.50738211751E+03 -0.10357424931E+04  0.11537894214E+04  0.12699999809E+01 0. -1.
</event>
<event>
 5   0  0.1019384E-02  0.1108829E+04  0.7818609E-02  0.9196629E-01
        2   -1    0    0  501    0  0.00000000000E+00  0.00000000000E+00  0.69013258895E+03  0.69013258895E+03  0.25500000920E-02 0. -1.
       -2   -1    0    0    0  501  0.00000000000E+00  0.00000000000E+00 -0.44538639463E+03  0.44538639464E+03  0.25500000920E-02 0.  1.
    10030    2    1    2    0    0  0.00000000000E+00  0.00000000000E+00  0.24474619432E+03  0.11355189836E+04  0.11088294109E+04 0.  0.
        1    1    3    3  502    0 -0.54508388079E+03  0.72980429476E+02  0.19429960579E+03  0.58326230550E+03  0.50400001928E-02 0. -1.
       -1    1    3    3    0  502  0.54508388079E+03 -0.72980429476E+02  0.50446588525E+02  0.55225667809E+03  0.50400001928E-02 0.  1.
</event>
<event>
 5   0  0.9925021E-03  0.1107728E+04  0.7818609E-02  0.9197692E-01
       -2   -1    0    0    0  501  0.00000000000E+00  0.00000000000E+00  0.75755172975E+03  0.75755172976E+03  0.25500000920E-02 0.  1.
        2   -1    0    0  501    0  0.00000000000E+00  0.00000000000E+00 -0.40494335248E+03  0.40494335249E+03  0.25500000920E-02 0. -1.
    10030    2    1    2    0    0  0.00000000000E+00  0.00000000000E+00  0.35260837727E+03  0.11624950822E+04  0.11077283731E+04 0.  0.
        4    1    3    3  502    0  0.34989300298E+03  0.42521905944E+03  0.23863390973E+03  0.60015341191E+03  0.12699999809E+01 0.  1.
       -4    1    3    3    0  502 -0.34989300298E+03 -0.42521905944E+03  0.11397446754E+03  0.56234167034E+03  0.12699999809E+01 0. -1.
</event>
<event>
 5   0  0.5712664E-03  0.1099081E+04  0.7818609E-02  0.9206088E-01
        1   -1    0    0  501    0  0.00000000000E+00  0.00000000000E+00  0.80044221927E+03  0.80044221928E+03  0.50400001928E-02 0.  1.
       -1   -1    0    0    0  501  0.00000000000E+00  0.00000000000E+00 -0.37728517365E+03  0.37728517368E+03  0.50400001928E-02 0. -1.
    10030    2    1    2    0    0  0.00000000000E+00  0.00000000000E+00  0.42315704562E+03  0.11777273930E+04  0.10990814014E+04 0.  0.
        5    1    3    3  502    0 -0.22827620958E+03  0.34087070114E+03 -0.18019216474E+03  0.44810062373E+03  0.46999998093E+01 0. -1.
       -5    1    3    3    0  502  0.22827620958E+03 -0.34087070114E+03  0.60334921036E+03  0.72962676924E+03  0.46999998093E+01 0.  1.
</event>
<event>
 5   0  0.1019384E-02  0.1149601E+04  0.7818609E-02  0.9158152E-01
       -2   -1    0    0    0  501  0.00000000000E+00  0.00000000000E+00  0.41649224002E+03  0.41649224002E+03  0.25500000920E-02 0. -1.
        2   -1    0    0  501    0  0.00000000000E+00  0.00000000000E+00 -0.79328088113E+03  0.79328088114E+03  0.25500000920E-02 0.  1.
    10030    2    1    2    0    0  0.00000000000E+00  0.00000000000E+00 -0.37678864112E+03  0.12097731212E+04  0.11496005065E+04 0.  0.
        1    1    3    3  502    0  0.55598024666E+03  0.14553575320E+03 -0.19895141567E+03  0.60817460976E+03  0.50400001928E-02 0.  1.
       -1    1    3    3    0  502 -0.55598024666E+03 -0.14553575320E+03 -0.17783722544E+03  0.60159851140E+03  0.50400001928E-02 0. -1.
</event>
<event>
 5   0  0.9719260E-03  0.1098263E+04  0.7818609E-02  0.9206887E-01
       -2   -1    0    0    0  501  0.00000000000E+00  0.00000000000E+00  0.18797546922E+03  0.18797546923E+03  0.25500000920E-02 0. -1.
        2   -1    0    0  501    0  0.00000000000E+00  0.00000000000E+00 -0.16041735098E+04  0.16041735098E+04  0.25500000920E-02 0.  1.
    10030    2    1    2    0    0  0.00000000000E+00  0.00000000000E+00 -0.14161980406E+04  0.17921489791E+04  0.10982627522E+04 0.  0.
        3    1    3    3  502    0  0.33492267309E+03 -0.21752288658E+03 -0.93067429712E+02  0.41006214140E+03  0.10100000352E+00 0. -1.
       -3    1    3    3    0  502 -0.33492267309E+03  0.21752288658E+03 -0.13231306109E+04  0.13820868377E+04  0.10100000352E+00 0.  1.
</event>
<event>
 5   0  0.5789905E-03  0.1083306E+04  0.7818609E-02  0.9221617E-01
       -1   -1    0    0    0  501  0.00000000000E+00  0.00000000000E+00  0.23726647982E+03  0.23726647988E+03  0.50400001928E-02 0.  1.
        1   -1    0    0  501    0  0.00000000000E+00  0.00000000000E+00 -0.12365344287E+04  0.12365344287E+04  0.50400001928E-02 0. -1.
    10030    2    1    2    0    0  0.00000000000E+00  0.00000000000E+00 -0.99926794889E+03  0.14738009086E+04  0.10833063669E+04 0.  0.
        1    1    3    3  502    0  0.38489274007E+03  0.80885270472E+02  0.70427530430E+01  0.39336299869E+03  0.50400001928E-02 0.  1.
       -1    1    3    3    0  502 -0.38489274007E+03 -0.80885270472E+02 -0.10063107019E+04  0.10804379099E+04  0.50400001928E-02 0. -1.
</event>
<event>
 5   0  0.5854579E-03  0.1097702E+04  0.7818609E-02  0.9207434E-01
        1   -1    0    0  501    0  0.00000000000E+00  0.00000000000E+00  0.19140519438E+04  0.19140519438E+04  0.50400001928E-02 0.  1.
       -1   -1    0    0    0  501  0.00000000000E+00  0.00000000000E+00 -0.15738207994E+03  0.15738208003E+03  0.50400001928E-02 0. -1.
    10030    2    1    2    0    0  0.00000000000E+00  0.00000000000E+00  0.17566698638E+04  0.20714340238E+04  0.10977021019E+04 0.  0.
        4    1    3    3  502    0 -0.88247303376E+02  0.50758178333E+03  0.52124075673E+03  0.73288497917E+03  0.12699999809E+01 0.  1.
       -4    1    3    3    0  502  0.88247303376E+02 -0.50758178333E+03  0.12354291071E+04  0.13385490447E+04  0.12699999809E+01 0. -1.
</event>
<event>
 5   0  0.5789905E-03  0.1166839E+04  0.7818609E-02  0.9142388E-01
       -1   -1    0    0    0  501  0.00000000000E+00  0.00000000000E+00  0.28994197859E+03  0.28994197863E+03  0.50400001928E-02 0.  1.
        1   -1    0    0  501    0  0.00000000000E+00  0.00000000000E+00 -0.11739539059E+04  0.11739539059E+04  0.50400001928E-02 0. -1.
    10030    2    1    2    0    0  0.00000000000E+00  0.00000000000E+00 -0.88401192731E+03  0.14638958845E+04  0.11668393519E+04 0.  0.
        1    1    3    3  502    0 -0.46284300430E+00  0.21896782077E+02  0.28942604271E+03  0.29025354005E+03  0.50400001928E-02 0.  1.
       -1    1    3    3    0  502  0.46284300430E+00 -0.21896782077E+02 -0.11734379700E+04  0.11736423445E+04  0.50400001928E-02 0. -1.
</event>
<event>
 5   0  0.5712664E-03  0.1097269E+04  0.7818609E-02  0.9207857E-01
        1   -1    0    0  501    0  0.00000000000E+00  0.00000000000E+00  0.66413600168E+03  0.66413600170E+03  0.50400001928E-02 0. -1.
       -1   -1    0    0    0  501  0.00000000000E+00  0.00000000000E+00 -0.45322040843E+03  0.45322040846E+03  0.50400001928E-02 0.  1.
    10030    2    1    2    0    0  0.00000000000E+00  0.00000000000E+00  0.21091559326E+03  0.11173564102E+04  0.10972693196E+04 0.  0.
        5    1    3    3  502    0  0.37507517166E+03 -0.39828537916E+03  0.63903003944E+02  0.55083419607E+03  0.46999998093E+01 0.  1.
       -5    1    3    3    0  502 -0.37507517166E+03  0.39828537916E+03  0.14701258931E+03  0.56652221409E+03  0.46999998093E+01 0. -1.
</event>
<event>
 5   0  0.3949750E-03  0.1164853E+04  0.7818609E-02  0.9144189E-01
       -3   -1    0    0    0  501  0.00000000000E+00  0.00000000000E+00  0.55100742117E+03  0.55100743043E+03  0.10100000352E+00 0.  1.
        3   -1    0    0  501    0  0.00000000000E+00  0.00000000000E+00 -0.61563754525E+03  0.61563755354E+03  0.10100000352E+00 0. -1.
    10030    2    1    2    0    0  0.00000000000E+00  0.00000000000E+00 -0.64630124082E+02  0.11666449840E+04  0.11648534095E+04 0.  0.
        4    1    3    3  502    0  0.98185271685E+02 -0.53318738520E+03  0.18082700341E+03  0.57151478842E+03  0.12699999809E+01 0. -1.
       -4    1    3    3    0  502 -0.98185271685E+02  0.53318738520E+03 -0.24545712750E+03  0.59513019555E+03  0.12699999809E+01 0.  1.
</event>
<event>
 5   0  0.5998641E-03  0.1055994E+04  0.7818609E-02  0.9249178E-01
        1   -1    0    0  501    0  0.00000000000E+00  0.00000000000E+00  0.17481441326E+04  0.17481441326E+04  0.50400001928E-02 0. -1.
       -1   -1    0    0    0  501  0.00000000000E+00  0.00000000000E+00 -0.15947238419E+03  0.15947238427E+03  0.50400001928E-02 0.  1.
    10030    2    1    2    0    0  0.00000000000E+00  0.00000000000E+00  0.15886717484E+04  0.19076165169E+04  0.10559937743E+04 0.  0.
        3    1    3    3  502    0 -0.49488448152E+03  0.14726188683E+03  0.59493618814E+03  0.78774728912E+03  0.10100000352E+00 0. -1.
       -3    1    3    3    0  502  0.49488448152E+03 -0.14726188683E+03  0.99373556030E+03  0.11198692278E+04  0.10100000352E+00 0.  1.
</event>
<event>
 5   0  0.9925021E-03  0.9431114E+03  0.7818609E-02  0.9373239E-01
       -2   -1    0    0    0  501  0.00000000000E+00  0.00000000000E+00  0.96976330425E+02  0.96976330458E+02  0.25500000920E-02 0.  1.
        2   -1    0    0  501    0  0.00000000000E+00  0.00000000000E+00 -0.22929801215E+04  0.22929801215E+04  0.25500000920E-02 0. -1.
    10030    2    1    2    0    0  0.00000000000E+00  0.00000000000E+00 -0.21960037911E+04  0.23899564520E+04  0.94311144190E+03 0.  0.
        4    1    3    3  502    0  0.16968422492E+03  0.19246328121E+03 -0.21005920966E+04  0.21162050042E+04  0.12699999809E+01 0. -1.
       -4    1    3    3    0  502 -0.16968422492E+03 -0.19246328121E+03 -0.95411694527E+02  0.27375144777E+03  0.12699999809E+01 0.  1.
</event>
<event>
 5   0  0.1019384E-02  0.1091605E+04  0.7818609E-02  0.9213413E-01
        2   -1    0    0  501    0  0.00000000000E+00  0.00000000000E+00  0.12141044660E+04  0.12141044660E+04  0.25500000920E-02 0.  1.
       -2   -1    0    0    0  501  0.00000000000E+00  0.00000000000E+00 -0.24536653964E+03  0.24536653965E+03  0.25500000920E-02 0. -1.
    10030    2    1    2    0    0  0.00000000000E+00  0.00000000000E+00  0.96873792635E+03  0.14594710056E+04  0.10916054444E+04 0.  0.
        1    1    3    3  502    0 -0.20551928710E+02  0.69403517599E+02  0.12076590081E+04  0.12098262313E+04  0.50400001928E-02 0.  1.
       -1    1    3    3    0  502  0.20551928710E+02 -0.69403517599E+02 -0.23892108175E+03  0.24964477435E+03  0.50400001928E-02 0. -1.
</event>
<event>
 5   0  0.5958706E-03  0.1078024E+04  0.7818609E-02  0.9226880E-01
        1   -1    0    0  501    0  0.00000000000E+00  0.00000000000E+00  0.45131490895E+03  0.45131490897E+03  0.50400001928E-02 0.  1.
       -1   -1    0    0    0  501  0.00000000000E+00  0.00000000000E+00 -0.64374972601E+03  0.64374972603E+03  0.50400001928E-02 0. -1.
    10030    2    1    2    0    0  0.00000000000E+00  0.00000000000E+00 -0.19243481707E+03  0.10950646350E+04  0.10780238383E+04 0.  0.
        2    1    3    3  502    0 -0.26277227635E+02  0.39932197267E+03  0.27057955789E+03  0.48307538512E+03  0.25500000920E-02 0.  1.
       -2    1    3    3    0  502  0.26277227635E+02 -0.39932197267E+03 -0.46301437496E+03  0.61198924989E+03  0.25500000920E-02 0. -1.
</event>
<event>
 5   0  0.9692981E-03  0.1133369E+04  0.7818609E-02  0.9173265E-01
        2   -1    0    0  501    0  0.00000000000E+00  0.00000000000E+00  0.78865582440E+03  0.78865582441E+03  0.25500000920E-02 0.  1.
       -2   -1    0    0    0  501  0.00000000000E+00  0.00000000000E+00 -0.40718820259E+03  0.40718820260E+03  0.25500000920E-02 0. -1.
    10030    2    1    2    0    0  0.00000000000E+00  0.00000000000E+00  0.38146762181E+03  0.11958440270E+04  0.11333690442E+04 0.  0.
        5    1    3    3  502    0 -0.18350600938E+03 -0.17689630831E+03  0.72473719912E+03  0.76826613693E+03  0.46999998093E+01 0.  1.
       -5    1    3    3    0  502  0.18350600938E+03  0.17689630831E+03 -0.34326957731E+03  0.42757789007E+03  0.46999998093E+01 0. -1.
</event>
<event>
 5   0  0.5958706E-03  0.1084387E+04  0.7818609E-02  0.9220544E-01
       -1   -1    0    0    0  501  0.00000000000E+00  0.00000000000E+00  0.12078157998E+04  0.12078157998E+04  0.50400001928E-02 0. -1.
        1   -1    0    0  501    0  0.00000000000E+00  0.00000000000E+00 -0.24339299708E+03  0.24339299713E+03  0.50400001928E-02 0.  1.
    10030    2    1    2    0    0  0.00000000000E+00  0.00000000000E+00  0.96442280274E+03  0.14512087970E+04  0.10843872140E+04 0.  0.
        2    1    3    3  502    0  0.10553876394E+03  0.52780245761E+02  0.11904230854E+04  0.11962572078E+04  0.25500000920E-02 0. -1.
       -2    1    3    3    0  502 -0.10553876394E+03 -0.52780245761E+02 -0.22600028265E+03  0.25495158914E+03  0.25500000920E-02 0.  1.
</event>
<event>
 5   0  0.1028016E-02  0.1140075E+04  0.7818609E-02  0.9166989E-01
        2   -1    0    0  501    0  0.00000000000E+00  0.00000000000E+00  0.11665120608E+04  0.11665120608E+04  0.25500000920E-02 0.  1.
       -2   -1    0    0    0  501  0.00000000000E+00  0.00000000000E+00 -0.27855947041E+03  0.27855947042E+03  0.25500000920E-02 0. -1.
    10030    2    1    2    0    0  0.00000000000E+00  0.00000000000E+00  0.88795259036E+03  0.14450715312E+04  0.11400754043E+04 0.  0.
        2    1    3    3  502    0  0.17762146560E+02  0.23675885657E+02 -0.27758484027E+03  0.27915835105E+03  0.25500000920E-02 0. -1.
       -2    1    3    3    0  502 -0.17762146560E+02 -0.23675885657E+02  0.11655374306E+04  0.11659131801E+04  0.25500000920E-02 0.  1.
</event>
<event>
 5   0  0.9719260E-03  0.1096708E+04  0.7818609E-02  0.9208407E-01
       -2   -1    0    0    0  501  0.00000000000E+00  0.00000000000E+00  0.60773047730E+03  0.60773047730E+03  0.25500000920E-02 0. -1.
        2   -1    0    0  501    0  0.00000000000E+00  0.00000000000E+00 -0.49477833543E+03  0.49477833544E+03  0.25500000920E-02 0.  1.
    10030    2    1    2    0    0  0.00000000000E+00  0.00000000000E+00  0.11295214186E+03  0.11025088127E+04  0.10967075708E+04 0.  0.
        3    1    3    3  502    0  0.38126948560E+03  0.33479825402E+03 -0.15255547558E+03  0.52983910282E+03  0.10100000352E+00 0.  1.
       -3    1    3    3    0  502 -0.38126948560E+03 -0.33479825402E+03  0.26550761745E+03  0.57266970992E+03  0.10100000352E+00 0. -1.
</event>
<event>
 5   0  0.5712664E-03  0.9102764E+03  0.7818609E-02  0.9412826E-01
       -1   -1    0    0    0  501  0.00000000000E+00  0.00000000000E+00  0.36737182741E+03  0.36737182744E+03  0.50400001928E-02 0.  1.
        1   -1    0    0  501    0  0.00000000000E+00  0.00000000000E+00 -0.56387225729E+03  0.56387225731E+03  0.50400001928E-02 0. -1.
    10030    2    1    2    0    0  0.00000000000E+00  0.00000000000E+00 -0.19650042988E+03  0.93124408476E+03  0.91027640113E+03 0.  0.
        5    1    3    3  502    0 -0.38517241017E+03 -0.16823518688E+02  0.14916315557E+03  0.41341571488E+03  0.46999998093E+01 0. -1.
       -5    1    3    3    0  502  0.38517241017E+03  0.16823518688E+02 -0.34566358545E+03  0.51782836987E+03  0.46999998093E+01 0.  1.
</event>
<event>
 5   0  0.1019384E-02  0.1082768E+04  0.7818609E-02  0.9222152E-01
       -2   -1    0    0    0  501  0.00000000000E+00  0.00000000000E+00  0.22998913538E+03  0.22998913540E+03  0.25500000920E-02 0.  1.
        2   -1    0    0  501    0  0.00000000000E+00  0.00000000000E+00 -0.12743925578E+04  0.12743925578E+04  0.25500000920E-02 0. -1.
    10030    2    1    2    0    0  0.00000000000E+00  0.00000000000E+00 -0.10444034224E+04  0.15043816931E+04  0.10827676436E+04 0.  0.
        1    1    3    3  502    0  0.48595049482E+03  0.13605855065E+01 -0.85375785639E+03  0.98237071006E+03  0.50400001928E-02 0. -1.
       -1    1    3    3    0  502 -0.48595049482E+03 -0.13605855065E+01 -0.19064556598E+03  0.52201098309E+03  0.50400001928E-02 0.  1.
</event>
<event>
 5   0  0.9925021E-03  0.1155601E+04  0.7818609E-02  0.9152632E-01
        2   -1    0    0  501    0  0.00000000000E+00  0.00000000000E+00  0.24319880475E+03  0.24319880476E+03  0.25500000920E-02 0. -1.
       -2   -1    0    0    0  501  0.00000000000E+00  0.00000000000E+00 -0.13727602607E+04  0.13727602607E+04  0.25500000920E-02 0.  1.
    10030    2    1    2    0    0  0.00000000000E+00  0.00000000000E+00 -0.11295614560E+04  0.16159590655E+04  0.11556014099E+04 0.  0.
        4    1    3    3  502    0  0.24880132951E+03 -0.45166787820E+03 -0.92928653945E+03  0.10627704640E+04  0.12699999809E+01 0.  1.
       -4    1    3    3    0  502 -0.24880132951E+03  0.45166787820E+03 -0.20027491652E+03  0.55318860152E+03  0.12699999809E+01 0. -1.
</event>
<event>
 5   0  0.5712664E-03  0.7728859E+03  0.7818609E-02  0.9600115E-01
       -1   -1    0    0    0  501  0.00000000000E+00  0.00000000000E+00  0.31475505753E+03  0.31475505757E+03  0.50400001928E-02 0. -1.
        1   -1    0    0  501    0  0.00000000000E+00  0.00000000000E+00 -0.47445835572E+03  0.47445835574E+03  0.50400001928E-02 0.  1.
    10030    2    1    2    0    0  0.00000000000E+00  0.00000000000E+00 -0.15970329819E+03  0.78921341331E+03  0.77288593485E+03 0.  0.
        5    1    3    3  502    0 -0.67512717311E+02  0.87463022934E+02 -0.45795538972E+03  0.47111885586E+03  0.46999998093E+01 0.  1.
       -5    1    3    3    0  502  0.67512717311E+02 -0.87463022934E+02  0.29825209153E+03  0.31809455745E+03  0.46999998093E+01 0. -1.
</event>
<event>
 5   0  0.5958706E-03  0.1095063E+04  0.7818609E-02  0.9210017E-01
        1   -1    0    0  501    0  0.00000000000E+00  0.00000000000E+00  0.45272362342E+03  0.45272362345E+03  0.50400001928E-02 0.  1.
       -1   -1    0    0    0  501  0.00000000000E+00  0.00000000000E+00 -0.66219398212E+03  0.66219398214E+03  0.50400001928E-02 0. -1.
    10030    2    1    2    0    0  0.00000000000E+00  0.00000000000E+00 -0.20947035870E+03  0.11149176056E+04  0.10950632110E+04 0.  0.
        2    1    3    3  502    0 -0.18993955188E+03 -0.24703800507E+03  0.35363411151E+03  0.47134052886E+03  0.25500000920E-02 0.  1.
       -2    1    3    3    0  502  0.18993955188E+03  0.24703800507E+03 -0.56310447021E+03  0.64357707673E+03  0.25500000920E-02 0. -1.
</event>
<event>
 5   0  0.5712664E-03  0.1154767E+04  0.7818609E-02  0.9153397E-01
        1   -1    0    0  501    0  0.00000000000E+00  0.00000000000E+00  0.28327125342E+03  0.28327125347E+03  0.50400001928E-02 0. -1.
       -1   -1    0    0    0  501  0.00000000000E+00  0.00000000000E+00 -0.11768630985E+04  0.11768630985E+04  0.50400001928E-02 0.  1.
    10030    2    1    2    0    0  0.00000000000E+00  0.00000000000E+00 -0.89359184507E+03  0.14601343520E+04  0.11547666172E+04 0.  0.
        5    1    3    3  502    0 -0.20225674946E+03 -0.54067316778E+03 -0.43328780896E+03  0.72180030649E+03  0.46999998093E+01 0.  1.
       -5    1    3    3    0  502  0.20225674946E+03  0.54067316778E+03 -0.46030403611E+03  0.73833404548E+03  0.46999998093E+01 0. -1.
</event>
<event>
 5   0  0.9719260E-03  0.1074758E+04  0.7818609E-02  0.9230149E-01
        2   -1    0    0  501    0  0.00000000000E+00  0.00000000000E+00  0.13516095263E+04  0.13516095263E+04  0.25500000920E-02 0.  1.
       -2   -1    0    0    0  501  0.00000000000E+00  0.00000000000E+00 -0.21365367396E+03  0.21365367398E+03  0.25500000920E-02 0. -1.
    10030    2    1    2    0    0  0.00000000000E+00  0.00000000000E+00  0.11379558523E+04  0.15652632003E+04  0.10747582818E+04 0.  0.
        3    1    3    3  502    0  0.24006400548E+03  0.27153482713E+03 -0.88504446503E+01  0.36254686545E+03  0.10100000352E+00 0. -1.
       -3    1    3    3    0  502 -0.24006400548E+03 -0.27153482713E+03  0.11468062970E+04  0.12027163348E+04  0.10100000352E+00 0.  1.
</event>
<event>
 5   0  0.1028016E-02  0.1080790E+04  0.7818609E-02  0.9224121E-01
        2   -1    0    0  501    0  0.00000000000E+00  0.00000000000E+00  0.23979192451E+03  0.23979192452E+03  0.25500000920E-02 0. -1.
       -2   -1    0    0    0  501  0.00000000000E+00  0.00000000000E+00 -0.12178328912E+04  0.12178328912E+04  0.25500000920E-02 0.  1.
    10030    2    1    2    0    0  0.00000000000E+00  0.00000000000E+00 -0.97804096670E+03  0.14576248157E+04  0.10807895128E+04 0.  0.
        2    1    3    3  502    0  0.10367454259E+03  0.39958478081E+03 -0.95933613006E+03  0.10443860485E+04  0.25500000920E-02 0.  1.
       -2    1    3    3    0  502 -0.10367454259E+03 -0.39958478081E+03 -0.18704836649E+02  0.41323876725E+03  0.25500000920E-02 0. -1.
</event>
<event>
 5   0  0.9692981E-03  0.7604103E+03  0.7818609E-02  0.9619158E-01
        2   -1    0    0  501    0  0.00000000000E+00  0.00000000000E+00  0.10645729569E+04  0.10645729569E+04  0.25500000920E-02 0.  1.
       -2   -1    0    0    0  501  0.00000000000E+00  0.00000000000E+00 -0.13578773120E+03  0.13578773123E+03  0.25500000920E-02 0. -1.
    10030    2    1    2    0    0  0.00000000000E+00  0.00000000000E+00  0.92878522567E+03  0.12003606881E+04  0.76041027487E+03 0.  0.
        5    1    3    3  502    0  0.28667468371E+03 -0.27307533887E+02  0.72583510995E+02  0.29701604629E+03  0.46999998093E+01 0. -1.
       -5    1    3    3    0  502 -0.28667468371E+03  0.27307533887E+02  0.85620171468E+03  0.90334464182E+03  0.46999998093E+01 0.  1.
</event>
<event>
 5   0  0.5854579E-03  0.1088300E+04  0.7818609E-02  0.9216671E-01
       -1   -1    0    0    0  501  0.00000000000E+00  0.00000000000E+00  0.27954034867E+03  0.27954034871E+03  0.50400001928E-02 0.  1.
        1   -1    0    0  501    0  0.00000000000E+00  0.00000000000E+00 -0.10592353122E+04  0.10592353123E+04  0.50400001928E-02 0. -1.
    10030    2    1    2    0    0  0.00000000000E+00  0.00000000000E+00 -0.77969496358E+03  0.13387756610E+04  0.10882996068E+04 0.  0.
        4    1    3    3  502    0 -0.25236368133E+03 -0.30225132939E+03 -0.85185835436E+03  0.93846020830E+03  0.12699999809E+01 0. -1.
       -4    1    3    3    0  502  0.25236368133E+03  0.30225132939E+03  0.72163390782E+02  0.40031545267E+03  0.12699999809E+01 0.  1.
</event>
<event>
 5   0  0.5789905E-03  0.1109631E+04  0.7818609E-02  0.9195855E-01
       -1   -1    0    0    0  501  0.00000000000E+00  0.00000000000E+00  0.26100501566E+03  0.26100501571E+03  0.50400001928E-02 0. -1.
        1   -1    0    0  501    0  0.00000000000E+00  0.00000000000E+00 -0.11793660539E+04  0.11793660539E+04  0.50400001928E-02 0.  1.
    10030    2    1    2    0    0  0.00000000000E+00  0.00000000000E+00 -0.91836103819E+03  0.14403710696E+04  0.11096313900E+04 0.  0.
        1    1    3    3  502    0  0.11635334172E+03  0.13971424522E+03 -0.11395960461E+04  0.11540092369E+04  0.50400001928E-02 0.  1.
       -1    1    3    3    0  502 -0.11635334172E+03 -0.13971424522E+03  0.22123500795E+03  0.28636183268E+03  0.50400001928E-02 0. -1.
</event>
<event>
 5   0  0.1028016E-02  0.1084878E+04  0.7818609E-02  0.9220058E-01
        2   -1    0    0  501    0  0.00000000000E+00  0.00000000000E+00  0.11889058054E+04  0.11889058054E+04  0.25500000920E-02 0.  1.
       -2   -1    0    0    0  501  0.00000000000E+00  0.00000000000E+00 -0.24748794619E+03  0.24748794620E+03  0.25500000920E-02 0. -1.
    10030    2    1    2    0    0  0.00000000000E+00  0.00000000000E+00  0.94141785921E+03  0.14363937516E+04  0.10848776078E+04 0.  0.
        2    1    3    3  502    0  0.13146599197E+03 -0.32690274745E+03 -0.75342578973E+02  0.36031266637E+03  0.25500000920E-02 0. -1.
       -2    1    3    3    0  502 -0.13146599197E+03  0.32690274745E+03  0.10167604382E+04  0.10760810852E+04  0.25500000920E-02 0.  1.
</event>
<event>
 5   0  0.5712664E-03  0.1108735E+04  0.7818609E-02  0.9196719E-01
       -1   -1    0    0    0  501  0.00000000000E+00  0.00000000000E+00  0.74914319148E+03  0.74914319150E+03  0.50400001928E-02 0.  1.
        1   -1    0    0  501    0  0.00000000000E+00  0.00000000000E+00 -0.41023331829E+03  0.41023331832E+03  0.50400001928E-02 0. -1.
    10030    2    1    2    0    0  0.00000000000E+00  0.00000000000E+00  0.33890987319E+03  0.11593765098E+04  0.11087353108E+04 0.  0.
        5    1    3    3  502    0  0.48196741085E+03 -0.17110534481E+03 -0.54162510856E+02  0.51432022294E+03  0.46999998093E+01 0. -1.
       -5    1    3    3    0  502 -0.48196741085E+03  0.17110534481E+03  0.39307238405E+03  0.64505628688E+03  0.46999998093E+01 0.  1.
</event>
<event>
 5   0  0.5854579E-03  0.1103202E+04  0.7818609E-02  0.9202077E-01
       -1   -1    0    0    0  501  0.00000000000E+00  0.00000000000E+00  0.58576190664E+03  0.58576190666E+03  0.50400001928E-02 0.  1.
        1   -1    0    0  501    0  0.00000000000E+00  0.00000000000E+00 -0.51943186652E+03  0.51943186654E+03  0.50400001928E-02 0. -1.
    10030    2    1    2    0    0  0.00000000000E+00  0.00000000000E+00  0.66330040119E+02  0.11051937732E+04  0.11032015238E+04 0.  0.
        4    1    3    3  502    0 -0.33080733969E+03 -0.37311224210E+03 -0.20309034558E+03  0.53841762839E+03  0.12699999809E+01 0. -1.
       -4    1    3    3    0  502  0.33080733969E+03  0.37311224210E+03  0.26942038570E+03  0.56677614481E+03  0.12699999809E+01 0.  1.
</event>
<event>
 5   0  0.9925021E-03  0.1096748E+04  0.7818609E-02  0.9208367E-01
       -2   -1    0    0    0  501  0.00000000000E+00  0.00000000000E+00  0.31611512977E+03  0.31611512978E+03  0.25500000920E-02 0.  1.
        2   -1    0    0  501    0  0.00000000000E+00  0.00000000000E+00 -0.95128031757E+03  0.95128031757E+03  0.25500000920E-02 0. -1.
    10030    2    1    2    0    0  0.00000000000E+00  0.00000000000E+00 -0.63516518780E+03  0.12673954474E+04  0.10967481043E+04 0.  0.
        4    1    3    3  502    0  0.32487252962E+03  0.64319145471E+01 -0.82804776212E+03  0.88952135403E+03  0.12699999809E+01 0. -1.
       -4    1    3    3    0  502 -0.32487252962E+03 -0.64319145471E+01  0.19288257432E+03  0.37787409332E+03  0.12699999809E+01 0.  1.
</event>
<event>
 5   0  0.5712664E-03  0.1022414E+04  0.7818609E-02  0.9284298E-01
       -1   -1    0    0    0  501  0.00000000000E+00  0.00000000000E+00  0.45225390507E+03  0.45225390510E+03  0.50400001928E-02 0.  1.
        1   -1    0    0  501    0  0.00000000000E+00  0.00000000000E+00 -0.57784453286E+03  0.57784453288E+03  0.50400001928E-02 0. -1.
    10030    2    1    2    0    0  0.00000000000E+00  0.00000000000E+00 -0.12559062779E+03  0.10300984380E+04  0.10224137060E+04 0.  0.
        5    1    3    3  502    0  0.18120920217E+01  0.47566587903E+03  0.12582573542E+03  0.49205235274E+03  0.46999998093E+01 0.  1.
       -5    1    3    3    0  502 -0.18120920217E+01 -0.47566587903E+03 -0.25141636321E+03  0.53804608524E+03  0.46999998093E+01 0. -1.
</event>
<event>
 5   0  0.9719260E-03  0.9284241E+03  0.7818609E-02  0.9390731E-01
        2   -1    0    0  501    0  0.00000000000E+00  0.00000000000E+00  0.48148957684E+03  0.48148957685E+03  0.25500000920E-02 0. -1.
       -2   -1    0    0    0  501  0.00000000000E+00  0.00000000000E+00 -0.44755445386E+03  0.44755445387E+03  0.25500000920E-02 0.  1.
    10030    2    1    2    0    0  0.00000000000E+00  0.00000000000E+00  0.33935122977E+02  0.92904403071E+03  0.92842405098E+03 0.  0.
        3    1    3    3  502    0  0.26462584493E+03  0.38059818744E+03  0.41702002756E+02  0.46542548847E+03  0.10100000352E+00 0. -1.
       -3    1    3    3    0  502 -0.26462584493E+03 -0.38059818744E+03 -0.77668797785E+01  0.46361854224E+03  0.10100000352E+00 0.  1.
</event>
<event>
 5   0  0.1019384E-02  0.1095739E+04  0.7818609E-02  0.9209355E-01
       -2   -1    0    0    0  501  0.00000000000E+00  0.00000000000E+00  0.14548038175E+03  0.14548038177E+03  0.25500000920E-02 0. -1.
        2   -1    0    0  501    0  0.00000000000E+00  0.00000000000E+00 -0.20632414295E+04  0.20632414295E+04  0.25500000920E-02 0.  1.
    10030    2    1    2    0    0  0.00000000000E+00  0.00000000000E+00 -0.19177610478E+04  0.22087218113E+04  0.10957392953E+04 0.  0.
        1    1    3    3  502    0  0.36746966126E+03  0.11223208030E+03 -0.17461312474E+04  0.17879050101E+04  0.50400001928E-02 0.  1.
       -1    1    3    3    0  502 -0.36746966126E+03 -0.11223208030E+03 -0.17162980035E+03  0.42081680122E+03  0.50400001928E-02 0. -1.
</event>
<event>
 5   0  0.5789905E-03  0.1115609E+04  0.7818609E-02  0.9190111E-01
        1   -1    0    0  501    0  0.00000000000E+00  0.00000000000E+00  0.51925155933E+03  0.51925155936E+03  0.50400001928E-02 0.  1.
       -1   -1    0    0    0  501  0.00000000000E+00  0.00000000000E+00 -0.59921948370E+03  0.59921948372E+03  0.50400001928E-02 0. -1.
    10030    2    1    2    0    0  0.00000000000E+00  0.00000000000E+00 -0.79967924366E+02  0.11184710431E+04  0.11156086255E+04 0.  0.
        1    1    3    3  502    0  0.34912010577E+03  0.10604872830E+03 -0.46298412497E+03  0.58947899117E+03  0.50400001928E-02 0. -1.
       -1    1    3    3    0  502 -0.34912010577E+03 -0.10604872830E+03  0.38301620061E+03  0.52899205191E+03  0.50400001928E-02 0.  1.
</event>
<event>
 5   0  0.3949750E-03  0.1148804E+04  0.7818609E-02  0.9158887E-01
        3   -1    0    0  501    0  0.00000000000E+00  0.00000000000E+00  0.45360529714E+03  0.45360530838E+03  0.10100000352E+00 0.  1.
       -3   -1    0    0    0  501  0.00000000000E+00  0.00000000000E+00 -0.72736786026E+03  0.72736786728E+03  0.10100000352E+00 0. -1.
    10030    2    1    2    0    0  0.00000000000E+00  0.00000000000E+00 -0.27376256313E+03  0.11809731757E+04  0.11488044658E+04 0.  0.
        4    1    3    3  502    0 -0.98864503563E+02 -0.13455209923E+02  0.44462721907E+03  0.45568652556E+03  0.12699999809E+01 0.  1.
       -4    1    3    3    0  502  0.98864503563E+02  0.13455209923E+02 -0.71838978220E+03  0.72528665010E+03  0.12699999809E+01 0. -1.
</event>
<event>
 5   0  0.5958706E-03  0.1087170E+04  0.7818609E-02  0.9217787E-01
       -1   -1    0    0    0  501  0.00000000000E+00  0.00000000000E+00  0.10849775860E+04  0.10849775860E+04  0.50400001928E-02 0.  1.
        1   -1    0    0  501    0  0.00000000000E+00  0.00000000000E+00 -0.27234194804E+03  0.27234194809E+03  0.50400001928E-02 0. -1.
    10030    2    1    2    0    0  0.00000000000E+00  0.00000000000E+00  0.81263563794E+03  0.13573195341E+04  0.10871704731E+04 0.  0.
        2    1    3    3  502    0  0.27594669535E+03 -0.44533935419E+03  0.58728914927E+03  0.78700842684E+03  0.25500000920E-02 0.  1.
       -2    1    3    3    0  502 -0.27594669535E+03  0.44533935419E+03  0.22534648867E+03  0.57031110723E+03  0.25500000920E-02 0. -1.
</event>
<event>
 5   0  0.5854579E-03  0.1085368E+04  0.7818609E-02  0.9219572E-01
        1   -1    0    0  501    0  0.00000000000E+00  0.00000000000E+00  0.44623493962E+03  0.44623493965E+03  0.50400001928E-02 0. -1.
       -1   -1    0    0    0  501  0.00000000000E+00  0.00000000000E+00 -0.65997892430E+03  0.65997892432E+03  0.50400001928E-02 0.  1.
    10030    2    1    2    0    0  0.00000000000E+00  0.00000000000E+00 -0.21374398468E+03  0.11062138640E+04  0.10853675054E+04 0.  0.
        4    1    3    3  502    0  0.28272109178E+03  0.15271333339E+03 -0.55259460421E+03  0.63922999573E+03  0.12699999809E+01 0.  1.
       -4    1    3    3    0  502 -0.28272109178E+03 -0.15271333339E+03  0.33885061954E+03  0.46698386824E+03  0.12699999809E+01 0. -1.
</event>
<event>
 5   0  0.5854579E-03  0.1090187E+04  0.7818609E-02  0.9214810E-01
       -1   -1    0    0    0  501  0.00000000000E+00  0.00000000000E+00  0.13405566463E+03  0.13405566472E+03  0.50400001928E-02 0. -1.
        1   -1    0    0  501    0  0.00000000000E+00  0.00000000000E+00 -0.22164436864E+04  0.22164436864E+04  0.50400001928E-02 0.  1.
    10030    2    1    2    0    0  0.00000000000E+00  0.00000000000E+00 -0.20823880218E+04  0.23504993511E+04  0.10901868310E+04 0.  0.
        4    1    3    3  502    0 -0.53387752674E+02 -0.49724460493E+03 -0.15087281258E+04  0.15894541892E+04  0.12699999809E+01 0.  1.
       -4    1    3    3    0  502  0.53387752674E+02  0.49724460493E+03 -0.57365989601E+03  0.76104516191E+03  0.12699999809E+01 0. -1.
</event>
<event>
 5   0  0.5789905E-03  0.1107683E+04  0.7818609E-02  0.9197736E-01
        1   -1    0    0  501    0  0.00000000000E+00  0.00000000000E+00  0.45536877322E+03  0.45536877325E+03  0.50400001928E-02 0. -1.
       -1   -1    0    0    0  501  0.00000000000E+00  0.00000000000E+00 -0.67360868656E+03  0.67360868658E+03  0.50400001928E-02 0.  1.
    10030    2    1    2    0    0  0.00000000000E+00  0.00000000000E+00 -0.21823991334E+03  0.11289774598E+04  0.11076829172E+04 0.  0.
        1    1    3    3  502    0  0.16881288816E+03  0.50175182427E+03  0.56759172985E+02  0.53242303492E+03  0.50400001928E-02 0. -1.
       -1    1    3    3    0  502 -0.16881288816E+03 -0.50175182427E+03 -0.27499908632E+03  0.59655442491E+03  0.50400001928E-02 0.  1.
</event>
<event>
 5   0  0.9692981E-03  0.1100726E+04  0.7818609E-02  0.9204485E-01
       -2   -1    0    0    0  501  0.00000000000E+00  0.00000000000E+00  0.40036370812E+03  0.40036370813E+03  0.25500000920E-02 0.  1.
        2   -1    0    0  501    0  0.00000000000E+00  0.00000000000E+00 -0.75656033891E+03  0.75656033891E+03  0.25500000920E-02 0. -1.
    10030    2    1    2    0    0  0.00000000000E+00  0.00000000000E+00 -0.35619663079E+03  0.11569240470E+04  0.11007257655E+04 0.  0.
        5    1    3    3  502    0 -0.11619727490E+03 -0.52639232932E+02 -0.74078576836E+03  0.75170362520E+03  0.46999998093E+01 0. -1.
       -5    1    3    3    0  502  0.11619727490E+03  0.52639232932E+02  0.38458913757E+03  0.40522042184E+03  0.46999998093E+01 0.  1.
</event>
<event>
 5   0  0.1028016E-02  0.1061227E+04  0.7818609E-02  0.9243829E-01
       -2   -1    0    0    0  501  0.00000000000E+00  0.00000000000E+00  0.20235804894E+03  0.20235804895E+03  0.25500000920E-02 0.  1.
        2   -1    0    0  501    0  0.00000000000E+00  0.00000000000E+00 -0.13913486526E+04  0.13913486526E+04  0.25500000920E-02 0. -1.
    10030    2    1    2    0    0  0.00000000000E+00  0.00000000000E+00 -0.11889906036E+04  0.15937067015E+04  0.10612268348E+04 0.  0.
        2    1    3    3  502    0 -0.25329630506E+03 -0.18005875528E+03 -0.12403745381E+04  0.12787138727E+04  0.25500000920E-02 0. -1.
       -2    1    3    3    0  502  0.25329630506E+03  0.18005875528E+03  0.51383934418E+02  0.31499282885E+03  0.25500000920E-02 0.  1.
</event>
<event>
 5   0  0.5958706E-03  0.1112756E+04  0.7818609E-02  0.9192847E-01
        1   -1    0    0  501    0  0.00000000000E+00  0.00000000000E+00  0.93397901688E+03  0.93397901690E+03  0.50400001928E-02 0.  1.
       -1   -1    0    0    0  501  0.00000000000E+00  0.00000000000E+00 -0.33143849817E+03  0.33143849821E+03  0.50400001928E-02 0. -1.
    10030    2    1    2    0    0  0.00000000000E+00  0.00000000000E+00  0.60254051871E+03  0.12654175151E+04  0.11127562226E+04 0.  0.
        2    1    3    3  502    0  0.20412072997E+02  0.46987791951E+03  0.63929509896E+03  0.79366248213E+03  0.25500000920E-02 0.  1.
       -2    1    3    3    0  502 -0.20412072997E+02 -0.46987791951E+03 -0.36754580256E+02  0.47175503298E+03  0.25500000920E-02 0. -1.
</event>
<event>
 5   0  0.5854579E-03  0.1058383E+04  0.7818609E-02  0.9246732E-01
       -1   -1    0    0    0  501  0.00000000000E+00  0.00000000000E+00  0.28798497208E+03  0.28798497212E+03  0.50400001928E-02 0. -1.
        1   -1    0    0  501    0  0.00000000000E+00  0.00000000000E+00 -0.97242469020E+03  0.97242469021E+03  0.50400001928E-02 0.  1.
    10030    2    1    2    0    0  0.00000000000E+00  0.00000000000E+00 -0.68443971812E+03  0.12604096623E+04  0.10583831013E+04 0.  0.
        4    1    3    3  502    0 -0.82371297593E+02 -0.46667115938E+03 -0.62271013265E+03  0.78251934408E+03  0.12699999809E+01 0.  1.
       -4    1    3    3    0  502  0.82371297593E+02  0.46667115938E+03 -0.61729585478E+02  0.47789031826E+03  0.12699999809E+01 0. -1.
</event>
<event>
 5   0  0.5789905E-03  0.1111149E+04  0.7818609E-02  0.9194393E-01
       -1   -1    0    0    0  501  0.00000000000E+00  0.00000000000E+00  0.51875413878E+03  0.51875413881E+03  0.50400001928E-02 0.  1.
        1   -1    0    0  501    0  0.00000000000E+00  0.00000000000E+00 -0.59500853414E+03  0.59500853417E+03  0.50400001928E-02 0. -1.
    10030    2    1    2    0    0  0.00000000000E+00  0.00000000000E+00 -0.76254395360E+02  0.11137626730E+04  0.11111492064E+04 0.  0.
        1    1    3    3  502    0 -0.32476607203E+03  0.43332986113E+03 -0.16257787063E+03  0.56540192265E+03  0.50400001928E-02 0. -1.
       -1    1    3    3    0  502  0.32476607203E+03 -0.43332986113E+03  0.86323475273E+02  0.54836075033E+03  0.50400001928E-02 0.  1.
</event>
<event>
 5   0  0.5789905E-03  0.1445119E+04  0.7818609E-02  0.8921792E-01
        1   -1    0    0  501    0  0.00000000000E+00  0.00000000000E+00  0.11626271381E+04  0.11626271382E+04  0.50400001928E-02 0. -1.
       -1   -1    0    0    0  501  0.00000000000E+00  0.00000000000E+00 -0.44906223208E+03  0.44906223211E+03  0.50400001928E-02 0.  1.
    10030    2    1    2    0    0  0.00000000000E+00  0.00000000000E+00  0.71356490606E+03  0.16116893703E+04  0.14451185941E+04 0.  0.
        1    1    3    3  502    0 -0.15901291346E+02  0.68807124401E+03  0.11143175550E+03  0.69721727177E+03  0.50400001928E-02 0.  1.
       -1    1    3    3    0  502  0.15901291346E+02 -0.68807124401E+03  0.60213315056E+03  0.91447209849E+03  0.50400001928E-02 0. -1.
</event>
<event>
 5   0  0.5958706E-03  0.1041754E+04  0.7818609E-02  0.9263899E-01
       -1   -1    0    0    0  501  0.00000000000E+00  0.00000000000E+00  0.10835808096E+04  0.10835808096E+04  0.50400001928E-02 0.  1.
        1   -1    0    0  501    0  0.00000000000E+00  0.00000000000E+00 -0.25038527952E+03  0.25038527957E+03  0.50400001928E-02 0. -1.
    10030    2    1    2    0    0  0.00000000000E+00  0.00000000000E+00  0.83319553008E+03  0.13339660892E+04  0.10417536828E+04 0.  0.
        2    1    3    3  502    0 -0.45733558895E+03 -0.10038830696E+03  0.70881860975E+03  0.84950425227E+03  0.25500000920E-02 0. -1.
       -2    1    3    3    0  502  0.45733558895E+03  0.10038830696E+03  0.12437692033E+03  0.48446183690E+03  0.25500000920E-02 0.  1.
</event>
<event>
 5   0  0.5854579E-03  0.1090549E+04  0.7818609E-02  0.9214453E-01
       -1   -1    0    0    0  501  0.00000000000E+00  0.00000000000E+00  0.24017888807E+03  0.24017888812E+03  0.50400001928E-02 0. -1.
        1   -1    0    0  501    0  0.00000000000E+00  0.00000000000E+00 -0.12379287679E+04  0.12379287679E+04  0.50400001928E-02 0.  1.
    10030    2    1    2    0    0  0.00000000000E+00  0.00000000000E+00 -0.99774987980E+03  0.14781076560E+04  0.10905491369E+04 0.  0.
        4    1    3    3  502    0  0.24197410008E+03 -0.17641766040E+03 -0.11164998368E+04  0.11559620039E+04  0.12699999809E+01 0.  1.
       -4    1    3    3    0  502 -0.24197410008E+03  0.17641766040E+03  0.11874995695E+03  0.32214565213E+03  0.12699999809E+01 0. -1.
</event>
<event>
 5   0  0.5998641E-03  0.1037067E+04  0.7818609E-02  0.9268799E-01
       -1   -1    0    0    0  501  0.00000000000E+00  0.00000000000E+00  0.33470052813E+03  0.33470052817E+03  0.50400001928E-02 0. -1.
        1   -1    0    0  501    0  0.00000000000E+00  0.00000000000E+00 -0.80333657492E+03  0.80333657493E+03  0.50400001928E-02 0.  1.
    10030    2    1    2    0    0  0.00000000000E+00  0.00000000000E+00 -0.46863604678E+03  0.11380371031E+04  0.10370673574E+04 0.  0.
        3    1    3    3  502    0  0.40387977504E+02 -0.83699136504E+02  0.32548706542E+03  0.33849457032E+03  0.10100000352E+00 0. -1.
       -3    1    3    3    0  502 -0.40387977504E+02  0.83699136504E+02 -0.79412311221E+03  0.79954253278E+03  0.10100000352E+00 0.  1.
</event>
<event>
 5   0  0.1028016E-02  0.1027870E+04  0.7818609E-02  0.9278495E-01
        2   -1    0    0  501    0  0.00000000000E+00  0.00000000000E+00  0.11570594882E+04  0.11570594882E+04  0.25500000920E-02 0.  1.
       -2   -1    0    0    0  501  0.00000000000E+00  0.00000000000E+00 -0.22827621240E+03  0.22827621241E+03  0.25500000920E-02 0. -1.
    10030    2    1    2    0    0  0.00000000000E+00  0.00000000000E+00  0.92878327577E+03  0.13853357006E+04  0.10278699480E+04 0.  0.
        2    1    3    3  502    0  0.16341565767E+03 -0.26396043875E+03  0.10164020922E+04  0.10627572646E+04  0.25500000920E-02 0.  1.
       -2    1    3    3    0  502 -0.16341565767E+03  0.26396043875E+03 -0.87618816398E+02  0.32257843603E+03  0.25500000920E-02 0. -1.
</event>
<event>
 5   0  0.5712664E-03  0.1083798E+04  0.7818609E-02  0.9221129E-01
        1   -1    0    0  501    0  0.00000000000E+00  0.00000000000E+00  0.12269047104E+04  0.12269047104E+04  0.50400001928E-02 0. -1.
       -1   -1    0    0    0  501  0.00000000000E+00  0.00000000000E+00 -0.23934590626E+03  0.23934590632E+03  0.50400001928E-02 0.  1.
    10030    2    1    2    0    0  0.00000000000E+00  0.00000000000E+00  0.98755880412E+03  0.14662506167E+04  0.10837981728E+04 0.  0.
        5    1    3    3  502    0 -0.28251077577E+03  0.46203982027E+03  0.51870313556E+03  0.74991210603E+03  0.46999998093E+01 0. -1.
       -5    1    3    3    0  502  0.28251077577E+03 -0.46203982027E+03  0.46885566856E+03  0.71633851068E+03  0.46999998093E+01 0.  1.
</event>
<event>
 5   0  0.1019384E-02  0.1017920E+04  0.7818609E-02  0.9289106E-01
       -2   -1    0    0    0  501  0.00000000000E+00  0.00000000000E+00  0.11813005746E+04  0.11813005746E+04  0.25500000920E-02 0. -1.
        2   -1    0    0  501    0  0.00000000000E+00  0.00000000000E+00 -0.21928391877E+03  0.21928391878E+03  0.25500000920E-02 0.  1.
    10030    2    1    2    0    0  0.00000000000E+00  0.00000000000E+00  0.96201665587E+03  0.14005844934E+04  0.10179198775E+04 0.  0.
        1    1    3    3  502    0  0.22717254325E+02 -0.26466471040E+03 -0.11633579533E+03  0.28999568941E+03  0.50400001928E-02 0.  1.
       -1    1    3    3    0  502 -0.22717254325E+02  0.26466471040E+03  0.10783524512E+04  0.11105888040E+04  0.50400001928E-02 0. -1.
</event>
<event>
 5   0  0.5998641E-03  0.1009290E+04  0.7818609E-02  0.9298414E-01
        1   -1    0    0  501    0  0.00000000000E+00  0.00000000000E+00  0.54449443091E+03  0.54449443093E+03  0.50400001928E-02 0.  1.
       -1   -1    0    0    0  501  0.00000000000E+00  0.00000000000E+00 -0.46771215654E+03  0.46771215657E+03  0.50400001928E-02 0. -1.
    10030    2    1    2    0    0  0.00000000000E+00  0.00000000000E+00  0.76782274369E+02  0.10122065875E+04  0.10092901754E+04 0.  0.
        3    1    3    3  502    0 -0.25563351875E+02 -0.24723722259E+03  0.47884914342E+03  0.53951482051E+03  0.10100000352E+00 0.  1.
       -3    1    3    3    0  502  0.25563351875E+02  0.24723722259E+03 -0.40206686905E+03  0.47269176699E+03  0.10100000352E+00 0. -1.
</event>
<event>
 5   0  0.1019384E-02  0.1068513E+04  0.7818609E-02  0.9236436E-01
       -2   -1    0    0    0  501  0.00000000000E+00  0.00000000000E+00  0.82757497421E+03  0.82757497421E+03  0.25500000920E-02 0.  1.
        2   -1    0    0  501    0  0.00000000000E+00  0.00000000000E+00 -0.34489930983E+03  0.34489930984E+03  0.25500000920E-02 0. -1.
    10030    2    1    2    0    0  0.00000000000E+00  0.00000000000E+00  0.48267566438E+03  0.11724742841E+04  0.10685130555E+04 0.  0.
        1    1    3    3  502    0 -0.25960528746E+03  0.39303189610E+03  0.51798043467E+03  0.70012335153E+03  0.50400001928E-02 0.  1.
       -1    1    3    3    0  502  0.25960528746E+03 -0.39303189610E+03 -0.35304770298E+02  0.47235093252E+03  0.50400001928E-02 0. -1.
</event>
<event>
 5   0  0.5789905E-03  0.1082954E+04  0.7818609E-02  0.9221967E-01
        1   -1    0    0  501    0  0.00000000000E+00  0.00000000000E+00  0.21016553582E+04  0.21016553582E+04  0.50400001928E-02 0.  1.
       -1   -1    0    0    0  501  0.00000000000E+00  0.00000000000E+00 -0.13950790668E+03  0.13950790677E+03  0.50400001928E-02 0. -1.
    10030    2    1    2    0    0  0.00000000000E+00  0.00000000000E+00  0.19621474515E+04  0.22411632650E+04  0.10829543660E+04 0.  0.
        1    1    3    3  502    0 -0.43688042077E+03  0.30598917305E+03  0.78800390785E+03  0.95154823046E+03  0.50400001928E-02 0. -1.
       -1    1    3    3    0  502  0.43688042077E+03 -0.30598917305E+03  0.11741435437E+04  0.12896150345E+04  0.50400001928E-02 0.  1.
</event>
<event>
 5   0  0.9692981E-03  0.1114630E+04  0.7818609E-02  0.9191049E-01
        2   -1    0    0  501    0  0.00000000000E+00  0.00000000000E+00  0.11711119693E+04  0.11711119693E+04  0.25500000920E-02 0.  1.
       -2   -1    0    0    0  501  0.00000000000E+00  0.00000000000E+00 -0.26521800550E+03  0.26521800551E+03  0.25500000920E-02 0. -1.
    10030    2    1    2    0    0  0.00000000000E+00  0.00000000000E+00  0.90589396380E+03  0.14363299748E+04  0.11146299489E+04 0.  0.
        5    1    3    3  502    0 -0.48685526159E+02  0.12062731639E+03  0.11512492362E+04  0.11585845345E+04  0.46999998093E+01 0.  1.
       -5    1    3    3    0  502  0.48685526159E+02 -0.12062731639E+03 -0.24535527236E+03  0.27774544027E+03  0.46999998093E+01 0. -1.
</event>
<event>
 5   0  0.5958706E-03  0.1106200E+04  0.7818609E-02  0.9199169E-01
       -1   -1    0    0    0  501  0.00000000000E+00  0.00000000000E+00  0.79253733450E+03  0.79253733451E+03  0.50400001928E-02 0.  1.
        1   -1    0    0  501    0  0.00000000000E+00  0.00000000000E+00 -0.38600056447E+03  0.38600056451E+03  0.50400001928E-02 0. -1.
    10030    2    1    2    0    0  0.00000000000E+00  0.00000000000E+00  0.40653677002E+03  0.11785378990E+04  0.11062004493E+04 0.  0.
        2    1    3    3  502    0  0.24584995376E+03  0.12540101628E+03  0.71393751235E+03  0.76542431774E+03  0.25500000920E-02 0.  1.
       -2    1    3    3    0  502 -0.24584995376E+03 -0.12540101628E+03 -0.30740074233E+03  0.41311358128E+03  0.25500000920E-02 0. -1.
</event>
<event>
 5   0  0.9719260E-03  0.8797365E+03  0.7818609E-02  0.9451272E-01
        2   -1    0    0  501    0  0.00000000000E+00  0.00000000000E+00  0.11703412685E+04  0.11703412686E+04  0.25500000920E-02 0.  1.
       -2   -1    0    0    0  501  0.00000000000E+00  0.00000000000E+00 -0.16532279677E+03  0.16532279679E+03  0.25500000920E-02 0. -1.
    10030    2    1    2    0    0  0.00000000000E+00  0.00000000000E+00  0.10050184718E+04  0.13356640653E+04  0.87973653261E+03 0.  0.
        3    1    3    3  502    0  0.12856015199E+03 -0.16361747541E+03 -0.85872106268E+02  0.22510535261E+03  0.10100000352E+00 0. -1.
       -3    1    3    3    0  502 -0.12856015199E+03  0.16361747541E+03  0.10908905780E+04  0.11105587127E+04  0.10100000352E+00 0.  1.
</event>
<event>
 5   0  0.1028016E-02  0.1067632E+04  0.7818609E-02  0.9237327E-01
        2   -1    0    0  501    0  0.00000000000E+00  0.00000000000E+00  0.60595395525E+03  0.60595395526E+03  0.25500000920E-02 0.  1.
       -2   -1    0    0    0  501  0.00000000000E+00  0.00000000000E+00 -0.47026591372E+03  0.47026591372E+03  0.25500000920E-02 0. -1.
    10030    2    1    2    0    0  0.00000000000E+00  0.00000000000E+00  0.13568804154E+03  0.10762198690E+04  0.10676319412E+04 0.  0.
        2    1    3    3  502    0  0.17314925461E+03 -0.27318326892E+03 -0.36024805871E+03  0.48413678501E+03  0.25500000920E-02 0. -1.
       -2    1    3    3    0  502 -0.17314925461E+03  0.27318326892E+03  0.49593610025E+03  0.59208308397E+03  0.25500000920E-02 0.  1.
</event>
<event>
 5   0  0.3949750E-03  0.1095782E+04  0.7818609E-02  0.9209313E-01
       -4   -1    0    0    0  501  0.00000000000E+00  0.00000000000E+00  0.29138643288E+03  0.29138920050E+03  0.12699999809E+01 0.  1.
        4   -1    0    0  501    0  0.00000000000E+00  0.00000000000E+00 -0.10301864232E+04  0.10301872060E+04  0.12699999809E+01 0. -1.
    10030    2    1    2    0    0  0.00000000000E+00  0.00000000000E+00 -0.73879999028E+03  0.13215764065E+04  0.10957822651E+04 0.  0.
        2    1    3    3  502    0 -0.54043978672E+03  0.42071848541E+02 -0.46542739223E+03  0.71447033595E+03  0.25500000920E-02 0. -1.
       -2    1    3    3    0  502  0.54043978672E+03 -0.42071848541E+02 -0.27337259806E+03  0.60710607053E+03  0.25500000920E-02 0.  1.
</event>
<event>
 5   0  0.9692981E-03  0.1094042E+04  0.7818609E-02  0.9211018E-01
        2   -1    0    0  501    0  0.00000000000E+00  0.00000000000E+00  0.47356253417E+03  0.47356253418E+03  0.25500000920E-02 0. -1.
       -2   -1    0    0    0  501  0.00000000000E+00  0.00000000000E+00 -0.63187471887E+03  0.63187471888E+03  0.25500000920E-02 0.  1.
    10030    2    1    2    0    0  0.00000000000E+00  0.00000000000E+00 -0.15831218470E+03  0.11054372531E+04  0.10940423998E+04 0.  0.
        5    1    3    3  502    0 -0.19218100596E+03  0.33544539197E+03 -0.47016589051E+03  0.60871602956E+03  0.46999998093E+01 0.  1.
       -5    1    3    3    0  502  0.19218100596E+03 -0.33544539197E+03  0.31185370582E+03  0.49672122350E+03  0.46999998093E+01 0. -1.
</event>
<event>
 5   0  0.9692981E-03  0.1107723E+04  0.7818609E-02  0.9197697E-01
        2   -1    0    0  501    0  0.00000000000E+00  0.00000000000E+00  0.12660645333E+04  0.12660645333E+04  0.25500000920E-02 0. -1.
       -2   -1    0    0    0  501  0.00000000000E+00  0.00000000000E+00 -0.24229597475E+03  0.24229597477E+03  0.25500000920E-02 0.  1.
    10030    2    1    2    0    0  0.00000000000E+00  0.00000000000E+00  0.10237685585E+04  0.15083605080E+04  0.11077226010E+04 0.  0.
        5    1    3    3  502    0  0.41027865829E+03  0.96181531994E+02  0.10012566831E+04  0.10863316713E+04  0.46999998093E+01 0. -1.
       -5    1    3    3    0  502 -0.41027865829E+03 -0.96181531994E+02  0.22511875433E+02  0.42202883679E+03  0.46999998093E+01 0.  1.
</event>
<event>
 5   0  0.9719260E-03  0.1093213E+04  0.7818609E-02  0.9211832E-01
       -2   -1    0    0    0  501  0.00000000000E+00  0.00000000000E+00  0.67470913622E+03  0.67470913622E+03  0.25500000920E-02 0.  1.
        2   -1    0    0  501    0  0.00000000000E+00  0.00000000000E+00 -0.44282601328E+03  0.44282601329E+03  0.25500000920E-02 0. -1.
    10030    2    1    2    0    0  0.00000000000E+00  0.00000000000E+00  0.23188312294E+03  0.11175351495E+04  0.10932131666E+04 0.  0.
        3    1    3    3  502    0 -0.47868763249E+03  0.17575553718E+03  0.31716323372E+03  0.60052009573E+03  0.10100000352E+00 0.  1.
       -3    1    3    3    0  502  0.47868763249E+03 -0.17575553718E+03 -0.85280110779E+02  0.51701505379E+03  0.10100000352E+00 0. -1.
</event>
<event>
 5   0  0.1019384E-02  0.1111252E+04  0.7818609E-02  0.9194294E-01
        2   -1    0    0  501    0  0.00000000000E+00  0.00000000000E+00  0.16083262334E+04  0.16083262334E+04  0.25500000920E-02 0. -1.
       -2   -1    0    0    0  501  0.00000000000E+00  0.00000000000E+00 -0.19195134892E+03  0.19195134893E+03  0.25500000920E-02 0.  1.
    10030    2    1    2    0    0  0.00000000000E+00  0.00000000000E+00  0.14163748845E+04  0.18002775824E+04  0.11112522486E+04 0.  0.
        1    1    3    3  502    0 -0.49601227039E+03  0.24990308246E+03  0.73331990738E+03  0.91991184881E+03  0.50400001928E-02 0.  1.
       -1    1    3    3    0  502  0.49601227039E+03 -0.24990308246E+03  0.68305497713E+03  0.88036573355E+03  0.50400001928E-02 0. -1.
</event>
<event>
 5   0  0.5712664E-03  0.9082327E+03  0.7818609E-02  0.9415348E-01
       -1   -1    0    0    0  501  0.00000000000E+00  0.00000000000E+00  0.15064209999E+03  0.15064210007E+03  0.50400001928E-02 0.  1.
        1   -1    0    0  501    0  0.00000000000E+00  0.00000000000E+00 -0.13689510593E+04  0.13689510593E+04  0.50400001928E-02 0. -1.
    10030    2    1    2    0    0  0.00000000000E+00  0.00000000000E+00 -0.12183089593E+04  0.15195931594E+04  0.90823270680E+03 0.  0.
        5    1    3    3  502    0  0.25594101312E+03 -0.60739934429E+02 -0.12284493724E+04  0.12563061301E+04  0.46999998093E+01 0. -1.
       -5    1    3    3    0  502 -0.25594101312E+03  0.60739934429E+02  0.10140413114E+02  0.26328702932E+03  0.46999998093E+01 0.  1.
</event>
<event>
 5   0  0.5789905E-03  0.1162959E+04  0.7818609E-02  0.9145911E-01
        1   -1    0    0  501    0  0.00000000000E+00  0.00000000000E+00  0.79103280776E+03  0.79103280778E+03  0.50400001928E-02 0. -1.
       -1   -1    0    0    0  501  0.00000000000E+00  0.00000000000E+00 -0.42743917166E+03  0.42743917169E+03  0.50400001928E-02 0.  1.
    10030    2    1    2    0    0  0.00000000000E+00  0.00000000000E+00  0.36359363611E+03  0.12184719795E+04  0.11629589986E+04 0.  0.
        1    1    3    3  502    0 -0.71071659178E+02 -0.46982290394E+03  0.53295768265E+03  0.71402285210E+03  0.50400001928E-02 0. -1.
       -1    1    3    3    0  502  0.71071659178E+02  0.46982290394E+03 -0.16936404654E+03  0.50444912736E+03  0.50400001928E-02 0.  1.
</event>
<event>
 5   0  0.3949750E-03  0.1119295E+04  0.7818609E-02  0.9186587E-01
       -3   -1    0    0    0  501  0.00000000000E+00  0.00000000000E+00  0.46284579989E+03  0.46284581091E+03  0.10100000352E+00 0.  1.
        3   -1    0    0  501    0  0.00000000000E+00  0.00000000000E+00 -0.67669457075E+03  0.67669457829E+03  0.10100000352E+00 0. -1.
    10030    2    1    2    0    0  0.00000000000E+00  0.00000000000E+00 -0.21384877085E+03  0.11395403892E+04  0.11192948681E+04 0.  0.
        4    1    3    3  502    0 -0.21456161826E+03  0.24273301247E+03 -0.57152015208E+03  0.65695730493E+03  0.12699999809E+01 0. -1.
       -4    1    3    3    0  502  0.21456161826E+03 -0.24273301247E+03  0.35767138122E+03  0.48258308427E+03  0.12699999809E+01 0.  1.
</event>
<event>
 5   0  0.1028016E-02  0.1087750E+04  0.7818609E-02  0.9217214E-01
        2   -1    0    0  501    0  0.00000000000E+00  0.00000000000E+00  0.10728579949E+04  0.10728579950E+04  0.25500000920E-02 0.  1.
       -2   -1    0    0    0  501  0.00000000000E+00  0.00000000000E+00 -0.27571234506E+03  0.27571234507E+03  0.25500000920E-02 0. -1.
    10030    2    1    2    0    0  0.00000000000E+00  0.00000000000E+00  0.79714564989E+03  0.13485703400E+04  0.10877503274E+04 0.  0.
        2    1    3    3  502    0  0.35244754776E+03  0.31569239133E+03  0.73105388237E+03  0.87081613375E+03  0.25500000920E-02 0.  1.
       -2    1    3    3    0  502 -0.35244754776E+03 -0.31569239133E+03  0.66091767520E+02  0.47775420627E+03  0.25500000920E-02 0. -1.
</event>
<event>
 5   0  0.5958706E-03  0.1103095E+04  0.7818609E-02  0.9202180E-01
       -1   -1    0    0    0  501  0.00000000000E+00  0.00000000000E+00  0.81687791980E+03  0.81687791982E+03  0.50400001928E-02 0.  1.
        1   -1    0    0  501    0  0.00000000000E+00  0.00000000000E+00 -0.37239940052E+03  0.37239940055E+03  0.50400001928E-02 0. -1.
    10030    2    1    2    0    0  0.00000000000E+00  0.00000000000E+00  0.44447851929E+03  0.11892773204E+04  0.11030953679E+04 0.  0.
        2    1    3    3  502    0  0.46640248345E+03 -0.24491900336E+03  0.39836796712E+03  0.66046470913E+03  0.25500000920E-02 0.  1.
       -2    1    3    3    0  502 -0.46640248345E+03  0.24491900336E+03  0.46110552162E+02  0.52881261124E+03  0.25500000920E-02 0. -1.
</event>
<event>
 5   0  0.1019384E-02  0.1096136E+04  0.7818609E-02  0.9208966E-01
        2   -1    0    0  501    0  0.00000000000E+00  0.00000000000E+00  0.23617908525E+04  0.23617908525E+04  0.25500000920E-02 0.  1.
       -2   -1    0    0    0  501  0.00000000000E+00  0.00000000000E+00 -0.12718245361E+03  0.12718245364E+03  0.25500000920E-02 0. -1.
    10030    2    1    2    0    0  0.00000000000E+00  0.00000000000E+00  0.22346083988E+04  0.24889733061E+04  0.10961356769E+04 0.  0.
        1    1    3    3  502    0 -0.19504583781E+03 -0.22301553226E+03  0.70327310718E+02  0.30450736795E+03  0.50400001928E-02 0. -1.
       -1    1    3    3    0  502  0.19504583781E+03  0.22301553226E+03  0.21642810881E+04  0.21844659381E+04  0.50400001928E-02 0.  1.
</event>
<event>
 5   0  0.9692981E-03  0.1098513E+04  0.7818609E-02  0.9206643E-01
       -2   -1    0    0    0  501  0.00000000000E+00  0.00000000000E+00  0.16260852012E+03  0.16260852014E+03  0.25500000920E-02 0.  1.
        2   -1    0    0  501    0  0.00000000000E+00  0.00000000000E+00 -0.18552687692E+04  0.18552687692E+04  0.25500000920E-02 0. -1.
    10030    2    1    2    0    0  0.00000000000E+00  0.00000000000E+00 -0.16926602491E+04  0.20178772893E+04  0.10985126472E+04 0.  0.
        5    1    3    3  502    0 -0.11542653173E+03 -0.19627829199E+03  0.71783242749E+02  0.23879567851E+03  0.46999998093E+01 0.  1.
       -5    1    3    3    0  502  0.11542653173E+03  0.19627829199E+03 -0.17644434918E+04  0.17790816108E+04  0.46999998093E+01 0. -1.
</event>
<event>
 5   0  0.3949750E-03  0.1088848E+04  0.7818609E-02  0.9216130E-01
       -3   -1    0    0    0  501  0.00000000000E+00  0.00000000000E+00  0.14115154177E+04  0.14115154213E+04  0.10100000352E+00 0.  1.
        3   -1    0    0  501    0  0.00000000000E+00  0.00000000000E+00 -0.20998527446E+03  0.20998529875E+03  0.10100000352E+00 0. -1.
    10030    2    1    2    0    0  0.00000000000E+00  0.00000000000E+00  0.12015301433E+04  0.16215007201E+04  0.10888479692E+04 0.  0.
        4    1    3    3  502    0 -0.17104801504E+03 -0.42701330438E+03  0.10344186167E+04  0.11320871314E+04  0.12699999809E+01 0.  1.
       -4    1    3    3    0  502  0.17104801504E+03  0.42701330438E+03  0.16711152651E+03  0.48941358865E+03  0.12699999809E+01 0. -1.
</event>
<event>
 5   0  0.5998641E-03  0.9731402E+03  0.7818609E-02  0.9338505E-01
       -1   -1    0    0    0  501  0.00000000000E+00  0.00000000000E+00  0.26268411933E+03  0.26268411938E+03  0.50400001928E-02 0. -1.
        1   -1    0    0  501    0  0.00000000000E+00  0.00000000000E+00 -0.90127442104E+03  0.90127442106E+03  0.50400001928E-02 0.  1.
    10030    2    1    2    0    0  0.00000000000E+00  0.00000000000E+00 -0.63859030172E+03  0.11639585404E+04  0.97314023163E+03 0.  0.
        3    1    3    3  502    0  0.92510447323E+02  0.28685371333E+03  0.13758310845E+03  0.33131911754E+03  0.10100000352E+00 0. -1.
       -3    1    3    3    0  502 -0.92510447323E+02 -0.28685371333E+03 -0.77617341017E+03  0.83263942290E+03  0.10100000352E+00 0.  1.
</event>
<event>
 5   0  0.5712664E-03  0.1102108E+04  0.7818609E-02  0.9203140E-01
        1   -1    0    0  501    0  0.00000000000E+00  0.00000000000E+00  0.46165682338E+03  0.46165682341E+03  0.50400001928E-02 0.  1.
       -1   -1    0    0    0  501  0.00000000000E+00  0.00000000000E+00 -0.65776261399E+03  0.65776261401E+03  0.50400001928E-02 0. -1.
    10030    2    1    2    0    0  0.00000000000E+00  0.00000000000E+00 -0.19610579061E+03  0.11194194374E+04  0.11021081597E+04 0.  0.
        5    1    3    3  502    0 -0.48133309991E+03 -0.25543245372E+03 -0.14844090980E+02  0.54513276228E+03  0.46999998093E+01 0.  1.
       -5    1    3    3    0  502  0.48133309991E+03  0.25543245372E+03 -0.18126169963E+03  0.57428667513E+03  0.46999998093E+01 0. -1.
</event>
<event>
 5   0  0.1019384E-02  0.1027652E+04  0.7818609E-02  0.9278726E-01
       -2   -1    0    0    0  501  0.00000000000E+00  0.00000000000E+00  0.11964426441E+03  0.11964426444E+03  0.25500000920E-02 0. -1.
        2   -1    0    0  501    0  0.00000000000E+00  0.00000000000E+00 -0.22066840292E+04  0.22066840292E+04  0.25500000920E-02 0.  1.
    10030    2    1    2    0    0  0.00000000000E+00  0.00000000000E+00 -0.20870397648E+04  0.23263282937E+04  0.10276518623E+04 0.  0.
        1    1    3    3  502    0 -0.28273036258E+03 -0.21341058765E+02 -0.20135631744E+04  0.20334277849E+04  0.50400001928E-02 0.  1.
       -1    1    3    3    0  502  0.28273036258E+03  0.21341058765E+02 -0.73476590394E+02  0.29290050883E+03  0.50400001928E-02 0. -1.
</event>
<event>
 5   0  0.9925021E-03  0.1108900E+04  0.7818609E-02  0.9196561E-01
        2   -1    0    0  501    0  0.00000000000E+00  0.00000000000E+00  0.80674037222E+03  0.80674037222E+03  0.25500000920E-02 0. -1.
       -2   -1    0    0    0  501  0.00000000000E+00  0.00000000000E+00 -0.38105763593E+03  0.38105763594E+03  0.25500000920E-02 0.  1.
    10030    2    1    2    0    0  0.00000000000E+00  0.00000000000E+00  0.42568273629E+03  0.11877980082E+04  0.11088995970E+04 0.  0.
        4    1    3    3  502    0  0.10618383572E+03 -0.22162454796E+03 -0.31953268650E+03  0.40310693106E+03  0.12699999809E+01 0.  1.
       -4    1    3    3    0  502 -0.10618383572E+03  0.22162454796E+03  0.74521542278E+03  0.78469107710E+03  0.12699999809E+01 0. -1.
</event>
<event>
 5   0  0.9692981E-03  0.1123445E+04  0.7818609E-02  0.9182637E-01
        2   -1    0    0  501    0  0.00000000000E+00  0.00000000000E+00  0.37398688764E+03  0.37398688764E+03  0.25500000920E-02 0. -1.
       -2   -1    0    0    0  501  0.00000000000E+00  0.00000000000E+00 -0.84369833057E+03  0.84369833057E+03  0.25500000920E-02 0.  1.
    10030    2    1    2    0    0  0.00000000000E+00  0.00000000000E+00 -0.46971144293E+03  0.12176852182E+04  0.11234449034E+04 0.  0.
        5    1    3    3  502    0  0.11852210551E+03 -0.41242527491E+03 -0.62770677957E+03  0.76038147531E+03  0.46999998093E+01 0.  1.
       -5    1    3    3    0  502 -0.11852210551E+03  0.41242527491E+03  0.15799533664E+03  0.45730374291E+03  0.46999998093E+01 0. -1.
</event>
<event>
 5   0  0.5958706E-03  0.1119360E+04  0.7818609E-02  0.9186525E-01
        1   -1    0    0  501    0  0.00000000000E+00  0.00000000000E+00  0.10570477708E+04  0.10570477708E+04  0.50400001928E-02 0.  1.
       -1   -1    0    0    0  501  0.00000000000E+00  0.00000000000E+00 -0.29633633652E+03  0.29633633656E+03  0.50400001928E-02 0. -1.
    10030    2    1    2    0    0  0.00000000000E+00  0.00000000000E+00  0.76071143429E+03  0.13533841074E+04  0.11193599313E+04 0.  0.
        2    1    3    3  502    0  0.45101954903E+03  0.31883068372E+03  0.48964133718E+03  0.73811941958E+03  0.25500000920E-02 0.  1.
       -2    1    3    3    0  502 -0.45101954903E+03 -0.31883068372E+03  0.27107009711E+03  0.61526468779E+03  0.25500000920E-02 0. -1.
</event>
<event>
 5   0  0.9719260E-03  0.1156892E+04  0.7818609E-02  0.9151449E-01
        2   -1    0    0  501    0  0.00000000000E+00  0.00000000000E+00  0.12542552903E+04  0.12542552903E+04  0.25500000920E-02 0.  1.
       -2   -1    0    0    0  501  0.00000000000E+00  0.00000000000E+00 -0.26677178140E+03  0.26677178142E+03  0.25500000920E-02 0. -1.
    10030    2    1    2    0    0  0.00000000000E+00  0.00000000000E+00  0.98748350894E+03  0.15210270718E+04  0.11568922476E+04 0.  0.
        3    1    3    3  502    0 -0.95346818168E+02 -0.41237325844E+03  0.10121231861E+04  0.10970579173E+04  0.10100000352E+00 0.  1.
       -3    1    3    3    0  502  0.95346818168E+02  0.41237325844E+03 -0.24639677131E+02  0.42396915442E+03  0.10100000352E+00 0. -1.
</event>
<event>
 5   0  0.5854579E-03  0.1129441E+04  0.7818609E-02  0.9176962E-01
       -1   -1    0    0    0  501  0.00000000000E+00  0.00000000000E+00  0.63099728394E+03  0.63099728396E+03  0.50400001928E-02 0.  1.
        1   -1    0    0  501    0  0.00000000000E+00  0.00000000000E+00 -0.50540516719E+03  0.50540516722E+03  0.50400001928E-02 0. -1.
    10030    2    1    2    0    0  0.00000000000E+00  0.00000000000E+00  0.12559211674E+03  0.11364024512E+04  0.11294410791E+04 0.  0.
        4    1    3    3  502    0 -0.30349259117E+03 -0.14038985230E+03  0.52067301490E+03  0.61880454496E+03  0.12699999809E+01 0.  1.
       -4    1    3    3    0  502  0.30349259117E+03  0.14038985230E+03 -0.39508089815E+03  0.51759790621E+03  0.12699999809E+01 0. -1.
</event>
<event>
 5   0  0.9719260E-03  0.9784583E+03  0.7818609E-02  0.9332492E-01
        2   -1    0    0  501    0  0.00000000000E+00  0.00000000000E+00  0.87580040373E+03  0.87580040373E+03  0.25500000920E-02 0. -1.
       -2   -1    0    0    0  501  0.00000000000E+00  0.00000000000E+00 -0.27328734946E+03  0.27328734947E+03  0.25500000920E-02 0.  1.
    10030    2    1    2    0    0  0.00000000000E+00  0.00000000000E+00  0.60251305427E+03  0.11490877532E+04  0.97845832001E+03 0.  0.
        3    1    3    3  502    0  0.36205736712E+03  0.77691388571E+02  0.67673634963E+03  0.77142309147E+03  0.10100000352E+00 0. -1.
       -3    1    3    3    0  502 -0.36205736712E+03 -0.77691388571E+02 -0.74223295362E+02  0.37766466173E+03  0.10100000352E+00 0.  1.
</event>
<event>
 5   0  0.5958706E-03  0.1205528E+04  0.7818609E-02  0.9108031E-01
        1   -1    0    0  501    0  0.00000000000E+00  0.00000000000E+00  0.12578318880E+04  0.12578318880E+04  0.50400001928E-02 0.  1.
       -1   -1    0    0    0  501  0.00000000000E+00  0.00000000000E+00 -0.28884991876E+03  0.28884991880E+03  0.50400001928E-02 0. -1.
    10030    2    1    2    0    0  0.00000000000E+00  0.00000000000E+00  0.96898196921E+03  0.15466818068E+04  0.12055283301E+04 0.  0.
        2    1    3    3  502    0 -0.19453206351E+03  0.27165592307E+03  0.11281445817E+04  0.11765839798E+04  0.25500000920E-02 0.  1.
       -2    1    3    3    0  502  0.19453206351E+03 -0.27165592307E+03 -0.15916261254E+03  0.37009782694E+03  0.25500000920E-02 0. -1.
</event>
<event>
 5   0  0.1019384E-02  0.8845599E+03  0.7818609E-02  0.9445091E-01
       -2   -1    0    0    0  501  0.00000000000E+00  0.00000000000E+00  0.15499282617E+03  0.15499282619E+03  0.25500000920E-02 0. -1.
        2   -1    0    0  501    0  0.00000000000E+00  0.00000000000E+00 -0.12620685465E+04  0.12620685465E+04  0.25500000920E-02 0.  1.
    10030    2    1    2    0    0  0.00000000000E+00  0.00000000000E+00 -0.11070757203E+04  0.14170613727E+04  0.88455993773E+03 0.  0.
        1    1    3    3  502    0 -0.37001948789E+03 -0.28660205112E+02 -0.16813966185E+03  0.40743928957E+03  0.50400001928E-02 0. -1.
       -1    1    3    3    0  502  0.37001948789E+03  0.28660205112E+02 -0.93893605849E+03  0.10096220831E+04  0.50400001928E-02 0.  1.
</event>
<event>
 5   0  0.1028016E-02  0.1092809E+04  0.7818609E-02  0.9212229E-01
       -2   -1    0    0    0  501  0.00000000000E+00  0.00000000000E+00  0.17802229549E+03  0.17802229551E+03  0.25500000920E-02 0.  1.
        2   -1    0    0  501    0  0.00000000000E+00  0.00000000000E+00 -0.16770828191E+04  0.16770828191E+04  0.25500000920E-02 0. -1.
    10030    2    1    2    0    0  0.00000000000E+00  0.00000000000E+00 -0.14990605236E+04  0.18551051146E+04  0.10928094678E+04 0.  0.
        2    1    3    3  502    0 -0.56498929958E+02 -0.23812810860E+03  0.79775741317E+02  0.25741269219E+03  0.25500000920E-02 0.  1.
       -2    1    3    3    0  502  0.56498929958E+02  0.23812810860E+03 -0.15788362649E+04  0.15976924224E+04  0.25500000920E-02 0. -1.
</event>
<event>
 5   0  0.5712664E-03  0.1094797E+04  0.7818609E-02  0.9210278E-01
       -1   -1    0    0    0  501  0.00000000000E+00  0.00000000000E+00  0.13828120739E+04  0.13828120739E+04  0.50400001928E-02 0.  1.
        1   -1    0    0  501    0  0.00000000000E+00  0.00000000000E+00 -0.21669262406E+03  0.21669262412E+03  0.50400001928E-02 0. -1.
    10030    2    1    2    0    0  0.00000000000E+00  0.00000000000E+00  0.11661194498E+04  0.15995046980E+04  0.10947971080E+04 0.  0.
        5    1    3    3  502    0 -0.28401759849E+03 -0.38068654414E+03  0.98058977789E+03  0.10895717708E+04  0.46999998093E+01 0.  1.
       -5    1    3    3    0  502  0.28401759849E+03  0.38068654414E+03  0.18552967196E+03  0.50993292727E+03  0.46999998093E+01 0. -1.
</event>
<event>
 5   0  0.5854579E-03  0.1113430E+04  0.7818609E-02  0.9192200E-01
       -1   -1    0    0    0  501  0.00000000000E+00  0.00000000000E+00  0.10368991115E+04  0.10368991115E+04  0.50400001928E-02 0.  1.
        1   -1    0    0  501    0  0.00000000000E+00  0.00000000000E+00 -0.29890225451E+03  0.29890225456E+03  0.50400001928E-02 0. -1.
    10030    2    1    2    0    0  0.00000000000E+00  0.00000000000E+00  0.73799685701E+03  0.13358013661E+04  0.11134298041E+04 0.  0.
        4    1    3    3  502    0  0.32569276417E+03  0.17367119024E+03 -0.13100094707E+03  0.39166352904E+03  0.12699999809E+01 0. -1.
       -4    1    3    3    0  502 -0.32569276417E+03 -0.17367119024E+03  0.86899780408E+03  0.94413783705E+03  0.12699999809E+01 0.  1.
</event>
<event>
 5   0  0.3949750E-03  0.9752395E+03  0.7818609E-02  0.9336126E-01
        3   -1    0    0  501    0  0.00000000000E+00  0.00000000000E+00  0.21256646805E+03  0.21256649205E+03  0.10100000352E+00 0.  1.
       -3   -1    0    0    0  501  0.00000000000E+00  0.00000000000E+00 -0.11185819368E+04  0.11185819413E+04  0.10100000352E+00 0. -1.
    10030    2    1    2    0    0  0.00000000000E+00  0.00000000000E+00 -0.90601546872E+03  0.13311484334E+04  0.97523952038E+03 0.  0.
        2    1    3    3  502    0  0.40962067766E+03 -0.11466733481E+03 -0.12760260182E+03  0.44409472102E+03  0.25500000920E-02 0.  1.
       -2    1    3    3    0  502 -0.40962067766E+03  0.11466733481E+03 -0.77841286690E+03  0.88705371236E+03  0.25500000920E-02 0. -1.
</event>
<event>
 5   0  0.9925021E-03  0.1145432E+04  0.7818609E-02  0.9162008E-01
       -2   -1    0    0    0  501  0.00000000000E+00  0.00000000000E+00  0.50187391672E+03  0.50187391673E+03  0.25500000920E-02 0.  1.
        2   -1    0    0  501    0  0.00000000000E+00  0.00000000000E+00 -0.65355741271E+03  0.65355741272E+03  0.25500000920E-02 0. -1.
    10030    2    1    2    0    0  0.00000000000E+00  0.00000000000E+00 -0.15168349599E+03  0.11554313294E+04  0.11454316541E+04 0.  0.
        4    1    3    3  502    0 -0.52684140853E+03  0.17610100881E+03 -0.21644428201E+03  0.59617377933E+03  0.12699999809E+01 0.  1.
       -4    1    3    3    0  502  0.52684140853E+03 -0.17610100881E+03  0.64760786024E+02  0.55925755011E+03  0.12699999809E+01 0. -1.
</event>
<event>
 5   0  0.9692981E-03  0.1118878E+04  0.7818609E-02  0.9186985E-01
        2   -1    0    0  501    0  0.00000000000E+00  0.00000000000E+00  0.23294231346E+04  0.23294231346E+04  0.25500000920E-02 0.  1.
       -2   -1    0    0    0  501  0.00000000000E+00  0.00000000000E+00 -0.13435609414E+03  0.13435609417E+03  0.25500000920E-02 0. -1.
    10030    2    1    2    0    0  0.00000000000E+00  0.00000000000E+00  0.21950670405E+04  0.24637792288E+04  0.11188783562E+04 0.  0.
        5    1    3    3  502    0  0.35057709769E+03  0.19047315262E+03  0.19610065269E+04  0.20011879002E+04  0.46999998093E+01 0.  1.
       -5    1    3    3    0  502 -0.35057709769E+03 -0.19047315262E+03  0.23406051358E+03  0.46259132861E+03  0.46999998093E+01 0. -1.
</event>
<event>
 5   0  0.5854579E-03  0.1081074E+04  0.7818609E-02  0.9223837E-01
        1   -1    0    0  501    0  0.00000000000E+00  0.00000000000E+00  0.20693229596E+04  0.20693229596E+04  0.50400001928E-02 0. -1.
       -1   -1    0    0    0  501  0.00000000000E+00  0.00000000000E+00 -0.14119618909E+03  0.14119618918E+03  0.50400001928E-02 0.  1.
    10030    2    1    2    0    0  0.00000000000E+00  0.00000000000E+00  0.19281267705E+04  0.22105191488E+04  0.10810744951E+04 0.  0.
        4    1    3    3  502    0 -0.26433260521E+03 -0.18690821436E+03  0.78964933090E+02  0.33323187172E+03  0.12699999809E+01 0.  1.
       -4    1    3    3    0  502  0.26433260521E+03  0.18690821436E+03  0.18491618374E+04  0.18772872771E+04  0.12699999809E+01 0. -1.
</event>
<event>
 5   0  0.9925021E-03  0.1087080E+04  0.7818609E-02  0.9217876E-01
        2   -1    0    0  501    0  0.00000000000E+00  0.00000000000E+00  0.16560290853E+04  0.16560290853E+04  0.25500000920E-02 0.  1.
       -2   -1    0    0    0  501  0.00000000000E+00  0.00000000000E+00 -0.17840022194E+03  0.17840022196E+03  0.25500000920E-02 0. -1.
    10030    2    1    2    0    0  0.00000000000E+00  0.00000000000E+00  0.14776288633E+04  0.18344293072E+04  0.10870804135E+04 0.  0.
        4    1    3    3  502    0 -0.10380107711E+03 -0.42403837451E+03  0.12852335434E+04  0.13573540735E+04  0.12699999809E+01 0.  1.
       -4    1    3    3    0  502  0.10380107711E+03  0.42403837451E+03  0.19239531990E+03  0.47707523379E+03  0.12699999809E+01 0. -1.
</event>
<event>
 5   0  0.5712664E-03  0.1164528E+04  0.7818609E-02  0.9144484E-01
        1   -1    0    0  501    0  0.00000000000E+00  0.00000000000E+00  0.23180061743E+03  0.23180061748E+03  0.50400001928E-02 0. -1.
       -1   -1    0    0    0  501  0.00000000000E+00  0.00000000000E+00 -0.14625993339E+04  0.14625993339E+04  0.50400001928E-02 0.  1.
    10030    2    1    2    0    0  0.00000000000E+00  0.00000000000E+00 -0.12307987164E+04  0.16943999514E+04  0.11645281082E+04 0.  0.
        5    1    3    3  502    0  0.17061348639E+03 -0.24454148656E+03 -0.13430495702E+04  0.13757593316E+04  0.46999998093E+01 0.  1.
       -5    1    3    3    0  502 -0.17061348639E+03  0.24454148656E+03  0.11225085380E+03  0.31864061976E+03  0.46999998093E+01 0. -1.
</event>
<event>
 5   0  0.5998641E-03  0.1096220E+04  0.7818609E-02  0.9208884E-01
       -1   -1    0    0    0  501  0.00000000000E+00  0.00000000000E+00  0.21005846665E+03  0.21005846671E+03  0.50400001928E-02 0. -1.
        1   -1    0    0  501    0  0.00000000000E+00  0.00000000000E+00 -0.14301953566E+04  0.14301953567E+04  0.50400001928E-02 0.  1.
    10030    2    1    2    0    0  0.00000000000E+00  0.00000000000E+00 -0.12201368900E+04  0.16402538234E+04  0.10962201306E+04 0.  0.
        3    1    3    3  502    0  0.33419803197E+03 -0.18020778052E+03 -0.12015473105E+04  0.12601107564E+04  0.10100000352E+00 0.  1.
       -3    1    3    3    0  502 -0.33419803197E+03  0.18020778052E+03 -0.18589579508E+02  0.38014306701E+03  0.10100000352E+00 0. -1.
</event>
<event>
 5   0  0.5958706E-03  0.1102917E+04  0.7818609E-02  0.9202354E-01
       -1   -1    0    0    0  501  0.00000000000E+00  0.00000000000E+00  0.38458519488E+03  0.38458519491E+03  0.50400001928E-02 0. -1.
        1   -1    0    0  501    0  0.00000000000E+00  0.00000000000E+00 -0.79073835589E+03  0.79073835591E+03  0.50400001928E-02 0.  1.
    10030    2    1    2    0    0  0.00000000000E+00  0.00000000000E+00 -0.40615316101E+03  0.11753235508E+04  0.11029166147E+04 0.  0.
        2    1    3    3  502    0  0.41968326318E+02 -0.54976822151E+03 -0.19242930205E+03  0.58398242618E+03  0.25500000920E-02 0. -1.
       -2    1    3    3    0  502 -0.41968326318E+02  0.54976822151E+03 -0.21372385896E+03  0.59134112464E+03  0.25500000920E-02 0.  1.
</event>
<event>
 5   0  0.5958706E-03  0.1105505E+04  0.7818609E-02  0.9199843E-01
        1   -1    0    0  501    0  0.00000000000E+00  0.00000000000E+00  0.66175776608E+03  0.66175776610E+03  0.50400001928E-02 0.  1.
       -1   -1    0    0    0  501  0.00000000000E+00  0.00000000000E+00 -0.46170227702E+03  0.46170227705E+03  0.50400001928E-02 0. -1.
    10030    2    1    2    0    0  0.00000000000E+00  0.00000000000E+00  0.20005548906E+03  0.11234600431E+04  0.11055045318E+04 0.  0.
        2    1    3    3  502    0 -0.28082722823E+03  0.35567478228E+03 -0.22160372618E+03  0.50445683099E+03  0.25500000920E-02 0.  1.
       -2    1    3    3    0  502  0.28082722823E+03 -0.35567478228E+03  0.42165921524E+03  0.61900321216E+03  0.25500000920E-02 0. -1.
</event>
<event>
 5   0  0.5789905E-03  0.1110717E+04  0.7818609E-02  0.9194808E-01
        1   -1    0    0  501    0  0.00000000000E+00  0.00000000000E+00  0.85606736226E+03  0.85606736227E+03  0.50400001928E-02 0. -1.
       -1   -1    0    0    0  501  0.00000000000E+00  0.00000000000E+00 -0.36027922119E+03  0.36027922122E+03  0.50400001928E-02 0.  1.
    10030    2    1    2    0    0  0.00000000000E+00  0.00000000000E+00  0.49578814107E+03  0.12163465835E+04  0.11107173945E+04 0.  0.
        1    1    3    3  502    0  0.10951262822E+01  0.27844191215E+02 -0.35951315851E+03  0.36059147169E+03  0.50400001928E-02 0.  1.
       -1    1    3    3    0  502 -0.10951262822E+01 -0.27844191215E+02  0.85530129958E+03  0.85575511181E+03  0.50400001928E-02 0. -1.
</event>
<event>
 5   0  0.5712664E-03  0.9905591E+03  0.7818609E-02  0.9318960E-01
        1   -1    0    0  501    0  0.00000000000E+00  0.00000000000E+00  0.62620925037E+03  0.62620925039E+03  0.50400001928E-02 0. -1.
       -1   -1    0    0    0  501  0.00000000000E+00  0.00000000000E+00 -0.39172502480E+03  0.39172502483E+03  0.50400001928E-02 0.  1.
    10030    2    1    2    0    0  0.00000000000E+00  0.00000000000E+00  0.23448422557E+03  0.10179342752E+04  0.99055910304E+03 0.  0.
        5    1    3    3  502    0  0.29001219405E+03  0.32431368263E+03 -0.12592643568E+03  0.45295253023E+03  0.46999998093E+01 0.  1.
       -5    1    3    3    0  502 -0.29001219405E+03 -0.32431368263E+03  0.36041066125E+03  0.56498174499E+03  0.46999998093E+01 0. -1.
</event>
<event>
 5   0  0.5958706E-03  0.1103442E+04  0.7818609E-02  0.9201843E-01
        1   -1    0    0  501    0  0.00000000000E+00  0.00000000000E+00  0.95322683019E+03  0.95322683020E+03  0.50400001928E-02 0. -1.
       -1   -1    0    0    0  501  0.00000000000E+00  0.00000000000E+00 -0.31933244279E+03  0.31933244283E+03  0.50400001928E-02 0.  1.
    10030    2    1    2    0    0  0.00000000000E+00  0.00000000000E+00  0.63389438740E+03  0.12725592730E+04  0.11034423451E+04 0.  0.
        2    1    3    3  502    0 -0.34449048061E+03 -0.41193848627E+02 -0.17778198772E+03  0.38984235219E+03  0.25500000920E-02 0.  1.
       -2    1    3    3    0  502  0.34449048061E+03  0.41193848627E+02  0.81167637512E+03  0.88271692084E+03  0.25500000920E-02 0. -1.
</event>
<event>
 5   0  0.9925021E-03  0.1112553E+04  0.7818609E-02  0.9193042E-01
       -2   -1    0    0    0  501  0.00000000000E+00  0.00000000000E+00  0.80284374958E+03  0.80284374958E+03  0.25500000920E-02 0. -1.
        2   -1    0    0  501    0  0.00000000000E+00  0.00000000000E+00 -0.38543462549E+03  0.38543462550E+03  0.25500000920E-02 0.  1.
    10030    2    1    2    0    0  0.00000000000E+00  0.00000000000E+00  0.41740912409E+03  0.11882783751E+04  0.11125534233E+04 0.  0.
        4    1    3    3  502    0  0.14959749545E+03 -0.27080537345E+03 -0.28506830719E+03  0.42069051998E+03  0.12699999809E+01 0.  1.
       -4    1    3    3    0  502 -0.14959749545E+03  0.27080537345E+03  0.70247743128E+03  0.76758785510E+03  0.12699999809E+01 0. -1.
</event>
<event>
 5   0  0.9925021E-03  0.1099238E+04  0.7818609E-02  0.9205935E-01
       -2   -1    0    0    0  501  0.00000000000E+00  0.00000000000E+00  0.75998909814E+03  0.75998909814E+03  0.25500000920E-02 0. -1.
        2   -1    0    0  501    0  0.00000000000E+00  0.00000000000E+00 -0.39748046696E+03  0.39748046696E+03  0.25500000920E-02 0.  1.
    10030    2    1    2    0    0  0.00000000000E+00  0.00000000000E+00  0.36250863118E+03  0.11574695651E+04  0.10992375933E+04 0.  0.
        4    1    3    3  502    0  0.97817539486E+02  0.53195462600E+03  0.78432984931E+02  0.54653210444E+03  0.12699999809E+01 0.  1.
       -4    1    3    3    0  502 -0.97817539486E+02 -0.53195462600E+03  0.28407564625E+03  0.61093746067E+03  0.12699999809E+01 0. -1.
</event>
<event>
 5   0  0.1019384E-02  0.1108252E+04  0.7818609E-02  0.9197186E-01
       -2   -1    0    0    0  501  0.00000000000E+00  0.00000000000E+00  0.44869306442E+03  0.44869306443E+03  0.25500000920E-02 0. -1.
        2   -1    0    0  501    0  0.00000000000E+00  0.00000000000E+00 -0.68433330059E+03  0.68433330059E+03  0.25500000920E-02 0.  1.
    10030    2    1    2    0    0  0.00000000000E+00  0.00000000000E+00 -0.23564023617E+03  0.11330263650E+04  0.11082519673E+04 0.  0.
        1    1    3    3  502    0  0.58021714479E+02  0.12823159846E+03  0.43011395269E+03  0.45255704007E+03  0.50400001928E-02 0. -1.
       -1    1    3    3    0  502 -0.58021714479E+02 -0.12823159846E+03 -0.66575418886E+03  0.68046932495E+03  0.50400001928E-02 0.  1.
</event>
<event>
 5   0  0.5854579E-03  0.1226255E+04  0.7818609E-02  0.9090181E-01
        1   -1    0    0  501    0  0.00000000000E+00  0.00000000000E+00  0.22111267503E+04  0.22111267503E+04  0.50400001928E-02 0.  1.
       -1   -1    0    0    0  501  0.00000000000E+00  0.00000000000E+00 -0.17001535821E+03  0.17001535829E+03  0.50400001928E-02 0. -1.
    10030    2    1    2    0    0  0.00000000000E+00  0.00000000000E+00  0.20411113920E+04  0.23811421085E+04  0.12262552860E+04 0.  0.
        4    1    3    3  502    0 -0.39947206141E+03 -0.37679155273E+03  0.15501158015E+04  0.16445091709E+04  0.12699999809E+01 0.  1.
       -4    1    3    3    0  502  0.39947206141E+03  0.37679155273E+03  0.49099559052E+03  0.73663293767E+03  0.12699999809E+01 0. -1.
</event>
<event>
 5   0  0.5854579E-03  0.1122855E+04  0.7818609E-02  0.9183198E-01
        1   -1    0    0  501    0  0.00000000000E+00  0.00000000000E+00  0.84070933299E+03  0.84070933300E+03  0.50400001928E-02 0.  1.
       -1   -1    0    0    0  501  0.00000000000E+00  0.00000000000E+00 -0.37492255952E+03  0.37492255955E+03  0.50400001928E-02 0. -1.
    10030    2    1    2    0    0  0.00000000000E+00  0.00000000000E+00  0.46578677347E+03  0.12156318926E+04  0.11228551019E+04 0.  0.
        4    1    3    3  502    0 -0.50879113953E+02 -0.22662462139E+01  0.83820171565E+03  0.83974850350E+03  0.12699999809E+01 0.  1.
       -4    1    3    3    0  502  0.50879113953E+02  0.22662462139E+01 -0.37241494218E+03  0.37588338906E+03  0.12699999809E+01 0. -1.
</event>
<event>
 5   0  0.9692981E-03  0.1016901E+04  0.7818609E-02  0.9290200E-01
        2   -1    0    0  501    0  0.00000000000E+00  0.00000000000E+00  0.82479994007E+03  0.82479994008E+03  0.25500000920E-02 0. -1.
       -2   -1    0    0    0  501  0.00000000000E+00  0.00000000000E+00 -0.31343588268E+03  0.31343588269E+03  0.25500000920E-02 0.  1.
    10030    2    1    2    0    0  0.00000000000E+00  0.00000000000E+00  0.51136405739E+03  0.11382358228E+04  0.10169009731E+04 0.  0.
        5    1    3    3  502    0 -0.33162817120E+03  0.14955456426E+03 -0.14188241344E+03  0.39050802920E+03  0.46999998093E+01 0.  1.
       -5    1    3    3    0  502  0.33162817120E+03 -0.14955456426E+03  0.65324647083E+03  0.74772779357E+03  0.46999998093E+01 0. -1.
</event>
<event>
 5   0  0.5712664E-03  0.1135424E+04  0.7818609E-02  0.9171337E-01
        1   -1    0    0  501    0  0.00000000000E+00  0.00000000000E+00  0.89400732921E+03  0.89400732922E+03  0.50400001928E-02 0. -1.
       -1   -1    0    0    0  501  0.00000000000E+00  0.00000000000E+00 -0.36050831327E+03  0.36050831331E+03  0.50400001928E-02 0.  1.
    10030    2    1    2    0    0  0.00000000000E+00  0.00000000000E+00  0.53349901593E+03  0.12545156425E+04  0.11354242808E+04 0.  0.
        5    1    3    3  502    0  0.56546090516E+03  0.47774427496E+02  0.28409845750E+03  0.63463568663E+03  0.46999998093E+01 0.  1.
       -5    1    3    3    0  502 -0.56546090516E+03 -0.47774427496E+02  0.24940055843E+03  0.61987995590E+03  0.46999998093E+01 0. -1.
</event>
<event>
 5   0  0.5712664E-03  0.1076963E+04  0.7818609E-02  0.9227941E-01
       -1   -1    0    0    0  501  0.00000000000E+00  0.00000000000E+00  0.33052760316E+03  0.33052760320E+03  0.50400001928E-02 0.  1.
        1   -1    0    0  501    0  0.00000000000E+00  0.00000000000E+00 -0.87727075373E+03  0.87727075375E+03  0.50400001928E-02 0. -1.
    10030    2    1    2    0    0  0.00000000000E+00  0.00000000000E+00 -0.54674315057E+03  0.12077983569E+04  0.10769627655E+04 0.  0.
        5    1    3    3  502    0  0.26097831634E+03 -0.37511533578E+03 -0.59278620735E+03  0.74849099818E+03  0.46999998093E+01 0. -1.
       -5    1    3    3    0  502 -0.26097831634E+03  0.37511533578E+03  0.46043056777E+02  0.45930735876E+03  0.46999998093E+01 0.  1.
</event>
<event>
 5   0  0.1028016E-02  0.1096227E+04  0.7818609E-02  0.9208877E-01
       -2   -1    0    0    0  501  0.00000000000E+00  0.00000000000E+00  0.24892402853E+03  0.24892402854E+03  0.25500000920E-02 0. -1.
        2   -1    0    0  501    0  0.00000000000E+00  0.00000000000E+00 -0.12069089082E+04  0.12069089082E+04  0.25500000920E-02 0.  1.
    10030    2    1    2    0    0  0.00000000000E+00  0.00000000000E+00 -0.95798487966E+03  0.14558329367E+04  0.10962273989E+04 0.  0.
        2    1    3    3  502    0 -0.10486867605E+03  0.25919673137E+03  0.14708788514E+03  0.31593548508E+03  0.25500000920E-02 0. -1.
       -2    1    3    3    0  502  0.10486867605E+03 -0.25919673137E+03 -0.11050727648E+04  0.11398974517E+04  0.25500000920E-02 0.  1.
</event>
<event>
 5   0  0.5998641E-03  0.1096940E+04  0.7818609E-02  0.9208179E-01
       -1   -1    0    0    0  501  0.00000000000E+00  0.00000000000E+00  0.28858944344E+03  0.28858944348E+03  0.50400001928E-02 0. -1.
        1   -1    0    0  501    0  0.00000000000E+00  0.00000000000E+00 -0.10423787956E+04  0.10423787956E+04  0.50400001928E-02 0.  1.
    10030    2    1    2    0    0  0.00000000000E+00  0.00000000000E+00 -0.75378935214E+03  0.13309682391E+04  0.10969403202E+04 0.  0.
        3    1    3    3  502    0 -0.19059000242E+03 -0.49502966989E+03 -0.20771844845E+03  0.56967173628E+03  0.10100000352E+00 0. -1.
       -3    1    3    3    0  502  0.19059000242E+03  0.49502966989E+03 -0.54607090369E+03  0.76129650278E+03  0.10100000352E+00 0.  1.
</event>
<event>
 5   0  0.9719260E-03  0.1082303E+04  0.7818609E-02  0.9222615E-01
       -2   -1    0    0    0  501  0.00000000000E+00  0.00000000000E+00  0.36582003528E+03  0.36582003529E+03  0.25500000920E-02 0. -1.
        2   -1    0    0  501    0  0.00000000000E+00  0.00000000000E+00 -0.80051584155E+03  0.80051584155E+03  0.25500000920E-02 0.  1.
    10030    2    1    2    0    0  0.00000000000E+00  0.00000000000E+00 -0.43469580627E+03  0.11663358768E+04  0.10823026072E+04 0.  0.
        3    1    3    3  502    0 -0.40872300726E+03 -0.13155480950E+03  0.13759368795E+03  0.45088046945E+03  0.10100000352E+00 0. -1.
       -3    1    3    3    0  502  0.40872300726E+03  0.13155480950E+03 -0.57228949422E+03  0.71545540739E+03  0.10100000352E+00 0.  1.
</event>
<event>
 5   0  0.3949750E-03  0.1113909E+04  0.7818609E-02  0.9191740E-01
        3   -1    0    0  501    0  0.00000000000E+00  0.00000000000E+00  0.28272436154E+03  0.28272437959E+03  0.10100000352E+00 0.  1.
       -3   -1    0    0    0  501  0.00000000000E+00  0.00000000000E+00 -0.10971755952E+04  0.10971755999E+04  0.10100000352E+00 0. -1.
    10030    2    1    2    0    0  0.00000000000E+00  0.00000000000E+00 -0.81445123367E+03  0.13798999794E+04  0.11139089466E+04 0.  0.
        2    1    3    3  502    0  0.11994073594E+03 -0.39253786243E+03 -0.87358798159E+03  0.96520863815E+03  0.25500000920E-02 0. -1.
       -2    1    3    3    0  502 -0.11994073594E+03  0.39253786243E+03  0.59136747921E+02  0.41469134129E+03  0.25500000920E-02 0.  1.
</event>
<event>
 5   0  0.9925021E-03  0.1075058E+04  0.7818609E-02  0.9229849E-01
       -2   -1    0    0    0  501  0.00000000000E+00  0.00000000000E+00  0.11414407009E+03  0.11414407012E+03  0.25500000920E-02 0. -1.
        2   -1    0    0  501    0  0.00000000000E+00  0.00000000000E+00 -0.25313411266E+04  0.25313411266E+04  0.25500000920E-02 0.  1.
    10030    2    1    2    0    0  0.00000000000E+00  0.00000000000E+00 -0.24171970565E+04  0.26454851967E+04  0.10750582850E+04 0.  0.
        4    1    3    3  502    0 -0.25651111060E+03  0.33522841787E+03 -0.38963483273E+03  0.57445013516E+03  0.12699999809E+01 0. -1.
       -4    1    3    3    0  502  0.25651111060E+03 -0.33522841787E+03 -0.20275622238E+04  0.20710350616E+04  0.12699999809E+01 0.  1.
</event>
<event>
 5   0  0.9925021E-03  0.1135490E+04  0.7818609E-02  0.9171275E-01
       -2   -1    0    0    0  501  0.00000000000E+00  0.00000000000E+00  0.36598460813E+03  0.36598460814E+03  0.25500000920E-02 0.  1.
        2   -1    0    0  501    0  0.00000000000E+00  0.00000000000E+00 -0.88073237479E+03  0.88073237479E+03  0.25500000920E-02 0. -1.
    10030    2    1    2    0    0  0.00000000000E+00  0.00000000000E+00 -0.51474776665E+03  0.12467169829E+04  0.11354901903E+04 0.  0.
        4    1    3    3  502    0 -0.48733083278E+03 -0.98492988490E+02  0.43595295139E+02  0.49909355037E+03  0.12699999809E+01 0.  1.
       -4    1    3    3    0  502  0.48733083278E+03  0.98492988490E+02 -0.55834306179E+03  0.74762343256E+03  0.12699999809E+01 0. -1.
</event>
<event>
 5   0  0.5958706E-03  0.1081326E+04  0.7818609E-02  0.9223587E-01
       -1   -1    0    0    0  501  0.00000000000E+00  0.00000000000E+00  0.18236372086E+03  0.18236372093E+03  0.50400001928E-02 0.  1.
        1   -1    0    0  501    0  0.00000000000E+00  0.00000000000E+00 -0.16029302493E+04  0.16029302493E+04  0.50400001928E-02 0. -1.
    10030    2    1    2    0    0  0.00000000000E+00  0.00000000000E+00 -0.14205665284E+04  0.17852939702E+04  0.10813257134E+04 0.  0.
        2    1    3    3  502    0 -0.36443747227E+03  0.31065607659E+03 -0.29589793542E+03  0.56291869511E+03  0.25500000920E-02 0.  1.
       -2    1    3    3    0  502  0.36443747227E+03 -0.31065607659E+03 -0.11246685930E+04  0.12223752751E+04  0.25500000920E-02 0. -1.
</event>
<event>
 5   0  0.1019384E-02  0.1399902E+04  0.7818609E-02  0.8953890E-01
        2   -1    0    0  501    0  0.00000000000E+00  0.00000000000E+00  0.81571469920E+03  0.81571469921E+03  0.25500000920E-02 0.  1.
       -2   -1    0    0    0  501  0.00000000000E+00  0.00000000000E+00 -0.60061597778E+03  0.60061597778E+03  0.25500000920E-02 0. -1.
    10030    2    1    2    0    0  0.00000000000E+00  0.00000000000E+00  0.21509872142E+03  0.14163306770E+04  0.13999018275E+04 0.  0.
        1    1    3    3  502    0 -0.62850129880E+03  0.12324838587E+03 -0.17812445204E+03  0.66477993926E+03  0.50400001928E-02 0. -1.
       -1    1    3    3    0  502  0.62850129880E+03 -0.12324838587E+03  0.39322317346E+03  0.75155073773E+03  0.50400001928E-02 0.  1.
</event>
<event>
 5   0  0.5789905E-03  0.9245223E+03  0.7818609E-02  0.9395436E-01
       -1   -1    0    0    0  501  0.00000000000E+00  0.00000000000E+00  0.18707819119E+03  0.18707819126E+03  0.50400001928E-02 0. -1.
        1   -1    0    0  501    0  0.00000000000E+00  0.00000000000E+00 -0.11422248937E+04  0.11422248937E+04  0.50400001928E-02 0.  1.
    10030    2    1    2    0    0  0.00000000000E+00  0.00000000000E+00 -0.95514670249E+03  0.13293030850E+04  0.92452229199E+03 0.  0.
        1    1    3    3  502    0 -0.30384931351E+03 -0.14225280342E+03 -0.20341884502E+02  0.33611613721E+03  0.50400001928E-02 0. -1.
       -1    1    3    3    0  502  0.30384931351E+03  0.14225280342E+03 -0.93480481799E+03  0.99318694774E+03  0.50400001928E-02 0.  1.
</event>
<event>
 5   0  0.5712664E-03  0.1103385E+04  0.7818609E-02  0.9201899E-01
       -1   -1    0    0    0  501  0.00000000000E+00  0.00000000000E+00  0.14112757621E+03  0.14112757630E+03  0.50400001928E-02 0. -1.
        1   -1    0    0  501    0  0.00000000000E+00  0.00000000000E+00 -0.21566616002E+04  0.21566616002E+04  0.50400001928E-02 0.  1.
    10030    2    1    2    0    0  0.00000000000E+00  0.00000000000E+00 -0.20155340240E+04  0.22977891765E+04  0.11033846554E+04 0.  0.
        5    1    3    3  502    0 -0.20130561496E+03  0.35144162478E+03 -0.17878183195E+04  0.18331261822E+04  0.46999998093E+01 0.  1.
       -5    1    3    3    0  502  0.20130561496E+03 -0.35144162478E+03 -0.22771570452E+03  0.46466299436E+03  0.46999998093E+01 0. -1.
</event>
<event>
 5   0  0.1019384E-02  0.1068332E+04  0.7818609E-02  0.9236619E-01
        2   -1    0    0  501    0  0.00000000000E+00  0.00000000000E+00  0.24793716647E+04  0.24793716647E+04  0.25500000920E-02 0.  1.
       -2   -1    0    0    0  501  0.00000000000E+00  0.00000000000E+00 -0.11508295787E+03  0.11508295789E+03  0.25500000920E-02 0. -1.
    10030    2    1    2    0    0  0.00000000000E+00  0.00000000000E+00  0.23642887068E+04  0.25944546226E+04  0.10683322046E+04 0.  0.
        1    1    3    3  502    0  0.14442527438E+03  0.22660295169E+03  0.61009534244E+02  0.27555348100E+03  0.50400001928E-02 0. -1.
       -1    1    3    3    0  502 -0.14442527438E+03 -0.22660295169E+03  0.23032791726E+04  0.23189011416E+04  0.50400001928E-02 0.  1.
</event>
<event>
 5   0  0.5712664E-03  0.1087865E+04  0.7818609E-02  0.9217101E-01
       -1   -1    0    0    0  501  0.00000000000E+00  0.00000000000E+00  0.84289707240E+03  0.84289707241E+03  0.50400001928E-02 0. -1.
        1   -1    0    0  501    0  0.00000000000E+00  0.00000000000E+00 -0.35100644169E+03  0.35100644173E+03  0.50400001928E-02 0.  1.
    10030    2    1    2    0    0  0.00000000000E+00  0.00000000000E+00  0.49189063071E+03  0.11939035141E+04  0.10878645175E+04 0.  0.
        5    1    3    3  502    0 -0.30909443184E+03  0.92579181657E+02 -0.23460557508E+03  0.39896383110E+03  0.46999998093E+01 0.  1.
       -5    1    3    3    0  502  0.30909443184E+03 -0.92579181657E+02  0.72649620578E+03  0.79493968305E+03  0.46999998093E+01 0. -1.
</event>
<event>
 5   0  0.5998641E-03  0.1092558E+04  0.7818609E-02  0.9212476E-01
        1   -1    0    0  501    0  0.00000000000E+00  0.00000000000E+00  0.13021801898E+04  0.13021801898E+04  0.50400001928E-02 0. -1.
       -1   -1    0    0    0  501  0.00000000000E+00  0.00000000000E+00 -0.22916992321E+03  0.22916992326E+03  0.50400001928E-02 0.  1.
    10030    2    1    2    0    0  0.00000000000E+00  0.00000000000E+00  0.10730102665E+04  0.15313501130E+04  0.10925576125E+04 0.  0.
        3    1    3    3  502    0  0.34517797780E+03 -0.40745048471E+03  0.37512527216E+03  0.65259689998E+03  0.10100000352E+00 0.  1.
       -3    1    3    3    0  502 -0.34517797780E+03  0.40745048471E+03  0.69788499439E+03  0.87875321305E+03  0.10100000352E+00 0. -1.
</event>
<event>
 5   0  0.5854579E-03  0.1136947E+04  0.7818609E-02  0.9169911E-01
       -1   -1    0    0    0  501  0.00000000000E+00  0.00000000000E+00  0.32173596480E+03  0.32173596484E+03  0.50400001928E-02 0. -1.
        1   -1    0    0  501    0  0.00000000000E+00  0.00000000000E+00 -0.10044327964E+04  0.10044327964E+04  0.50400001928E-02 0.  1.
    10030    2    1    2    0    0  0.00000000000E+00  0.00000000000E+00 -0.68269683161E+03  0.13261687613E+04  0.11369470610E+04 0.  0.
        4    1    3    3  502    0 -0.40178124006E+03  0.23970750497E+03 -0.71800350280E+03  0.85698220270E+03  0.12699999809E+01 0.  1.
       -4    1    3    3    0  502  0.40178124006E+03 -0.23970750497E+03  0.35306671199E+02  0.46918655856E+03  0.12699999809E+01 0. -1.
</event>
<event>
 5   0  0.9692981E-03  0.1017617E+04  0.7818609E-02  0.9289431E-01
        2   -1    0    0  501    0  0.00000000000E+00  0.00000000000E+00  0.18938300063E+04  0.18938300063E+04  0.25500000920E-02 0.  1.
       -2   -1    0    0    0  501  0.00000000000E+00  0.00000000000E+00 -0.13669970311E+03  0.13669970314E+03  0.25500000920E-02 0. -1.
    10030    2    1    2    0    0  0.00000000000E+00  0.00000000000E+00  0.17571303031E+04  0.20305297094E+04  0.10176168230E+04 0.  0.
        5    1    3    3  502    0 -0.12927312810E+03 -0.41942134909E+03  0.36501956279E+03  0.57086529141E+03  0.46999998093E+01 0.  1.
       -5    1    3    3    0  502  0.12927312810E+03  0.41942134909E+03  0.13921107404E+04  0.14596644180E+04  0.46999998093E+01 0. -1.
</event>
<event>
 5   0  0.1019384E-02  0.1081964E+04  0.7818609E-02  0.9222951E-01
       -2   -1    0    0    0  501  0.00000000000E+00  0.00000000000E+00  0.33553877178E+03  0.33553877179E+03  0.25500000920E-02 0.  1.
        2   -1    0    0  501    0  0.00000000000E+00  0.00000000000E+00 -0.87221402069E+03  0.87221402070E+03  0.25500000920E-02 0. -1.
    10030    2    1    2    0    0  0.00000000000E+00  0.00000000000E+00 -0.53667524891E+03  0.12077527925E+04  0.10819641791E+04 0.  0.
        1    1    3    3  502    0  0.10057290607E+03 -0.51646983531E+03 -0.12800102480E+03  0.54151663188E+03  0.50400001928E-02 0.  1.
       -1    1    3    3    0  502 -0.10057290607E+03  0.51646983531E+03 -0.40867422411E+03  0.66623616061E+03  0.50400001928E-02 0. -1.
</event>
<event>
 5   0  0.5958706E-03  0.1115165E+04  0.7818609E-02  0.9190536E-01
       -1   -1    0    0    0  501  0.00000000000E+00  0.00000000000E+00  0.51194461281E+03  0.51194461283E+03  0.50400001928E-02 0. -1.
        1   -1    0    0  501    0  0.00000000000E+00  0.00000000000E+00 -0.60728861025E+03  0.60728861027E+03  0.50400001928E-02 0.  1.
    10030    2    1    2    0    0  0.00000000000E+00  0.00000000000E+00 -0.95343997445E+02  0.11192332231E+04  0.11151647994E+04 0.  0.
        2    1    3    3  502    0  0.15719309460E+03  0.53471916451E+03 -0.31368395354E+02  0.55822775829E+03  0.25500000920E-02 0.  1.
       -2    1    3    3    0  502 -0.15719309460E+03 -0.53471916451E+03 -0.63975602091E+02  0.56100546482E+03  0.25500000920E-02 0. -1.
</event>
<event>
 5   0  0.5712664E-03  0.1097807E+04  0.7818609E-02  0.9207332E-01
       -1   -1    0    0    0  501  0.00000000000E+00  0.00000000000E+00  0.55333421584E+03  0.55333421586E+03  0.50400001928E-02 0. -1.
        1   -1    0    0  501    0  0.00000000000E+00  0.00000000000E+00 -0.54450805729E+03  0.54450805731E+03  0.50400001928E-02 0.  1.
    10030    2    1    2    0    0  0.00000000000E+00  0.00000000000E+00  0.88261585534E+01  0.10978422732E+04  0.10978067934E+04 0.  0.
        5    1    3    3  502    0 -0.30411031358E+03  0.45584385777E+03 -0.27149680847E+02  0.54866738618E+03  0.46999998093E+01 0. -1.
       -5    1    3    3    0  502  0.30411031358E+03 -0.45584385777E+03  0.35975839401E+02  0.54917488700E+03  0.46999998093E+01 0.  1.
</event>
<event>
 5   0  0.9719260E-03  0.1101737E+04  0.7818609E-02  0.9203500E-01
       -2   -1    0    0    0  501  0.00000000000E+00  0.00000000000E+00  0.16036386251E+04  0.16036386251E+04  0.25500000920E-02 0. -1.
        2   -1    0    0  501    0  0.00000000000E+00  0.00000000000E+00 -0.18922981389E+03  0.18922981391E+03  0.25500000920E-02 0.  1.
    10030    2    1    2    0    0  0.00000000000E+00  0.00000000000E+00  0.14144088112E+04  0.17928684390E+04  0.11017372438E+04 0.  0.
        3    1    3    3  502    0  0.35685613343E+03 -0.41187677963E+03  0.83807341793E+03  0.99967787092E+03  0.10100000352E+00 0. -1.
       -3    1    3    3    0  502 -0.35685613343E+03  0.41187677963E+03  0.57633539331E+03  0.79319056812E+03  0.10100000352E+00 0.  1.
</event>
<event>
 5   0  0.1019384E-02  0.1003595E+04  0.7818609E-02  0.9304611E-01
        2   -1    0    0  501    0  0.00000000000E+00  0.00000000000E+00  0.87877424452E+03  0.87877424453E+03  0.25500000920E-02 0. -1.
       -2   -1    0    0    0  501  0.00000000000E+00  0.00000000000E+00 -0.28653624221E+03  0.28653624222E+03  0.25500000920E-02 0.  1.
    10030    2    1    2    0    0  0.00000000000E+00  0.00000000000E+00  0.59223800231E+03  0.11653104867E+04  0.10035948780E+04 0.  0.
        1    1    3    3  502    0 -0.36772407619E+03  0.34110426875E+03  0.27860348405E+03  0.57375344855E+03  0.50400001928E-02 0. -1.
       -1    1    3    3    0  502  0.36772407619E+03 -0.34110426875E+03  0.31363451826E+03  0.59155703820E+03  0.50400001928E-02 0.  1.
</event>
<event>
 5   0  0.3949750E-03  0.6833580E+03  0.7818609E-02  0.9746123E-01
       -3   -1    0    0    0  501  0.00000000000E+00  0.00000000000E+00  0.28927234436E+03  0.28927236199E+03  0.10100000352E+00 0. -1.
        3   -1    0    0  501    0  0.00000000000E+00  0.00000000000E+00 -0.40357994622E+03  0.40357995886E+03  0.10100000352E+00 0.  1.
    10030    2    1    2    0    0  0.00000000000E+00  0.00000000000E+00 -0.11430760186E+03  0.69285232085E+03  0.68335796671E+03 0.  0.
        4    1    3    3  502    0 -0.23996157332E+03  0.14706574925E+03 -0.25357989896E+03  0.37883277224E+03  0.12699999809E+01 0.  1.
       -4    1    3    3    0  502  0.23996157332E+03 -0.14706574925E+03  0.13927229709E+03  0.31401954861E+03  0.12699999809E+01 0. -1.
</event>
<event>
 5   0  0.5712664E-03  0.1064662E+04  0.7818609E-02  0.9240336E-01
        1   -1    0    0  501    0  0.00000000000E+00  0.00000000000E+00  0.58081799508E+03  0.58081799510E+03  0.50400001928E-02 0. -1.
       -1   -1    0    0    0  501  0.00000000000E+00  0.00000000000E+00 -0.48789181707E+03  0.48789181709E+03  0.50400001928E-02 0.  1.
    10030    2    1    2    0    0  0.00000000000E+00  0.00000000000E+00  0.92926178017E+02  0.10687098122E+04  0.10646621004E+04 0.  0.
        5    1    3    3  502    0  0.11327476751E+03 -0.12865500475E+03  0.55233439315E+03  0.57834129635E+03  0.46999998093E+01 0. -1.
       -5    1    3    3    0  502 -0.11327476751E+03  0.12865500475E+03 -0.45940821514E+03  0.49036851585E+03  0.46999998093E+01 0.  1.
</event>
<event>
 5   0  0.5958706E-03  0.1045841E+04  0.7818609E-02  0.9259648E-01
       -1   -1    0    0    0  501  0.00000000000E+00  0.00000000000E+00  0.39466333544E+03  0.39466333547E+03  0.50400001928E-02 0.  1.
        1   -1    0    0  501    0  0.00000000000E+00  0.00000000000E+00 -0.69285902747E+03  0.69285902749E+03  0.50400001928E-02 0. -1.
    10030    2    1    2    0    0  0.00000000000E+00  0.00000000000E+00 -0.29819569204E+03  0.10875223630E+04  0.10458413929E+04 0.  0.
        2    1    3    3  502    0 -0.40138497157E+03  0.27846114720E+03  0.44871997517E+02  0.49057517474E+03  0.25500000920E-02 0.  1.
       -2    1    3    3    0  502  0.40138497157E+03 -0.27846114720E+03 -0.34306768955E+03  0.59694718822E+03  0.25500000920E-02 0. -1.
</event>
<event>
 5   0  0.5712664E-03  0.1079017E+04  0.7818609E-02  0.9225888E-01
        1   -1    0    0  501    0  0.00000000000E+00  0.00000000000E+00  0.51079186218E+03  0.51079186220E+03  0.50400001928E-02 0.  1.
       -1   -1    0    0    0  501  0.00000000000E+00  0.00000000000E+00 -0.56983982060E+03  0.56983982062E+03  0.50400001928E-02 0. -1.
    10030    2    1    2    0    0  0.00000000000E+00  0.00000000000E+00 -0.59047958419E+02  0.10806316828E+04  0.10790172253E+04 0.  0.
        5    1    3    3  502    0 -0.16312219065E+03 -0.48913180645E+03 -0.18847086485E+03  0.54900102920E+03  0.46999998093E+01 0. -1.
       -5    1    3    3    0  502  0.16312219065E+03  0.48913180645E+03  0.12942290643E+03  0.53163065362E+03  0.46999998093E+01 0.  1.
</event>
<event>
 5   0  0.5958706E-03  0.1119160E+04  0.7818609E-02  0.9186716E-01
        1   -1    0    0  501    0  0.00000000000E+00  0.00000000000E+00  0.11028638521E+04  0.11028638521E+04  0.50400001928E-02 0. -1.
       -1   -1    0    0    0  501  0.00000000000E+00  0.00000000000E+00 -0.28392407946E+03  0.28392407951E+03  0.50400001928E-02 0.  1.
    10030    2    1    2    0    0  0.00000000000E+00  0.00000000000E+00  0.81893977268E+03  0.13867879317E+04  0.11191596920E+04 0.  0.
        2    1    3    3  502    0 -0.12584653548E+03 -0.44155780767E+03  0.80583556668E+03  0.92745976114E+03  0.25500000920E-02 0. -1.
       -2    1    3    3    0  502  0.12584653548E+03  0.44155780767E+03  0.13104206001E+02  0.45932817052E+03  0.25500000920E-02 0.  1.
</event>
<event>
 5   0  0.5712664E-03  0.1086494E+04  0.7818609E-02  0.9218457E-01
       -1   -1    0    0    0  501  0.00000000000E+00  0.00000000000E+00  0.38026110957E+03  0.38026110960E+03  0.50400001928E-02 0.  1.
        1   -1    0    0  501    0  0.00000000000E+00  0.00000000000E+00 -0.77609051052E+03  0.77609051054E+03  0.50400001928E-02 0. -1.
    10030    2    1    2    0    0  0.00000000000E+00  0.00000000000E+00 -0.39582940095E+03  0.11563516201E+04  0.10864935134E+04 0.  0.
        5    1    3    3  502    0  0.27352562403E+03 -0.14077885320E+03 -0.67442976421E+03  0.74129113670E+03  0.46999998093E+01 0. -1.
       -5    1    3    3    0  502 -0.27352562403E+03  0.14077885320E+03  0.27860036325E+03  0.41506048344E+03  0.46999998093E+01 0.  1.
</event>
<event>
 5   0  0.3949750E-03  0.9947689E+03  0.7818609E-02  0.9314301E-01
       -4   -1    0    0    0  501  0.00000000000E+00  0.00000000000E+00  0.25417230876E+03  0.25417548159E+03  0.12699999809E+01 0.  1.
        4   -1    0    0  501    0  0.00000000000E+00  0.00000000000E+00 -0.97331142529E+03  0.97331225385E+03  0.12699999809E+01 0. -1.
    10030    2    1    2    0    0  0.00000000000E+00  0.00000000000E+00 -0.71913911653E+03  0.12274877354E+04  0.99476885342E+03 0.  0.
        4    1    3    3  502    0  0.39071258244E+03 -0.23284392655E+03 -0.11119115466E+03  0.46822825842E+03  0.12699999809E+01 0.  1.
       -4    1    3    3    0  502 -0.39071258244E+03  0.23284392655E+03 -0.60794796187E+03  0.75925947702E+03  0.12699999809E+01 0. -1.
</event>
<event>
 5   0  0.9719260E-03  0.1111330E+04  0.7818609E-02  0.9194219E-01
        2   -1    0    0  501    0  0.00000000000E+00  0.00000000000E+00  0.14857339528E+04  0.14857339528E+04  0.25500000920E-02 0.  1.
       -2   -1    0    0    0  501  0.00000000000E+00  0.00000000000E+00 -0.20781896376E+03  0.20781896378E+03  0.25500000920E-02 0. -1.
    10030    2    1    2    0    0  0.00000000000E+00  0.00000000000E+00  0.12779149890E+04  0.16935529166E+04  0.11113301769E+04 0.  0.
        3    1    3    3  502    0 -0.37896940003E+03  0.39724882109E+03  0.50840611843E+03  0.74826547660E+03  0.10100000352E+00 0. -1.
       -3    1    3    3    0  502  0.37896940003E+03 -0.39724882109E+03  0.76950887059E+03  0.94528743996E+03  0.10100000352E+00 0.  1.
</event>
<event>
 5   0  0.1028016E-02  0.1057910E+04  0.7818609E-02  0.9247215E-01
       -2   -1    0    0    0  501  0.00000000000E+00  0.00000000000E+00  0.19740235694E+03  0.19740235695E+03  0.25500000920E-02 0. -1.
        2   -1    0    0  501    0  0.00000000000E+00  0.00000000000E+00 -0.14173772733E+04  0.14173772733E+04  0.25500000920E-02 0.  1.
    10030    2    1    2    0    0  0.00000000000E+00  0.00000000000E+00 -0.12199749164E+04  0.16147796303E+04  0.10579104205E+04 0.  0.
        2    1    3    3  502    0  0.40032915343E+03 -0.10029422547E+03 -0.10496067675E+03  0.42583929647E+03  0.25500000920E-02 0. -1.
       -2    1    3    3    0  502 -0.40032915343E+03  0.10029422547E+03 -0.11150142396E+04  0.11889403338E+04  0.25500000920E-02 0.  1.
</event>
<event>
 5   0  0.1019384E-02  0.1127752E+04  0.7818609E-02  0.9178557E-01
        2   -1    0    0  501    0  0.00000000000E+00  0.00000000000E+00  0.60326457932E+03  0.60326457933E+03  0.25500000920E-02 0. -1.
       -2   -1    0    0    0  501  0.00000000000E+00  0.00000000000E+00 -0.52705913642E+03  0.52705913643E+03  0.25500000920E-02 0.  1.
    10030    2    1    2    0    0  0.00000000000E+00  0.00000000000E+00  0.76205442901E+02  0.11303237158E+04  0.11277519376E+04 0.  0.
        1    1    3    3  502    0  0.54008850832E+03  0.52337875091E+02  0.19181888348E+03  0.57552526797E+03  0.50400001928E-02 0. -1.
       -1    1    3    3    0  502 -0.54008850832E+03 -0.52337875091E+02 -0.11561344058E+03  0.55479844778E+03  0.50400001928E-02 0.  1.
</event>
<event>
 5   0  0.5958706E-03  0.1104371E+04  0.7818609E-02  0.9200942E-01
        1   -1    0    0  501    0  0.00000000000E+00  0.00000000000E+00  0.17561259403E+04  0.17561259403E+04  0.50400001928E-02 0. -1.
       -1   -1    0    0    0  501  0.00000000000E+00  0.00000000000E+00 -0.17362585917E+03  0.17362585925E+03  0.50400001928E-02 0.  1.
    10030    2    1    2    0    0  0.00000000000E+00  0.00000000000E+00  0.15825000811E+04  0.19297517995E+04  0.11043710885E+04 0.  0.
        2    1    3    3  502    0 -0.16912327851E+03  0.33713058559E+03  0.14959631305E+04  0.15427784685E+04  0.25500000920E-02 0. -1.
       -2    1    3    3    0  502  0.16912327851E+03 -0.33713058559E+03  0.86536950575E+02  0.38697333099E+03  0.25500000920E-02 0.  1.
</event>
<event>
 5   0  0.9925021E-03  0.1418324E+04  0.7818609E-02  0.8940661E-01
       -2   -1    0    0    0  501  0.00000000000E+00  0.00000000000E+00  0.48226689765E+03  0.48226689765E+03  0.25500000920E-02 0.  1.
        2   -1    0    0  501    0  0.00000000000E+00  0.00000000000E+00 -0.10428052645E+04  0.10428052645E+04  0.25500000920E-02 0. -1.
    10030    2    1    2    0    0  0.00000000000E+00  0.00000000000E+00 -0.56053836684E+03  0.15250721621E+04  0.14183236017E+04 0.  0.
        4    1    3    3  502    0  0.14528325037E+03 -0.28336812714E+03  0.40106483213E+03  0.51211261533E+03  0.12699999809E+01 0.  1.
       -4    1    3    3    0  502 -0.14528325037E+03  0.28336812714E+03 -0.96160319897E+03  0.10129595468E+04  0.12699999809E+01 0. -1.
</event>
<event>
 5   0  0.5854579E-03  0.1134925E+04  0.7818609E-02  0.9171804E-01
       -1   -1    0    0    0  501  0.00000000000E+00  0.00000000000E+00  0.40506954100E+03  0.40506954103E+03  0.50400001928E-02 0.  1.
        1   -1    0    0  501    0  0.00000000000E+00  0.00000000000E+00 -0.79495972267E+03  0.79495972269E+03  0.50400001928E-02 0. -1.
    10030    2    1    2    0    0  0.00000000000E+00  0.00000000000E+00 -0.38989018167E+03  0.12000292637E+04  0.11349254954E+04 0.  0.
        4    1    3    3  502    0  0.42964151090E+03  0.99347074192E+02 -0.57257456810E+03  0.72270666108E+03  0.12699999809E+01 0. -1.
       -4    1    3    3    0  502 -0.42964151090E+03 -0.99347074192E+02  0.18268438643E+03  0.47732260263E+03  0.12699999809E+01 0.  1.
</event>
<event>
 5   0  0.5958706E-03  0.1107194E+04  0.7818609E-02  0.9198208E-01
       -1   -1    0    0    0  501  0.00000000000E+00  0.00000000000E+00  0.32409572235E+03  0.32409572239E+03  0.50400001928E-02 0.  1.
        1   -1    0    0  501    0  0.00000000000E+00  0.00000000000E+00 -0.94561476930E+03  0.94561476932E+03  0.50400001928E-02 0. -1.
    10030    2    1    2    0    0  0.00000000000E+00  0.00000000000E+00 -0.62151904696E+03  0.12697104917E+04  0.11071941144E+04 0.  0.
        2    1    3    3  502    0  0.26940101127E+03 -0.46946704291E+03 -0.44397145505E+03  0.70006204165E+03  0.25500000920E-02 0. -1.
       -2    1    3    3    0  502 -0.26940101127E+03  0.46946704291E+03 -0.17754759191E+03  0.56964845006E+03  0.25500000920E-02 0.  1.
</event>
<event>
 5   0  0.9719260E-03  0.1101486E+04  0.7818609E-02  0.9203745E-01
        2   -1    0    0  501    0  0.00000000000E+00  0.00000000000E+00  0.71122677054E+03  0.71122677055E+03  0.25500000920E-02 0.  1.
       -2   -1    0    0    0  501  0.00000000000E+00  0.00000000000E+00 -0.42647127563E+03  0.42647127564E+03  0.25500000920E-02 0. -1.
    10030    2    1    2    0    0  0.00000000000E+00  0.00000000000E+00  0.28475549491E+03  0.11376980462E+04  0.11014858839E+04 0.  0.
        3    1    3    3  502    0  0.46169184168E+03  0.61502342454E+02  0.44593759550E+03  0.64482729787E+03  0.10100000352E+00 0.  1.
       -3    1    3    3    0  502 -0.46169184168E+03 -0.61502342454E+02 -0.16118210058E+03  0.49287074832E+03  0.10100000352E+00 0. -1.
</event>
<event>
 5   0  0.5998641E-03  0.1090098E+04  0.7818609E-02  0.9214897E-01
        1   -1    0    0  501    0  0.00000000000E+00  0.00000000000E+00  0.74063516119E+03  0.74063516121E+03  0.50400001928E-02 0. -1.
       -1   -1    0    0    0  501  0.00000000000E+00  0.00000000000E+00 -0.40111310708E+03  0.40111310711E+03  0.50400001928E-02 0.  1.
    10030    2    1    2    0    0  0.00000000000E+00  0.00000000000E+00  0.33952205411E+03  0.11417482683E+04  0.10900981070E+04 0.  0.
        3    1    3    3  502    0 -0.24736804883E+03  0.35671868858E+03 -0.17546078498E+03  0.46821541157E+03  0.10100000352E+00 0. -1.
       -3    1    3    3    0  502  0.24736804883E+03 -0.35671868858E+03  0.51498283909E+03  0.67353285675E+03  0.10100000352E+00 0.  1.
</event>
<event>
 5   0  0.9719260E-03  0.1097462E+04  0.7818609E-02  0.9207669E-01
       -2   -1    0    0    0  501  0.00000000000E+00  0.00000000000E+00  0.28297336753E+03  0.28297336754E+03  0.25500000920E-02 0. -1.
        2   -1    0    0  501    0  0.00000000000E+00  0.00000000000E+00 -0.10640774138E+04  0.10640774138E+04  0.25500000920E-02 0.  1.
    10030    2    1    2    0    0  0.00000000000E+00  0.00000000000E+00 -0.78110404625E+03  0.13470507813E+04  0.10974617426E+04 0.  0.
        3    1    3    3  502    0 -0.35854504611E+03 -0.18575857569E+03 -0.84659370851E+03  0.93796679900E+03  0.10100000352E+00 0.  1.
       -3    1    3    3    0  502  0.35854504611E+03  0.18575857569E+03  0.65489662262E+02  0.40908398233E+03  0.10100000352E+00 0. -1.
</event>
<event>
 5   0  0.3949750E-03  0.1044552E+04  0.7818609E-02  0.9260987E-01
        3   -1    0    0  501    0  0.00000000000E+00  0.00000000000E+00  0.75328554124E+03  0.75328554801E+03  0.10100000352E+00 0.  1.
       -3   -1    0    0    0  501  0.00000000000E+00  0.00000000000E+00 -0.36210990846E+03  0.36210992254E+03  0.10100000352E+00 0. -1.
    10030    2    1    2    0    0  0.00000000000E+00  0.00000000000E+00  0.39117563278E+03  0.11153954706E+04  0.10445519040E+04 0.  0.
        1    1    3    3  502    0  0.10200885070E+03 -0.30994470918E+03 -0.23986972274E+03  0.40498026160E+03  0.50400001928E-02 0. -1.
       -1    1    3    3    0  502 -0.10200885070E+03  0.30994470918E+03  0.63104535552E+03  0.71041520896E+03  0.50400001928E-02 0.  1.
</event>
<event>
 5   0  0.5854579E-03  0.1106018E+04  0.7818609E-02  0.9199346E-01
       -1   -1    0    0    0  501  0.00000000000E+00  0.00000000000E+00  0.31316787328E+03  0.31316787332E+03  0.50400001928E-02 0.  1.
        1   -1    0    0  501    0  0.00000000000E+00  0.00000000000E+00 -0.97653363188E+03  0.97653363189E+03  0.50400001928E-02 0. -1.
    10030    2    1    2    0    0  0.00000000000E+00  0.00000000000E+00 -0.66336575860E+03  0.12897015052E+04  0.11060180120E+04 0.  0.
        4    1    3    3  502    0 -0.10894411761E+03 -0.39873472911E+03  0.96696110804E+02  0.42451143177E+03  0.12699999809E+01 0.  1.
       -4    1    3    3    0  502  0.10894411761E+03  0.39873472911E+03 -0.76006186940E+03  0.86519007344E+03  0.12699999809E+01 0. -1.
</event>
<event>
 5   0  0.5712664E-03  0.8693446E+03  0.7818609E-02  0.9464735E-01
       -1   -1    0    0    0  501  0.00000000000E+00  0.00000000000E+00  0.12559993880E+03  0.12559993891E+03  0.50400001928E-02 0.  1.
        1   -1    0    0  501    0  0.00000000000E+00  0.00000000000E+00 -0.15043001946E+04  0.15043001946E+04  0.50400001928E-02 0. -1.
    10030    2    1    2    0    0  0.00000000000E+00  0.00000000000E+00 -0.13787002558E+04  0.16299001335E+04  0.86934460940E+03 0.  0.
        5    1    3    3  502    0  0.18098452159E+03 -0.10702435367E+02 -0.14299746885E+04  0.14414297204E+04  0.46999998093E+01 0. -1.
       -5    1    3    3    0  502 -0.18098452159E+03  0.10702435367E+02  0.51274432672E+02  0.18847041312E+03  0.46999998093E+01 0.  1.
</event>
<event>
 5   0  0.9719260E-03  0.1146157E+04  0.7818609E-02  0.9161336E-01
        2   -1    0    0  501    0  0.00000000000E+00  0.00000000000E+00  0.75903889914E+03  0.75903889914E+03  0.25500000920E-02 0. -1.
       -2   -1    0    0    0  501  0.00000000000E+00  0.00000000000E+00 -0.43267739178E+03  0.43267739179E+03  0.25500000920E-02 0.  1.
    10030    2    1    2    0    0  0.00000000000E+00  0.00000000000E+00  0.32636150736E+03  0.11917162909E+04  0.11461570070E+04 0.  0.
        3    1    3    3  502    0 -0.26238316419E+03  0.12025544235E+03  0.67794886807E+03  0.73683171361E+03  0.10100000352E+00 0. -1.
       -3    1    3    3    0  502  0.26238316419E+03 -0.12025544235E+03 -0.35158736072E+03  0.45488457732E+03  0.10100000352E+00 0.  1.
</event>
<event>
 5   0  0.5789905E-03  0.1281211E+04  0.7818609E-02  0.9044599E-01
       -1   -1    0    0    0  501  0.00000000000E+00  0.00000000000E+00  0.56322781204E+03  0.56322781206E+03  0.50400001928E-02 0.  1.
        1   -1    0    0  501    0  0.00000000000E+00  0.00000000000E+00 -0.72861372211E+03  0.72861372213E+03  0.50400001928E-02 0. -1.
    10030    2    1    2    0    0  0.00000000000E+00  0.00000000000E+00 -0.16538591007E+03  0.12918415342E+04  0.12812111653E+04 0.  0.
        1    1    3    3  502    0  0.22934020570E+02  0.63797627906E+03 -0.13638712558E+03  0.65279487590E+03  0.50400001928E-02 0. -1.
       -1    1    3    3    0  502 -0.22934020570E+02 -0.63797627906E+03 -0.28998784489E+02  0.63904665829E+03  0.50400001928E-02 0.  1.
</event>
<event>
 5   0  0.9692981E-03  0.1067194E+04  0.7818609E-02  0.9237770E-01
        2   -1    0    0  501    0  0.00000000000E+00  0.00000000000E+00  0.23046193847E+04  0.23046193847E+04  0.25500000920E-02 0.  1.
       -2   -1    0    0    0  501  0.00000000000E+00  0.00000000000E+00 -0.12354574606E+03  0.12354574609E+03  0.25500000920E-02 0. -1.
    10030    2    1    2    0    0  0.00000000000E+00  0.00000000000E+00  0.21810736386E+04  0.24281651308E+04  0.10671943053E+04 0.  0.
        5    1    3    3  502    0 -0.30574706653E+03  0.41613560407E+03  0.13962527642E+04  0.14886886784E+04  0.46999998093E+01 0.  1.
       -5    1    3    3    0  502  0.30574706653E+03 -0.41613560407E+03  0.78482087448E+03  0.93947645244E+03  0.46999998093E+01 0. -1.
</event>
<event>
 5   0  0.5958706E-03  0.1092535E+04  0.7818609E-02  0.9212499E-01
        1   -1    0    0  501    0  0.00000000000E+00  0.00000000000E+00  0.30365558820E+03  0.30365558824E+03  0.50400001928E-02 0. -1.
       -1   -1    0    0    0  501  0.00000000000E+00  0.00000000000E+00 -0.98271847993E+03  0.98271847994E+03  0.50400001928E-02 0.  1.
    10030    2    1    2    0    0  0.00000000000E+00  0.00000000000E+00 -0.67906289173E+03  0.12863740682E+04  0.10925345909E+04 0.  0.
        2    1    3    3  502    0  0.48017950206E+03 -0.20614995142E+03 -0.52695170952E+03  0.74212415460E+03  0.25500000920E-02 0. -1.
       -2    1    3    3    0  502 -0.48017950206E+03  0.20614995142E+03 -0.15211118221E+03  0.54424991358E+03  0.25500000920E-02 0.  1.
</event>
<event>
 5   0  0.5789905E-03  0.1083145E+04  0.7818609E-02  0.9221777E-01
        1   -1    0    0  501    0  0.00000000000E+00  0.00000000000E+00  0.16975049216E+04  0.16975049216E+04  0.50400001928E-02 0.  1.
       -1   -1    0    0    0  501  0.00000000000E+00  0.00000000000E+00 -0.17278345239E+03  0.17278345246E+03  0.50400001928E-02 0. -1.
    10030    2    1    2    0    0  0.00000000000E+00  0.00000000000E+00  0.15247214692E+04  0.18702883740E+04  0.10831449781E+04 0.  0.
        1    1    3    3  502    0 -0.27153684020E+03 -0.46762704321E+03  0.81397360509E+03  0.97722072069E+03  0.50400001928E-02 0.  1.
       -1    1    3    3    0  502  0.27153684020E+03  0.46762704321E+03  0.71074786407E+03  0.89306765334E+03  0.50400001928E-02 0. -1.
</event>
<event>
 5   0  0.3949750E-03  0.1112544E+04  0.7818609E-02  0.9193051E-01
       -3   -1    0    0    0  501  0.00000000000E+00  0.00000000000E+00  0.38508607014E+03  0.38508608338E+03  0.10100000352E+00 0.  1.
        3   -1    0    0  501    0  0.00000000000E+00  0.00000000000E+00 -0.80355652003E+03  0.80355652637E+03  0.10100000352E+00 0. -1.
    10030    2    1    2    0    0  0.00000000000E+00  0.00000000000E+00 -0.41847044989E+03  0.11886426098E+04  0.11125438132E+04 0.  0.
        1    1    3    3  502    0 -0.22872888138E+03 -0.41064740951E+03  0.10858523584E+03  0.48243025359E+03  0.50400001928E-02 0. -1.
       -1    1    3    3    0  502  0.22872888138E+03  0.41064740951E+03 -0.52705568573E+03  0.70621235616E+03  0.50400001928E-02 0.  1.
</event>
<event>
 5   0  0.5712664E-03  0.1067276E+04  0.7818609E-02  0.9237688E-01
        1   -1    0    0  501    0  0.00000000000E+00  0.00000000000E+00  0.34058320147E+03  0.34058320151E+03  0.50400001928E-02 0. -1.
       -1   -1    0    0    0  501  0.00000000000E+00  0.00000000000E+00 -0.83612266786E+03  0.83612266788E+03  0.50400001928E-02 0.  1.
    10030    2    1    2    0    0  0.00000000000E+00  0.00000000000E+00 -0.49553946639E+03  0.11767058694E+04  0.10672756627E+04 0.  0.
        5    1    3    3  502    0 -0.20055862926E+03  0.73085484318E+02 -0.78697677330E+03  0.81542613614E+03  0.46999998093E+01 0.  1.
       -5    1    3    3    0  502  0.20055862926E+03 -0.73085484318E+02  0.29143730691E+03  0.36127973324E+03  0.46999998093E+01 0. -1.
</event>
<event>
 5   0  0.1028016E-02  0.1077760E+04  0.7818609E-02  0.9227144E-01
        2   -1    0    0  501    0  0.00000000000E+00  0.00000000000E+00  0.93563552915E+03  0.93563552915E+03  0.25500000920E-02 0. -1.
       -2   -1    0    0    0  501  0.00000000000E+00  0.00000000000E+00 -0.31036829498E+03  0.31036829499E+03  0.25500000920E-02 0.  1.
    10030    2    1    2    0    0  0.00000000000E+00  0.00000000000E+00  0.62526723417E+03  0.12460038241E+04  0.10777599063E+04 0.  0.
        2    1    3    3  502    0 -0.16275770253E+03 -0.36056713207E+03  0.73566841143E+03  0.83528841608E+03  0.25500000920E-02 0. -1.
       -2    1    3    3    0  502  0.16275770253E+03  0.36056713207E+03 -0.11040117726E+03  0.41071540805E+03  0.25500000920E-02 0.  1.
</event>
<event>
 5   0  0.1019384E-02  0.1104256E+04  0.7818609E-02  0.9201053E-01
       -2   -1    0    0    0  501  0.00000000000E+00  0.00000000000E+00  0.46281057184E+03  0.46281057185E+03  0.25500000920E-02 0.  1.
        2   -1    0    0  501    0  0.00000000000E+00  0.00000000000E+00 -0.65868321581E+03  0.65868321582E+03  0.25500000920E-02 0. -1.
    10030    2    1    2    0    0  0.00000000000E+00  0.00000000000E+00 -0.19587264397E+03  0.11214937877E+04  0.11042564119E+04 0.  0.
        1    1    3    3  502    0 -0.56949276161E+02  0.11791347649E+03 -0.64268467810E+03  0.65588901766E+03  0.50400001928E-02 0. -1.
       -1    1    3    3    0  502  0.56949276161E+02 -0.11791347649E+03  0.44681203413E+03  0.46560477001E+03  0.50400001928E-02 0.  1.
</event>
<event>
 5   0  0.5854579E-03  0.1103823E+04  0.7818609E-02  0.9201473E-01
       -1   -1    0    0    0  501  0.00000000000E+00  0.00000000000E+00  0.54633407443E+03  0.54633407445E+03  0.50400001928E-02 0. -1.
        1   -1    0    0  501    0  0.00000000000E+00  0.00000000000E+00 -0.55754634392E+03  0.55754634395E+03  0.50400001928E-02 0.  1.
    10030    2    1    2    0    0  0.00000000000E+00  0.00000000000E+00 -0.11212269498E+02  0.11038804184E+04  0.11038234746E+04 0.  0.
        4    1    3    3  502    0 -0.21259360179E+03  0.41472737056E+02 -0.51326302016E+03  0.55709655197E+03  0.12699999809E+01 0.  1.
       -4    1    3    3    0  502  0.21259360179E+03 -0.41472737056E+02  0.50205075067E+03  0.54678386643E+03  0.12699999809E+01 0. -1.
</event>
<event>
 5   0  0.5998641E-03  0.1075533E+04  0.7818609E-02  0.9229373E-01
        1   -1    0    0  501    0  0.00000000000E+00  0.00000000000E+00  0.38632458091E+03  0.38632458094E+03  0.50400001928E-02 0.  1.
       -1   -1    0    0    0  501  0.00000000000E+00  0.00000000000E+00 -0.74857407322E+03  0.74857407324E+03  0.50400001928E-02 0. -1.
    10030    2    1    2    0    0  0.00000000000E+00  0.00000000000E+00 -0.36224949231E+03  0.11348986542E+04  0.10755325474E+04 0.  0.
        3    1    3    3  502    0  0.13945746950E+03  0.16226948240E+03 -0.70172600698E+03  0.73362058981E+03  0.10100000352E+00 0. -1.
       -3    1    3    3    0  502 -0.13945746950E+03 -0.16226948240E+03  0.33947651467E+03  0.40127806436E+03  0.10100000352E+00 0.  1.
</event>
<event>
 5   0  0.5789905E-03  0.1109959E+04  0.7818609E-02  0.9195539E-01
        1   -1    0    0  501    0  0.00000000000E+00  0.00000000000E+00  0.98766988193E+03  0.98766988194E+03  0.50400001928E-02 0.  1.
       -1   -1    0    0    0  501  0.00000000000E+00  0.00000000000E+00 -0.31184749584E+03  0.31184749588E+03  0.50400001928E-02 0. -1.
    10030    2    1    2    0    0  0.00000000000E+00  0.00000000000E+00  0.67582238608E+03  0.12995173778E+04  0.11099592415E+04 0.  0.
        1    1    3    3  502    0  0.86365088617E+02 -0.12737527875E+03  0.96218913977E+03  0.97441845779E+03  0.50400001928E-02 0.  1.
       -1    1    3    3    0  502 -0.86365088617E+02  0.12737527875E+03 -0.28636675368E+03  0.32509892004E+03  0.50400001928E-02 0. -1.
</event>
<event>
 5   0  0.5958706E-03  0.1138781E+04  0.7818609E-02  0.9168196E-01
        1   -1    0    0  501    0  0.00000000000E+00  0.00000000000E+00  0.93255543903E+03  0.93255543904E+03  0.50400001928E-02 0.  1.
       -1   -1    0    0    0  501  0.00000000000E+00  0.00000000000E+00 -0.34765310604E+03  0.34765310607E+03  0.50400001928E-02 0. -1.
    10030    2    1    2    0    0  0.00000000000E+00  0.00000000000E+00  0.58490233299E+03  0.12802085451E+04  0.11387814452E+04 0.  0.
        2    1    3    3  502    0 -0.18759095366E+03  0.26377362875E+03  0.81907092548E+03  0.88070657661E+03  0.25500000920E-02 0.  1.
       -2    1    3    3    0  502  0.18759095366E+03 -0.26377362875E+03 -0.23416859249E+03  0.39950196850E+03  0.25500000920E-02 0. -1.
</event>
<event>
 5   0  0.1019384E-02  0.1114282E+04  0.7818609E-02  0.9191382E-01
       -2   -1    0    0    0  501  0.00000000000E+00  0.00000000000E+00  0.35186049026E+03  0.35186049027E+03  0.25500000920E-02 0.  1.
        2   -1    0    0  501    0  0.00000000000E+00  0.00000000000E+00 -0.88218540127E+03  0.88218540128E+03  0.25500000920E-02 0. -1.
    10030    2    1    2    0    0  0.00000000000E+00  0.00000000000E+00 -0.53032491101E+03  0.12340458915E+04  0.11142821686E+04 0.  0.
        1    1    3    3  502    0  0.18212228055E+03  0.35814555483E+03  0.16228693228E+03  0.43332875734E+03  0.50400001928E-02 0.  1.
       -1    1    3    3    0  502 -0.18212228055E+03 -0.35814555483E+03 -0.69261184329E+03  0.80071713421E+03  0.50400001928E-02 0. -1.
</event>
<event>
 5   0  0.9719260E-03  0.1135606E+04  0.7818609E-02  0.9171167E-01
       -2   -1    0    0    0  501  0.00000000000E+00  0.00000000000E+00  0.26046264957E+03  0.26046264958E+03  0.25500000920E-02 0.  1.
        2   -1    0    0  501    0  0.00000000000E+00  0.00000000000E+00 -0.12377974802E+04  0.12377974802E+04  0.25500000920E-02 0. -1.
    10030    2    1    2    0    0  0.00000000000E+00  0.00000000000E+00 -0.97733483060E+03  0.14982601298E+04  0.11356055853E+04 0.  0.
        3    1    3    3  502    0 -0.22801345714E+03 -0.64318900239E+02 -0.11694731768E+04  0.11932286365E+04  0.10100000352E+00 0. -1.
       -3    1    3    3    0  502  0.22801345714E+03  0.64318900239E+02  0.19213834622E+03  0.30503149322E+03  0.10100000352E+00 0.  1.
</event>
<event>
 5   0  0.5998641E-03  0.1126199E+04  0.7818609E-02  0.9180026E-01
        1   -1    0    0  501    0  0.00000000000E+00  0.00000000000E+00  0.12354256108E+04  0.12354256108E+04  0.50400001928E-02 0. -1.
       -1   -1    0    0    0  501  0.00000000000E+00  0.00000000000E+00 -0.25665755306E+03  0.25665755311E+03  0.50400001928E-02 0.  1.
    10030    2    1    2    0    0  0.00000000000E+00  0.00000000000E+00  0.97876805771E+03  0.14920831639E+04  0.11261994749E+04 0.  0.
        3    1    3    3  502    0 -0.39848263870E+03 -0.31087388350E+03  0.81834575711E+03  0.96183198801E+03  0.10100000352E+00 0.  1.
       -3    1    3    3    0  502  0.39848263870E+03  0.31087388350E+03  0.16042230061E+03  0.53025117588E+03  0.10100000352E+00 0. -1.
</event>
<event>
 5   0  0.9925021E-03  0.1102035E+04  0.7818609E-02  0.9203211E-01
       -2   -1    0    0    0  501  0.00000000000E+00  0.00000000000E+00  0.84066273209E+03  0.84066273209E+03  0.25500000920E-02 0.  1.
        2   -1    0    0  501    0  0.00000000000E+00  0.00000000000E+00 -0.36116750783E+03  0.36116750784E+03  0.25500000920E-02 0. -1.
    10030    2    1    2    0    0  0.00000000000E+00  0.00000000000E+00  0.47949522426E+03  0.12018302399E+04  0.11020345982E+04 0.  0.
        4    1    3    3  502    0 -0.53775704978E+03  0.51960554892E+02  0.12160509212E+03  0.55377969914E+03  0.12699999809E+01 0. -1.
       -4    1    3    3    0  502  0.53775704978E+03 -0.51960554892E+02  0.35789013214E+03  0.64805054080E+03  0.12699999809E+01 0.  1.
</event>
<event>
 5   0  0.5998641E-03  0.1045055E+04  0.7818609E-02  0.9260464E-01
       -1   -1    0    0    0  501  0.00000000000E+00  0.00000000000E+00  0.74938073546E+03  0.74938073547E+03  0.50400001928E-02 0. -1.
        1   -1    0    0  501    0  0.00000000000E+00  0.00000000000E+00 -0.36434745038E+03  0.36434745041E+03  0.50400001928E-02 0.  1.
    10030    2    1    2    0    0  0.00000000000E+00  0.00000000000E+00  0.38503328508E+03  0.11137281859E+04  0.10450549466E+04 0.  0.
        3    1    3    3  502    0  0.25743575173E+03 -0.27090622605E+03 -0.19668240348E+03  0.42231188430E+03  0.10100000352E+00 0.  1.
       -3    1    3    3    0  502 -0.25743575173E+03  0.27090622605E+03  0.58171568856E+03  0.69141630159E+03  0.10100000352E+00 0. -1.
</event>
<event>
 5   0  0.5998641E-03  0.1299578E+04  0.7818609E-02  0.9029900E-01
        1   -1    0    0  501    0  0.00000000000E+00  0.00000000000E+00  0.14281336409E+04  0.14281336409E+04  0.50400001928E-02 0.  1.
       -1   -1    0    0    0  501  0.00000000000E+00  0.00000000000E+00 -0.29564868458E+03  0.29564868462E+03  0.50400001928E-02 0. -1.
    10030    2    1    2    0    0  0.00000000000E+00  0.00000000000E+00  0.11324849563E+04  0.17237823255E+04  0.12995781352E+04 0.  0.
        3    1    3    3  502    0  0.57396958377E+03  0.12258643687E+03  0.19637118450E+03  0.61889431238E+03  0.10100000352E+00 0. -1.
       -3    1    3    3    0  502 -0.57396958377E+03 -0.12258643687E+03  0.93611377184E+03  0.11048880132E+04  0.10100000352E+00 0.  1.
</event>
<event>
 5   0  0.9719260E-03  0.1091783E+04  0.7818609E-02  0.9213237E-01
        2   -1    0    0  501    0  0.00000000000E+00  0.00000000000E+00  0.45432751855E+03  0.45432751855E+03  0.25500000920E-02 0.  1.
       -2   -1    0    0    0  501  0.00000000000E+00  0.00000000000E+00 -0.65590962761E+03  0.65590962762E+03  0.25500000920E-02 0. -1.
    10030    2    1    2    0    0  0.00000000000E+00  0.00000000000E+00 -0.20158210907E+03  0.11102371462E+04  0.10917834831E+04 0.  0.
        3    1    3    3  502    0 -0.11497094259E+03 -0.49865409577E+03  0.92483417882E+02  0.52002636246E+03  0.10100000352E+00 0.  1.
       -3    1    3    3    0  502  0.11497094259E+03  0.49865409577E+03 -0.29406552695E+03  0.59021078371E+03  0.10100000352E+00 0. -1.
</event>
<event>
 5   0  0.5854579E-03  0.1113522E+04  0.7818609E-02  0.9192112E-01
       -1   -1    0    0    0  501  0.00000000000E+00  0.00000000000E+00  0.21199569580E+03  0.21199569586E+03  0.50400001928E-02 0.  1.
        1   -1    0    0  501    0  0.00000000000E+00  0.00000000000E+00 -0.14622121420E+04  0.14622121420E+04  0.50400001928E-02 0. -1.
    10030    2    1    2    0    0  0.00000000000E+00  0.00000000000E+00 -0.12502164462E+04  0.16742078379E+04  0.11135217654E+04 0.  0.
        4    1    3    3  502    0  0.23501871649E+03  0.48049808998E+03 -0.39282038987E+03  0.66364273761E+03  0.12699999809E+01 0.  1.
       -4    1    3    3    0  502 -0.23501871649E+03 -0.48049808998E+03 -0.85739605635E+03  0.10105651003E+04  0.12699999809E+01 0. -1.
</event>
<event>
 5   0  0.5998641E-03  0.1111326E+04  0.7818609E-02  0.9194223E-01
       -1   -1    0    0    0  501  0.00000000000E+00  0.00000000000E+00  0.26400419191E+03  0.26400419196E+03  0.50400001928E-02 0.  1.
        1   -1    0    0  501    0  0.00000000000E+00  0.00000000000E+00 -0.11695310983E+04  0.11695310983E+04  0.50400001928E-02 0. -1.
    10030    2    1    2    0    0  0.00000000000E+00  0.00000000000E+00 -0.90552690641E+03  0.14335352903E+04  0.11113255375E+04 0.  0.
        3    1    3    3  502    0 -0.35024202283E+02 -0.55450851388E+03 -0.46230509044E+03  0.72279484887E+03  0.10100000352E+00 0. -1.
       -3    1    3    3    0  502  0.35024202283E+02  0.55450851388E+03 -0.44322181597E+03  0.71074044142E+03  0.10100000352E+00 0.  1.
</event>
<event>
 5   0  0.1028016E-02  0.1096473E+04  0.7818609E-02  0.9208636E-01
        2   -1    0    0  501    0  0.00000000000E+00  0.00000000000E+00  0.10631534077E+04  0.10631534077E+04  0.25500000920E-02 0.  1.
       -2   -1    0    0    0  501  0.00000000000E+00  0.00000000000E+00 -0.28270925201E+03  0.28270925203E+03  0.25500000920E-02 0. -1.
    10030    2    1    2    0    0  0.00000000000E+00  0.00000000000E+00  0.78044415567E+03  0.13458626597E+04  0.10964730816E+04 0.  0.
        2    1    3    3  502    0  0.34581506080E+03  0.30750817067E+03  0.29398625801E+02  0.46369560113E+03  0.25500000920E-02 0. -1.
       -2    1    3    3    0  502 -0.34581506080E+03 -0.30750817067E+03  0.75104552987E+03  0.88216705858E+03  0.25500000920E-02 0.  1.
</event>
<event>
 5   0  0.5854579E-03  0.1020195E+04  0.7818609E-02  0.9286669E-01
        1   -1    0    0  501    0  0.00000000000E+00  0.00000000000E+00  0.82073638488E+03  0.82073638489E+03  0.50400001928E-02 0. -1.
       -1   -1    0    0    0  501  0.00000000000E+00  0.00000000000E+00 -0.31703167515E+03  0.31703167519E+03  0.50400001928E-02 0.  1.
    10030    2    1    2    0    0  0.00000000000E+00  0.00000000000E+00  0.50370470973E+03  0.11377680601E+04  0.10201949441E+04 0.  0.
        4    1    3    3  502    0 -0.29323147998E+03 -0.22807953657E+03  0.64169868863E+03  0.74147406950E+03  0.12699999809E+01 0. -1.
       -4    1    3    3    0  502  0.29323147998E+03  0.22807953657E+03 -0.13799397890E+03  0.39629399058E+03  0.12699999809E+01 0.  1.
</event>
<event>
 5   0  0.1019384E-02  0.1107931E+04  0.7818609E-02  0.9197496E-01
       -2   -1    0    0    0  501  0.00000000000E+00  0.00000000000E+00  0.59363914716E+03  0.59363914717E+03  0.25500000920E-02 0. -1.
        2   -1    0    0  501    0  0.00000000000E+00  0.00000000000E+00 -0.51694322823E+03  0.51694322824E+03  0.25500000920E-02 0.  1.
    10030    2    1    2    0    0  0.00000000000E+00  0.00000000000E+00  0.76695918932E+02  0.11105823754E+04  0.11079309313E+04 0.  0.
        1    1    3    3  502    0  0.32932564409E+03 -0.11400523563E+02 -0.40801804230E+03  0.52446551331E+03  0.50400001928E-02 0.  1.
       -1    1    3    3    0  502 -0.32932564409E+03  0.11400523563E+02  0.48471396123E+03  0.58611686209E+03  0.50400001928E-02 0. -1.
</event>
<event>
 5   0  0.3949750E-03  0.1099714E+04  0.7818609E-02  0.9205470E-01
       -4   -1    0    0    0  501  0.00000000000E+00  0.00000000000E+00  0.15474065051E+04  0.15474070263E+04  0.12699999809E+01 0.  1.
        4   -1    0    0  501    0  0.00000000000E+00  0.00000000000E+00 -0.19538429592E+03  0.19538842338E+03  0.12699999809E+01 0. -1.
    10030    2    1    2    0    0  0.00000000000E+00  0.00000000000E+00  0.13520222092E+04  0.17427954497E+04  0.10997144744E+04 0.  0.
        4    1    3    3  502    0  0.19478581992E+03 -0.45026701209E+03  0.10695307079E+04  0.11766815397E+04  0.12699999809E+01 0.  1.
       -4    1    3    3    0  502 -0.19478581992E+03  0.45026701209E+03  0.28249150125E+03  0.56611390992E+03  0.12699999809E+01 0. -1.
</event>
<event>
 5   0  0.5854579E-03  0.7440282E+03  0.7818609E-02  0.9644766E-01
        1   -1    0    0  501    0  0.00000000000E+00  0.00000000000E+00  0.40012332897E+03  0.40012332900E+03  0.50400001928E-02 0. -1.
       -1   -1    0    0    0  501  0.00000000000E+00  0.00000000000E+00 -0.34587961744E+03  0.34587961747E+03  0.50400001928E-02 0.  1.
    10030    2    1    2    0    0  0.00000000000E+00  0.00000000000E+00  0.54243711531E+02  0.74600294647E+03  0.74402823596E+03 0.  0.
        4    1    3    3  502    0 -0.19177474342E+03  0.31361873722E+03  0.84357743045E+02  0.37716323556E+03  0.12699999809E+01 0. -1.
       -4    1    3    3    0  502  0.19177474342E+03 -0.31361873722E+03 -0.30114031514E+02  0.36883971091E+03  0.12699999809E+01 0.  1.
</event>
<event>
 5   0  0.9719260E-03  0.1104458E+04  0.7818609E-02  0.9200857E-01
        2   -1    0    0  501    0  0.00000000000E+00  0.00000000000E+00  0.87964605541E+03  0.87964605542E+03  0.25500000920E-02 0.  1.
       -2   -1    0    0    0  501  0.00000000000E+00  0.00000000000E+00 -0.34668156313E+03  0.34668156314E+03  0.25500000920E-02 0. -1.
    10030    2    1    2    0    0  0.00000000000E+00  0.00000000000E+00  0.53296449229E+03  0.12263276186E+04  0.11044583641E+04 0.  0.
        3    1    3    3  502    0  0.19471821590E+03 -0.32568031409E+03 -0.17900503604E+03  0.41955412490E+03  0.10100000352E+00 0. -1.
       -3    1    3    3    0  502 -0.19471821590E+03  0.32568031409E+03  0.71196952833E+03  0.80677349365E+03  0.10100000352E+00 0.  1.
</event>
<event>
 5   0  0.5998641E-03  0.1093372E+04  0.7818609E-02  0.9211677E-01
       -1   -1    0    0    0  501  0.00000000000E+00  0.00000000000E+00  0.27705235276E+03  0.27705235281E+03  0.50400001928E-02 0.  1.
        1   -1    0    0  501    0  0.00000000000E+00  0.00000000000E+00 -0.10787323573E+04  0.10787323574E+04  0.50400001928E-02 0. -1.
    10030    2    1    2    0    0  0.00000000000E+00  0.00000000000E+00 -0.80168000458E+03  0.13557847102E+04  0.10933715519E+04 0.  0.
        3    1    3    3  502    0  0.36678985031E+02  0.48238445367E+03 -0.71655481317E+03  0.86457557192E+03  0.10100000352E+00 0. -1.
       -3    1    3    3    0  502 -0.36678985031E+02 -0.48238445367E+03 -0.85125191409E+02  0.49120913824E+03  0.10100000352E+00 0.  1.
</event>
<event>
 5   0  0.1028016E-02  0.1103345E+04  0.7818609E-02  0.9201937E-01
       -2   -1    0    0    0  501  0.00000000000E+00  0.00000000000E+00  0.13963367044E+03  0.13963367046E+03  0.25500000920E-02 0. -1.
        2   -1    0    0  501    0  0.00000000000E+00  0.00000000000E+00 -0.21795798155E+04  0.21795798155E+04  0.25500000920E-02 0.  1.
    10030    2    1    2    0    0  0.00000000000E+00  0.00000000000E+00 -0.20399461450E+04  0.23192134859E+04  0.11033453307E+04 0.  0.
        2    1    3    3  502    0 -0.21704616401E+03 -0.48535155048E+03 -0.71056309207E+03  0.88745426512E+03  0.25500000920E-02 0. -1.
       -2    1    3    3    0  502  0.21704616401E+03  0.48535155048E+03 -0.13293830530E+04  0.14317592208E+04  0.25500000920E-02 0.  1.
</event>
<event>
 5   0  0.9719260E-03  0.9997736E+03  0.7818609E-02  0.9308793E-01
       -2   -1    0    0    0  501  0.00000000000E+00  0.00000000000E+00  0.23384956009E+03  0.23384956011E+03  0.25500000920E-02 0.  1.
        2   -1    0    0  501    0  0.00000000000E+00  0.00000000000E+00 -0.10685794014E+04  0.10685794014E+04  0.25500000920E-02 0. -1.
    10030    2    1    2    0    0  0.00000000000E+00  0.00000000000E+00 -0.83472984126E+03  0.13024289615E+04  0.99977362026E+03 0.  0.
        3    1    3    3  502    0  0.20635587648E+03 -0.45050584681E+03 -0.33145873139E+03  0.59615699827E+03  0.10100000352E+00 0. -1.
       -3    1    3    3    0  502 -0.20635587648E+03  0.45050584681E+03 -0.50327110987E+03  0.70627196320E+03  0.10100000352E+00 0.  1.
</event>
<event>
 5   0  0.1028016E-02  0.1084583E+04  0.7818609E-02  0.9220350E-01
       -2   -1    0    0    0  501  0.00000000000E+00  0.00000000000E+00  0.21956969211E+03  0.21956969212E+03  0.25500000920E-02 0. -1.
        2   -1    0    0  501    0  0.00000000000E+00  0.00000000000E+00 -0.13393465042E+04  0.13393465042E+04  0.25500000920E-02 0.  1.
    10030    2    1    2    0    0  0.00000000000E+00  0.00000000000E+00 -0.11197768121E+04  0.15589161963E+04  0.10845826839E+04 0.  0.
        2    1    3    3  502    0 -0.39308453135E+03  0.72029078409E+02 -0.32996676286E+02  0.40098929858E+03  0.25500000920E-02 0. -1.
       -2    1    3    3    0  502  0.39308453135E+03 -0.72029078409E+02 -0.10867801358E+04  0.11579268977E+04  0.25500000920E-02 0.  1.
</event>
<event>
 5   0  0.1028016E-02  0.1114330E+04  0.7818609E-02  0.9191336E-01
       -2   -1    0    0    0  501  0.00000000000E+00  0.00000000000E+00  0.26444268434E+03  0.26444268435E+03  0.25500000920E-02 0. -1.
        2   -1    0    0  501    0  0.00000000000E+00  0.00000000000E+00 -0.11739133686E+04  0.11739133686E+04  0.25500000920E-02 0.  1.
    10030    2    1    2    0    0  0.00000000000E+00  0.00000000000E+00 -0.90947068425E+03  0.14383560529E+04  0.11143299375E+04 0.  0.
        2    1    3    3  502    0  0.48858870996E+03 -0.26289420333E+03 -0.38891167127E+03  0.67755780396E+03  0.25500000920E-02 0. -1.
       -2    1    3    3    0  502 -0.48858870996E+03  0.26289420333E+03 -0.52055901298E+03  0.76079824898E+03  0.25500000920E-02 0.  1.
</event>
<event>
 5   0  0.5712664E-03  0.7241600E+03  0.7818609E-02  0.9676785E-01
       -1   -1    0    0    0  501  0.00000000000E+00  0.00000000000E+00  0.19394586455E+03  0.19394586462E+03  0.50400001928E-02 0. -1.
        1   -1    0    0  501    0  0.00000000000E+00  0.00000000000E+00 -0.67597169890E+03  0.67597169892E+03  0.50400001928E-02 0.  1.
    10030    2    1    2    0    0  0.00000000000E+00  0.00000000000E+00 -0.48202583435E+03  0.86991756354E+03  0.72415997015E+03 0.  0.
        5    1    3    3  502    0  0.28690163950E+03 -0.14951233954E+03 -0.45779027845E+02  0.32677867098E+03  0.46999998093E+01 0. -1.
       -5    1    3    3    0  502 -0.28690163950E+03  0.14951233954E+03 -0.43624680651E+03  0.54313889256E+03  0.46999998093E+01 0.  1.
</event>
<event>
 5   0  0.5854579E-03  0.1082972E+04  0.7818609E-02  0.9221949E-01
       -1   -1    0    0    0  501  0.00000000000E+00  0.00000000000E+00  0.42485703590E+03  0.42485703593E+03  0.50400001928E-02 0. -1.
        1   -1    0    0  501    0  0.00000000000E+00  0.00000000000E+00 -0.69013104092E+03  0.69013104094E+03  0.50400001928E-02 0.  1.
    10030    2    1    2    0    0  0.00000000000E+00  0.00000000000E+00 -0.26527400502E+03  0.11149880769E+04  0.10829718897E+04 0.  0.
        4    1    3    3  502    0  0.23898841848E+03 -0.36394748086E+03 -0.46407352357E+03  0.63634823892E+03  0.12699999809E+01 0.  1.
       -4    1    3    3    0  502 -0.23898841848E+03  0.36394748086E+03  0.19879951855E+03  0.47863983795E+03  0.12699999809E+01 0. -1.
</event>
<event>
 5   0  0.1028016E-02  0.1103347E+04  0.7818609E-02  0.9201936E-01
       -2   -1    0    0    0  501  0.00000000000E+00  0.00000000000E+00  0.13957262181E+03  0.13957262184E+03  0.25500000920E-02 0.  1.
        2   -1    0    0  501    0  0.00000000000E+00  0.00000000000E+00 -0.21805403167E+04  0.21805403167E+04  0.25500000920E-02 0. -1.
    10030    2    1    2    0    0  0.00000000000E+00  0.00000000000E+00 -0.20409676949E+04  0.23201129385E+04  0.11033471421E+04 0.  0.
        2    1    3    3  502    0 -0.16261513803E+02 -0.41175753188E+03 -0.24919928860E+03  0.48156929651E+03  0.25500000920E-02 0.  1.
       -2    1    3    3    0  502  0.16261513803E+02  0.41175753188E+03 -0.17917684063E+04  0.18385436420E+04  0.25500000920E-02 0. -1.
</event>
<event>
 5   0  0.1028016E-02  0.1097582E+04  0.7818609E-02  0.9207551E-01
       -2   -1    0    0    0  501  0.00000000000E+00  0.00000000000E+00  0.66875712249E+03  0.66875712249E+03  0.25500000920E-02 0.  1.
        2   -1    0    0  501    0  0.00000000000E+00  0.00000000000E+00 -0.45034553670E+03  0.45034553671E+03  0.25500000920E-02 0. -1.
    10030    2    1    2    0    0  0.00000000000E+00  0.00000000000E+00  0.21841158579E+03  0.11191026592E+04  0.10975824074E+04 0.  0.
        2    1    3    3  502    0  0.21887905567E+03  0.19412969402E+03  0.58261250526E+03  0.65194456084E+03  0.25500000920E-02 0.  1.
       -2    1    3    3    0  502 -0.21887905567E+03 -0.19412969402E+03 -0.36420091948E+03  0.46715809836E+03  0.25500000920E-02 0. -1.
</event>
<event>
 5   0  0.5712664E-03  0.1099640E+04  0.7818609E-02  0.9205543E-01
        1   -1    0    0  501    0  0.00000000000E+00  0.00000000000E+00  0.27306091019E+03  0.27306091024E+03  0.50400001928E-02 0. -1.
       -1   -1    0    0    0  501  0.00000000000E+00  0.00000000000E+00 -0.11070863107E+04  0.11070863107E+04  0.50400001928E-02 0.  1.
    10030    2    1    2    0    0  0.00000000000E+00  0.00000000000E+00 -0.83402540052E+03  0.13801472210E+04  0.10996399333E+04 0.  0.
        5    1    3    3  502    0 -0.46546815916E+03 -0.14709835169E+03 -0.73448196909E+03  0.88192084972E+03  0.46999998093E+01 0.  1.
       -5    1    3    3    0  502  0.46546815916E+03  0.14709835169E+03 -0.99543431431E+02  0.49822637124E+03  0.46999998093E+01 0. -1.
</event>
<event>
 5   0  0.9719260E-03  0.1095834E+04  0.7818609E-02  0.9209262E-01
       -2   -1    0    0    0  501  0.00000000000E+00  0.00000000000E+00  0.24739439272E+03  0.24739439273E+03  0.25500000920E-02 0.  1.
        2   -1    0    0  501    0  0.00000000000E+00  0.00000000000E+00 -0.12134987868E+04  0.12134987868E+04  0.25500000920E-02 0. -1.
    10030    2    1    2    0    0  0.00000000000E+00  0.00000000000E+00 -0.96610439407E+03  0.14608931795E+04  0.10958335557E+04 0.  0.
        3    1    3    3  502    0 -0.18264878975E+03 -0.37447296348E+03 -0.95743485236E+03  0.10441609490E+04  0.10100000352E+00 0. -1.
       -3    1    3    3    0  502  0.18264878975E+03  0.37447296348E+03 -0.86695417100E+01  0.41673223049E+03  0.10100000352E+00 0.  1.
</event>
<event>
 5   0  0.9692981E-03  0.1058124E+04  0.7818609E-02  0.9246996E-01
       -2   -1    0    0    0  501  0.00000000000E+00  0.00000000000E+00  0.46192936597E+03  0.46192936598E+03  0.25500000920E-02 0. -1.
        2   -1    0    0  501    0  0.00000000000E+00  0.00000000000E+00 -0.60595145958E+03  0.60595145959E+03  0.25500000920E-02 0.  1.
    10030    2    1    2    0    0  0.00000000000E+00  0.00000000000E+00 -0.14402209361E+03  0.10678808256E+04  0.10581243283E+04 0.  0.
        5    1    3    3  502    0  0.78241457469E+02 -0.36363823452E+03  0.30766276031E+03  0.48273487067E+03  0.46999998093E+01 0. -1.
       -5    1    3    3    0  502 -0.78241457469E+02  0.36363823452E+03 -0.45168485392E+03  0.58514595490E+03  0.46999998093E+01 0.  1.
</event>
<event>
 5   0  0.5854579E-03  0.1063643E+04  0.7818609E-02  0.9241371E-01
       -1   -1    0    0    0  501  0.00000000000E+00  0.00000000000E+00  0.95532368441E+03  0.95532368442E+03  0.50400001928E-02 0.  1.
        1   -1    0    0  501    0  0.00000000000E+00  0.00000000000E+00 -0.29606108863E+03  0.29606108867E+03  0.50400001928E-02 0. -1.
    10030    2    1    2    0    0  0.00000000000E+00  0.00000000000E+00  0.65926259578E+03  0.12513847731E+04  0.10636431169E+04 0.  0.
        4    1    3    3  502    0 -0.49850873820E+03  0.15519049946E+03  0.21059155684E+03  0.56297910254E+03  0.12699999809E+01 0. -1.
       -4    1    3    3    0  502  0.49850873820E+03 -0.15519049946E+03  0.44867103894E+03  0.68840567056E+03  0.12699999809E+01 0.  1.
</event>
<event>
 5   0  0.1028016E-02  0.1086657E+04  0.7818609E-02  0.9218295E-01
       -2   -1    0    0    0  501  0.00000000000E+00  0.00000000000E+00  0.14014636644E+03  0.14014636646E+03  0.25500000920E-02 0.  1.
        2   -1    0    0  501    0  0.00000000000E+00  0.00000000000E+00 -0.21064125967E+04  0.21064125967E+04  0.25500000920E-02 0. -1.
    10030    2    1    2    0    0  0.00000000000E+00  0.00000000000E+00 -0.19662662303E+04  0.22465589632E+04  0.10866573916E+04 0.  0.
        2    1    3    3  502    0 -0.18211873361E+02  0.45897356774E+03 -0.38316692520E+03  0.59816828801E+03  0.25500000920E-02 0.  1.
       -2    1    3    3    0  502  0.18211873361E+02 -0.45897356774E+03 -0.15830993051E+04  0.16483906752E+04  0.25500000920E-02 0. -1.
</event>
<event>
 5   0  0.9719260E-03  0.1089142E+04  0.7818609E-02  0.9215840E-01
       -2   -1    0    0    0  501  0.00000000000E+00  0.00000000000E+00  0.55725849801E+03  0.55725849802E+03  0.25500000920E-02 0.  1.
        2   -1    0    0  501    0  0.00000000000E+00  0.00000000000E+00 -0.53217227639E+03  0.53217227639E+03  0.25500000920E-02 0. -1.
    10030    2    1    2    0    0  0.00000000000E+00  0.00000000000E+00  0.25086221626E+02  0.10894307744E+04  0.10891419071E+04 0.  0.
        3    1    3    3  502    0 -0.20148778854E+03  0.27029225354E+02 -0.49279342025E+03  0.53307904967E+03  0.10100000352E+00 0. -1.
       -3    1    3    3    0  502  0.20148778854E+03 -0.27029225354E+02  0.51787964188E+03  0.55635172474E+03  0.10100000352E+00 0.  1.
</event>
<event>
 5   0  0.9692981E-03  0.1129478E+04  0.7818609E-02  0.9176928E-01
       -2   -1    0    0    0  501  0.00000000000E+00  0.00000000000E+00  0.85299511391E+03  0.85299511391E+03  0.25500000920E-02 0.  1.
        2   -1    0    0  501    0  0.00000000000E+00  0.00000000000E+00 -0.37389429000E+03  0.37389429001E+03  0.25500000920E-02 0. -1.
    10030    2    1    2    0    0  0.00000000000E+00  0.00000000000E+00  0.47910082391E+03  0.12268894039E+04  0.11294777598E+04 0.  0.
        5    1    3    3  502    0 -0.47042181530E+02  0.67615078631E+02 -0.36731267271E+03  0.37646441430E+03  0.46999998093E+01 0. -1.
       -5    1    3    3    0  502  0.47042181530E+02 -0.67615078631E+02  0.84641349662E+03  0.85042498962E+03  0.46999998093E+01 0.  1.
</event>
<event>
 5   0  0.5712664E-03  0.1150986E+04  0.7818609E-02  0.9156875E-01
        1   -1    0    0  501    0  0.00000000000E+00  0.00000000000E+00  0.53061100637E+03  0.53061100639E+03  0.50400001928E-02 0.  1.
       -1   -1    0    0    0  501  0.00000000000E+00  0.00000000000E+00 -0.62417095585E+03  0.62417095587E+03  0.50400001928E-02 0. -1.
    10030    2    1    2    0    0  0.00000000000E+00  0.00000000000E+00 -0.93559949476E+02  0.11547819623E+04  0.11509856282E+04 0.  0.
        5    1    3    3  502    0  0.30717869025E+03  0.44901719389E+03 -0.23500125803E+03  0.59264059043E+03  0.46999998093E+01 0. -1.
       -5    1    3    3    0  502 -0.30717869025E+03 -0.44901719389E+03  0.14144130855E+03  0.56214137183E+03  0.46999998093E+01 0.  1.
</event>
<event>
 5   0  0.9925021E-03  0.1131305E+04  0.7818609E-02  0.9175206E-01
       -2   -1    0    0    0  501  0.00000000000E+00  0.00000000000E+00  0.50476895725E+03  0.50476895725E+03  0.25500000920E-02 0.  1.
        2   -1    0    0  501    0  0.00000000000E+00  0.00000000000E+00 -0.63387960506E+03  0.63387960507E+03  0.25500000920E-02 0. -1.
    10030    2    1    2    0    0  0.00000000000E+00  0.00000000000E+00 -0.12911064782E+03  0.11386485623E+04  0.11313049938E+04 0.  0.
        4    1    3    3  502    0 -0.11112092083E+03 -0.55361900068E+03 -0.98228095734E+02  0.57314241568E+03  0.12699999809E+01 0.  1.
       -4    1    3    3    0  502  0.11112092083E+03  0.55361900068E+03 -0.30882552082E+02  0.56550614664E+03  0.12699999809E+01 0. -1.
</event>
<event>
 5   0  0.5998641E-03  0.1091963E+04  0.7818609E-02  0.9213060E-01
        1   -1    0    0  501    0  0.00000000000E+00  0.00000000000E+00  0.37234922825E+03  0.37234922829E+03  0.50400001928E-02 0.  1.
       -1   -1    0    0    0  501  0.00000000000E+00  0.00000000000E+00 -0.80058193674E+03  0.80058193676E+03  0.50400001928E-02 0. -1.
    10030    2    1    2    0    0  0.00000000000E+00  0.00000000000E+00 -0.42823270849E+03  0.11729311650E+04  0.10919634908E+04 0.  0.
        3    1    3    3  502    0 -0.27792103639E+03  0.19784116440E+03 -0.67200470047E+03  0.75363887669E+03  0.10100000352E+00 0. -1.
       -3    1    3    3    0  502  0.27792103639E+03 -0.19784116440E+03  0.24377199198E+03  0.41929228836E+03  0.10100000352E+00 0.  1.
</event>
<event>
 5   0  0.5958706E-03  0.1099044E+04  0.7818609E-02  0.9206124E-01
       -1   -1    0    0    0  501  0.00000000000E+00  0.00000000000E+00  0.38292477806E+03  0.38292477809E+03  0.50400001928E-02 0.  1.
        1   -1    0    0  501    0  0.00000000000E+00  0.00000000000E+00 -0.78860052608E+03  0.78860052610E+03  0.50400001928E-02 0. -1.
    10030    2    1    2    0    0  0.00000000000E+00  0.00000000000E+00 -0.40567574802E+03  0.11715253042E+04  0.10990444603E+04 0.  0.
        2    1    3    3  502    0  0.90984197667E+02  0.53701280761E+03 -0.12513464203E+03  0.55885557920E+03  0.25500000920E-02 0.  1.
       -2    1    3    3    0  502 -0.90984197667E+02 -0.53701280761E+03 -0.28054110599E+03  0.61266972499E+03  0.25500000920E-02 0. -1.
</event>
<event>
 5   0  0.1028016E-02  0.1113464E+04  0.7818609E-02  0.9192168E-01
        2   -1    0    0  501    0  0.00000000000E+00  0.00000000000E+00  0.17191251231E+04  0.17191251231E+04  0.25500000920E-02 0.  1.
       -2   -1    0    0    0  501  0.00000000000E+00  0.00000000000E+00 -0.18029538210E+03  0.18029538212E+03  0.25500000920E-02 0. -1.
    10030    2    1    2    0    0  0.00000000000E+00  0.00000000000E+00  0.15388297410E+04  0.18994205052E+04  0.11134636428E+04 0.  0.
        2    1    3    3  502    0  0.40656080991E+03  0.18048209784E+03  0.19830650510E+03  0.48702253517E+03  0.25500000920E-02 0. -1.
       -2    1    3    3    0  502 -0.40656080991E+03 -0.18048209784E+03  0.13405232359E+04  0.14123979700E+04  0.25500000920E-02 0.  1.
</event>
<event>
 5   0  0.9719260E-03  0.1136130E+04  0.7818609E-02  0.9170675E-01
       -2   -1    0    0    0  501  0.00000000000E+00  0.00000000000E+00  0.15596892567E+03  0.15596892569E+03  0.25500000920E-02 0.  1.
        2   -1    0    0  501    0  0.00000000000E+00  0.00000000000E+00 -0.20689896881E+04  0.20689896881E+04  0.25500000920E-02 0. -1.
    10030    2    1    2    0    0  0.00000000000E+00  0.00000000000E+00 -0.19130207624E+04  0.22249586138E+04  0.11361304483E+04 0.  0.
        3    1    3    3  502    0  0.45912252642E+03  0.11605981115E+03 -0.15709339711E+04  0.16407610812E+04  0.10100000352E+00 0. -1.
       -3    1    3    3    0  502 -0.45912252642E+03 -0.11605981115E+03 -0.34208679136E+03  0.58419753256E+03  0.10100000352E+00 0.  1.
</event>
<event>
 5   0  0.5854579E-03  0.1130939E+04  0.7818609E-02  0.9175550E-01
        1   -1    0    0  501    0  0.00000000000E+00  0.00000000000E+00  0.78767728007E+03  0.78767728009E+03  0.50400001928E-02 0. -1.
       -1   -1    0    0    0  501  0.00000000000E+00  0.00000000000E+00 -0.40594778643E+03  0.40594778646E+03  0.50400001928E-02 0.  1.
    10030    2    1    2    0    0  0.00000000000E+00  0.00000000000E+00  0.38172949364E+03  0.11936250666E+04  0.11309391642E+04 0.  0.
        4    1    3    3  502    0 -0.44909736291E+03  0.31693902358E+03  0.50784934982E+02  0.55201404743E+03  0.12699999809E+01 0.  1.
       -4    1    3    3    0  502  0.44909736291E+03 -0.31693902358E+03  0.33094455866E+03  0.64161101912E+03  0.12699999809E+01 0. -1.
</event>
<event>
 5   0  0.9719260E-03  0.1046400E+04  0.7818609E-02  0.9259068E-01
       -2   -1    0    0    0  501  0.00000000000E+00  0.00000000000E+00  0.45759386854E+03  0.45759386855E+03  0.25500000920E-02 0. -1.
        2   -1    0    0  501    0  0.00000000000E+00  0.00000000000E+00 -0.59821260597E+03  0.59821260598E+03  0.25500000920E-02 0.  1.
    10030    2    1    2    0    0  0.00000000000E+00  0.00000000000E+00 -0.14061873743E+03  0.10558064745E+04  0.10464003451E+04 0.  0.
        3    1    3    3  502    0  0.69092316843E+02  0.42353669293E+03  0.23168246852E+03  0.48768212488E+03  0.10100000352E+00 0. -1.
       -3    1    3    3    0  502 -0.69092316843E+02 -0.42353669293E+03 -0.37230120595E+03  0.56812434964E+03  0.10100000352E+00 0.  1.
</event>
<event>
 5   0  0.3949750E-03  0.1216287E+04  0.7818609E-02  0.9098719E-01
       -3   -1    0    0    0  501  0.00000000000E+00  0.00000000000E+00  0.19238844497E+03  0.19238847149E+03  0.10100000352E+00 0. -1.
        3   -1    0    0  501    0  0.00000000000E+00  0.00000000000E+00 -0.19223530528E+04  0.19223530555E+04  0.10100000352E+00 0.  1.
    10030    2    1    2    0    0  0.00000000000E+00  0.00000000000E+00 -0.17299646079E+04  0.21147415270E+04  0.12162870473E+04 0.  0.
        3    1    3    3  502    0 -0.30740048387E+03  0.75731005227E+01  0.47266649330E+02  0.31110537712E+03  0.10100000352E+00 0. -1.
       -3    1    3    3    0  502  0.30740048387E+03 -0.75731005227E+01 -0.17772312572E+04  0.18036361499E+04  0.10100000352E+00 0.  1.
</event>
<event>
 5   0  0.5789905E-03  0.1111819E+04  0.7818609E-02  0.9193748E-01
        1   -1    0    0  501    0  0.00000000000E+00  0.00000000000E+00  0.64786950022E+03  0.64786950024E+03  0.50400001928E-02 0.  1.
       -1   -1    0    0    0  501  0.00000000000E+00  0.00000000000E+00 -0.47700278840E+03  0.47700278842E+03  0.50400001928E-02 0. -1.
    10030    2    1    2    0    0  0.00000000000E+00  0.00000000000E+00  0.17086671182E+03  0.11248722887E+04  0.11118193345E+04 0.  0.
        1    1    3    3  502    0 -0.12483009190E+03  0.20178247892E+03  0.59406487509E+03  0.63969664411E+03  0.50400001928E-02 0.  1.
       -1    1    3    3    0  502  0.12483009190E+03 -0.20178247892E+03 -0.42319816327E+03  0.48517564455E+03  0.50400001928E-02 0. -1.
</event>
<event>
 5   0  0.1028016E-02  0.1088278E+04  0.7818609E-02  0.9216693E-01
       -2   -1    0    0    0  501  0.00000000000E+00  0.00000000000E+00  0.20867896475E+03  0.20867896477E+03  0.25500000920E-02 0. -1.
        2   -1    0    0  501    0  0.00000000000E+00  0.00000000000E+00 -0.14188643796E+04  0.14188643796E+04  0.25500000920E-02 0.  1.
    10030    2    1    2    0    0  0.00000000000E+00  0.00000000000E+00 -0.12101854149E+04  0.16275433444E+04  0.10882778136E+04 0.  0.
        2    1    3    3  502    0 -0.48393203655E+03  0.24240472413E+03 -0.68885373359E+03  0.87605349869E+03  0.25500000920E-02 0. -1.
       -2    1    3    3    0  502  0.48393203655E+03 -0.24240472413E+03 -0.52133168128E+03  0.75148984570E+03  0.25500000920E-02 0.  1.
</event>
<event>
 5   0  0.9719260E-03  0.1041015E+04  0.7818609E-02  0.9264670E-01
       -2   -1    0    0    0  501  0.00000000000E+00  0.00000000000E+00  0.22425413766E+03  0.22425413768E+03  0.25500000920E-02 0. -1.
        2   -1    0    0  501    0  0.00000000000E+00  0.00000000000E+00 -0.12081295917E+04  0.12081295917E+04  0.25500000920E-02 0.  1.
    10030    2    1    2    0    0  0.00000000000E+00  0.00000000000E+00 -0.98387545405E+03  0.14323837294E+04  0.10410150043E+04 0.  0.
        3    1    3    3  502    0 -0.62974633913E+02  0.51666969207E+03 -0.49720859441E+03  0.71981231705E+03  0.10100000352E+00 0.  1.
       -3    1    3    3    0  502  0.62974633913E+02 -0.51666969207E+03 -0.48666685964E+03  0.71257141235E+03  0.10100000352E+00 0. -1.
</event>
<event>
 5   0  0.1019384E-02  0.9969951E+03  0.7818609E-02  0.9311847E-01
       -2   -1    0    0    0  501  0.00000000000E+00  0.00000000000E+00  0.13764513693E+03  0.13764513695E+03  0.25500000920E-02 0. -1.
        2   -1    0    0  501    0  0.00000000000E+00  0.00000000000E+00 -0.18053658264E+04  0.18053658264E+04  0.25500000920E-02 0.  1.
    10030    2    1    2    0    0  0.00000000000E+00  0.00000000000E+00 -0.16677206895E+04  0.19430109634E+04  0.99699513821E+03 0.  0.
        1    1    3    3  502    0 -0.43062200118E+03  0.12400869806E+03 -0.12594384758E+04  0.13367867217E+04  0.50400001928E-02 0.  1.
       -1    1    3    3    0  502  0.43062200118E+03 -0.12400869806E+03 -0.40828221370E+03  0.60622424163E+03  0.50400001928E-02 0. -1.
</event>
<event>
 5   0  0.5854579E-03  0.1107748E+04  0.7818609E-02  0.9197673E-01
        1   -1    0    0  501    0  0.00000000000E+00  0.00000000000E+00  0.42521559554E+03  0.42521559557E+03  0.50400001928E-02 0. -1.
       -1   -1    0    0    0  501  0.00000000000E+00  0.00000000000E+00 -0.72146127417E+03  0.72146127419E+03  0.50400001928E-02 0.  1.
    10030    2    1    2    0    0  0.00000000000E+00  0.00000000000E+00 -0.29624567863E+03  0.11466768698E+04  0.11077483205E+04 0.  0.
        4    1    3    3  502    0 -0.31091455955E+03  0.75731838036E+02  0.31983899502E+03  0.45243979740E+03  0.12699999809E+01 0. -1.
       -4    1    3    3    0  502  0.31091455955E+03 -0.75731838036E+02 -0.61608467365E+03  0.69423707236E+03  0.12699999809E+01 0.  1.
</event>
<event>
 5   0  0.9719260E-03  0.1127124E+04  0.7818609E-02  0.9179151E-01
        2   -1    0    0  501    0  0.00000000000E+00  0.00000000000E+00  0.19976382471E+04  0.19976382471E+04  0.25500000920E-02 0.  1.
       -2   -1    0    0    0  501  0.00000000000E+00  0.00000000000E+00 -0.15898885576E+03  0.15898885578E+03  0.25500000920E-02 0. -1.
    10030    2    1    2    0    0  0.00000000000E+00  0.00000000000E+00  0.18386493913E+04  0.21566271028E+04  0.11271241620E+04 0.  0.
        3    1    3    3  502    0  0.84439116040E+02  0.22871840855E+02 -0.14591785370E+03  0.17013264134E+03  0.10100000352E+00 0. -1.
       -3    1    3    3    0  502 -0.84439116040E+02 -0.22871840855E+02  0.19845672450E+04  0.19864944615E+04  0.10100000352E+00 0.  1.
</event>
<event>
 5   0  0.5854579E-03  0.1096635E+04  0.7818609E-02  0.9208478E-01
       -1   -1    0    0    0  501  0.00000000000E+00  0.00000000000E+00  0.39885896640E+03  0.39885896643E+03  0.50400001928E-02 0. -1.
        1   -1    0    0  501    0  0.00000000000E+00  0.00000000000E+00 -0.75378071938E+03  0.75378071940E+03  0.50400001928E-02 0.  1.
    10030    2    1    2    0    0  0.00000000000E+00  0.00000000000E+00 -0.35492175298E+03  0.11526396858E+04  0.10966352149E+04 0.  0.
        4    1    3    3  502    0 -0.48942991263E+03  0.13030977450E+03  0.43334524787E+02  0.50833234271E+03  0.12699999809E+01 0. -1.
       -4    1    3    3    0  502  0.48942991263E+03 -0.13030977450E+03 -0.39825627777E+03  0.64430734311E+03  0.12699999809E+01 0.  1.
</event>
<event>
 5   0  0.9692981E-03  0.1146513E+04  0.7818609E-02  0.9161007E-01
       -2   -1    0    0    0  501  0.00000000000E+00  0.00000000000E+00  0.36692509287E+03  0.36692509288E+03  0.25500000920E-02 0. -1.
        2   -1    0    0  501    0  0.00000000000E+00  0.00000000000E+00 -0.89561320418E+03  0.89561320418E+03  0.25500000920E-02 0.  1.
    10030    2    1    2    0    0  0.00000000000E+00  0.00000000000E+00 -0.52868811130E+03  0.12625382971E+04  0.11465129012E+04 0.  0.
        5    1    3    3  502    0  0.12073536397E+03 -0.51214757689E+03 -0.51480002936E+03  0.73614762708E+03  0.46999998093E+01 0.  1.
       -5    1    3    3    0  502 -0.12073536397E+03  0.51214757689E+03 -0.13888081940E+02  0.52639066998E+03  0.46999998093E+01 0. -1.
</event>
<event>
 5   0  0.5854579E-03  0.1097403E+04  0.7818609E-02  0.9207726E-01
       -1   -1    0    0    0  501  0.00000000000E+00  0.00000000000E+00  0.33565843755E+03  0.33565843759E+03  0.50400001928E-02 0.  1.
        1   -1    0    0  501    0  0.00000000000E+00  0.00000000000E+00 -0.89696418674E+03  0.89696418675E+03  0.50400001928E-02 0. -1.
    10030    2    1    2    0    0  0.00000000000E+00  0.00000000000E+00 -0.56130574919E+03  0.12326226243E+04  0.10974034764E+04 0.  0.
        4    1    3    3  502    0  0.12323563674E+03 -0.50144203006E+02  0.31726445069E+03  0.34403460266E+03  0.12699999809E+01 0.  1.
       -4    1    3    3    0  502 -0.12323563674E+03  0.50144203006E+02 -0.87857019988E+03  0.88858802168E+03  0.12699999809E+01 0. -1.
</event>
<event>
 5   0  0.5998641E-03  0.1045923E+04  0.7818609E-02  0.9259564E-01
       -1   -1    0    0    0  501  0.00000000000E+00  0.00000000000E+00  0.69878076302E+03  0.69878076304E+03  0.50400001928E-02 0. -1.
        1   -1    0    0  501    0  0.00000000000E+00  0.00000000000E+00 -0.39137962431E+03  0.39137962434E+03  0.50400001928E-02 0.  1.
    10030    2    1    2    0    0  0.00000000000E+00  0.00000000000E+00  0.30740113871E+03  0.10901603874E+04  0.10459226597E+04 0.  0.
        3    1    3    3  502    0 -0.39249045720E+01  0.31314570367E+03 -0.28283697047E+03  0.42198625413E+03  0.10100000352E+00 0.  1.
       -3    1    3    3    0  502  0.39249045720E+01 -0.31314570367E+03  0.59023810919E+03  0.66817413325E+03  0.10100000352E+00 0. -1.
</event>
<event>
 5   0  0.1019384E-02  0.1108404E+04  0.7818609E-02  0.9197039E-01
        2   -1    0    0  501    0  0.00000000000E+00  0.00000000000E+00  0.12383630035E+04  0.12383630035E+04  0.25500000920E-02 0.  1.
       -2   -1    0    0    0  501  0.00000000000E+00  0.00000000000E+00 -0.24802083887E+03  0.24802083888E+03  0.25500000920E-02 0. -1.
    10030    2    1    2    0    0  0.00000000000E+00  0.00000000000E+00  0.99034216466E+03  0.14863838424E+04  0.11084039534E+04 0.  0.
        1    1    3    3  502    0  0.11482045775E+03  0.20386996335E+03  0.11688790376E+04  0.11920674914E+04  0.50400001928E-02 0.  1.
       -1    1    3    3    0  502 -0.11482045775E+03 -0.20386996335E+03 -0.17853687292E+03  0.29431635104E+03  0.50400001928E-02 0. -1.
</event>
<event>
 5   0  0.9925021E-03  0.7877248E+03  0.7818609E-02  0.9577957E-01
       -2   -1    0    0    0  501  0.00000000000E+00  0.00000000000E+00  0.56832606794E+03  0.56832606794E+03  0.25500000920E-02 0.  1.
        2   -1    0    0  501    0  0.00000000000E+00  0.00000000000E+00 -0.27295523574E+03  0.27295523575E+03  0.25500000920E-02 0. -1.
    10030    2    1    2    0    0  0.00000000000E+00  0.00000000000E+00  0.29537083220E+03  0.84128130369E+03  0.78772476375E+03 0.  0.
        4    1    3    3  502    0 -0.36529942056E+03 -0.27864436701E+02 -0.67336266747E+01  0.36642468274E+03  0.12699999809E+01 0. -1.
       -4    1    3    3    0  502  0.36529942056E+03  0.27864436701E+02  0.30210445887E+03  0.47485662095E+03  0.12699999809E+01 0.  1.
</event>
<event>
 5   0  0.9719260E-03  0.9487601E+03  0.7818609E-02  0.9366601E-01
       -2   -1    0    0    0  501  0.00000000000E+00  0.00000000000E+00  0.10861953417E+03  0.10861953420E+03  0.25500000920E-02 0.  1.
        2   -1    0    0  501    0  0.00000000000E+00  0.00000000000E+00 -0.20717859053E+04  0.20717859053E+04  0.25500000920E-02 0. -1.
    10030    2    1    2    0    0  0.00000000000E+00  0.00000000000E+00 -0.19631663711E+04  0.21804054395E+04  0.94876007495E+03 0.  0.
        3    1    3    3  502    0 -0.68587058476E+02  0.31089893733E+03 -0.17897856922E+04  0.18178820556E+04  0.10100000352E+00 0. -1.
       -3    1    3    3    0  502  0.68587058476E+02 -0.31089893733E+03 -0.17338067886E+03  0.36252338383E+03  0.10100000352E+00 0.  1.
</event>
<event>
 5   0  0.5958706E-03  0.1125053E+04  0.7818609E-02  0.9181112E-01
        1   -1    0    0  501    0  0.00000000000E+00  0.00000000000E+00  0.11191521974E+04  0.11191521974E+04  0.50400001928E-02 0.  1.
       -1   -1    0    0    0  501  0.00000000000E+00  0.00000000000E+00 -0.28274634536E+03  0.28274634540E+03  0.50400001928E-02 0. -1.
    10030    2    1    2    0    0  0.00000000000E+00  0.00000000000E+00  0.83640585208E+03  0.14018985429E+04  0.11250532321E+04 0.  0.
        2    1    3    3  502    0  0.31092766217E+03  0.11605909720E+02 -0.16575946748E+03  0.35254348570E+03  0.25500000920E-02 0. -1.
       -2    1    3    3    0  502 -0.31092766217E+03 -0.11605909720E+02  0.10021653196E+04  0.10493550572E+04  0.25500000920E-02 0.  1.
</event>
<event>
 5   0  0.5958706E-03  0.1115042E+04  0.7818609E-02  0.9190654E-01
       -1   -1    0    0    0  501  0.00000000000E+00  0.00000000000E+00  0.18630558622E+03  0.18630558629E+03  0.50400001928E-02 0. -1.
        1   -1    0    0  501    0  0.00000000000E+00  0.00000000000E+00 -0.16683849449E+04  0.16683849449E+04  0.50400001928E-02 0.  1.
    10030    2    1    2    0    0  0.00000000000E+00  0.00000000000E+00 -0.14820793587E+04  0.18546905312E+04  0.11150415872E+04 0.  0.
        2    1    3    3  502    0  0.17237548755E+03 -0.51866968815E+03 -0.55808857042E+03  0.78114941372E+03  0.25500000920E-02 0. -1.
       -2    1    3    3    0  502 -0.17237548755E+03  0.51866968815E+03 -0.92399078827E+03  0.10735411175E+04  0.25500000920E-02 0.  1.
</event>
<event>
 5   0  0.9692981E-03  0.8209325E+03  0.7818609E-02  0.9530203E-01
        2   -1    0    0  501    0  0.00000000000E+00  0.00000000000E+00  0.18324235031E+04  0.18324235031E+04  0.25500000920E-02 0. -1.
       -2   -1    0    0    0  501  0.00000000000E+00  0.00000000000E+00 -0.91945193380E+02  0.91945193415E+02  0.25500000920E-02 0.  1.
    10030    2    1    2    0    0  0.00000000000E+00  0.00000000000E+00  0.17404783097E+04  0.19243686965E+04  0.82093247806E+03 0.  0.
        5    1    3    3  502    0  0.45539192317E+02 -0.32452454284E+03  0.14495296374E+04  0.14861185204E+04  0.46999998093E+01 0. -1.
       -5    1    3    3    0  502 -0.45539192317E+02  0.32452454284E+03  0.29094867228E+03  0.43825017609E+03  0.46999998093E+01 0.  1.
</event>
<event>
 5   0  0.5789905E-03  0.1091538E+04  0.7818609E-02  0.9213479E-01
        1   -1    0    0  501    0  0.00000000000E+00  0.00000000000E+00  0.16117405492E+04  0.16117405492E+04  0.50400001928E-02 0. -1.
       -1   -1    0    0    0  501  0.00000000000E+00  0.00000000000E+00 -0.18480883733E+03  0.18480883740E+03  0.50400001928E-02 0.  1.
    10030    2    1    2    0    0  0.00000000000E+00  0.00000000000E+00  0.14269317118E+04  0.17965493866E+04  0.10915381753E+04 0.  0.
        1    1    3    3  502    0 -0.43439937347E+03 -0.92540832125E+02  0.19143840516E+03  0.48364789287E+03  0.50400001928E-02 0.  1.
       -1    1    3    3    0  502  0.43439937347E+03  0.92540832125E+02  0.12354933067E+04  0.13129014937E+04  0.50400001928E-02 0. -1.
</event>
<event>
 5   0  0.9719260E-03  0.1116269E+04  0.7818609E-02  0.9189478E-01
       -2   -1    0    0    0  501  0.00000000000E+00  0.00000000000E+00  0.39866979965E+03  0.39866979966E+03  0.25500000920E-02 0. -1.
        2   -1    0    0  501    0  0.00000000000E+00  0.00000000000E+00 -0.78138422642E+03  0.78138422642E+03  0.25500000920E-02 0.  1.
    10030    2    1    2    0    0  0.00000000000E+00  0.00000000000E+00 -0.38271442677E+03  0.11800540261E+04  0.11162693098E+04 0.  0.
        3    1    3    3  502    0  0.16817579754E+02 -0.56601278372E+02  0.39535864379E+03  0.39974367178E+03  0.10100000352E+00 0. -1.
       -3    1    3    3    0  502 -0.16817579754E+02  0.56601278372E+02 -0.77807307056E+03  0.78031035431E+03  0.10100000352E+00 0.  1.
</event>
<event>
 5   0  0.3949750E-03  0.1116045E+04  0.7818609E-02  0.9189693E-01
        4   -1    0    0  501    0  0.00000000000E+00  0.00000000000E+00  0.19293531528E+03  0.19293949513E+03  0.12699999809E+01 0.  1.
       -4   -1    0    0    0  501  0.00000000000E+00  0.00000000000E+00 -0.16139328522E+04  0.16139333519E+04  0.12699999809E+01 0. -1.
    10030    2    1    2    0    0  0.00000000000E+00  0.00000000000E+00 -0.14209975369E+04  0.18068728470E+04  0.11160445714E+04 0.  0.
        4    1    3    3  502    0  0.57193523914E+02 -0.10259559324E+03  0.17269386973E+03  0.20885818267E+03  0.12699999809E+01 0.  1.
       -4    1    3    3    0  502 -0.57193523914E+02  0.10259559324E+03 -0.15936914067E+04  0.15980146644E+04  0.12699999809E+01 0. -1.
</event>
<event>
 5   0  0.5854579E-03  0.8140929E+03  0.7818609E-02  0.9539839E-01
        1   -1    0    0  501    0  0.00000000000E+00  0.00000000000E+00  0.48908377394E+03  0.48908377397E+03  0.50400001928E-02 0. -1.
       -1   -1    0    0    0  501  0.00000000000E+00  0.00000000000E+00 -0.33876977543E+03  0.33876977546E+03  0.50400001928E-02 0.  1.
    10030    2    1    2    0    0  0.00000000000E+00  0.00000000000E+00  0.15031399851E+03  0.82785354943E+03  0.81409287011E+03 0.  0.
        4    1    3    3  502    0  0.23629934008E+03  0.82761019575E+02  0.40151544146E+03  0.47318392525E+03  0.12699999809E+01 0. -1.
       -4    1    3    3    0  502 -0.23629934008E+03 -0.82761019575E+02 -0.25120144294E+03  0.35466962418E+03  0.12699999809E+01 0.  1.
</event>
<event>
 5   0  0.5712664E-03  0.1107004E+04  0.7818609E-02  0.9198392E-01
       -1   -1    0    0    0  501  0.00000000000E+00  0.00000000000E+00  0.40803965680E+03  0.40803965683E+03  0.50400001928E-02 0.  1.
        1   -1    0    0  501    0  0.00000000000E+00  0.00000000000E+00 -0.75082078115E+03  0.75082078116E+03  0.50400001928E-02 0. -1.
    10030    2    1    2    0    0  0.00000000000E+00  0.00000000000E+00 -0.34278112434E+03  0.11588604380E+04  0.11070043431E+04 0.  0.
        5    1    3    3  502    0 -0.53589196820E+03 -0.10324003843E+03 -0.26792666908E+03  0.60798478362E+03  0.46999998093E+01 0. -1.
       -5    1    3    3    0  502  0.53589196820E+03  0.10324003843E+03 -0.74854455262E+02  0.55087565437E+03  0.46999998093E+01 0.  1.
</event>
<event>
 5   0  0.9925021E-03  0.1052290E+04  0.7818609E-02  0.9252983E-01
       -2   -1    0    0    0  501  0.00000000000E+00  0.00000000000E+00  0.25699919620E+03  0.25699919621E+03  0.25500000920E-02 0. -1.
        2   -1    0    0  501    0  0.00000000000E+00  0.00000000000E+00 -0.10771569059E+04  0.10771569059E+04  0.25500000920E-02 0.  1.
    10030    2    1    2    0    0  0.00000000000E+00  0.00000000000E+00 -0.82015770968E+03  0.13341561021E+04  0.10522898061E+04 0.  0.
        4    1    3    3  502    0 -0.39866522533E+03 -0.61773700853E+02  0.18144281387E+02  0.40383261366E+03  0.12699999809E+01 0. -1.
       -4    1    3    3    0  502  0.39866522533E+03  0.61773700853E+02 -0.83830199107E+03  0.93032348844E+03  0.12699999809E+01 0.  1.
</event>
<event>
 5   0  0.5712664E-03  0.1089753E+04  0.7818609E-02  0.9215238E-01
       -1   -1    0    0    0  501  0.00000000000E+00  0.00000000000E+00  0.34826826577E+03  0.34826826580E+03  0.50400001928E-02 0. -1.
        1   -1    0    0  501    0  0.00000000000E+00  0.00000000000E+00 -0.85247557660E+03  0.85247557662E+03  0.50400001928E-02 0.  1.
    10030    2    1    2    0    0  0.00000000000E+00  0.00000000000E+00 -0.50420731084E+03  0.12007438424E+04  0.10897526154E+04 0.  0.
        5    1    3    3  502    0  0.44084505599E+03  0.30630352728E+03 -0.35488851694E+03  0.64353256613E+03  0.46999998093E+01 0. -1.
       -5    1    3    3    0  502 -0.44084505599E+03 -0.30630352728E+03 -0.14931879389E+03  0.55721127629E+03  0.46999998093E+01 0.  1.
</event>
<event>
 5   0  0.1028016E-02  0.1103606E+04  0.7818609E-02  0.9201684E-01
       -2   -1    0    0    0  501  0.00000000000E+00  0.00000000000E+00  0.18579187478E+03  0.18579187480E+03  0.25500000920E-02 0. -1.
        2   -1    0    0  501    0  0.00000000000E+00  0.00000000000E+00 -0.16388580662E+04  0.16388580662E+04  0.25500000920E-02 0.  1.
    10030    2    1    2    0    0  0.00000000000E+00  0.00000000000E+00 -0.14530661914E+04  0.18246499410E+04  0.11036059308E+04 0.  0.
        2    1    3    3  502    0  0.47987811401E+03  0.17903601267E+03 -0.10659725614E+04  0.11826387444E+04  0.25500000920E-02 0.  1.
       -2    1    3    3    0  502 -0.47987811401E+03 -0.17903601267E+03 -0.38709363002E+03  0.64201119659E+03  0.25500000920E-02 0. -1.
</event>
<event>
 5   0  0.5958706E-03  0.1123105E+04  0.7818609E-02  0.9182960E-01
       -1   -1    0    0    0  501  0.00000000000E+00  0.00000000000E+00  0.25159805467E+03  0.25159805472E+03  0.50400001928E-02 0.  1.
        1   -1    0    0  501    0  0.00000000000E+00  0.00000000000E+00 -0.12533530534E+04  0.12533530534E+04  0.50400001928E-02 0. -1.
    10030    2    1    2    0    0  0.00000000000E+00  0.00000000000E+00 -0.10017549987E+04  0.15049511081E+04  0.11231049641E+04 0.  0.
        2    1    3    3  502    0  0.10401442725E+03  0.21328851203E+03 -0.11828663024E+04  0.12064342832E+04  0.25500000920E-02 0. -1.
       -2    1    3    3    0  502 -0.10401442725E+03 -0.21328851203E+03  0.18111130364E+03  0.29851682491E+03  0.25500000920E-02 0.  1.
</event>
<event>
 5   0  0.5854579E-03  0.8434622E+03  0.7818609E-02  0.9499154E-01
       -1   -1    0    0    0  501  0.00000000000E+00  0.00000000000E+00  0.21433797957E+03  0.21433797963E+03  0.50400001928E-02 0. -1.
        1   -1    0    0  501    0  0.00000000000E+00  0.00000000000E+00 -0.82979744580E+03  0.82979744582E+03  0.50400001928E-02 0.  1.
    10030    2    1    2    0    0  0.00000000000E+00  0.00000000000E+00 -0.61545946624E+03  0.10441354254E+04  0.84346216992E+03 0.  0.
        4    1    3    3  502    0  0.19322190103E+03 -0.12242622409E+02 -0.77152870335E+03  0.79545127936E+03  0.12699999809E+01 0.  1.
       -4    1    3    3    0  502 -0.19322190103E+03  0.12242622409E+02  0.15606923711E+03  0.24868414609E+03  0.12699999809E+01 0. -1.
</event>
<event>
 5   0  0.1028016E-02  0.1132206E+04  0.7818609E-02  0.9174358E-01
        2   -1    0    0  501    0  0.00000000000E+00  0.00000000000E+00  0.13375913577E+04  0.13375913577E+04  0.25500000920E-02 0.  1.
       -2   -1    0    0    0  501  0.00000000000E+00  0.00000000000E+00 -0.23958933720E+03  0.23958933721E+03  0.25500000920E-02 0. -1.
    10030    2    1    2    0    0  0.00000000000E+00  0.00000000000E+00  0.10980020205E+04  0.15771806949E+04  0.11322060358E+04 0.  0.
        2    1    3    3  502    0 -0.10215813472E+03  0.26853071518E+03  0.12284836985E+04  0.12616327623E+04  0.25500000920E-02 0.  1.
       -2    1    3    3    0  502  0.10215813472E+03 -0.26853071518E+03 -0.13048167797E+03  0.31554793262E+03  0.25500000920E-02 0. -1.
</event>
<event>
 5   0  0.9925021E-03  0.1110086E+04  0.7818609E-02  0.9195417E-01
       -2   -1    0    0    0  501  0.00000000000E+00  0.00000000000E+00  0.31413740860E+03  0.31413740861E+03  0.25500000920E-02 0. -1.
        2   -1    0    0  501    0  0.00000000000E+00  0.00000000000E+00 -0.98069449473E+03  0.98069449473E+03  0.25500000920E-02 0.  1.
    10030    2    1    2    0    0  0.00000000000E+00  0.00000000000E+00 -0.66655708613E+03  0.12948319033E+04  0.11100861718E+04 0.  0.
        4    1    3    3  502    0  0.14802906204E+03 -0.52262925655E+03 -0.46635973342E+03  0.71592384851E+03  0.12699999809E+01 0.  1.
       -4    1    3    3    0  502 -0.14802906204E+03  0.52262925655E+03 -0.20019735271E+03  0.57890805483E+03  0.12699999809E+01 0. -1.
</event>
<event>
 5   0  0.5958706E-03  0.1054336E+04  0.7818609E-02  0.9250879E-01
       -1   -1    0    0    0  501  0.00000000000E+00  0.00000000000E+00  0.33214747490E+03  0.33214747494E+03  0.50400001928E-02 0.  1.
        1   -1    0    0  501    0  0.00000000000E+00  0.00000000000E+00 -0.83669504916E+03  0.83669504917E+03  0.50400001928E-02 0. -1.
    10030    2    1    2    0    0  0.00000000000E+00  0.00000000000E+00 -0.50454757426E+03  0.11688425241E+04  0.10543360904E+04 0.  0.
        2    1    3    3  502    0 -0.11238460615E+02  0.79888512457E+02 -0.82981102086E+03  0.83372346001E+03  0.25500000920E-02 0. -1.
       -2    1    3    3    0  502  0.11238460615E+02 -0.79888512457E+02  0.32526344661E+03  0.33511906410E+03  0.25500000920E-02 0.  1.
</event>
<event>
 5   0  0.5789905E-03  0.1082535E+04  0.7818609E-02  0.9222383E-01
        1   -1    0    0  501    0  0.00000000000E+00  0.00000000000E+00  0.69446714700E+03  0.69446714701E+03  0.50400001928E-02 0. -1.
       -1   -1    0    0    0  501  0.00000000000E+00  0.00000000000E+00 -0.42186394226E+03  0.42186394229E+03  0.50400001928E-02 0.  1.
    10030    2    1    2    0    0  0.00000000000E+00  0.00000000000E+00  0.27260320473E+03  0.11163310893E+04  0.10825352621E+04 0.  0.
        1    1    3    3  502    0 -0.36732053089E+03  0.16661072475E+03  0.50852335300E+03  0.64906047992E+03  0.50400001928E-02 0. -1.
       -1    1    3    3    0  502  0.36732053089E+03 -0.16661072475E+03 -0.23592014827E+03  0.46727060939E+03  0.50400001928E-02 0.  1.
</event>
<event>
 5   0  0.5854579E-03  0.1093745E+04  0.7818609E-02  0.9211310E-01
        1   -1    0    0  501    0  0.00000000000E+00  0.00000000000E+00  0.68822962546E+03  0.68822962547E+03  0.50400001928E-02 0. -1.
       -1   -1    0    0    0  501  0.00000000000E+00  0.00000000000E+00 -0.43454914044E+03  0.43454914047E+03  0.50400001928E-02 0.  1.
    10030    2    1    2    0    0  0.00000000000E+00  0.00000000000E+00  0.25368048502E+03  0.11227787659E+04  0.10937451114E+04 0.  0.
        4    1    3    3  502    0  0.97813434761E+02  0.40937926098E+01 -0.42547898497E+03  0.43659845019E+03  0.12699999809E+01 0.  1.
       -4    1    3    3    0  502 -0.97813434761E+02 -0.40937926098E+01  0.67915946998E+03  0.68618031575E+03  0.12699999809E+01 0. -1.
</event>
<event>
 5   0  0.9925021E-03  0.5510526E+03  0.7818609E-02  0.1001251E+00
        2   -1    0    0  501    0  0.00000000000E+00  0.00000000000E+00  0.82089891787E+03  0.82089891787E+03  0.25500000920E-02 0.  1.
       -2   -1    0    0    0  501  0.00000000000E+00  0.00000000000E+00 -0.92477565479E+02  0.92477565514E+02  0.25500000920E-02 0. -1.
    10030    2    1    2    0    0  0.00000000000E+00  0.00000000000E+00  0.72842135239E+03  0.91337648338E+03  0.55105256898E+03 0.  0.
        4    1    3    3  502    0 -0.25357279658E+03  0.94786732091E+02  0.44920459081E+03  0.52447122424E+03  0.12699999809E+01 0. -1.
       -4    1    3    3    0  502  0.25357279658E+03 -0.94786732091E+02  0.27921676157E+03  0.38890525915E+03  0.12699999809E+01 0.  1.
</event>
<event>
 5   0  0.5998641E-03  0.1103012E+04  0.7818609E-02  0.9202261E-01
       -1   -1    0    0    0  501  0.00000000000E+00  0.00000000000E+00  0.51874951311E+03  0.51874951314E+03  0.50400001928E-02 0.  1.
        1   -1    0    0  501    0  0.00000000000E+00  0.00000000000E+00 -0.58633123649E+03  0.58633123651E+03  0.50400001928E-02 0. -1.
    10030    2    1    2    0    0  0.00000000000E+00  0.00000000000E+00 -0.67581723374E+02  0.11050807496E+04  0.11030123181E+04 0.  0.
        3    1    3    3  502    0  0.34743540304E+03 -0.31628449213E+03 -0.32314345707E+03  0.57023586637E+03  0.10100000352E+00 0. -1.
       -3    1    3    3    0  502 -0.34743540304E+03  0.31628449213E+03  0.25556173369E+03  0.53484488328E+03  0.10100000352E+00 0.  1.
</event>
<event>
 5   0  0.5789905E-03  0.1107648E+04  0.7818609E-02  0.9197769E-01
        1   -1    0    0  501    0  0.00000000000E+00  0.00000000000E+00  0.65005166127E+03  0.65005166129E+03  0.50400001928E-02 0.  1.
       -1   -1    0    0    0  501  0.00000000000E+00  0.00000000000E+00 -0.47184130225E+03  0.47184130228E+03  0.50400001928E-02 0. -1.
    10030    2    1    2    0    0  0.00000000000E+00  0.00000000000E+00  0.17821035902E+03  0.11218929636E+04  0.11076483601E+04 0.  0.
        1    1    3    3  502    0 -0.17932697757E+03 -0.40618792391E+03 -0.24617209804E+03  0.50768838503E+03  0.50400001928E-02 0. -1.
       -1    1    3    3    0  502  0.17932697757E+03  0.40618792391E+03  0.42438245706E+03  0.61420457854E+03  0.50400001928E-02 0.  1.
</event>
<event>
 5   0  0.5789905E-03  0.1101485E+04  0.7818609E-02  0.9203745E-01
        1   -1    0    0  501    0  0.00000000000E+00  0.00000000000E+00  0.10375128733E+04  0.10375128733E+04  0.50400001928E-02 0. -1.
       -1   -1    0    0    0  501  0.00000000000E+00  0.00000000000E+00 -0.29235062690E+03  0.29235062695E+03  0.50400001928E-02 0.  1.
    10030    2    1    2    0    0  0.00000000000E+00  0.00000000000E+00  0.74516224636E+03  0.13298635002E+04  0.11014854315E+04 0.  0.
        1    1    3    3  502    0 -0.41338613901E+03 -0.30747333507E+03  0.60759215324E+03  0.79661545077E+03  0.50400001928E-02 0. -1.
       -1    1    3    3    0  502  0.41338613901E+03  0.30747333507E+03  0.13757009313E+03  0.53324804946E+03  0.50400001928E-02 0.  1.
</event>
<event>
 5   0  0.9925021E-03  0.1148440E+04  0.7818609E-02  0.9159224E-01
       -2   -1    0    0    0  501  0.00000000000E+00  0.00000000000E+00  0.45494486187E+03  0.45494486188E+03  0.25500000920E-02 0. -1.
        2   -1    0    0  501    0  0.00000000000E+00  0.00000000000E+00 -0.72476631379E+03  0.72476631380E+03  0.25500000920E-02 0.  1.
    10030    2    1    2    0    0  0.00000000000E+00  0.00000000000E+00 -0.26982145192E+03  0.11797111757E+04  0.11484401779E+04 0.  0.
        4    1    3    3  502    0 -0.56974872523E+03  0.10660969300E+02 -0.62275883653E+02  0.57324267528E+03  0.12699999809E+01 0. -1.
       -4    1    3    3    0  502  0.56974872523E+03 -0.10660969300E+02 -0.20754556827E+03  0.60646850040E+03  0.12699999809E+01 0.  1.
</event>
<event>
 5   0  0.9719260E-03  0.1103988E+04  0.7818609E-02  0.9201314E-01
       -2   -1    0    0    0  501  0.00000000000E+00  0.00000000000E+00  0.34109306732E+03  0.34109306733E+03  0.25500000920E-02 0. -1.
        2   -1    0    0  501    0  0.00000000000E+00  0.00000000000E+00 -0.89329625118E+03  0.89329625118E+03  0.25500000920E-02 0.  1.
    10030    2    1    2    0    0  0.00000000000E+00  0.00000000000E+00 -0.55220318386E+03  0.12343893185E+04  0.11039876056E+04 0.  0.
        3    1    3    3  502    0  0.17832926414E+03  0.20266338567E+03  0.26225070254E+03  0.37636314315E+03  0.10100000352E+00 0. -1.
       -3    1    3    3    0  502 -0.17832926414E+03 -0.20266338567E+03 -0.81445388639E+03  0.85802617536E+03  0.10100000352E+00 0.  1.
</event>
<event>
 5   0  0.3949750E-03  0.1117225E+04  0.7818609E-02  0.9188564E-01
       -3   -1    0    0    0  501  0.00000000000E+00  0.00000000000E+00  0.31762447328E+03  0.31762448934E+03  0.10100000352E+00 0. -1.
        3   -1    0    0  501    0  0.00000000000E+00  0.00000000000E+00 -0.98244376213E+03  0.98244376733E+03  0.10100000352E+00 0.  1.
    10030    2    1    2    0    0  0.00000000000E+00  0.00000000000E+00 -0.66481928885E+03  0.13000682567E+04  0.11172254854E+04 0.  0.
        3    1    3    3  502    0 -0.14050366749E+03 -0.22529253987E+03  0.23950208079E+03  0.35757414057E+03  0.10100000352E+00 0. -1.
       -3    1    3    3    0  502  0.14050366749E+03  0.22529253987E+03 -0.90432136964E+03  0.94249411610E+03  0.10100000352E+00 0.  1.
</event>
<event>
 5   0  0.9692981E-03  0.1092366E+04  0.7818609E-02  0.9212665E-01
       -2   -1    0    0    0  501  0.00000000000E+00  0.00000000000E+00  0.57583488156E+03  0.57583488157E+03  0.25500000920E-02 0.  1.
        2   -1    0    0  501    0  0.00000000000E+00  0.00000000000E+00 -0.51805754613E+03  0.51805754613E+03  0.25500000920E-02 0. -1.
    10030    2    1    2    0    0  0.00000000000E+00  0.00000000000E+00  0.57777335435E+02  0.10938924277E+04  0.10923655171E+04 0.  0.
        5    1    3    3  502    0 -0.15818873150E+03  0.35988935573E+03 -0.35078440228E+03  0.52689259819E+03  0.46999998093E+01 0. -1.
       -5    1    3    3    0  502  0.15818873150E+03 -0.35988935573E+03  0.40856173772E+03  0.56699982951E+03  0.46999998093E+01 0.  1.
</event>
<event>
 5   0  0.9719260E-03  0.6661697E+03  0.7818609E-02  0.9776902E-01
       -2   -1    0    0    0  501  0.00000000000E+00  0.00000000000E+00  0.14671559459E+03  0.14671559462E+03  0.25500000920E-02 0.  1.
        2   -1    0    0  501    0  0.00000000000E+00  0.00000000000E+00 -0.75619454759E+03  0.75619454759E+03  0.25500000920E-02 0. -1.
    10030    2    1    2    0    0  0.00000000000E+00  0.00000000000E+00 -0.60947895299E+03  0.90291014221E+03  0.66616974621E+03 0.  0.
        3    1    3    3  502    0 -0.11006471042E+03  0.96479346869E+02  0.10079425363E+03  0.17771324267E+03  0.10100000352E+00 0.  1.
       -3    1    3    3    0  502  0.11006471042E+03 -0.96479346869E+02 -0.71027320662E+03  0.72519689954E+03  0.10100000352E+00 0. -1.
</event>
<event>
 5   0  0.5998641E-03  0.1103731E+04  0.7818609E-02  0.9201563E-01
        1   -1    0    0  501    0  0.00000000000E+00  0.00000000000E+00  0.37161126713E+03  0.37161126716E+03  0.50400001928E-02 0.  1.
       -1   -1    0    0    0  501  0.00000000000E+00  0.00000000000E+00 -0.81955338509E+03  0.81955338511E+03  0.50400001928E-02 0. -1.
    10030    2    1    2    0    0  0.00000000000E+00  0.00000000000E+00 -0.44794211796E+03  0.11911646523E+04  0.11037305322E+04 0.  0.
        3    1    3    3  502    0  0.24257753976E+03  0.49462144185E+03 -0.18881726480E+03  0.58236260459E+03  0.10100000352E+00 0. -1.
       -3    1    3    3    0  502 -0.24257753976E+03 -0.49462144185E+03 -0.25912485316E+03  0.60880204768E+03  0.10100000352E+00 0.  1.
</event>
<event>
 5   0  0.9692981E-03  0.1178579E+04  0.7818609E-02  0.9131816E-01
        2   -1    0    0  501    0  0.00000000000E+00  0.00000000000E+00  0.73657428262E+03  0.73657428262E+03  0.25500000920E-02 0.  1.
       -2   -1    0    0    0  501  0.00000000000E+00  0.00000000000E+00 -0.47145535475E+03  0.47145535476E+03  0.25500000920E-02 0. -1.
    10030    2    1    2    0    0  0.00000000000E+00  0.00000000000E+00  0.26511892786E+03  0.12080296374E+04  0.11785786180E+04 0.  0.
        5    1    3    3  502    0 -0.25792117261E+03 -0.25163272223E+03 -0.34535067676E+03  0.49913078258E+03  0.46999998093E+01 0. -1.
       -5    1    3    3    0  502  0.25792117261E+03  0.25163272223E+03  0.61046960463E+03  0.70889885481E+03  0.46999998093E+01 0.  1.
</event>
<event>
 5   0  0.1028016E-02  0.1117988E+04  0.7818609E-02  0.9187834E-01
       -2   -1    0    0    0  501  0.00000000000E+00  0.00000000000E+00  0.95046772515E+03  0.95046772516E+03  0.25500000920E-02 0. -1.
        2   -1    0    0  501    0  0.00000000000E+00  0.00000000000E+00 -0.32875869401E+03  0.32875869402E+03  0.25500000920E-02 0.  1.
    10030    2    1    2    0    0  0.00000000000E+00  0.00000000000E+00  0.62170903115E+03  0.12792264192E+04  0.11179884222E+04 0.  0.
        2    1    3    3  502    0 -0.16029457409E+03  0.24626659783E+02  0.92295817692E+03  0.93709797738E+03  0.25500000920E-02 0. -1.
       -2    1    3    3    0  502  0.16029457409E+03 -0.24626659783E+02 -0.30124914577E+03  0.34212844180E+03  0.25500000920E-02 0.  1.
</event>
<event>
 5   0  0.9692981E-03  0.1099546E+04  0.7818609E-02  0.9205634E-01
        2   -1    0    0  501    0  0.00000000000E+00  0.00000000000E+00  0.12193383809E+04  0.12193383809E+04  0.25500000920E-02 0.  1.
       -2   -1    0    0    0  501  0.00000000000E+00  0.00000000000E+00 -0.24788076233E+03  0.24788076234E+03  0.25500000920E-02 0. -1.
    10030    2    1    2    0    0  0.00000000000E+00  0.00000000000E+00  0.97145761861E+03  0.14672191433E+04  0.10995463199E+04 0.  0.
        5    1    3    3  502    0 -0.35441440402E+03  0.11706374873E+03 -0.52865698281E+02  0.37700180781E+03  0.46999998093E+01 0. -1.
       -5    1    3    3    0  502  0.35441440402E+03 -0.11706374873E+03  0.10243233169E+04  0.10902173355E+04  0.46999998093E+01 0.  1.
</event>
<event>
 5   0  0.5789905E-03  0.1077019E+04  0.7818609E-02  0.9227885E-01
        1   -1    0    0  501    0  0.00000000000E+00  0.00000000000E+00  0.29297760321E+03  0.29297760325E+03  0.50400001928E-02 0.  1.
       -1   -1    0    0    0  501  0.00000000000E+00  0.00000000000E+00 -0.98981092984E+03  0.98981092986E+03  0.50400001928E-02 0. -1.
    10030    2    1    2    0    0  0.00000000000E+00  0.00000000000E+00 -0.69683332663E+03  0.12827885331E+04  0.10770189114E+04 0.  0.
        1    1    3    3  502    0 -0.25373083194E+01 -0.53480982721E+03 -0.27342328479E+03  0.60065654238E+03  0.50400001928E-02 0. -1.
       -1    1    3    3    0  502  0.25373083194E+01  0.53480982721E+03 -0.42341004185E+03  0.68213199073E+03  0.50400001928E-02 0.  1.
</event>
<event>
 5   0  0.3949750E-03  0.1073100E+04  0.7818609E-02  0.9231815E-01
        3   -1    0    0  501    0  0.00000000000E+00  0.00000000000E+00  0.41127541495E+03  0.41127542735E+03  0.10100000352E+00 0. -1.
       -3   -1    0    0    0  501  0.00000000000E+00  0.00000000000E+00 -0.69998284686E+03  0.69998285415E+03  0.10100000352E+00 0.  1.
    10030    2    1    2    0    0  0.00000000000E+00  0.00000000000E+00 -0.28870743192E+03  0.11112582815E+04  0.10730997097E+04 0.  0.
        5    1    3    3  502    0  0.14472947625E+03 -0.17884741726E+03  0.35757814146E+03  0.42522610127E+03  0.46999998093E+01 0. -1.
       -5    1    3    3    0  502 -0.14472947625E+03  0.17884741726E+03 -0.64628557337E+03  0.68603218022E+03  0.46999998093E+01 0.  1.
</event>
<event>
 5   0  0.1028016E-02  0.1116175E+04  0.7818609E-02  0.9189568E-01
       -2   -1    0    0    0  501  0.00000000000E+00  0.00000000000E+00  0.44034985105E+03  0.44034985105E+03  0.25500000920E-02 0.  1.
        2   -1    0    0  501    0  0.00000000000E+00  0.00000000000E+00 -0.70730527867E+03  0.70730527868E+03  0.25500000920E-02 0. -1.
    10030    2    1    2    0    0  0.00000000000E+00  0.00000000000E+00 -0.26695542763E+03  0.11476551297E+04  0.11161752087E+04 0.  0.
        2    1    3    3  502    0 -0.87818530530E+02  0.26416392113E+03  0.36386576570E+03  0.45814077202E+03  0.25500000920E-02 0.  1.
       -2    1    3    3    0  502  0.87818530530E+02 -0.26416392113E+03 -0.63082119333E+03  0.68951435771E+03  0.25500000920E-02 0. -1.
</event>
<event>
 5   0  0.5712664E-03  0.1111731E+04  0.7818609E-02  0.9193833E-01
       -1   -1    0    0    0  501  0.00000000000E+00  0.00000000000E+00  0.10342111568E+04  0.10342111568E+04  0.50400001928E-02 0. -1.
        1   -1    0    0  501    0  0.00000000000E+00  0.00000000000E+00 -0.29876511789E+03  0.29876511793E+03  0.50400001928E-02 0.  1.
    10030    2    1    2    0    0  0.00000000000E+00  0.00000000000E+00  0.73544603893E+03  0.13329762748E+04  0.11117305757E+04 0.  0.
        5    1    3    3  502    0 -0.22770412005E+03 -0.33660478412E+03 -0.86972532949E+02  0.41561792366E+03  0.46999998093E+01 0.  1.
       -5    1    3    3    0  502  0.22770412005E+03  0.33660478412E+03  0.82241857188E+03  0.91735835111E+03  0.46999998093E+01 0. -1.
</event>
<event>
 5   0  0.5998641E-03  0.1101066E+04  0.7818609E-02  0.9204154E-01
        1   -1    0    0  501    0  0.00000000000E+00  0.00000000000E+00  0.57132470095E+03  0.57132470097E+03  0.50400001928E-02 0.  1.
       -1   -1    0    0    0  501  0.00000000000E+00  0.00000000000E+00 -0.53049786597E+03  0.53049786599E+03  0.50400001928E-02 0. -1.
    10030    2    1    2    0    0  0.00000000000E+00  0.00000000000E+00  0.40826834985E+02  0.11018225670E+04  0.11010659102E+04 0.  0.
        3    1    3    3  502    0  0.40037553585E+03 -0.28865602700E+03 -0.22360586087E+03  0.54186941494E+03  0.10100000352E+00 0. -1.
       -3    1    3    3    0  502 -0.40037553585E+03  0.28865602700E+03  0.26443269586E+03  0.55995315203E+03  0.10100000352E+00 0.  1.
</event>
<event>
 5   0  0.9925021E-03  0.1159355E+04  0.7818609E-02  0.9149196E-01
        2   -1    0    0  501    0  0.00000000000E+00  0.00000000000E+00  0.16417605444E+04  0.16417605444E+04  0.25500000920E-02 0.  1.
       -2   -1    0    0    0  501  0.00000000000E+00  0.00000000000E+00 -0.20467416601E+03  0.20467416603E+03  0.25500000920E-02 0. -1.
    10030    2    1    2    0    0  0.00000000000E+00  0.00000000000E+00  0.14370863784E+04  0.18464347104E+04  0.11593549417E+04 0.  0.
        4    1    3    3  502    0 -0.10856148195E+03  0.91550238795E+02 -0.17653919146E+03  0.22657171185E+03  0.12699999809E+01 0. -1.
       -4    1    3    3    0  502  0.10856148195E+03 -0.91550238795E+02  0.16136255699E+04  0.16198629986E+04  0.12699999809E+01 0.  1.
</event>
<event>
 5   0  0.5998641E-03  0.1094427E+04  0.7818609E-02  0.9210641E-01
       -1   -1    0    0    0  501  0.00000000000E+00  0.00000000000E+00  0.13931550225E+04  0.13931550225E+04  0.50400001928E-02 0.  1.
        1   -1    0    0  501    0  0.00000000000E+00  0.00000000000E+00 -0.21493844796E+03  0.21493844802E+03  0.50400001928E-02 0. -1.
    10030    2    1    2    0    0  0.00000000000E+00  0.00000000000E+00  0.11782165745E+04  0.16080934705E+04  0.10944269338E+04 0.  0.
        3    1    3    3  502    0  0.30983925288E+03 -0.33957345260E+03  0.15290240701E+03  0.48444777696E+03  0.10100000352E+00 0. -1.
       -3    1    3    3    0  502 -0.30983925288E+03  0.33957345260E+03  0.10253141675E+04  0.11236456936E+04  0.10100000352E+00 0.  1.
</event>
<event>
 5   0  0.5854579E-03  0.1132288E+04  0.7818609E-02  0.9174281E-01
        1   -1    0    0  501    0  0.00000000000E+00  0.00000000000E+00  0.74122471870E+03  0.74122471872E+03  0.50400001928E-02 0. -1.
       -1   -1    0    0    0  501  0.00000000000E+00  0.00000000000E+00 -0.43241824070E+03  0.43241824072E+03  0.50400001928E-02 0.  1.
    10030    2    1    2    0    0  0.00000000000E+00  0.00000000000E+00  0.30880647801E+03  0.11736429594E+04  0.11322881062E+04 0.  0.
        4    1    3    3  502    0  0.65688881824E+02  0.28026406063E+03 -0.35089999324E+03  0.45386715130E+03  0.12699999809E+01 0.  1.
       -4    1    3    3    0  502 -0.65688881824E+02 -0.28026406063E+03  0.65970647125E+03  0.71977580814E+03  0.12699999809E+01 0. -1.
</event>
<event>
 5   0  0.5998641E-03  0.1270711E+04  0.7818609E-02  0.9053120E-01
        1   -1    0    0  501    0  0.00000000000E+00  0.00000000000E+00  0.39607004958E+03  0.39607004962E+03  0.50400001928E-02 0. -1.
       -1   -1    0    0    0  501  0.00000000000E+00  0.00000000000E+00 -0.10192049016E+04  0.10192049016E+04  0.50400001928E-02 0.  1.
    10030    2    1    2    0    0  0.00000000000E+00  0.00000000000E+00 -0.62313485203E+03  0.14152749512E+04  0.12707108813E+04 0.  0.
        3    1    3    3  502    0  0.62656741076E+03  0.27416357740E+02 -0.42481149398E+03  0.75749798186E+03  0.10100000352E+00 0.  1.
       -3    1    3    3    0  502 -0.62656741076E+03 -0.27416357740E+02 -0.19832335805E+03  0.65777696938E+03  0.10100000352E+00 0. -1.
</event>
<event>
 5   0  0.9719260E-03  0.1071547E+04  0.7818609E-02  0.9233377E-01
       -2   -1    0    0    0  501  0.00000000000E+00  0.00000000000E+00  0.41175003209E+03  0.41175003210E+03  0.25500000920E-02 0.  1.
        2   -1    0    0  501    0  0.00000000000E+00  0.00000000000E+00 -0.69715387721E+03  0.69715387721E+03  0.25500000920E-02 0. -1.
    10030    2    1    2    0    0  0.00000000000E+00  0.00000000000E+00 -0.28540384512E+03  0.11089039093E+04  0.10715467910E+04 0.  0.
        3    1    3    3  502    0  0.49523511586E+03  0.20067850616E+03 -0.18309390884E+03  0.56484783125E+03  0.10100000352E+00 0. -1.
       -3    1    3    3    0  502 -0.49523511586E+03 -0.20067850616E+03 -0.10230993628E+03  0.54405607806E+03  0.10100000352E+00 0.  1.
</event>
<event>
 5   0  0.5854579E-03  0.1075477E+04  0.7818609E-02  0.9229429E-01
        1   -1    0    0  501    0  0.00000000000E+00  0.00000000000E+00  0.20790005574E+04  0.20790005574E+04  0.50400001928E-02 0. -1.
       -1   -1    0    0    0  501  0.00000000000E+00  0.00000000000E+00 -0.13908735710E+03  0.13908735720E+03  0.50400001928E-02 0.  1.
    10030    2    1    2    0    0  0.00000000000E+00  0.00000000000E+00  0.19399132003E+04  0.22180879146E+04  0.10754769975E+04 0.  0.
        4    1    3    3  502    0  0.46713134861E+03  0.23727445952E+03  0.12195882322E+04  0.13273688014E+04  0.12699999809E+01 0. -1.
       -4    1    3    3    0  502 -0.46713134861E+03 -0.23727445952E+03  0.72032496805E+03  0.89071911313E+03  0.12699999809E+01 0.  1.
</event>
<event>
 5   0  0.5712664E-03  0.1108793E+04  0.7818609E-02  0.9196664E-01
       -1   -1    0    0    0  501  0.00000000000E+00  0.00000000000E+00  0.25424000921E+03  0.25424000926E+03  0.50400001928E-02 0.  1.
        1   -1    0    0  501    0  0.00000000000E+00  0.00000000000E+00 -0.12089182933E+04  0.12089182933E+04  0.50400001928E-02 0. -1.
    10030    2    1    2    0    0  0.00000000000E+00  0.00000000000E+00 -0.95467828405E+03  0.14631583025E+04  0.11087928536E+04 0.  0.
        5    1    3    3  502    0  0.29505569442E+03  0.30618533972E+03 -0.94672581836E+03  0.10378435288E+04  0.46999998093E+01 0. -1.
       -5    1    3    3    0  502 -0.29505569442E+03 -0.30618533972E+03 -0.79524656829E+01  0.42531477376E+03  0.46999998093E+01 0.  1.
</event>
<event>
 5   0  0.9692981E-03  0.1096693E+04  0.7818609E-02  0.9208421E-01
        2   -1    0    0  501    0  0.00000000000E+00  0.00000000000E+00  0.68699800414E+03  0.68699800415E+03  0.25500000920E-02 0.  1.
       -2   -1    0    0    0  501  0.00000000000E+00  0.00000000000E+00 -0.43767798701E+03  0.43767798702E+03  0.25500000920E-02 0. -1.
    10030    2    1    2    0    0  0.00000000000E+00  0.00000000000E+00  0.24932001713E+03  0.11246759912E+04  0.10966930355E+04 0.  0.
        5    1    3    3  502    0 -0.37980614100E+02 -0.99755857139E+02 -0.42689975501E+03  0.44006732316E+03  0.46999998093E+01 0. -1.
       -5    1    3    3    0  502  0.37980614100E+02  0.99755857139E+02  0.67621977214E+03  0.68460866801E+03  0.46999998093E+01 0.  1.
</event>
<event>
 5   0  0.5712664E-03  0.9308150E+03  0.7818609E-02  0.9387860E-01
       -1   -1    0    0    0  501  0.00000000000E+00  0.00000000000E+00  0.32228820894E+03  0.32228820898E+03  0.50400001928E-02 0.  1.
        1   -1    0    0  501    0  0.00000000000E+00  0.00000000000E+00 -0.67208217914E+03  0.67208217916E+03  0.50400001928E-02 0. -1.
    10030    2    1    2    0    0  0.00000000000E+00  0.00000000000E+00 -0.34979397020E+03  0.99437038814E+03  0.93081504458E+03 0.  0.
        5    1    3    3  502    0  0.20086615684E+03  0.24213573110E+03 -0.54124846684E+03  0.62605823858E+03  0.46999998093E+01 0. -1.
       -5    1    3    3    0  502 -0.20086615684E+03 -0.24213573110E+03  0.19145449664E+03  0.36831214957E+03  0.46999998093E+01 0.  1.
</event>
<event>
 5   0  0.9925021E-03  0.1072892E+04  0.7818609E-02  0.9232023E-01
        2   -1    0    0  501    0  0.00000000000E+00  0.00000000000E+00  0.14888602494E+04  0.14888602494E+04  0.25500000920E-02 0. -1.
       -2   -1    0    0    0  501  0.00000000000E+00  0.00000000000E+00 -0.19328513865E+03  0.19328513866E+03  0.25500000920E-02 0.  1.
    10030    2    1    2    0    0  0.00000000000E+00  0.00000000000E+00  0.12955751108E+04  0.16821453881E+04  0.10728924639E+04 0.  0.
        4    1    3    3  502    0  0.48531276337E+03  0.20143513168E+03  0.81714807417E+03  0.97151282986E+03  0.12699999809E+01 0. -1.
       -4    1    3    3    0  502 -0.48531276337E+03 -0.20143513168E+03  0.47842703663E+03  0.71063255825E+03  0.12699999809E+01 0.  1.
</event>
<event>
 5   0  0.5958706E-03  0.1080435E+04  0.7818609E-02  0.9224474E-01
       -1   -1    0    0    0  501  0.00000000000E+00  0.00000000000E+00  0.52991131718E+03  0.52991131721E+03  0.50400001928E-02 0. -1.
        1   -1    0    0  501    0  0.00000000000E+00  0.00000000000E+00 -0.55072387149E+03  0.55072387151E+03  0.50400001928E-02 0.  1.
    10030    2    1    2    0    0  0.00000000000E+00  0.00000000000E+00 -0.20812554302E+02  0.10806351887E+04  0.10804347498E+04 0.  0.
        2    1    3    3  502    0  0.28947992108E+03  0.37587784089E+03 -0.26881836227E+03  0.54529449647E+03  0.25500000920E-02 0.  1.
       -2    1    3    3    0  502 -0.28947992108E+03 -0.37587784089E+03  0.24800580797E+03  0.53534069225E+03  0.25500000920E-02 0. -1.
</event>
<event>
 5   0  0.5958706E-03  0.1083855E+04  0.7818609E-02  0.9221073E-01
       -1   -1    0    0    0  501  0.00000000000E+00  0.00000000000E+00  0.72711076188E+03  0.72711076190E+03  0.50400001928E-02 0. -1.
        1   -1    0    0  501    0  0.00000000000E+00  0.00000000000E+00 -0.40390721826E+03  0.40390721830E+03  0.50400001928E-02 0.  1.
    10030    2    1    2    0    0  0.00000000000E+00  0.00000000000E+00  0.32320354362E+03  0.11310179802E+04  0.10838547601E+04 0.  0.
        2    1    3    3  502    0 -0.90726317970E+02 -0.13591148094E+03  0.70078886029E+03  0.71958892580E+03  0.25500000920E-02 0. -1.
       -2    1    3    3    0  502  0.90726317970E+02  0.13591148094E+03 -0.37758531667E+03  0.41142905439E+03  0.25500000920E-02 0.  1.
</event>
<event>
 5   0  0.5789905E-03  0.1096623E+04  0.7818609E-02  0.9208490E-01
        1   -1    0    0  501    0  0.00000000000E+00  0.00000000000E+00  0.12921456254E+04  0.12921456254E+04  0.50400001928E-02 0. -1.
       -1   -1    0    0    0  501  0.00000000000E+00  0.00000000000E+00 -0.23267136939E+03  0.23267136944E+03  0.50400001928E-02 0.  1.
    10030    2    1    2    0    0  0.00000000000E+00  0.00000000000E+00  0.10594742560E+04  0.15248169948E+04  0.10966226190E+04 0.  0.
        1    1    3    3  502    0 -0.40759949219E+03 -0.97913371198E+02  0.38288521974E+02  0.42093988316E+03  0.50400001928E-02 0.  1.
       -1    1    3    3    0  502  0.40759949219E+03  0.97913371198E+02  0.10211857340E+04  0.11038771117E+04  0.50400001928E-02 0. -1.
</event>
<event>
 5   0  0.9719260E-03  0.1118471E+04  0.7818609E-02  0.9187373E-01
       -2   -1    0    0    0  501  0.00000000000E+00  0.00000000000E+00  0.86203872347E+03  0.86203872347E+03  0.25500000920E-02 0. -1.
        2   -1    0    0  501    0  0.00000000000E+00  0.00000000000E+00 -0.36279639417E+03  0.36279639418E+03  0.25500000920E-02 0.  1.
    10030    2    1    2    0    0  0.00000000000E+00  0.00000000000E+00  0.49924232929E+03  0.12248351177E+04  0.11184713506E+04 0.  0.
        3    1    3    3  502    0 -0.55866004367E+03 -0.18889899365E+02  0.26816222277E+03  0.61997488708E+03  0.10100000352E+00 0.  1.
       -3    1    3    3    0  502  0.55866004367E+03  0.18889899365E+02  0.23108010652E+03  0.60486023057E+03  0.10100000352E+00 0. -1.
</event>
<event>
 5   0  0.5958706E-03  0.1163332E+04  0.7818609E-02  0.9145572E-01
        1   -1    0    0  501    0  0.00000000000E+00  0.00000000000E+00  0.21328059043E+04  0.21328059043E+04  0.50400001928E-02 0. -1.
       -1   -1    0    0    0  501  0.00000000000E+00  0.00000000000E+00 -0.15863389052E+03  0.15863389060E+03  0.50400001928E-02 0.  1.
    10030    2    1    2    0    0  0.00000000000E+00  0.00000000000E+00  0.19741720138E+04  0.22914397949E+04  0.11633319361E+04 0.  0.
        2    1    3    3  502    0  0.43064444831E+03  0.28661608672E+03  0.15109425709E+04  0.15970444185E+04  0.25500000920E-02 0. -1.
       -2    1    3    3    0  502 -0.43064444831E+03 -0.28661608672E+03  0.46322944286E+03  0.69439537640E+03  0.25500000920E-02 0.  1.
</event>
<event>
 5   0  0.3949750E-03  0.1058206E+04  0.7818609E-02  0.9246913E-01
       -3   -1    0    0    0  501  0.00000000000E+00  0.00000000000E+00  0.64046618325E+03  0.64046619121E+03  0.10100000352E+00 0. -1.
        3   -1    0    0  501    0  0.00000000000E+00  0.00000000000E+00 -0.43710323072E+03  0.43710324239E+03  0.10100000352E+00 0.  1.
    10030    2    1    2    0    0  0.00000000000E+00  0.00000000000E+00  0.20336295253E+03  0.10775694336E+04  0.10582057426E+04 0.  0.
        4    1    3    3  502    0 -0.20178553608E+03 -0.45088454025E+03 -0.91349815007E+02  0.50235512619E+03  0.12699999809E+01 0.  1.
       -4    1    3    3    0  502  0.20178553608E+03  0.45088454025E+03  0.29471276754E+03  0.57521430741E+03  0.12699999809E+01 0. -1.
</event>
<event>
 5   0  0.5958706E-03  0.1105515E+04  0.7818609E-02  0.9199833E-01
       -1   -1    0    0    0  501  0.00000000000E+00  0.00000000000E+00  0.27584148593E+03  0.27584148597E+03  0.50400001928E-02 0. -1.
        1   -1    0    0  501    0  0.00000000000E+00  0.00000000000E+00 -0.11076683433E+04  0.11076683434E+04  0.50400001928E-02 0.  1.
    10030    2    1    2    0    0  0.00000000000E+00  0.00000000000E+00 -0.83182685742E+03  0.13835098293E+04  0.11055150506E+04 0.  0.
        2    1    3    3  502    0 -0.13033277317E+03  0.51119970474E+03 -0.62242021481E+03  0.81591586190E+03  0.25500000920E-02 0.  1.
       -2    1    3    3    0  502  0.13033277317E+03 -0.51119970474E+03 -0.20940664262E+03  0.56759396743E+03  0.25500000920E-02 0. -1.
</event>
<event>
 5   0  0.9692981E-03  0.1106365E+04  0.7818609E-02  0.9199010E-01
        2   -1    0    0  501    0  0.00000000000E+00  0.00000000000E+00  0.88710683886E+03  0.88710683886E+03  0.25500000920E-02 0.  1.
       -2   -1    0    0    0  501  0.00000000000E+00  0.00000000000E+00 -0.34495367898E+03  0.34495367899E+03  0.25500000920E-02 0. -1.
    10030    2    1    2    0    0  0.00000000000E+00  0.00000000000E+00  0.54215315987E+03  0.12320605179E+04  0.11063648001E+04 0.  0.
        5    1    3    3  502    0  0.59643839176E+02 -0.51624952367E+03  0.60025262324E+02  0.52315970827E+03  0.46999998093E+01 0. -1.
       -5    1    3    3    0  502 -0.59643839176E+02  0.51624952367E+03  0.48212789755E+03  0.70890080959E+03  0.46999998093E+01 0.  1.
</event>
<event>
 5   0  0.9925021E-03  0.1079410E+04  0.7818609E-02  0.9225496E-01
       -2   -1    0    0    0  501  0.00000000000E+00  0.00000000000E+00  0.20545342173E+03  0.20545342174E+03  0.25500000920E-02 0.  1.
        2   -1    0    0  501    0  0.00000000000E+00  0.00000000000E+00 -0.14177503211E+04  0.14177503211E+04  0.25500000920E-02 0. -1.
    10030    2    1    2    0    0  0.00000000000E+00  0.00000000000E+00 -0.12122968994E+04  0.16232037429E+04  0.10794103106E+04 0.  0.
        4    1    3    3  502    0 -0.39138733244E+03 -0.36309951342E+03 -0.48721852544E+03  0.72277853114E+03  0.12699999809E+01 0.  1.
       -4    1    3    3    0  502  0.39138733244E+03  0.36309951342E+03 -0.72507837396E+03  0.90042521174E+03  0.12699999809E+01 0. -1.
</event>
<event>
 5   0  0.5958706E-03  0.1098882E+04  0.7818609E-02  0.9206282E-01
        1   -1    0    0  501    0  0.00000000000E+00  0.00000000000E+00  0.38367122255E+03  0.38367122258E+03  0.50400001928E-02 0.  1.
       -1   -1    0    0    0  501  0.00000000000E+00  0.00000000000E+00 -0.78683334047E+03  0.78683334048E+03  0.50400001928E-02 0. -1.
    10030    2    1    2    0    0  0.00000000000E+00  0.00000000000E+00 -0.40316211792E+03  0.11705045631E+04  0.10988818129E+04 0.  0.
        2    1    3    3  502    0 -0.36944830394E+03 -0.29751689912E+03  0.93757541429E+02  0.48352748746E+03  0.25500000920E-02 0.  1.
       -2    1    3    3    0  502  0.36944830394E+03  0.29751689912E+03 -0.49691965935E+03  0.68697707560E+03  0.25500000920E-02 0. -1.
</event>
<event>
 5   0  0.5789905E-03  0.1116821E+04  0.7818609E-02  0.9188951E-01
        1   -1    0    0  501    0  0.00000000000E+00  0.00000000000E+00  0.10979370915E+04  0.10979370915E+04  0.50400001928E-02 0.  1.
       -1   -1    0    0    0  501  0.00000000000E+00  0.00000000000E+00 -0.28400722952E+03  0.28400722957E+03  0.50400001928E-02 0. -1.
    10030    2    1    2    0    0  0.00000000000E+00  0.00000000000E+00  0.81392986200E+03  0.13819443211E+04  0.11168206151E+04 0.  0.
        1    1    3    3  502    0  0.13559979911E+03  0.51430636403E+03  0.19652203348E+03  0.56702667598E+03  0.50400001928E-02 0. -1.
       -1    1    3    3    0  502 -0.13559979911E+03 -0.51430636403E+03  0.61740782851E+03  0.81491764512E+03  0.50400001928E-02 0.  1.
</event>
<event>
 5   0  0.5998641E-03  0.8793418E+03  0.7818609E-02  0.9451780E-01
       -1   -1    0    0    0  501  0.00000000000E+00  0.00000000000E+00  0.39252244309E+03  0.39252244312E+03  0.50400001928E-02 0.  1.
        1   -1    0    0  501    0  0.00000000000E+00  0.00000000000E+00 -0.49248263305E+03  0.49248263307E+03  0.50400001928E-02 0. -1.
    10030    2    1    2    0    0  0.00000000000E+00  0.00000000000E+00 -0.99960189962E+02  0.88500507619E+03  0.87934176821E+03 0.  0.
        3    1    3    3  502    0  0.12527888637E+03 -0.32667002105E+03 -0.31797000818E+03  0.47277165559E+03  0.10100000352E+00 0. -1.
       -3    1    3    3    0  502 -0.12527888637E+03  0.32667002105E+03  0.21800981822E+03  0.41223342061E+03  0.10100000352E+00 0.  1.
</event>
<event>
 5   0  0.1028016E-02  0.9782863E+03  0.7818609E-02  0.9332686E-01
       -2   -1    0    0    0  501  0.00000000000E+00  0.00000000000E+00  0.14380389544E+03  0.14380389546E+03  0.25500000920E-02 0.  1.
        2   -1    0    0  501    0  0.00000000000E+00  0.00000000000E+00 -0.16638006308E+04  0.16638006308E+04  0.25500000920E-02 0. -1.
    10030    2    1    2    0    0  0.00000000000E+00  0.00000000000E+00 -0.15199967354E+04  0.18076045263E+04  0.97828628114E+03 0.  0.
        2    1    3    3  502    0  0.15184136334E+03  0.94251508130E+02  0.81319303288E+02  0.19634656987E+03  0.25500000920E-02 0.  1.
       -2    1    3    3    0  502 -0.15184136334E+03 -0.94251508130E+02 -0.16013160387E+04  0.16112579564E+04  0.25500000920E-02 0. -1.
</event>
<event>
 5   0  0.5789905E-03  0.1072105E+04  0.7818609E-02  0.9232815E-01
       -1   -1    0    0    0  501  0.00000000000E+00  0.00000000000E+00  0.31861204614E+03  0.31861204618E+03  0.50400001928E-02 0.  1.
        1   -1    0    0  501    0  0.00000000000E+00  0.00000000000E+00 -0.90188797825E+03  0.90188797826E+03  0.50400001928E-02 0. -1.
    10030    2    1    2    0    0  0.00000000000E+00  0.00000000000E+00 -0.58327593211E+03  0.12205000244E+04  0.10721051705E+04 0.  0.
        1    1    3    3  502    0  0.34305194211E+03  0.31339875252E+03 -0.59593544970E+03  0.75567352296E+03  0.50400001928E-02 0. -1.
       -1    1    3    3    0  502 -0.34305194211E+03 -0.31339875252E+03  0.12659517591E+02  0.46482650148E+03  0.50400001928E-02 0.  1.
</event>
<event>
 5   0  0.9692981E-03  0.1096167E+04  0.7818609E-02  0.9208935E-01
       -2   -1    0    0    0  501  0.00000000000E+00  0.00000000000E+00  0.18143942289E+03  0.18143942291E+03  0.25500000920E-02 0.  1.
        2   -1    0    0  501    0  0.00000000000E+00  0.00000000000E+00 -0.16556255562E+04  0.16556255562E+04  0.25500000920E-02 0. -1.
    10030    2    1    2    0    0  0.00000000000E+00  0.00000000000E+00 -0.14741861333E+04  0.18370649791E+04  0.10961674059E+04 0.  0.
        5    1    3    3  502    0 -0.62087416428E+02 -0.24927895961E+03  0.74254251081E+02  0.26745210933E+03  0.46999998093E+01 0.  1.
       -5    1    3    3    0  502  0.62087416428E+02  0.24927895961E+03 -0.15484403844E+04  0.15696128698E+04  0.46999998093E+01 0. -1.
</event>
<event>
 5   0  0.5789905E-03  0.1105754E+04  0.7818609E-02  0.9199602E-01
        1   -1    0    0  501    0  0.00000000000E+00  0.00000000000E+00  0.39036451945E+03  0.39036451948E+03  0.50400001928E-02 0. -1.
       -1   -1    0    0    0  501  0.00000000000E+00  0.00000000000E+00 -0.78304490213E+03  0.78304490215E+03  0.50400001928E-02 0.  1.
    10030    2    1    2    0    0  0.00000000000E+00  0.00000000000E+00 -0.39268038269E+03  0.11734094216E+04  0.11057539454E+04 0.  0.
        1    1    3    3  502    0 -0.35416981544E+03 -0.41982043733E+03 -0.26335037856E+03  0.60912960828E+03  0.50400001928E-02 0.  1.
       -1    1    3    3    0  502  0.35416981544E+03  0.41982043733E+03 -0.12933000412E+03  0.56427981335E+03  0.50400001928E-02 0. -1.
</event>
<event>
 5   0  0.1028016E-02  0.1135094E+04  0.7818609E-02  0.9171646E-01
       -2   -1    0    0    0  501  0.00000000000E+00  0.00000000000E+00  0.34283285082E+03  0.34283285083E+03  0.25500000920E-02 0. -1.
        2   -1    0    0  501    0  0.00000000000E+00  0.00000000000E+00 -0.93955242398E+03  0.93955242398E+03  0.25500000920E-02 0.  1.
    10030    2    1    2    0    0  0.00000000000E+00  0.00000000000E+00 -0.59671957316E+03  0.12823852748E+04  0.11350937160E+04 0.  0.
        2    1    3    3  502    0  0.47120612994E+03 -0.17515717711E+03 -0.74922809332E+00  0.50270847908E+03  0.25500000920E-02 0. -1.
       -2    1    3    3    0  502 -0.47120612994E+03  0.17515717711E+03 -0.59597034507E+03  0.77967679573E+03  0.25500000920E-02 0.  1.
</event>
<event>
 5   0  0.5712664E-03  0.1112689E+04  0.7818609E-02  0.9192912E-01
       -1   -1    0    0    0  501  0.00000000000E+00  0.00000000000E+00  0.90981657218E+03  0.90981657219E+03  0.50400001928E-02 0. -1.
        1   -1    0    0  501    0  0.00000000000E+00  0.00000000000E+00 -0.34019951322E+03  0.34019951326E+03  0.50400001928E-02 0.  1.
    10030    2    1    2    0    0  0.00000000000E+00  0.00000000000E+00  0.56961705896E+03  0.12500160854E+04  0.11126889143E+04 0.  0.
        5    1    3    3  502    0 -0.57524483524E+02 -0.28409866526E+03 -0.24863929761E+03  0.38192238494E+03  0.46999998093E+01 0.  1.
       -5    1    3    3    0  502  0.57524483524E+02  0.28409866526E+03  0.81825635656E+03  0.86809370051E+03  0.46999998093E+01 0. -1.
</event>
<event>
 5   0  0.9692981E-03  0.1073087E+04  0.7818609E-02  0.9231827E-01
       -2   -1    0    0    0  501  0.00000000000E+00  0.00000000000E+00  0.31115217773E+03  0.31115217774E+03  0.25500000920E-02 0.  1.
        2   -1    0    0  501    0  0.00000000000E+00  0.00000000000E+00 -0.92520297733E+03  0.92520297734E+03  0.25500000920E-02 0. -1.
    10030    2    1    2    0    0  0.00000000000E+00  0.00000000000E+00 -0.61405079961E+03  0.12363551551E+04  0.10730869885E+04 0.  0.
        5    1    3    3  502    0 -0.10384880017E+03 -0.49975838280E+03 -0.49743967806E+03  0.71274914085E+03  0.46999998093E+01 0.  1.
       -5    1    3    3    0  502  0.10384880017E+03  0.49975838280E+03 -0.11661112155E+03  0.52360601423E+03  0.46999998093E+01 0. -1.
</event>
<event>
 5   0  0.5789905E-03  0.1073240E+04  0.7818609E-02  0.9231674E-01
       -1   -1    0    0    0  501  0.00000000000E+00  0.00000000000E+00  0.76812083291E+03  0.76812083292E+03  0.50400001928E-02 0.  1.
        1   -1    0    0  501    0  0.00000000000E+00  0.00000000000E+00 -0.37489035863E+03  0.37489035866E+03  0.50400001928E-02 0. -1.
    10030    2    1    2    0    0  0.00000000000E+00  0.00000000000E+00  0.39323047428E+03  0.11430111916E+04  0.10732401307E+04 0.  0.
        1    1    3    3  502    0  0.47984977216E+03 -0.22442511580E+03  0.28785032740E+03  0.60289323056E+03  0.50400001928E-02 0.  1.
       -1    1    3    3    0  502 -0.47984977216E+03  0.22442511580E+03  0.10538014688E+03  0.54011796103E+03  0.50400001928E-02 0. -1.
</event>
<event>
 5   0  0.5958706E-03  0.1105298E+04  0.7818609E-02  0.9200044E-01
       -1   -1    0    0    0  501  0.00000000000E+00  0.00000000000E+00  0.10133315038E+04  0.10133315038E+04  0.50400001928E-02 0. -1.
        1   -1    0    0  501    0  0.00000000000E+00  0.00000000000E+00 -0.30140254178E+03  0.30140254182E+03  0.50400001928E-02 0.  1.
    10030    2    1    2    0    0  0.00000000000E+00  0.00000000000E+00  0.71192896203E+03  0.13147340456E+04  0.11052975906E+04 0.  0.
        2    1    3    3  502    0  0.51486204412E+03 -0.16018216469E+03  0.21184806982E+03  0.57932793395E+03  0.25500000920E-02 0.  1.
       -2    1    3    3    0  502 -0.51486204412E+03  0.16018216469E+03  0.50008089221E+03  0.73540611169E+03  0.25500000920E-02 0. -1.
</event>
<event>
 5   0  0.9719260E-03  0.1200825E+04  0.7818609E-02  0.9112135E-01
        2   -1    0    0  501    0  0.00000000000E+00  0.00000000000E+00  0.93218708981E+03  0.93218708981E+03  0.25500000920E-02 0.  1.
       -2   -1    0    0    0  501  0.00000000000E+00  0.00000000000E+00 -0.38671983327E+03  0.38671983328E+03  0.25500000920E-02 0. -1.
    10030    2    1    2    0    0  0.00000000000E+00  0.00000000000E+00  0.54546725654E+03  0.13189069231E+04  0.12008251096E+04 0.  0.
        3    1    3    3  502    0 -0.29529510661E+03  0.44295524534E+03 -0.32213149046E+02  0.53333502279E+03  0.10100000352E+00 0. -1.
       -3    1    3    3    0  502  0.29529510661E+03 -0.44295524534E+03  0.57768040558E+03  0.78557190031E+03  0.10100000352E+00 0.  1.
</event>
<event>
 5   0  0.5998641E-03  0.7719103E+03  0.7818609E-02  0.9601590E-01
       -1   -1    0    0    0  501  0.00000000000E+00  0.00000000000E+00  0.18103208870E+03  0.18103208877E+03  0.50400001928E-02 0.  1.
        1   -1    0    0  501    0  0.00000000000E+00  0.00000000000E+00 -0.82284513369E+03  0.82284513370E+03  0.50400001928E-02 0. -1.
    10030    2    1    2    0    0  0.00000000000E+00  0.00000000000E+00 -0.64181304499E+03  0.10038772225E+04  0.77191028823E+03 0.  0.
        3    1    3    3  502    0 -0.42457266220E+02  0.27931399672E+03  0.21061979228E+02  0.28330645137E+03  0.10100000352E+00 0. -1.
       -3    1    3    3    0  502  0.42457266220E+02 -0.27931399672E+03 -0.66287502422E+03  0.72057077110E+03  0.10100000352E+00 0.  1.
</event>
<event>
 5   0  0.1019384E-02  0.1105395E+04  0.7818609E-02  0.9199950E-01
        2   -1    0    0  501    0  0.00000000000E+00  0.00000000000E+00  0.13911666854E+04  0.13911666854E+04  0.25500000920E-02 0.  1.
       -2   -1    0    0    0  501  0.00000000000E+00  0.00000000000E+00 -0.21958148870E+03  0.21958148871E+03  0.25500000920E-02 0. -1.
    10030    2    1    2    0    0  0.00000000000E+00  0.00000000000E+00  0.11715851967E+04  0.16107481741E+04  0.11053948649E+04 0.  0.
        1    1    3    3  502    0 -0.42382698929E+03  0.14835616736E+03  0.10553441790E+04  0.11469046192E+04  0.50400001928E-02 0.  1.
       -1    1    3    3    0  502  0.42382698929E+03 -0.14835616736E+03  0.11624101767E+03  0.46384355494E+03  0.50400001928E-02 0. -1.
</event>
<event>
 5   0  0.5789905E-03  0.1070298E+04  0.7818609E-02  0.9234635E-01
       -1   -1    0    0    0  501  0.00000000000E+00  0.00000000000E+00  0.94319699698E+03  0.94319699699E+03  0.50400001928E-02 0. -1.
        1   -1    0    0  501    0  0.00000000000E+00  0.00000000000E+00 -0.30363153058E+03  0.30363153063E+03  0.50400001928E-02 0.  1.
    10030    2    1    2    0    0  0.00000000000E+00  0.00000000000E+00  0.63956546640E+03  0.12468285276E+04  0.10702978050E+04 0.  0.
        1    1    3    3  502    0 -0.30964336282E+03 -0.38746912602E+02 -0.18666847058E+03  0.36362818002E+03  0.50400001928E-02 0.  1.
       -1    1    3    3    0  502  0.30964336282E+03  0.38746912602E+02  0.82623393697E+03  0.88320034760E+03  0.50400001928E-02 0. -1.
</event>
<event>
 5   0  0.1028016E-02  0.6454803E+03  0.7818609E-02  0.9815297E-01
        2   -1    0    0  501    0  0.00000000000E+00  0.00000000000E+00  0.94815209870E+03  0.94815209870E+03  0.25500000920E-02 0. -1.
       -2   -1    0    0    0  501  0.00000000000E+00  0.00000000000E+00 -0.10985705650E+03  0.10985705653E+03  0.25500000920E-02 0.  1.
    10030    2    1    2    0    0  0.00000000000E+00  0.00000000000E+00  0.83829504219E+03  0.10580091552E+04  0.64548028226E+03 0.  0.
        2    1    3    3  502    0  0.30829558189E+03 -0.61916610384E+02  0.30002891911E+03  0.43462303755E+03  0.25500000920E-02 0.  1.
       -2    1    3    3    0  502 -0.30829558189E+03  0.61916610384E+02  0.53826612308E+03  0.62338611769E+03  0.25500000920E-02 0. -1.
</event>
<event>
 5   0  0.5998641E-03  0.1190950E+04  0.7818609E-02  0.9120815E-01
        1   -1    0    0  501    0  0.00000000000E+00  0.00000000000E+00  0.40923776779E+03  0.40923776782E+03  0.50400001928E-02 0. -1.
       -1   -1    0    0    0  501  0.00000000000E+00  0.00000000000E+00 -0.86646623512E+03  0.86646623514E+03  0.50400001928E-02 0.  1.
    10030    2    1    2    0    0  0.00000000000E+00  0.00000000000E+00 -0.45722846733E+03  0.12757040030E+04  0.11909503902E+04 0.  0.
        3    1    3    3  502    0 -0.50169228238E+03  0.15252043652E+03 -0.53088974969E+03  0.74619137377E+03  0.10100000352E+00 0.  1.
       -3    1    3    3    0  502  0.50169228238E+03 -0.15252043652E+03  0.73661282363E+02  0.52951262919E+03  0.10100000352E+00 0. -1.
</event>
<event>
 5   0  0.9925021E-03  0.1061576E+04  0.7818609E-02  0.9243474E-01
       -2   -1    0    0    0  501  0.00000000000E+00  0.00000000000E+00  0.21071989021E+03  0.21071989023E+03  0.25500000920E-02 0. -1.
        2   -1    0    0  501    0  0.00000000000E+00  0.00000000000E+00 -0.13370157265E+04  0.13370157265E+04  0.25500000920E-02 0.  1.
    10030    2    1    2    0    0  0.00000000000E+00  0.00000000000E+00 -0.11262958363E+04  0.15477356167E+04  0.10615758232E+04 0.  0.
        4    1    3    3  502    0  0.43201789621E+03  0.61635506890E+02 -0.10036735137E+04  0.10944407400E+04  0.12699999809E+01 0.  1.
       -4    1    3    3    0  502 -0.43201789621E+03 -0.61635506890E+02 -0.12262232254E+03  0.45329487669E+03  0.12699999809E+01 0. -1.
</event>
<event>
 5   0  0.1019384E-02  0.1198385E+04  0.7818609E-02  0.9114271E-01
       -2   -1    0    0    0  501  0.00000000000E+00  0.00000000000E+00  0.17365741101E+03  0.17365741103E+03  0.25500000920E-02 0. -1.
        2   -1    0    0  501    0  0.00000000000E+00  0.00000000000E+00 -0.20674724396E+04  0.20674724396E+04  0.25500000920E-02 0.  1.
    10030    2    1    2    0    0  0.00000000000E+00  0.00000000000E+00 -0.18938150286E+04  0.22411298506E+04  0.11983854325E+04 0.  0.
        1    1    3    3  502    0 -0.47812086141E+03 -0.35444232981E+03 -0.81730117436E+03  0.10110440806E+04  0.50400001928E-02 0. -1.
       -1    1    3    3    0  502  0.47812086141E+03  0.35444232981E+03 -0.10765138542E+04  0.12300857700E+04  0.50400001928E-02 0.  1.
</event>
<event>
 5   0  0.5998641E-03  0.1136290E+04  0.7818609E-02  0.9170526E-01
        1   -1    0    0  501    0  0.00000000000E+00  0.00000000000E+00  0.74159906647E+03  0.74159906649E+03  0.50400001928E-02 0. -1.
       -1   -1    0    0    0  501  0.00000000000E+00  0.00000000000E+00 -0.43526035688E+03  0.43526035691E+03  0.50400001928E-02 0.  1.
    10030    2    1    2    0    0  0.00000000000E+00  0.00000000000E+00  0.30633870960E+03  0.11768594234E+04  0.11362898827E+04 0.  0.
        3    1    3    3  502    0 -0.23745728062E+02  0.17827710626E+03 -0.40499900816E+03  0.44313744259E+03  0.10100000352E+00 0.  1.
       -3    1    3    3    0  502  0.23745728062E+02 -0.17827710626E+03  0.71133771775E+03  0.73372198080E+03  0.10100000352E+00 0. -1.
</event>
<event>
 5   0  0.5712664E-03  0.1140784E+04  0.7818609E-02  0.9166328E-01
        1   -1    0    0  501    0  0.00000000000E+00  0.00000000000E+00  0.48784553345E+03  0.48784553348E+03  0.50400001928E-02 0. -1.
       -1   -1    0    0    0  501  0.00000000000E+00  0.00000000000E+00 -0.66690556904E+03  0.66690556906E+03  0.50400001928E-02 0.  1.
    10030    2    1    2    0    0  0.00000000000E+00  0.00000000000E+00 -0.17906003559E+03  0.11547511025E+04  0.11407837711E+04 0.  0.
        5    1    3    3  502    0 -0.31719325430E+03  0.36445236809E+03  0.21731127114E+03  0.52979559053E+03  0.46999998093E+01 0. -1.
       -5    1    3    3    0  502  0.31719325430E+03 -0.36445236809E+03 -0.39637130673E+03  0.62495551200E+03  0.46999998093E+01 0.  1.
</event>
<event>
 5   0  0.5998641E-03  0.1106692E+04  0.7818609E-02  0.9198694E-01
       -1   -1    0    0    0  501  0.00000000000E+00  0.00000000000E+00  0.24046700548E+03  0.24046700553E+03  0.50400001928E-02 0. -1.
        1   -1    0    0  501    0  0.00000000000E+00  0.00000000000E+00 -0.12733211646E+04  0.12733211646E+04  0.50400001928E-02 0.  1.
    10030    2    1    2    0    0  0.00000000000E+00  0.00000000000E+00 -0.10328541591E+04  0.15137881702E+04  0.11066918768E+04 0.  0.
        3    1    3    3  502    0 -0.10966290063E+03  0.45443073388E+02  0.22284563649E+03  0.25249002474E+03  0.10100000352E+00 0. -1.
       -3    1    3    3    0  502  0.10966290063E+03 -0.45443073388E+02 -0.12556997956E+04  0.12612981454E+04  0.10100000352E+00 0.  1.
</event>
<event>
 5   0  0.5712664E-03  0.1093324E+04  0.7818609E-02  0.9211723E-01
        1   -1    0    0  501    0  0.00000000000E+00  0.00000000000E+00  0.12718021140E+04  0.12718021140E+04  0.50400001928E-02 0. -1.
       -1   -1    0    0    0  501  0.00000000000E+00  0.00000000000E+00 -0.23497318619E+03  0.23497318624E+03  0.50400001928E-02 0.  1.
    10030    2    1    2    0    0  0.00000000000E+00  0.00000000000E+00  0.10368289278E+04  0.15067753002E+04  0.10933240964E+04 0.  0.
        5    1    3    3  502    0 -0.13737671740E+03 -0.35401742423E+03 -0.23496128767E+02  0.38049291348E+03  0.46999998093E+01 0.  1.
       -5    1    3    3    0  502  0.13737671740E+03  0.35401742423E+03  0.10603250566E+04  0.11262823867E+04  0.46999998093E+01 0. -1.
</event>
<event>
 5   0  0.1028016E-02  0.1137215E+04  0.7818609E-02  0.9169660E-01
       -2   -1    0    0    0  501  0.00000000000E+00  0.00000000000E+00  0.78306981833E+03  0.78306981834E+03  0.25500000920E-02 0.  1.
        2   -1    0    0  501    0  0.00000000000E+00  0.00000000000E+00 -0.41288100715E+03  0.41288100716E+03  0.25500000920E-02 0. -1.
    10030    2    1    2    0    0  0.00000000000E+00  0.00000000000E+00  0.37018881118E+03  0.11959508255E+04  0.11372152923E+04 0.  0.
        2    1    3    3  502    0 -0.20496715516E+03  0.31238687285E+03 -0.26566621578E+03  0.45844915883E+03  0.25500000920E-02 0. -1.
       -2    1    3    3    0  502  0.20496715516E+03 -0.31238687285E+03  0.63585502696E+03  0.73750166667E+03  0.25500000920E-02 0.  1.
</event>
<event>
 5   0  0.5789905E-03  0.1050281E+04  0.7818609E-02  0.9255054E-01
       -1   -1    0    0    0  501  0.00000000000E+00  0.00000000000E+00  0.27368707213E+03  0.27368707218E+03  0.50400001928E-02 0. -1.
        1   -1    0    0  501    0  0.00000000000E+00  0.00000000000E+00 -0.10076204169E+04  0.10076204169E+04  0.50400001928E-02 0.  1.
    10030    2    1    2    0    0  0.00000000000E+00  0.00000000000E+00 -0.73393334479E+03  0.12813074891E+04  0.10502812609E+04 0.  0.
        1    1    3    3  502    0 -0.19080708392E+03  0.41258325975E+03 -0.46181956902E+02  0.45690815562E+03  0.50400001928E-02 0. -1.
       -1    1    3    3    0  502  0.19080708392E+03 -0.41258325975E+03 -0.68775138789E+03  0.82439933350E+03  0.50400001928E-02 0.  1.
</event>
<event>
 5   0  0.1019384E-02  0.1117346E+04  0.7818609E-02  0.9188448E-01
        2   -1    0    0  501    0  0.00000000000E+00  0.00000000000E+00  0.81218879173E+03  0.81218879173E+03  0.25500000920E-02 0.  1.
       -2   -1    0    0    0  501  0.00000000000E+00  0.00000000000E+00 -0.38428940264E+03  0.38428940265E+03  0.25500000920E-02 0. -1.
    10030    2    1    2    0    0  0.00000000000E+00  0.00000000000E+00  0.42789938909E+03  0.11964781944E+04  0.11173460442E+04 0.  0.
        1    1    3    3  502    0 -0.44685015759E+03 -0.16375964701E+03 -0.99388237231E+02  0.48617929517E+03  0.50400001928E-02 0. -1.
       -1    1    3    3    0  502  0.44685015759E+03  0.16375964701E+03  0.52728762632E+03  0.71029889921E+03  0.50400001928E-02 0.  1.
</event>
<event>
 5   0  0.9925021E-03  0.1122013E+04  0.7818609E-02  0.9183998E-01
        2   -1    0    0  501    0  0.00000000000E+00  0.00000000000E+00  0.10921865785E+04  0.10921865785E+04  0.25500000920E-02 0. -1.
       -2   -1    0    0    0  501  0.00000000000E+00  0.00000000000E+00 -0.28816357772E+03  0.28816357773E+03  0.25500000920E-02 0.  1.
    10030    2    1    2    0    0  0.00000000000E+00  0.00000000000E+00  0.80402300075E+03  0.13803501562E+04  0.11220131764E+04 0.  0.
        4    1    3    3  502    0  0.29549323162E+03 -0.47169355733E+03  0.48826659458E+03  0.74041673553E+03  0.12699999809E+01 0. -1.
       -4    1    3    3    0  502 -0.29549323162E+03  0.47169355733E+03  0.31575640616E+03  0.63993342067E+03  0.12699999809E+01 0.  1.
</event>
<event>
 5   0  0.5998641E-03  0.1083305E+04  0.7818609E-02  0.9221618E-01
        1   -1    0    0  501    0  0.00000000000E+00  0.00000000000E+00  0.10292182985E+04  0.10292182985E+04  0.50400001928E-02 0.  1.
       -1   -1    0    0    0  501  0.00000000000E+00  0.00000000000E+00 -0.28505863571E+03  0.28505863576E+03  0.50400001928E-02 0. -1.
    10030    2    1    2    0    0  0.00000000000E+00  0.00000000000E+00  0.74415966276E+03  0.13142769342E+04  0.10833052461E+04 0.  0.
        3    1    3    3  502    0  0.42516292614E+03  0.10648166980E+03 -0.14029318939E+02  0.43851874733E+03  0.10100000352E+00 0. -1.
       -3    1    3    3    0  502 -0.42516292614E+03 -0.10648166980E+03  0.75818898169E+03  0.87575818691E+03  0.10100000352E+00 0.  1.
</event>
<event>
 5   0  0.9719260E-03  0.1082821E+04  0.7818609E-02  0.9222100E-01
       -2   -1    0    0    0  501  0.00000000000E+00  0.00000000000E+00  0.29016281582E+03  0.29016281583E+03  0.25500000920E-02 0. -1.
        2   -1    0    0  501    0  0.00000000000E+00  0.00000000000E+00 -0.10102093304E+04  0.10102093304E+04  0.25500000920E-02 0.  1.
    10030    2    1    2    0    0  0.00000000000E+00  0.00000000000E+00 -0.72004651456E+03  0.13003721462E+04  0.10828207310E+04 0.  0.
        3    1    3    3  502    0 -0.20936813473E+03 -0.20422718152E+03  0.18712539236E+03  0.34721705053E+03  0.10100000352E+00 0. -1.
       -3    1    3    3    0  502  0.20936813473E+03  0.20422718152E+03 -0.90717190692E+03  0.95315509568E+03  0.10100000352E+00 0.  1.
</event>
<event>
 5   0  0.9719260E-03  0.8750276E+03  0.7818609E-02  0.9457348E-01
       -2   -1    0    0    0  501  0.00000000000E+00  0.00000000000E+00  0.11152112052E+03  0.11152112054E+03  0.25500000920E-02 0. -1.
        2   -1    0    0  501    0  0.00000000000E+00  0.00000000000E+00 -0.17164313138E+04  0.17164313138E+04  0.25500000920E-02 0.  1.
    10030    2    1    2    0    0  0.00000000000E+00  0.00000000000E+00 -0.16049101933E+04  0.18279524344E+04  0.87502764170E+03 0.  0.
        3    1    3    3  502    0 -0.24345176297E+03 -0.15817055089E+03 -0.11869773768E+03  0.31364924230E+03  0.10100000352E+00 0. -1.
       -3    1    3    3    0  502  0.24345176297E+03  0.15817055089E+03 -0.14862124557E+04  0.15143031921E+04  0.10100000352E+00 0.  1.
</event>
<event>
 5   0  0.5958706E-03  0.1106278E+04  0.7818609E-02  0.9199094E-01
        1   -1    0    0  501    0  0.00000000000E+00  0.00000000000E+00  0.19113460828E+04  0.19113460828E+04  0.50400001928E-02 0. -1.
       -1   -1    0    0    0  501  0.00000000000E+00  0.00000000000E+00 -0.16007720808E+03  0.16007720816E+03  0.50400001928E-02 0.  1.
    10030    2    1    2    0    0  0.00000000000E+00  0.00000000000E+00  0.17512688748E+04  0.20714232910E+04  0.11062783460E+04 0.  0.
        2    1    3    3  502    0 -0.14798317415E+03 -0.29933851613E+03  0.17013301049E+04  0.17337896911E+04  0.25500000920E-02 0. -1.
       -2    1    3    3    0  502  0.14798317415E+03  0.29933851613E+03  0.49938769883E+02  0.33763359994E+03  0.25500000920E-02 0.  1.
</event>
<event>
 5   0  0.5998641E-03  0.1127698E+04  0.7818609E-02  0.9178608E-01
        1   -1    0    0  501    0  0.00000000000E+00  0.00000000000E+00  0.11709658292E+04  0.11709658292E+04  0.50400001928E-02 0.  1.
       -1   -1    0    0    0  501  0.00000000000E+00  0.00000000000E+00 -0.27150729182E+03  0.27150729187E+03  0.50400001928E-02 0. -1.
    10030    2    1    2    0    0  0.00000000000E+00  0.00000000000E+00  0.89945853734E+03  0.14424731210E+04  0.11276981176E+04 0.  0.
        3    1    3    3  502    0  0.21450191302E+03 -0.25121699430E+03  0.10342299354E+04  0.10857037434E+04  0.10100000352E+00 0.  1.
       -3    1    3    3    0  502 -0.21450191302E+03  0.25121699430E+03 -0.13477139805E+03  0.35676937767E+03  0.10100000352E+00 0. -1.
</event>
<event>
 5   0  0.5789905E-03  0.1099003E+04  0.7818609E-02  0.9206164E-01
        1   -1    0    0  501    0  0.00000000000E+00  0.00000000000E+00  0.11723568779E+04  0.11723568779E+04  0.50400001928E-02 0.  1.
       -1   -1    0    0    0  501  0.00000000000E+00  0.00000000000E+00 -0.25755974003E+03  0.25755974008E+03  0.50400001928E-02 0. -1.
    10030    2    1    2    0    0  0.00000000000E+00  0.00000000000E+00  0.91479713786E+03  0.14299166180E+04  0.10990030623E+04 0.  0.
        1    1    3    3  502    0 -0.65510435086E+02 -0.30521442811E+02  0.11661462152E+04  0.11683835718E+04  0.50400001928E-02 0.  1.
       -1    1    3    3    0  502  0.65510435086E+02  0.30521442811E+02 -0.25134907731E+03  0.26153304622E+03  0.50400001928E-02 0. -1.
</event>
<event>
 5   0  0.9692981E-03  0.1139387E+04  0.7818609E-02  0.9167630E-01
        2   -1    0    0  501    0  0.00000000000E+00  0.00000000000E+00  0.91902943558E+03  0.91902943559E+03  0.25500000920E-02 0. -1.
       -2   -1    0    0    0  501  0.00000000000E+00  0.00000000000E+00 -0.35314518514E+03  0.35314518515E+03  0.25500000920E-02 0.  1.
    10030    2    1    2    0    0  0.00000000000E+00  0.00000000000E+00  0.56588425044E+03  0.12721746207E+04  0.11393872392E+04 0.  0.
        5    1    3    3  502    0 -0.52115074596E+03 -0.19240173938E+03  0.14209742742E+03  0.57343726615E+03  0.46999998093E+01 0. -1.
       -5    1    3    3    0  502  0.52115074596E+03  0.19240173938E+03  0.42378682302E+03  0.69873735459E+03  0.46999998093E+01 0.  1.
</event>
<event>
 5   0  0.9719260E-03  0.1099521E+04  0.7818609E-02  0.9205659E-01
       -2   -1    0    0    0  501  0.00000000000E+00  0.00000000000E+00  0.17017961114E+03  0.17017961116E+03  0.25500000920E-02 0.  1.
        2   -1    0    0  501    0  0.00000000000E+00  0.00000000000E+00 -0.17759846385E+04  0.17759846385E+04  0.25500000920E-02 0. -1.
    10030    2    1    2    0    0  0.00000000000E+00  0.00000000000E+00 -0.16058050273E+04  0.19461642496E+04  0.10995205777E+04 0.  0.
        3    1    3    3  502    0 -0.34832396924E+03  0.15536003985E+03 -0.10208062587E+03  0.39482501682E+03  0.10100000352E+00 0.  1.
       -3    1    3    3    0  502  0.34832396924E+03 -0.15536003985E+03 -0.15037244015E+04  0.15513392328E+04  0.10100000352E+00 0. -1.
</event>
<event>
 5   0  0.9925021E-03  0.1112186E+04  0.7818609E-02  0.9193395E-01
        2   -1    0    0  501    0  0.00000000000E+00  0.00000000000E+00  0.10858667492E+04  0.10858667492E+04  0.25500000920E-02 0.  1.
       -2   -1    0    0    0  501  0.00000000000E+00  0.00000000000E+00 -0.28478582492E+03  0.28478582493E+03  0.25500000920E-02 0. -1.
    10030    2    1    2    0    0  0.00000000000E+00  0.00000000000E+00  0.80108092429E+03  0.13706525742E+04  0.11121860599E+04 0.  0.
        4    1    3    3  502    0  0.22939898334E+03  0.88927316777E+02 -0.21406012189E+03  0.32612161828E+03  0.12699999809E+01 0. -1.
       -4    1    3    3    0  502 -0.22939898334E+03 -0.88927316777E+02  0.10151410462E+04  0.10445309559E+04  0.12699999809E+01 0.  1.
</event>
<event>
 5   0  0.9719260E-03  0.1136663E+04  0.7818609E-02  0.9170177E-01
       -2   -1    0    0    0  501  0.00000000000E+00  0.00000000000E+00  0.43537637795E+03  0.43537637795E+03  0.25500000920E-02 0. -1.
        2   -1    0    0  501    0  0.00000000000E+00  0.00000000000E+00 -0.74188824308E+03  0.74188824308E+03  0.25500000920E-02 0.  1.
    10030    2    1    2    0    0  0.00000000000E+00  0.00000000000E+00 -0.30651186513E+03  0.11772646210E+04  0.11366628632E+04 0.  0.
        3    1    3    3  502    0 -0.26275667454E+03  0.47217499479E+03  0.29131738221E+02  0.54114597299E+03  0.10100000352E+00 0. -1.
       -3    1    3    3    0  502  0.26275667454E+03 -0.47217499479E+03 -0.33564360335E+03  0.63611864804E+03  0.10100000352E+00 0.  1.
</event>
<event>
 5   0  0.5712664E-03  0.1097848E+04  0.7818609E-02  0.9207292E-01
        1   -1    0    0  501    0  0.00000000000E+00  0.00000000000E+00  0.89465525765E+03  0.89465525767E+03  0.50400001928E-02 0. -1.
       -1   -1    0    0    0  501  0.00000000000E+00  0.00000000000E+00 -0.33679760898E+03  0.33679760902E+03  0.50400001928E-02 0.  1.
    10030    2    1    2    0    0  0.00000000000E+00  0.00000000000E+00  0.55785764867E+03  0.12314528667E+04  0.10978483532E+04 0.  0.
        5    1    3    3  502    0 -0.53796740290E+03 -0.10510180289E+03  0.24641226858E+03  0.60099618273E+03  0.46999998093E+01 0.  1.
       -5    1    3    3    0  502  0.53796740290E+03  0.10510180289E+03  0.31144538009E+03  0.63045668395E+03  0.46999998093E+01 0. -1.
</event>
<event>
 5   0  0.5854579E-03  0.1097812E+04  0.7818609E-02  0.9207327E-01
        1   -1    0    0  501    0  0.00000000000E+00  0.00000000000E+00  0.60191876715E+03  0.60191876718E+03  0.50400001928E-02 0.  1.
       -1   -1    0    0    0  501  0.00000000000E+00  0.00000000000E+00 -0.50056237181E+03  0.50056237184E+03  0.50400001928E-02 0. -1.
    10030    2    1    2    0    0  0.00000000000E+00  0.00000000000E+00  0.10135639534E+03  0.11024811390E+04  0.10978121620E+04 0.  0.
        4    1    3    3  502    0  0.36771830523E+03 -0.39717927786E+03 -0.40968578765E+02  0.54281504042E+03  0.12699999809E+01 0. -1.
       -4    1    3    3    0  502 -0.36771830523E+03  0.39717927786E+03  0.14232497411E+03  0.55966609859E+03  0.12699999809E+01 0.  1.
</event>
<event>
 5   0  0.5712664E-03  0.1085244E+04  0.7818609E-02  0.9219695E-01
       -1   -1    0    0    0  501  0.00000000000E+00  0.00000000000E+00  0.79827587069E+03  0.79827587070E+03  0.50400001928E-02 0. -1.
        1   -1    0    0  501    0  0.00000000000E+00  0.00000000000E+00 -0.36884321961E+03  0.36884321965E+03  0.50400001928E-02 0.  1.
    10030    2    1    2    0    0  0.00000000000E+00  0.00000000000E+00  0.42943265107E+03  0.11671190904E+04  0.10852440137E+04 0.  0.
        5    1    3    3  502    0 -0.36763348209E+03 -0.30378654806E+03  0.49303803305E+03  0.68596591458E+03  0.46999998093E+01 0. -1.
       -5    1    3    3    0  502  0.36763348209E+03  0.30378654806E+03 -0.63605381972E+02  0.48115317577E+03  0.46999998093E+01 0.  1.
</event>
<event>
 5   0  0.5854579E-03  0.1119754E+04  0.7818609E-02  0.9186150E-01
        1   -1    0    0  501    0  0.00000000000E+00  0.00000000000E+00  0.23196476539E+03  0.23196476544E+03  0.50400001928E-02 0.  1.
       -1   -1    0    0    0  501  0.00000000000E+00  0.00000000000E+00 -0.13513348585E+04  0.13513348586E+04  0.50400001928E-02 0. -1.
    10030    2    1    2    0    0  0.00000000000E+00  0.00000000000E+00 -0.11193700932E+04  0.15832996240E+04  0.11197536755E+04 0.  0.
        4    1    3    3  502    0 -0.29217788935E+03  0.80148131684E+02  0.10603696261E+03  0.32099391330E+03  0.12699999809E+01 0.  1.
       -4    1    3    3    0  502  0.29217788935E+03 -0.80148131684E+02 -0.12254070558E+04  0.12623057107E+04  0.12699999809E+01 0. -1.
</event>
<event>
 5   0  0.9719260E-03  0.1087572E+04  0.7818609E-02  0.9217390E-01
        2   -1    0    0  501    0  0.00000000000E+00  0.00000000000E+00  0.43113651833E+03  0.43113651834E+03  0.25500000920E-02 0.  1.
       -2   -1    0    0    0  501  0.00000000000E+00  0.00000000000E+00 -0.68586912928E+03  0.68586912928E+03  0.25500000920E-02 0. -1.
    10030    2    1    2    0    0  0.00000000000E+00  0.00000000000E+00 -0.25473261095E+03  0.11170056476E+04  0.10875720269E+04 0.  0.
        3    1    3    3  502    0 -0.24218240655E+03  0.43164343666E+03 -0.35870618439E+03  0.61125977405E+03  0.10100000352E+00 0. -1.
       -3    1    3    3    0  502  0.24218240655E+03 -0.43164343666E+03  0.10397357344E+03  0.50574587357E+03  0.10100000352E+00 0.  1.
</event>
<event>
 5   0  0.5998641E-03  0.1159239E+04  0.7818609E-02  0.9149302E-01
       -1   -1    0    0    0  501  0.00000000000E+00  0.00000000000E+00  0.46661598489E+03  0.46661598491E+03  0.50400001928E-02 0.  1.
        1   -1    0    0  501    0  0.00000000000E+00  0.00000000000E+00 -0.71998966417E+03  0.71998966419E+03  0.50400001928E-02 0. -1.
    10030    2    1    2    0    0  0.00000000000E+00  0.00000000000E+00 -0.25337367928E+03  0.11866056491E+04  0.11592388646E+04 0.  0.
        3    1    3    3  502    0  0.15602584579E+03  0.70428116483E+02 -0.69352377859E+03  0.71433845326E+03  0.10100000352E+00 0. -1.
       -3    1    3    3    0  502 -0.15602584579E+03 -0.70428116483E+02  0.44015009930E+03  0.47226719584E+03  0.10100000352E+00 0.  1.
</event>
<event>
 5   0  0.9692981E-03  0.1059623E+04  0.7818609E-02  0.9245465E-01
       -2   -1    0    0    0  501  0.00000000000E+00  0.00000000000E+00  0.65914248711E+03  0.65914248711E+03  0.25500000920E-02 0.  1.
        2   -1    0    0  501    0  0.00000000000E+00  0.00000000000E+00 -0.42585628772E+03  0.42585628773E+03  0.25500000920E-02 0. -1.
    10030    2    1    2    0    0  0.00000000000E+00  0.00000000000E+00  0.23328619939E+03  0.10849987748E+04  0.10596225227E+04 0.  0.
        5    1    3    3  502    0  0.12578117543E+03 -0.38810722473E+03  0.46271608589E+03  0.61690873565E+03  0.46999998093E+01 0. -1.
       -5    1    3    3    0  502 -0.12578117543E+03  0.38810722473E+03 -0.22942988650E+03  0.46809003920E+03  0.46999998093E+01 0.  1.
</event>
<event>
 5   0  0.9719260E-03  0.9855242E+03  0.7818609E-02  0.9324566E-01
       -2   -1    0    0    0  501  0.00000000000E+00  0.00000000000E+00  0.25597880793E+03  0.25597880794E+03  0.25500000920E-02 0. -1.
        2   -1    0    0  501    0  0.00000000000E+00  0.00000000000E+00 -0.94857260470E+03  0.94857260471E+03  0.25500000920E-02 0.  1.
    10030    2    1    2    0    0  0.00000000000E+00  0.00000000000E+00 -0.69259379677E+03  0.12045514126E+04  0.98552419472E+03 0.  0.
        3    1    3    3  502    0 -0.27014604704E+03  0.35283782784E+02 -0.84814788609E+03  0.89083033117E+03  0.10100000352E+00 0.  1.
       -3    1    3    3    0  502  0.27014604704E+03 -0.35283782784E+02  0.15555408932E+03  0.31372108148E+03  0.10100000352E+00 0. -1.
</event>
<event>
 5   0  0.5998641E-03  0.1126251E+04  0.7818609E-02  0.9179976E-01
       -1   -1    0    0    0  501  0.00000000000E+00  0.00000000000E+00  0.16501477652E+03  0.16501477659E+03  0.50400001928E-02 0.  1.
        1   -1    0    0  501    0  0.00000000000E+00  0.00000000000E+00 -0.19217103704E+04  0.19217103705E+04  0.50400001928E-02 0. -1.
    10030    2    1    2    0    0  0.00000000000E+00  0.00000000000E+00 -0.17566955939E+04  0.20867251470E+04  0.11262514948E+04 0.  0.
        3    1    3    3  502    0 -0.52775741342E+03 -0.10261385510E+03 -0.56802023484E+03  0.78211539307E+03  0.10100000352E+00 0.  1.
       -3    1    3    3    0  502  0.52775741342E+03  0.10261385510E+03 -0.11886753591E+04  0.13046097540E+04  0.10100000352E+00 0. -1.
</event>
<event>
 5   0  0.9925021E-03  0.8105695E+03  0.7818609E-02  0.9544843E-01
       -2   -1    0    0    0  501  0.00000000000E+00  0.00000000000E+00  0.11595753443E+03  0.11595753446E+03  0.25500000920E-02 0.  1.
        2   -1    0    0  501    0  0.00000000000E+00  0.00000000000E+00 -0.14165162252E+04  0.14165162252E+04  0.25500000920E-02 0. -1.
    10030    2    1    2    0    0  0.00000000000E+00  0.00000000000E+00 -0.13005586908E+04  0.15324737597E+04  0.81056950097E+03 0.  0.
        4    1    3    3  502    0  0.28642436576E+03 -0.28291746861E+03 -0.56214947516E+03  0.69144403726E+03  0.12699999809E+01 0.  1.
       -4    1    3    3    0  502 -0.28642436576E+03  0.28291746861E+03 -0.73840921562E+03  0.84102972240E+03  0.12699999809E+01 0. -1.
</event>
<event>
 5   0  0.9692981E-03  0.1095191E+04  0.7818609E-02  0.9209891E-01
        2   -1    0    0  501    0  0.00000000000E+00  0.00000000000E+00  0.10379948256E+04  0.10379948256E+04  0.25500000920E-02 0.  1.
       -2   -1    0    0    0  501  0.00000000000E+00  0.00000000000E+00 -0.28888493662E+03  0.28888493663E+03  0.25500000920E-02 0. -1.
    10030    2    1    2    0    0  0.00000000000E+00  0.00000000000E+00  0.74910988902E+03  0.13268797623E+04  0.10951914343E+04 0.  0.
        5    1    3    3  502    0  0.13933371362E+03  0.63283780417E+02  0.10115359271E+04  0.10230570573E+04  0.46999998093E+01 0.  1.
       -5    1    3    3    0  502 -0.13933371362E+03 -0.63283780417E+02 -0.26242603808E+03  0.30382270500E+03  0.46999998093E+01 0. -1.
</event>
<event>
 5   0  0.5958706E-03  0.1118765E+04  0.7818609E-02  0.9187092E-01
       -1   -1    0    0    0  501  0.00000000000E+00  0.00000000000E+00  0.54316213078E+03  0.54316213080E+03  0.50400001928E-02 0. -1.
        1   -1    0    0  501    0  0.00000000000E+00  0.00000000000E+00 -0.57608770250E+03  0.57608770252E+03  0.50400001928E-02 0.  1.
    10030    2    1    2    0    0  0.00000000000E+00  0.00000000000E+00 -0.32925571723E+02  0.11192498333E+04  0.11187654339E+04 0.  0.
        2    1    3    3  502    0  0.86533662407E+02 -0.54756556029E+03 -0.91280903494E+02  0.56182588130E+03  0.25500000920E-02 0.  1.
       -2    1    3    3    0  502 -0.86533662407E+02  0.54756556029E+03  0.58355331771E+02  0.55742395203E+03  0.25500000920E-02 0. -1.
</event>
<event>
 5   0  0.5854579E-03  0.1108436E+04  0.7818609E-02  0.9197009E-01
        1   -1    0    0  501    0  0.00000000000E+00  0.00000000000E+00  0.34207997058E+03  0.34207997062E+03  0.50400001928E-02 0. -1.
       -1   -1    0    0    0  501  0.00000000000E+00  0.00000000000E+00 -0.89791102443E+03  0.89791102444E+03  0.50400001928E-02 0.  1.
    10030    2    1    2    0    0  0.00000000000E+00  0.00000000000E+00 -0.55583105385E+03  0.12399909951E+04  0.11084356127E+04 0.  0.
        4    1    3    3  502    0 -0.13254928913E+03 -0.30523413157E+03 -0.77370732554E+03  0.84223620654E+03  0.12699999809E+01 0.  1.
       -4    1    3    3    0  502  0.13254928913E+03  0.30523413157E+03  0.21787627169E+03  0.39775478851E+03  0.12699999809E+01 0. -1.
</event>
<event>
 5   0  0.5998641E-03  0.9645872E+03  0.7818609E-02  0.9348261E-01
        1   -1    0    0  501    0  0.00000000000E+00  0.00000000000E+00  0.20415416182E+03  0.20415416188E+03  0.50400001928E-02 0. -1.
       -1   -1    0    0    0  501  0.00000000000E+00  0.00000000000E+00 -0.11393699457E+04  0.11393699457E+04  0.50400001928E-02 0.  1.
    10030    2    1    2    0    0  0.00000000000E+00  0.00000000000E+00 -0.93521578388E+03  0.13435241076E+04  0.96458719940E+03 0.  0.
        3    1    3    3  502    0 -0.26659586606E+03  0.36462171605E+03 -0.23211857898E+03  0.50783993199E+03  0.10100000352E+00 0. -1.
       -3    1    3    3    0  502  0.26659586606E+03 -0.36462171605E+03 -0.70309720490E+03  0.83568417560E+03  0.10100000352E+00 0.  1.
</event>
<event>
 5   0  0.5712664E-03  0.1088025E+04  0.7818609E-02  0.9216943E-01
       -1   -1    0    0    0  501  0.00000000000E+00  0.00000000000E+00  0.45228333890E+03  0.45228333893E+03  0.50400001928E-02 0.  1.
        1   -1    0    0  501    0  0.00000000000E+00  0.00000000000E+00 -0.65434555032E+03  0.65434555034E+03  0.50400001928E-02 0. -1.
    10030    2    1    2    0    0  0.00000000000E+00  0.00000000000E+00 -0.20206221142E+03  0.11066288893E+04  0.10880249819E+04 0.  0.
        5    1    3    3  502    0 -0.38247634841E+03  0.38668932469E+03 -0.11173286979E+03  0.55526850723E+03  0.46999998093E+01 0. -1.
       -5    1    3    3    0  502  0.38247634841E+03 -0.38668932469E+03 -0.90329341625E+02  0.55136038204E+03  0.46999998093E+01 0.  1.
</event>
<event>
 5   0  0.1019384E-02  0.1098806E+04  0.7818609E-02  0.9206357E-01
       -2   -1    0    0    0  501  0.00000000000E+00  0.00000000000E+00  0.33238818386E+03  0.33238818387E+03  0.25500000920E-02 0. -1.
        2   -1    0    0  501    0  0.00000000000E+00  0.00000000000E+00 -0.90810565950E+03  0.90810565950E+03  0.25500000920E-02 0.  1.
    10030    2    1    2    0    0  0.00000000000E+00  0.00000000000E+00 -0.57571747564E+03  0.12404938434E+04  0.10988058808E+04 0.  0.
        1    1    3    3  502    0  0.65969587595E+01 -0.39831629137E+02 -0.90642859899E+03  0.90732732993E+03  0.50400001928E-02 0.  1.
       -1    1    3    3    0  502 -0.65969587595E+01  0.39831629137E+02  0.33071112335E+03  0.33316651344E+03  0.50400001928E-02 0. -1.
</event>
<event>
 5   0  0.5789905E-03  0.1104882E+04  0.7818609E-02  0.9200446E-01
       -1   -1    0    0    0  501  0.00000000000E+00  0.00000000000E+00  0.44382990222E+03  0.44382990225E+03  0.50400001928E-02 0. -1.
        1   -1    0    0  501    0  0.00000000000E+00  0.00000000000E+00 -0.68763087398E+03  0.68763087399E+03  0.50400001928E-02 0.  1.
    10030    2    1    2    0    0  0.00000000000E+00  0.00000000000E+00 -0.24380097175E+03  0.11314607762E+04  0.11048821541E+04 0.  0.
        1    1    3    3  502    0 -0.37685944616E+03 -0.14658788001E+03 -0.50735928459E+03  0.64878693915E+03  0.50400001928E-02 0.  1.
       -1    1    3    3    0  502  0.37685944616E+03  0.14658788001E+03  0.26355831284E+03  0.48267383710E+03  0.50400001928E-02 0. -1.
</event>
<event>
 5   0  0.1019384E-02  0.1128758E+04  0.7818609E-02  0.9177607E-01
       -2   -1    0    0    0  501  0.00000000000E+00  0.00000000000E+00  0.54234046976E+03  0.54234046977E+03  0.25500000920E-02 0. -1.
        2   -1    0    0  501    0  0.00000000000E+00  0.00000000000E+00 -0.58731313628E+03  0.58731313629E+03  0.25500000920E-02 0.  1.
    10030    2    1    2    0    0  0.00000000000E+00  0.00000000000E+00 -0.44972666519E+02  0.11296536061E+04  0.11287580471E+04 0.  0.
        1    1    3    3  502    0  0.26168804799E+03 -0.47189478790E+03  0.14304851648E+03  0.55823669120E+03  0.50400001928E-02 0. -1.
       -1    1    3    3    0  502 -0.26168804799E+03  0.47189478790E+03 -0.18802118300E+03  0.57141691486E+03  0.50400001928E-02 0.  1.
</event>
<event>
 5   0  0.5998641E-03  0.1174506E+04  0.7818609E-02  0.9135469E-01
        1   -1    0    0  501    0  0.00000000000E+00  0.00000000000E+00  0.22308823739E+03  0.22308823744E+03  0.50400001928E-02 0.  1.
       -1   -1    0    0    0  501  0.00000000000E+00  0.00000000000E+00 -0.15458717472E+04  0.15458717472E+04  0.50400001928E-02 0. -1.
    10030    2    1    2    0    0  0.00000000000E+00  0.00000000000E+00 -0.13227835098E+04  0.17689599847E+04  0.11745055187E+04 0.  0.
        3    1    3    3  502    0  0.28728475225E+03 -0.45694168880E+03 -0.10098832819E+04  0.11450731370E+04  0.10100000352E+00 0. -1.
       -3    1    3    3    0  502 -0.28728475225E+03  0.45694168880E+03 -0.31290022793E+03  0.62388684766E+03  0.10100000352E+00 0.  1.
</event>
<event>
 5   0  0.5958706E-03  0.1130244E+04  0.7818609E-02  0.9176205E-01
       -1   -1    0    0    0  501  0.00000000000E+00  0.00000000000E+00  0.12946709407E+04  0.12946709408E+04  0.50400001928E-02 0.  1.
        1   -1    0    0  501    0  0.00000000000E+00  0.00000000000E+00 -0.24667490054E+03  0.24667490059E+03  0.50400001928E-02 0. -1.
    10030    2    1    2    0    0  0.00000000000E+00  0.00000000000E+00  0.10479960402E+04  0.15413458413E+04  0.11302439128E+04 0.  0.
        2    1    3    3  502    0  0.12030322489E+03  0.12457474508E+03 -0.20959550640E+03  0.27188602270E+03  0.25500000920E-02 0. -1.
       -2    1    3    3    0  502 -0.12030322489E+03 -0.12457474508E+03  0.12575915466E+04  0.12694598186E+04  0.25500000920E-02 0.  1.
</event>
<event>
 5   0  0.5712664E-03  0.1104089E+04  0.7818609E-02  0.9201216E-01
       -1   -1    0    0    0  501  0.00000000000E+00  0.00000000000E+00  0.33137128660E+03  0.33137128663E+03  0.50400001928E-02 0.  1.
        1   -1    0    0  501    0  0.00000000000E+00  0.00000000000E+00 -0.91967272394E+03  0.91967272395E+03  0.50400001928E-02 0. -1.
    10030    2    1    2    0    0  0.00000000000E+00  0.00000000000E+00 -0.58830143734E+03  0.12510440106E+04  0.11040890069E+04 0.  0.
        5    1    3    3  502    0  0.15610098937E+03 -0.45764450598E+03 -0.59591530359E+03  0.76742631685E+03  0.46999998093E+01 0. -1.
       -5    1    3    3    0  502 -0.15610098937E+03  0.45764450598E+03  0.76138662484E+01  0.48361769374E+03  0.46999998093E+01 0.  1.
</event>
<event>
 5   0  0.9692981E-03  0.7939632E+03  0.7818609E-02  0.9568796E-01
       -2   -1    0    0    0  501  0.00000000000E+00  0.00000000000E+00  0.15084097477E+03  0.15084097479E+03  0.25500000920E-02 0.  1.
        2   -1    0    0  501    0  0.00000000000E+00  0.00000000000E+00 -0.10447717647E+04  0.10447717647E+04  0.25500000920E-02 0. -1.
    10030    2    1    2    0    0  0.00000000000E+00  0.00000000000E+00 -0.89393078996E+03  0.11956127395E+04  0.79396320172E+03 0.  0.
        5    1    3    3  502    0  0.79804562569E+02  0.23165656524E+03 -0.91726952722E+03  0.94944141894E+03  0.46999998093E+01 0. -1.
       -5    1    3    3    0  502 -0.79804562569E+02 -0.23165656524E+03  0.23338737265E+02  0.24617132059E+03  0.46999998093E+01 0.  1.
</event>
<event>
 5   0  0.9692981E-03  0.1105569E+04  0.7818609E-02  0.9199780E-01
       -2   -1    0    0    0  501  0.00000000000E+00  0.00000000000E+00  0.67342413668E+03  0.67342413669E+03  0.25500000920E-02 0.  1.
        2   -1    0    0  501    0  0.00000000000E+00  0.00000000000E+00 -0.45375706705E+03  0.45375706705E+03  0.25500000920E-02 0. -1.
    10030    2    1    2    0    0  0.00000000000E+00  0.00000000000E+00  0.21966706964E+03  0.11271812037E+04  0.11055694662E+04 0.  0.
        5    1    3    3  502    0 -0.19149089203E+03  0.51853264990E+03  0.10779433625E+03  0.56319319924E+03  0.46999998093E+01 0. -1.
       -5    1    3    3    0  502  0.19149089203E+03 -0.51853264990E+03  0.11187273339E+03  0.56398800450E+03  0.46999998093E+01 0.  1.
</event>
<event>
 5   0  0.9692981E-03  0.1030648E+04  0.7818609E-02  0.9275555E-01
        2   -1    0    0  501    0  0.00000000000E+00  0.00000000000E+00  0.74448346713E+03  0.74448346714E+03  0.25500000920E-02 0. -1.
       -2   -1    0    0    0  501  0.00000000000E+00  0.00000000000E+00 -0.35670186627E+03  0.35670186628E+03  0.25500000920E-02 0.  1.
    10030    2    1    2    0    0  0.00000000000E+00  0.00000000000E+00  0.38778160087E+03  0.11011853334E+04  0.10306476452E+04 0.  0.
        5    1    3    3  502    0  0.15962624899E+03 -0.21268052427E+03  0.66548703041E+03  0.71666493036E+03  0.46999998093E+01 0. -1.
       -5    1    3    3    0  502 -0.15962624899E+03  0.21268052427E+03 -0.27770542954E+03  0.38452040306E+03  0.46999998093E+01 0.  1.
</event>
<event>
 5   0  0.5854579E-03  0.1109551E+04  0.7818609E-02  0.9195933E-01
        1   -1    0    0  501    0  0.00000000000E+00  0.00000000000E+00  0.11424003520E+04  0.11424003520E+04  0.50400001928E-02 0.  1.
       -1   -1    0    0    0  501  0.00000000000E+00  0.00000000000E+00 -0.26941135365E+03  0.26941135370E+03  0.50400001928E-02 0. -1.
    10030    2    1    2    0    0  0.00000000000E+00  0.00000000000E+00  0.87298899834E+03  0.14118117057E+04  0.11095505852E+04 0.  0.
        4    1    3    3  502    0  0.20954128435E+02  0.18820782922E+03 -0.22701089449E+03  0.29562953438E+03  0.12699999809E+01 0. -1.
       -4    1    3    3    0  502 -0.20954128435E+02 -0.18820782922E+03  0.10999998928E+04  0.11161821713E+04  0.12699999809E+01 0.  1.
</event>
<event>
 5   0  0.1028016E-02  0.1058066E+04  0.7818609E-02  0.9247056E-01
       -2   -1    0    0    0  501  0.00000000000E+00  0.00000000000E+00  0.66328776956E+03  0.66328776956E+03  0.25500000920E-02 0. -1.
        2   -1    0    0  501    0  0.00000000000E+00  0.00000000000E+00 -0.42195216882E+03  0.42195216882E+03  0.25500000920E-02 0.  1.
    10030    2    1    2    0    0  0.00000000000E+00  0.00000000000E+00  0.24133560074E+03  0.10852399384E+04  0.10580656179E+04 0.  0.
        2    1    3    3  502    0  0.54168808364E+02 -0.98283035023E+02  0.65093887698E+03  0.66054162348E+03  0.25500000920E-02 0. -1.
       -2    1    3    3    0  502 -0.54168808364E+02  0.98283035023E+02 -0.40960327624E+03  0.42469831491E+03  0.25500000920E-02 0.  1.
</event>
<event>
 5   0  0.9719260E-03  0.1035926E+04  0.7818609E-02  0.9269997E-01
       -2   -1    0    0    0  501  0.00000000000E+00  0.00000000000E+00  0.71873962565E+03  0.71873962565E+03  0.25500000920E-02 0.  1.
        2   -1    0    0  501    0  0.00000000000E+00  0.00000000000E+00 -0.37327225039E+03  0.37327225039E+03  0.25500000920E-02 0. -1.
    10030    2    1    2    0    0  0.00000000000E+00  0.00000000000E+00  0.34546737526E+03  0.10920118760E+04  0.10359257840E+04 0.  0.
        3    1    3    3  502    0 -0.23697682079E+03  0.39083980510E+03  0.42958911999E+03  0.62726436935E+03  0.10100000352E+00 0.  1.
       -3    1    3    3    0  502  0.23697682079E+03 -0.39083980510E+03 -0.84121744729E+02  0.46474750669E+03  0.10100000352E+00 0. -1.
</event>
<event>
 5   0  0.5789905E-03  0.1115896E+04  0.7818609E-02  0.9189836E-01
        1   -1    0    0  501    0  0.00000000000E+00  0.00000000000E+00  0.34773789425E+03  0.34773789429E+03  0.50400001928E-02 0.  1.
       -1   -1    0    0    0  501  0.00000000000E+00  0.00000000000E+00 -0.89523148628E+03  0.89523148630E+03  0.50400001928E-02 0. -1.
    10030    2    1    2    0    0  0.00000000000E+00  0.00000000000E+00 -0.54749359203E+03  0.12429693806E+04  0.11158958947E+04 0.  0.
        1    1    3    3  502    0  0.20621577494E+03  0.24996249938E+03 -0.77967170761E+03  0.84433060386E+03  0.50400001928E-02 0. -1.
       -1    1    3    3    0  502 -0.20621577494E+03 -0.24996249938E+03  0.23217811558E+03  0.39863877673E+03  0.50400001928E-02 0.  1.
</event>
<event>
 5   0  0.9719260E-03  0.1098810E+04  0.7818609E-02  0.9206353E-01
        2   -1    0    0  501    0  0.00000000000E+00  0.00000000000E+00  0.57158018751E+03  0.57158018751E+03  0.25500000920E-02 0. -1.
       -2   -1    0    0    0  501  0.00000000000E+00  0.00000000000E+00 -0.52808992007E+03  0.52808992008E+03  0.25500000920E-02 0.  1.
    10030    2    1    2    0    0  0.00000000000E+00  0.00000000000E+00  0.43490267435E+02  0.10996701076E+04  0.10988097843E+04 0.  0.
        3    1    3    3  502    0 -0.16063447417E+03 -0.27862430421E+03 -0.42403688128E+03  0.53220505829E+03  0.10100000352E+00 0.  1.
       -3    1    3    3    0  502  0.16063447417E+03  0.27862430421E+03  0.46752714872E+03  0.56746504930E+03  0.10100000352E+00 0. -1.
</event>
<event>
 5   0  0.5854579E-03  0.1088716E+04  0.7818609E-02  0.9216260E-01
        1   -1    0    0  501    0  0.00000000000E+00  0.00000000000E+00  0.38280408159E+03  0.38280408163E+03  0.50400001928E-02 0.  1.
       -1   -1    0    0    0  501  0.00000000000E+00  0.00000000000E+00 -0.77409265230E+03  0.77409265231E+03  0.50400001928E-02 0. -1.
    10030    2    1    2    0    0  0.00000000000E+00  0.00000000000E+00 -0.39128857070E+03  0.11568967339E+04  0.10887163577E+04 0.  0.
        4    1    3    3  502    0  0.13097883745E+02  0.47554218716E+03 -0.47681299062E+03  0.67354596521E+03  0.12699999809E+01 0. -1.
       -4    1    3    3    0  502 -0.13097883745E+02 -0.47554218716E+03  0.85524419916E+02  0.48335076873E+03  0.12699999809E+01 0.  1.
</event>
<event>
 5   0  0.9692981E-03  0.1088984E+04  0.7818609E-02  0.9215996E-01
        2   -1    0    0  501    0  0.00000000000E+00  0.00000000000E+00  0.44002491399E+03  0.44002491400E+03  0.25500000920E-02 0. -1.
       -2   -1    0    0    0  501  0.00000000000E+00  0.00000000000E+00 -0.67376085517E+03  0.67376085517E+03  0.25500000920E-02 0.  1.
    10030    2    1    2    0    0  0.00000000000E+00  0.00000000000E+00 -0.23373594117E+03  0.11137857692E+04  0.10889840446E+04 0.  0.
        5    1    3    3  502    0 -0.32068941593E+03 -0.42217395086E+03 -0.24369590262E+03  0.58350863681E+03  0.46999998093E+01 0.  1.
       -5    1    3    3    0  502  0.32068941593E+03  0.42217395086E+03  0.99599614481E+01  0.53027713236E+03  0.46999998093E+01 0. -1.
</event>
<event>
 5   0  0.5998641E-03  0.1090058E+04  0.7818609E-02  0.9214937E-01
       -1   -1    0    0    0  501  0.00000000000E+00  0.00000000000E+00  0.24113867443E+03  0.24113867448E+03  0.50400001928E-02 0. -1.
        1   -1    0    0  501    0  0.00000000000E+00  0.00000000000E+00 -0.12318906688E+04  0.12318906688E+04  0.50400001928E-02 0.  1.
    10030    2    1    2    0    0  0.00000000000E+00  0.00000000000E+00 -0.99075199437E+03  0.14730293433E+04  0.10900577654E+04 0.  0.
        3    1    3    3  502    0 -0.98162303246E+02 -0.52728303052E+03 -0.36440666567E+03  0.64842536983E+03  0.10100000352E+00 0. -1.
       -3    1    3    3    0  502  0.98162303246E+02  0.52728303052E+03 -0.62634532871E+03  0.82460397346E+03  0.10100000352E+00 0.  1.
</event>
<event>
 5   0  0.1028016E-02  0.1004630E+04  0.7818609E-02  0.9303482E-01
       -2   -1    0    0    0  501  0.00000000000E+00  0.00000000000E+00  0.60589032162E+03  0.60589032162E+03  0.25500000920E-02 0.  1.
        2   -1    0    0  501    0  0.00000000000E+00  0.00000000000E+00 -0.41644526423E+03  0.41644526424E+03  0.25500000920E-02 0. -1.
    10030    2    1    2    0    0  0.00000000000E+00  0.00000000000E+00  0.18944505739E+03  0.10223355859E+04  0.10046295936E+04 0.  0.
        2    1    3    3  502    0  0.26655530300E+03  0.29801610847E+03  0.40414532070E+03  0.56850573499E+03  0.25500000920E-02 0.  1.
       -2    1    3    3    0  502 -0.26655530300E+03 -0.29801610847E+03 -0.21470026332E+03  0.45382985087E+03  0.25500000920E-02 0. -1.
</event>
<event>
 5   0  0.5712664E-03  0.9255766E+03  0.7818609E-02  0.9394162E-01
       -1   -1    0    0    0  501  0.00000000000E+00  0.00000000000E+00  0.70258068020E+03  0.70258068022E+03  0.50400001928E-02 0. -1.
        1   -1    0    0  501    0  0.00000000000E+00  0.00000000000E+00 -0.30483757455E+03  0.30483757459E+03  0.50400001928E-02 0.  1.
    10030    2    1    2    0    0  0.00000000000E+00  0.00000000000E+00  0.39774310565E+03  0.10074182548E+04  0.92557655654E+03 0.  0.
        5    1    3    3  502    0  0.36096011442E+03  0.24277661104E+03  0.27058592477E+02  0.43587491841E+03  0.46999998093E+01 0. -1.
       -5    1    3    3    0  502 -0.36096011442E+03 -0.24277661104E+03  0.37068451318E+03  0.57154333640E+03  0.46999998093E+01 0.  1.
</event>
<event>
 5   0  0.5958706E-03  0.1101018E+04  0.7818609E-02  0.9204200E-01
        1   -1    0    0  501    0  0.00000000000E+00  0.00000000000E+00  0.37282319263E+03  0.37282319266E+03  0.50400001928E-02 0. -1.
       -1   -1    0    0    0  501  0.00000000000E+00  0.00000000000E+00 -0.81287968989E+03  0.81287968991E+03  0.50400001928E-02 0.  1.
    10030    2    1    2    0    0  0.00000000000E+00  0.00000000000E+00 -0.44005649726E+03  0.11857028826E+04  0.11010184399E+04 0.  0.
        2    1    3    3  502    0 -0.27786417402E+03  0.42124305135E+03 -0.45696462942E+03  0.68078695644E+03  0.25500000920E-02 0.  1.
       -2    1    3    3    0  502  0.27786417402E+03 -0.42124305135E+03  0.16908132156E+02  0.50491592613E+03  0.25500000920E-02 0. -1.
</event>
<event>
 5   0  0.5712664E-03  0.1104227E+04  0.7818609E-02  0.9201082E-01
       -1   -1    0    0    0  501  0.00000000000E+00  0.00000000000E+00  0.61916123787E+03  0.61916123789E+03  0.50400001928E-02 0.  1.
        1   -1    0    0  501    0  0.00000000000E+00  0.00000000000E+00 -0.49232599516E+03  0.49232599519E+03  0.50400001928E-02 0. -1.
    10030    2    1    2    0    0  0.00000000000E+00  0.00000000000E+00  0.12683524271E+03  0.11114872331E+04  0.11042267387E+04 0.  0.
        5    1    3    3  502    0  0.61295565005E+02 -0.21924085886E+03  0.56969930592E+03  0.61351698400E+03  0.46999998093E+01 0.  1.
       -5    1    3    3    0  502 -0.61295565005E+02  0.21924085886E+03 -0.44286406322E+03  0.49797024908E+03  0.46999998093E+01 0. -1.
</event>
<event>
 5   0  0.9719260E-03  0.1100487E+04  0.7818609E-02  0.9204717E-01
        2   -1    0    0  501    0  0.00000000000E+00  0.00000000000E+00  0.92236837998E+03  0.92236837998E+03  0.25500000920E-02 0. -1.
       -2   -1    0    0    0  501  0.00000000000E+00  0.00000000000E+00 -0.32825077557E+03  0.32825077558E+03  0.25500000920E-02 0.  1.
    10030    2    1    2    0    0  0.00000000000E+00  0.00000000000E+00  0.59411760441E+03  0.12506191556E+04  0.11004874122E+04 0.  0.
        3    1    3    3  502    0 -0.36008604284E+03 -0.16382967488E+03  0.73168079357E+03  0.83178056872E+03  0.10100000352E+00 0. -1.
       -3    1    3    3    0  502  0.36008604284E+03  0.16382967488E+03 -0.13756318917E+03  0.41883858685E+03  0.10100000352E+00 0.  1.
</event>
<event>
 5   0  0.5712664E-03  0.1081907E+04  0.7818609E-02  0.9223008E-01
        1   -1    0    0  501    0  0.00000000000E+00  0.00000000000E+00  0.18932075414E+04  0.18932075414E+04  0.50400001928E-02 0.  1.
       -1   -1    0    0    0  501  0.00000000000E+00  0.00000000000E+00 -0.15456864477E+03  0.15456864485E+03  0.50400001928E-02 0. -1.
    10030    2    1    2    0    0  0.00000000000E+00  0.00000000000E+00  0.17386388966E+04  0.20477761862E+04  0.10819066947E+04 0.  0.
        5    1    3    3  502    0  0.23503591719E+03 -0.40704537438E+02  0.17882472700E+04  0.18040923286E+04  0.46999998093E+01 0.  1.
       -5    1    3    3    0  502 -0.23503591719E+03  0.40704537438E+02 -0.49608373375E+02  0.24368385758E+03  0.46999998093E+01 0. -1.
</event>
<event>
 5   0  0.1019384E-02  0.1081637E+04  0.7818609E-02  0.9223276E-01
       -2   -1    0    0    0  501  0.00000000000E+00  0.00000000000E+00  0.29680712882E+03  0.29680712883E+03  0.25500000920E-02 0. -1.
        2   -1    0    0  501    0  0.00000000000E+00  0.00000000000E+00 -0.98543744730E+03  0.98543744731E+03  0.25500000920E-02 0.  1.
    10030    2    1    2    0    0  0.00000000000E+00  0.00000000000E+00 -0.68863031849E+03  0.12822445761E+04  0.10816373872E+04 0.  0.
        1    1    3    3  502    0  0.13883916982E+03 -0.27723313197E+03 -0.86961225940E+03  0.92323345166E+03  0.50400001928E-02 0.  1.
       -1    1    3    3    0  502 -0.13883916982E+03  0.27723313197E+03  0.18098194091E+03  0.35901112448E+03  0.50400001928E-02 0. -1.
</event>
<event>
 5   0  0.9692981E-03  0.1084169E+04  0.7818609E-02  0.9220760E-01
       -2   -1    0    0    0  501  0.00000000000E+00  0.00000000000E+00  0.46141173047E+03  0.46141173048E+03  0.25500000920E-02 0. -1.
        2   -1    0    0  501    0  0.00000000000E+00  0.00000000000E+00 -0.63686245958E+03  0.63686245959E+03  0.25500000920E-02 0.  1.
    10030    2    1    2    0    0  0.00000000000E+00  0.00000000000E+00 -0.17545072912E+03  0.10982741901E+04  0.10841693771E+04 0.  0.
        5    1    3    3  502    0  0.94032569385E+02 -0.53313066750E+03 -0.11571244031E+03  0.55360806675E+03  0.46999998093E+01 0.  1.
       -5    1    3    3    0  502 -0.94032569385E+02  0.53313066750E+03 -0.59738288806E+02  0.54466612331E+03  0.46999998093E+01 0. -1.
</event>
<event>
 5   0  0.9692981E-03  0.1037032E+04  0.7818609E-02  0.9268836E-01
        2   -1    0    0  501    0  0.00000000000E+00  0.00000000000E+00  0.62913419089E+03  0.62913419090E+03  0.25500000920E-02 0.  1.
       -2   -1    0    0    0  501  0.00000000000E+00  0.00000000000E+00 -0.42734722551E+03  0.42734722552E+03  0.25500000920E-02 0. -1.
    10030    2    1    2    0    0  0.00000000000E+00  0.00000000000E+00  0.20178696538E+03  0.10564814164E+04  0.10370318239E+04 0.  0.
        5    1    3    3  502    0 -0.46800974624E+03 -0.22237995013E+03  0.11997159015E+03  0.53188460895E+03  0.46999998093E+01 0.  1.
       -5    1    3    3    0  502  0.46800974624E+03  0.22237995013E+03  0.81815375226E+02  0.52459680747E+03  0.46999998093E+01 0. -1.
</event>
<event>
 5   0  0.5998641E-03  0.1089149E+04  0.7818609E-02  0.9215833E-01
        1   -1    0    0  501    0  0.00000000000E+00  0.00000000000E+00  0.54846340998E+03  0.54846341001E+03  0.50400001928E-02 0.  1.
       -1   -1    0    0    0  501  0.00000000000E+00  0.00000000000E+00 -0.54071358051E+03  0.54071358054E+03  0.50400001928E-02 0. -1.
    10030    2    1    2    0    0  0.00000000000E+00  0.00000000000E+00  0.77498294702E+01  0.10891769905E+04  0.10891494190E+04 0.  0.
        3    1    3    3  502    0  0.50920430871E+03  0.19732676860E+02 -0.18817993388E+03  0.54322196592E+03  0.10100000352E+00 0. -1.
       -3    1    3    3    0  502 -0.50920430871E+03 -0.19732676860E+02  0.19592976335E+03  0.54595502462E+03  0.10100000352E+00 0.  1.
</event>
<event>
 5   0  0.5712664E-03  0.1106420E+04  0.7818609E-02  0.9198957E-01
       -1   -1    0    0    0  501  0.00000000000E+00  0.00000000000E+00  0.30439145181E+03  0.30439145185E+03  0.50400001928E-02 0.  1.
        1   -1    0    0  501    0  0.00000000000E+00  0.00000000000E+00 -0.10054197880E+04  0.10054197880E+04  0.50400001928E-02 0. -1.
    10030    2    1    2    0    0  0.00000000000E+00  0.00000000000E+00 -0.70102833615E+03  0.13098112398E+04  0.11064197919E+04 0.  0.
        5    1    3    3  502    0  0.41642129421E+03 -0.34962068280E+03 -0.22991590120E+03  0.59035982904E+03  0.46999998093E+01 0.  1.
       -5    1    3    3    0  502 -0.41642129421E+03  0.34962068280E+03 -0.47111243495E+03  0.71945141078E+03  0.46999998093E+01 0. -1.
</event>
<event>
 5   0  0.9692981E-03  0.1069531E+04  0.7818609E-02  0.9235408E-01
        2   -1    0    0  501    0  0.00000000000E+00  0.00000000000E+00  0.16240430791E+04  0.16240430791E+04  0.25500000920E-02 0. -1.
       -2   -1    0    0    0  501  0.00000000000E+00  0.00000000000E+00 -0.17608788847E+03  0.17608788849E+03  0.25500000920E-02 0.  1.
    10030    2    1    2    0    0  0.00000000000E+00  0.00000000000E+00  0.14479551906E+04  0.18001309676E+04  0.10695313303E+04 0.  0.
        5    1    3    3  502    0 -0.41098159896E+02  0.80277104694E+02  0.16111159825E+04  0.16136450264E+04  0.46999998093E+01 0. -1.
       -5    1    3    3    0  502  0.41098159896E+02 -0.80277104694E+02 -0.16316079182E+03  0.18648594121E+03  0.46999998093E+01 0.  1.
</event>
<event>
 5   0  0.5958706E-03  0.1102303E+04  0.7818609E-02  0.9202950E-01
       -1   -1    0    0    0  501  0.00000000000E+00  0.00000000000E+00  0.39301699722E+03  0.39301699726E+03  0.50400001928E-02 0. -1.
        1   -1    0    0  501    0  0.00000000000E+00  0.00000000000E+00 -0.77291373089E+03  0.77291373091E+03  0.50400001928E-02 0.  1.
    10030    2    1    2    0    0  0.00000000000E+00  0.00000000000E+00 -0.37989673367E+03  0.11659307282E+04  0.11023034676E+04 0.  0.
        2    1    3    3  502    0  0.27321549907E+03 -0.16441269176E+03  0.28554446861E+03  0.42803491178E+03  0.25500000920E-02 0. -1.
       -2    1    3    3    0  502 -0.27321549907E+03  0.16441269176E+03 -0.66544120228E+03  0.73789581639E+03  0.25500000920E-02 0.  1.
</event>
<event>
 5   0  0.1019384E-02  0.1083069E+04  0.7818609E-02  0.9221853E-01
       -2   -1    0    0    0  501  0.00000000000E+00  0.00000000000E+00  0.37719709763E+03  0.37719709764E+03  0.25500000920E-02 0.  1.
        2   -1    0    0  501    0  0.00000000000E+00  0.00000000000E+00 -0.77747036547E+03  0.77747036547E+03  0.25500000920E-02 0. -1.
    10030    2    1    2    0    0  0.00000000000E+00  0.00000000000E+00 -0.40027326784E+03  0.11546674631E+04  0.10830689089E+04 0.  0.
        1    1    3    3  502    0  0.30988270875E+03  0.26637513363E+03 -0.57898220199E+03  0.70866310419E+03  0.50400001928E-02 0. -1.
       -1    1    3    3    0  502 -0.30988270875E+03 -0.26637513363E+03  0.17870893415E+03  0.44600435891E+03  0.50400001928E-02 0.  1.
</event>
<event>
 5   0  0.5712664E-03  0.1104517E+04  0.7818609E-02  0.9200801E-01
       -1   -1    0    0    0  501  0.00000000000E+00  0.00000000000E+00  0.27289778595E+03  0.27289778599E+03  0.50400001928E-02 0. -1.
        1   -1    0    0  501    0  0.00000000000E+00  0.00000000000E+00 -0.11175956617E+04  0.11175956617E+04  0.50400001928E-02 0.  1.
    10030    2    1    2    0    0  0.00000000000E+00  0.00000000000E+00 -0.84469787571E+03  0.13904934477E+04  0.11045168748E+04 0.  0.
        5    1    3    3  502    0 -0.16572253092E+03 -0.40537292603E+03 -0.84586901389E+03  0.95252697866E+03  0.46999998093E+01 0.  1.
       -5    1    3    3    0  502  0.16572253092E+03  0.40537292603E+03  0.11711381758E+01  0.43796646901E+03  0.46999998093E+01 0. -1.
</event>
<event>
 5   0  0.5789905E-03  0.1118770E+04  0.7818609E-02  0.9187088E-01
       -1   -1    0    0    0  501  0.00000000000E+00  0.00000000000E+00  0.69523049658E+03  0.69523049660E+03  0.50400001928E-02 0. -1.
        1   -1    0    0  501    0  0.00000000000E+00  0.00000000000E+00 -0.45008340729E+03  0.45008340732E+03  0.50400001928E-02 0.  1.
    10030    2    1    2    0    0  0.00000000000E+00  0.00000000000E+00  0.24514708929E+03  0.11453139039E+04  0.11187702370E+04 0.  0.
        1    1    3    3  502    0 -0.14063057708E+03  0.99283669259E+01  0.67674512532E+03  0.69127382154E+03  0.50400001928E-02 0. -1.
       -1    1    3    3    0  502  0.14063057708E+03 -0.99283669259E+01 -0.43159803602E+03  0.45404008238E+03  0.50400001928E-02 0.  1.
</event>
<event>
 5   0  0.5789905E-03  0.1085379E+04  0.7818609E-02  0.9219561E-01
       -1   -1    0    0    0  501  0.00000000000E+00  0.00000000000E+00  0.13583977411E+03  0.13583977420E+03  0.50400001928E-02 0. -1.
        1   -1    0    0  501    0  0.00000000000E+00  0.00000000000E+00 -0.21680829936E+04  0.21680829936E+04  0.50400001928E-02 0.  1.
    10030    2    1    2    0    0  0.00000000000E+00  0.00000000000E+00 -0.20322432194E+04  0.23039227678E+04  0.10853790199E+04 0.  0.
        1    1    3    3  502    0  0.48401597847E+03 -0.19076916710E+03 -0.13439212587E+04  0.14411067594E+04  0.50400001928E-02 0.  1.
       -1    1    3    3    0  502 -0.48401597847E+03  0.19076916710E+03 -0.68832196079E+03  0.86281600835E+03  0.50400001928E-02 0. -1.
</event>
<event>
 5   0  0.5958706E-03  0.1092591E+04  0.7818609E-02  0.9212444E-01
       -1   -1    0    0    0  501  0.00000000000E+00  0.00000000000E+00  0.40773374267E+03  0.40773374271E+03  0.50400001928E-02 0. -1.
        1   -1    0    0  501    0  0.00000000000E+00  0.00000000000E+00 -0.73194462548E+03  0.73194462550E+03  0.50400001928E-02 0.  1.
    10030    2    1    2    0    0  0.00000000000E+00  0.00000000000E+00 -0.32421088281E+03  0.11396783682E+04  0.10925905392E+04 0.  0.
        2    1    3    3  502    0 -0.13995136105E+03 -0.18375906107E+03  0.35429072567E+03  0.42293698619E+03  0.25500000920E-02 0. -1.
       -2    1    3    3    0  502  0.13995136105E+03  0.18375906107E+03 -0.67850160848E+03  0.71674138202E+03  0.25500000920E-02 0.  1.
</event>
<event>
 5   0  0.9925021E-03  0.1141275E+04  0.7818609E-02  0.9165871E-01
       -2   -1    0    0    0  501  0.00000000000E+00  0.00000000000E+00  0.27325759118E+03  0.27325759119E+03  0.25500000920E-02 0. -1.
        2   -1    0    0  501    0  0.00000000000E+00  0.00000000000E+00 -0.11916489131E+04  0.11916489131E+04  0.25500000920E-02 0.  1.
    10030    2    1    2    0    0  0.00000000000E+00  0.00000000000E+00 -0.91839132189E+03  0.14649065043E+04  0.11412749214E+04 0.  0.
        4    1    3    3  502    0 -0.27410860571E+03  0.46798891424E+03 -0.68692122988E+03  0.87522085243E+03  0.12699999809E+01 0.  1.
       -4    1    3    3    0  502  0.27410860571E+03 -0.46798891424E+03 -0.23147009202E+03  0.58968565183E+03  0.12699999809E+01 0. -1.
</event>
<event>
 5   0  0.1019384E-02  0.1080716E+04  0.7818609E-02  0.9224193E-01
        2   -1    0    0  501    0  0.00000000000E+00  0.00000000000E+00  0.12695855550E+04  0.12695855550E+04  0.25500000920E-02 0.  1.
       -2   -1    0    0    0  501  0.00000000000E+00  0.00000000000E+00 -0.22998605822E+03  0.22998605824E+03  0.25500000920E-02 0. -1.
    10030    2    1    2    0    0  0.00000000000E+00  0.00000000000E+00  0.10395994968E+04  0.14995716132E+04  0.10807163872E+04 0.  0.
        1    1    3    3  502    0  0.32735818174E+03  0.22711634331E+03  0.10262953310E+04  0.11009211229E+04  0.50400001928E-02 0.  1.
       -1    1    3    3    0  502 -0.32735818174E+03 -0.22711634331E+03  0.13304165795E+02  0.39865049028E+03  0.50400001928E-02 0. -1.
</event>
<event>
 5   0  0.5854579E-03  0.1072237E+04  0.7818609E-02  0.9232682E-01
       -1   -1    0    0    0  501  0.00000000000E+00  0.00000000000E+00  0.38020834390E+03  0.38020834393E+03  0.50400001928E-02 0.  1.
        1   -1    0    0  501    0  0.00000000000E+00  0.00000000000E+00 -0.75596237727E+03  0.75596237728E+03  0.50400001928E-02 0. -1.
    10030    2    1    2    0    0  0.00000000000E+00  0.00000000000E+00 -0.37575403337E+03  0.11361707212E+04  0.10722372938E+04 0.  0.
        4    1    3    3  502    0 -0.10090685148E+03  0.70900795201E+02  0.36497219831E+03  0.38524723734E+03  0.12699999809E+01 0.  1.
       -4    1    3    3    0  502  0.10090685148E+03 -0.70900795201E+02 -0.74072623168E+03  0.75092348388E+03  0.12699999809E+01 0. -1.
</event>
<event>
 5   0  0.9692981E-03  0.1100282E+04  0.7818609E-02  0.9204917E-01
       -2   -1    0    0    0  501  0.00000000000E+00  0.00000000000E+00  0.70662864866E+03  0.70662864866E+03  0.25500000920E-02 0.  1.
        2   -1    0    0  501    0  0.00000000000E+00  0.00000000000E+00 -0.42830844389E+03  0.42830844389E+03  0.25500000920E-02 0. -1.
    10030    2    1    2    0    0  0.00000000000E+00  0.00000000000E+00  0.27832020477E+03  0.11349370926E+04  0.11002818128E+04 0.  0.
        5    1    3    3  502    0  0.37936571277E+03 -0.60115415390E+02  0.54539269291E+03  0.66708881468E+03  0.46999998093E+01 0.  1.
       -5    1    3    3    0  502 -0.37936571277E+03  0.60115415390E+02 -0.26707248814E+03  0.46784827788E+03  0.46999998093E+01 0. -1.
</event>
<event>
 5   0  0.9719260E-03  0.1136889E+04  0.7818609E-02  0.9169965E-01
       -2   -1    0    0    0  501  0.00000000000E+00  0.00000000000E+00  0.60442763885E+03  0.60442763885E+03  0.25500000920E-02 0. -1.
        2   -1    0    0  501    0  0.00000000000E+00  0.00000000000E+00 -0.53460389280E+03  0.53460389280E+03  0.25500000920E-02 0.  1.
    10030    2    1    2    0    0  0.00000000000E+00  0.00000000000E+00  0.69823746050E+02  0.11390315317E+04  0.11368893854E+04 0.  0.
        3    1    3    3  502    0  0.30745176511E+03  0.14996813537E+03 -0.41993951084E+03  0.54163293148E+03  0.10100000352E+00 0.  1.
       -3    1    3    3    0  502 -0.30745176511E+03 -0.14996813537E+03  0.48976325689E+03  0.59739860018E+03  0.10100000352E+00 0. -1.
</event>
<event>
 5   0  0.9925021E-03  0.1046023E+04  0.7818609E-02  0.9259460E-01
       -2   -1    0    0    0  501  0.00000000000E+00  0.00000000000E+00  0.29893540733E+03  0.29893540735E+03  0.25500000920E-02 0.  1.
        2   -1    0    0  501    0  0.00000000000E+00  0.00000000000E+00 -0.91505031456E+03  0.91505031456E+03  0.25500000920E-02 0. -1.
    10030    2    1    2    0    0  0.00000000000E+00  0.00000000000E+00 -0.61611490722E+03  0.12139857219E+04  0.10460228268E+04 0.  0.
        4    1    3    3  502    0 -0.20299249885E+03 -0.47021508407E+03 -0.18506330562E+03  0.54457159297E+03  0.12699999809E+01 0.  1.
       -4    1    3    3    0  502  0.20299249885E+03  0.47021508407E+03 -0.43105160161E+03  0.66941412894E+03  0.12699999809E+01 0. -1.
</event>
<event>
 5   0  0.1028016E-02  0.1158754E+04  0.7818609E-02  0.9149746E-01
       -2   -1    0    0    0  501  0.00000000000E+00  0.00000000000E+00  0.12243351568E+04  0.12243351568E+04  0.25500000920E-02 0. -1.
        2   -1    0    0  501    0  0.00000000000E+00  0.00000000000E+00 -0.27417119967E+03  0.27417119968E+03  0.25500000920E-02 0.  1.
    10030    2    1    2    0    0  0.00000000000E+00  0.00000000000E+00  0.95016395713E+03  0.14985063565E+04  0.11587535350E+04 0.  0.
        2    1    3    3  502    0  0.21439169817E+03 -0.42091051053E+02  0.11690189274E+04  0.11892605726E+04  0.25500000920E-02 0. -1.
       -2    1    3    3    0  502 -0.21439169817E+03  0.42091051053E+02 -0.21885497030E+03  0.30924578389E+03  0.25500000920E-02 0.  1.
</event>
<event>
 5   0  0.1028016E-02  0.1101553E+04  0.7818609E-02  0.9203679E-01
       -2   -1    0    0    0  501  0.00000000000E+00  0.00000000000E+00  0.29953121286E+03  0.29953121287E+03  0.25500000920E-02 0.  1.
        2   -1    0    0  501    0  0.00000000000E+00  0.00000000000E+00 -0.10127654180E+04  0.10127654180E+04  0.25500000920E-02 0. -1.
    10030    2    1    2    0    0  0.00000000000E+00  0.00000000000E+00 -0.71323420515E+03  0.13122966309E+04  0.11015531835E+04 0.  0.
        2    1    3    3  502    0 -0.15788517642E+03  0.23270822279E+03 -0.92079493278E+03  0.96277939017E+03  0.25500000920E-02 0. -1.
       -2    1    3    3    0  502  0.15788517642E+03 -0.23270822279E+03  0.20756072763E+03  0.34951724071E+03  0.25500000920E-02 0.  1.
</event>
<event>
 5   0  0.1028016E-02  0.1098901E+04  0.7818609E-02  0.9206264E-01
       -2   -1    0    0    0  501  0.00000000000E+00  0.00000000000E+00  0.15879945242E+03  0.15879945244E+03  0.25500000920E-02 0.  1.
        2   -1    0    0  501    0  0.00000000000E+00  0.00000000000E+00 -0.19011142853E+04  0.19011142853E+04  0.25500000920E-02 0. -1.
    10030    2    1    2    0    0  0.00000000000E+00  0.00000000000E+00 -0.17423148329E+04  0.20599137378E+04  0.10989011011E+04 0.  0.
        2    1    3    3  502    0 -0.38599105854E+03  0.30472622729E+03 -0.41180885270E+03  0.64143097995E+03  0.25500000920E-02 0.  1.
       -2    1    3    3    0  502  0.38599105854E+03 -0.30472622729E+03 -0.13305059802E+04  0.14184827578E+04  0.25500000920E-02 0. -1.
</event>
<event>
 5   0  0.9719260E-03  0.1085493E+04  0.7818609E-02  0.9219448E-01
       -2   -1    0    0    0  501  0.00000000000E+00  0.00000000000E+00  0.64872785755E+03  0.64872785755E+03  0.25500000920E-02 0.  1.
        2   -1    0    0  501    0  0.00000000000E+00  0.00000000000E+00 -0.45407921176E+03  0.45407921177E+03  0.25500000920E-02 0. -1.
    10030    2    1    2    0    0  0.00000000000E+00  0.00000000000E+00  0.19464864578E+03  0.11028070693E+04  0.10854931307E+04 0.  0.
        3    1    3    3  502    0 -0.35852550599E+02 -0.53072240735E+03 -0.12201268268E+02  0.53207195021E+03  0.10100000352E+00 0. -1.
       -3    1    3    3    0  502  0.35852550599E+02  0.53072240735E+03  0.20684991405E+03  0.57073511912E+03  0.10100000352E+00 0.  1.
</event>
<event>
 5   0  0.9925021E-03  0.1098593E+04  0.7818609E-02  0.9206564E-01
       -2   -1    0    0    0  501  0.00000000000E+00  0.00000000000E+00  0.20477472061E+03  0.20477472063E+03  0.25500000920E-02 0. -1.
        2   -1    0    0  501    0  0.00000000000E+00  0.00000000000E+00 -0.14734574686E+04  0.14734574686E+04  0.25500000920E-02 0.  1.
    10030    2    1    2    0    0  0.00000000000E+00  0.00000000000E+00 -0.12686827479E+04  0.16782321892E+04  0.10985933578E+04 0.  0.
        4    1    3    3  502    0 -0.23869465561E+03 -0.40835990521E+03 -0.20772169955E+03  0.51660707328E+03  0.12699999809E+01 0. -1.
       -4    1    3    3    0  502  0.23869465561E+03  0.40835990521E+03 -0.10609610484E+04  0.11616251159E+04  0.12699999809E+01 0.  1.
</event>
<event>
 5   0  0.1019384E-02  0.1459897E+04  0.7818609E-02  0.8911568E-01
        2   -1    0    0  501    0  0.00000000000E+00  0.00000000000E+00  0.53990100460E+03  0.53990100460E+03  0.25500000920E-02 0. -1.
       -2   -1    0    0    0  501  0.00000000000E+00  0.00000000000E+00 -0.98689295289E+03  0.98689295289E+03  0.25500000920E-02 0.  1.
    10030    2    1    2    0    0  0.00000000000E+00  0.00000000000E+00 -0.44699194829E+03  0.15267939575E+04  0.14598965672E+04 0.  0.
        1    1    3    3  502    0 -0.13334378177E+03 -0.48863744121E+03  0.32621070316E+03  0.60246206185E+03  0.50400001928E-02 0. -1.
       -1    1    3    3    0  502  0.13334378177E+03  0.48863744121E+03 -0.77320265144E+03  0.92433189565E+03  0.50400001928E-02 0.  1.
</event>
<event>
 5   0  0.5789905E-03  0.1120529E+04  0.7818609E-02  0.9185411E-01
        1   -1    0    0  501    0  0.00000000000E+00  0.00000000000E+00  0.82721937159E+03  0.82721937160E+03  0.50400001928E-02 0. -1.
       -1   -1    0    0    0  501  0.00000000000E+00  0.00000000000E+00 -0.37945964980E+03  0.37945964984E+03  0.50400001928E-02 0.  1.
    10030    2    1    2    0    0  0.00000000000E+00  0.00000000000E+00  0.44775972178E+03  0.12066790214E+04  0.11205291127E+04 0.  0.
        1    1    3    3  502    0 -0.45251794902E+03 -0.31859363471E+03  0.12986373053E+03  0.56845315268E+03  0.50400001928E-02 0. -1.
       -1    1    3    3    0  502  0.45251794902E+03  0.31859363471E+03  0.31789599126E+03  0.63822586875E+03  0.50400001928E-02 0.  1.
</event>
<event>
 5   0  0.5998641E-03  0.1072772E+04  0.7818609E-02  0.9232144E-01
        1   -1    0    0  501    0  0.00000000000E+00  0.00000000000E+00  0.36582024365E+03  0.36582024369E+03  0.50400001928E-02 0.  1.
       -1   -1    0    0    0  501  0.00000000000E+00  0.00000000000E+00 -0.78647847286E+03  0.78647847288E+03  0.50400001928E-02 0. -1.
    10030    2    1    2    0    0  0.00000000000E+00  0.00000000000E+00 -0.42065822921E+03  0.11522987166E+04  0.10727716376E+04 0.  0.
        3    1    3    3  502    0 -0.15212223064E+03 -0.36407331019E+02 -0.76143654740E+03  0.77733666627E+03  0.10100000352E+00 0. -1.
       -3    1    3    3    0  502  0.15212223064E+03  0.36407331019E+02  0.34077831819E+03  0.37496205029E+03  0.10100000352E+00 0.  1.
</event>
<event>
 5   0  0.5854579E-03  0.1113381E+04  0.7818609E-02  0.9192247E-01
        1   -1    0    0  501    0  0.00000000000E+00  0.00000000000E+00  0.15801107701E+04  0.15801107701E+04  0.50400001928E-02 0.  1.
       -1   -1    0    0    0  501  0.00000000000E+00  0.00000000000E+00 -0.19612828086E+03  0.19612828093E+03  0.50400001928E-02 0. -1.
    10030    2    1    2    0    0  0.00000000000E+00  0.00000000000E+00  0.13839824892E+04  0.17762390510E+04  0.11133811728E+04 0.  0.
        4    1    3    3  502    0  0.38525755764E+03  0.14812339181E+03  0.12879348217E+04  0.13524576306E+04  0.12699999809E+01 0.  1.
       -4    1    3    3    0  502 -0.38525755764E+03 -0.14812339181E+03  0.96047667560E+02  0.42378142038E+03  0.12699999809E+01 0. -1.
</event>
<event>
 5   0  0.9925021E-03  0.1027849E+04  0.7818609E-02  0.9278517E-01
        2   -1    0    0  501    0  0.00000000000E+00  0.00000000000E+00  0.34957630041E+03  0.34957630042E+03  0.25500000920E-02 0. -1.
       -2   -1    0    0    0  501  0.00000000000E+00  0.00000000000E+00 -0.75553910945E+03  0.75553910945E+03  0.25500000920E-02 0.  1.
    10030    2    1    2    0    0  0.00000000000E+00  0.00000000000E+00 -0.40596280904E+03  0.11051154099E+04  0.10278493405E+04 0.  0.
        4    1    3    3  502    0 -0.98905443266E+02  0.40203557140E+03 -0.53033934579E+03  0.67281224868E+03  0.12699999809E+01 0.  1.
       -4    1    3    3    0  502  0.98905443266E+02 -0.40203557140E+03  0.12437653675E+03  0.43230316119E+03  0.12699999809E+01 0. -1.
</event>
<event>
 5   0  0.1028016E-02  0.1113017E+04  0.7818609E-02  0.9192596E-01
        2   -1    0    0  501    0  0.00000000000E+00  0.00000000000E+00  0.43285881574E+03  0.43285881575E+03  0.25500000920E-02 0. -1.
       -2   -1    0    0    0  501  0.00000000000E+00  0.00000000000E+00 -0.71548004427E+03  0.71548004428E+03  0.25500000920E-02 0.  1.
    10030    2    1    2    0    0  0.00000000000E+00  0.00000000000E+00 -0.28262122853E+03  0.11483388600E+04  0.11130172409E+04 0.  0.
        2    1    3    3  502    0  0.13590794994E+03 -0.40803592220E+03  0.22307967281E+03  0.48448820944E+03  0.25500000920E-02 0. -1.
       -2    1    3    3    0  502 -0.13590794994E+03  0.40803592220E+03 -0.50570090134E+03  0.66385065059E+03  0.25500000920E-02 0.  1.
</event>
<event>
 5   0  0.1028016E-02  0.1056285E+04  0.7818609E-02  0.9248879E-01
        2   -1    0    0  501    0  0.00000000000E+00  0.00000000000E+00  0.44451420578E+03  0.44451420579E+03  0.25500000920E-02 0.  1.
       -2   -1    0    0    0  501  0.00000000000E+00  0.00000000000E+00 -0.62750372055E+03  0.62750372056E+03  0.25500000920E-02 0. -1.
    10030    2    1    2    0    0  0.00000000000E+00  0.00000000000E+00 -0.18298951477E+03  0.10720179263E+04  0.10562846548E+04 0.  0.
        2    1    3    3  502    0  0.57491485087E+02  0.15765205953E+03  0.41673850930E+03  0.44925541496E+03  0.25500000920E-02 0.  1.
       -2    1    3    3    0  502 -0.57491485087E+02 -0.15765205953E+03 -0.59972802407E+03  0.62276251139E+03  0.25500000920E-02 0. -1.
</event>
<event>
 5   0  0.1019384E-02  0.1121368E+04  0.7818609E-02  0.9184612E-01
       -2   -1    0    0    0  501  0.00000000000E+00  0.00000000000E+00  0.21497070314E+03  0.21497070315E+03  0.25500000920E-02 0.  1.
        2   -1    0    0  501    0  0.00000000000E+00  0.00000000000E+00 -0.14623688964E+04  0.14623688964E+04  0.25500000920E-02 0. -1.
    10030    2    1    2    0    0  0.00000000000E+00  0.00000000000E+00 -0.12473981933E+04  0.16773395996E+04  0.11213678610E+04 0.  0.
        1    1    3    3  502    0  0.43711967706E+03 -0.34683812506E+03 -0.54182315162E+03  0.77778057620E+03  0.50400001928E-02 0. -1.
       -1    1    3    3    0  502 -0.43711967706E+03  0.34683812506E+03 -0.70557504165E+03  0.89955902336E+03  0.50400001928E-02 0.  1.
</event>
<event>
 5   0  0.9692981E-03  0.8452778E+03  0.7818609E-02  0.9496697E-01
       -2   -1    0    0    0  501  0.00000000000E+00  0.00000000000E+00  0.22537607407E+03  0.22537607408E+03  0.25500000920E-02 0. -1.
        2   -1    0    0  501    0  0.00000000000E+00  0.00000000000E+00 -0.79255809826E+03  0.79255809826E+03  0.25500000920E-02 0.  1.
    10030    2    1    2    0    0  0.00000000000E+00  0.00000000000E+00 -0.56718202419E+03  0.10179341723E+04  0.84527778314E+03 0.  0.
        5    1    3    3  502    0 -0.12404667374E+03 -0.27918026033E+02 -0.76894593997E+03  0.77940165642E+03  0.46999998093E+01 0.  1.
       -5    1    3    3    0  502  0.12404667374E+03  0.27918026033E+02  0.20176391578E+03  0.23853251592E+03  0.46999998093E+01 0. -1.
</event>
<event>
 5   0  0.5958706E-03  0.1045562E+04  0.7818609E-02  0.9259938E-01
        1   -1    0    0  501    0  0.00000000000E+00  0.00000000000E+00  0.10328887915E+04  0.10328887915E+04  0.50400001928E-02 0.  1.
       -1   -1    0    0    0  501  0.00000000000E+00  0.00000000000E+00 -0.26459771690E+03  0.26459771695E+03  0.50400001928E-02 0. -1.
    10030    2    1    2    0    0  0.00000000000E+00  0.00000000000E+00  0.76829107458E+03  0.12974865084E+04  0.10455620806E+04 0.  0.
        2    1    3    3  502    0 -0.51338871164E+03  0.97640949169E+02  0.36667100803E+03  0.63839592130E+03  0.25500000920E-02 0. -1.
       -2    1    3    3    0  502  0.51338871164E+03 -0.97640949169E+02  0.40162006655E+03  0.65909058714E+03  0.25500000920E-02 0.  1.
</event>
<event>
 5   0  0.5998641E-03  0.1331910E+04  0.7818609E-02  0.9004636E-01
        1   -1    0    0  501    0  0.00000000000E+00  0.00000000000E+00  0.11786995024E+04  0.11786995024E+04  0.50400001928E-02 0.  1.
       -1   -1    0    0    0  501  0.00000000000E+00  0.00000000000E+00 -0.37625901117E+03  0.37625901120E+03  0.50400001928E-02 0. -1.
    10030    2    1    2    0    0  0.00000000000E+00  0.00000000000E+00  0.80244049122E+03  0.15549585136E+04  0.13319103713E+04 0.  0.
        3    1    3    3  502    0  0.94988880755E+02  0.32835713041E+03  0.10684700655E+04  0.11218153073E+04  0.10100000352E+00 0.  1.
       -3    1    3    3    0  502 -0.94988880755E+02 -0.32835713041E+03 -0.26602957430E+03  0.43314320630E+03  0.10100000352E+00 0. -1.
</event>
<event>
 5   0  0.5789905E-03  0.9750131E+03  0.7818609E-02  0.9336383E-01
       -1   -1    0    0    0  501  0.00000000000E+00  0.00000000000E+00  0.50984528021E+03  0.50984528023E+03  0.50400001928E-02 0.  1.
        1   -1    0    0  501    0  0.00000000000E+00  0.00000000000E+00 -0.46614656102E+03  0.46614656105E+03  0.50400001928E-02 0. -1.
    10030    2    1    2    0    0  0.00000000000E+00  0.00000000000E+00  0.43698719191E+02  0.97599184128E+03  0.97501307488E+03 0.  0.
        1    1    3    3  502    0 -0.25023107555E+03  0.24534188478E+03  0.36109131044E+03  0.50318502174E+03  0.50400001928E-02 0.  1.
       -1    1    3    3    0  502  0.25023107555E+03 -0.24534188478E+03 -0.31739259125E+03  0.47280681954E+03  0.50400001928E-02 0. -1.
</event>
<event>
 5   0  0.5958706E-03  0.1128780E+04  0.7818609E-02  0.9177586E-01
        1   -1    0    0  501    0  0.00000000000E+00  0.00000000000E+00  0.10039390364E+04  0.10039390364E+04  0.50400001928E-02 0.  1.
       -1   -1    0    0    0  501  0.00000000000E+00  0.00000000000E+00 -0.31728632578E+03  0.31728632582E+03  0.50400001928E-02 0. -1.
    10030    2    1    2    0    0  0.00000000000E+00  0.00000000000E+00  0.68665271060E+03  0.13212253622E+04  0.11287800994E+04 0.  0.
        2    1    3    3  502    0 -0.30214659372E+03 -0.47243999400E+03  0.26889190266E+03  0.62192842623E+03  0.25500000920E-02 0.  1.
       -2    1    3    3    0  502  0.30214659372E+03  0.47243999400E+03  0.41776080794E+03  0.69929693599E+03  0.25500000920E-02 0. -1.
</event>
<event>
 5   0  0.9719260E-03  0.1085663E+04  0.7818609E-02  0.9219280E-01
       -2   -1    0    0    0  501  0.00000000000E+00  0.00000000000E+00  0.12210800230E+03  0.12210800233E+03  0.25500000920E-02 0. -1.
        2   -1    0    0  501    0  0.00000000000E+00  0.00000000000E+00 -0.24131568862E+04  0.24131568862E+04  0.25500000920E-02 0.  1.
    10030    2    1    2    0    0  0.00000000000E+00  0.00000000000E+00 -0.22910488839E+04  0.25352648885E+04  0.10856625012E+04 0.  0.
        3    1    3    3  502    0 -0.25435922363E+02 -0.41837360667E+03 -0.19510321044E+04  0.19955474797E+04  0.10100000352E+00 0.  1.
       -3    1    3    3    0  502  0.25435922363E+02  0.41837360667E+03 -0.34001677947E+03  0.53971740886E+03  0.10100000352E+00 0. -1.
</event>
<event>
 5   0  0.5958706E-03  0.1133634E+04  0.7818609E-02  0.9173016E-01
        1   -1    0    0  501    0  0.00000000000E+00  0.00000000000E+00  0.11322425144E+04  0.11322425144E+04  0.50400001928E-02 0.  1.
       -1   -1    0    0    0  501  0.00000000000E+00  0.00000000000E+00 -0.28375696986E+03  0.28375696990E+03  0.50400001928E-02 0. -1.
    10030    2    1    2    0    0  0.00000000000E+00  0.00000000000E+00  0.84848554455E+03  0.14159994843E+04  0.11336343415E+04 0.  0.
        2    1    3    3  502    0 -0.51562924881E+03  0.21989210100E+03  0.52916282886E+03  0.77086922222E+03  0.25500000920E-02 0.  1.
       -2    1    3    3    0  502  0.51562924881E+03 -0.21989210100E+03  0.31932271569E+03  0.64513026210E+03  0.25500000920E-02 0. -1.
</event>
<event>
 5   0  0.9692981E-03  0.1070024E+04  0.7818609E-02  0.9234912E-01
        2   -1    0    0  501    0  0.00000000000E+00  0.00000000000E+00  0.41040214481E+03  0.41040214482E+03  0.25500000920E-02 0. -1.
       -2   -1    0    0    0  501  0.00000000000E+00  0.00000000000E+00 -0.69745659014E+03  0.69745659014E+03  0.25500000920E-02 0.  1.
    10030    2    1    2    0    0  0.00000000000E+00  0.00000000000E+00 -0.28705444532E+03  0.11078587350E+04  0.10700237016E+04 0.  0.
        5    1    3    3  502    0 -0.32192160039E+03  0.19044180805E+03 -0.53956254073E+03  0.65654506655E+03  0.46999998093E+01 0.  1.
       -5    1    3    3    0  502  0.32192160039E+03 -0.19044180805E+03  0.25250809541E+03  0.45131366841E+03  0.46999998093E+01 0. -1.
</event>
<event>
 5   0  0.9925021E-03  0.1093800E+04  0.7818609E-02  0.9211256E-01
        2   -1    0    0  501    0  0.00000000000E+00  0.00000000000E+00  0.10147448906E+04  0.10147448906E+04  0.25500000920E-02 0. -1.
       -2   -1    0    0    0  501  0.00000000000E+00  0.00000000000E+00 -0.29475356588E+03  0.29475356589E+03  0.25500000920E-02 0.  1.
    10030    2    1    2    0    0  0.00000000000E+00  0.00000000000E+00  0.71999132473E+03  0.13094984565E+04  0.10938001188E+04 0.  0.
        4    1    3    3  502    0  0.11915202113E+03 -0.47630824577E+03  0.71593692177E+02  0.49617942197E+03  0.12699999809E+01 0.  1.
       -4    1    3    3    0  502 -0.11915202113E+03  0.47630824577E+03  0.64839763256E+03  0.81331903453E+03  0.12699999809E+01 0. -1.
</event>
<event>
 5   0  0.5712664E-03  0.9797798E+03  0.7818609E-02  0.9331004E-01
       -1   -1    0    0    0  501  0.00000000000E+00  0.00000000000E+00  0.17544642452E+03  0.17544642459E+03  0.50400001928E-02 0.  1.
        1   -1    0    0  501    0  0.00000000000E+00  0.00000000000E+00 -0.13678941330E+04  0.13678941330E+04  0.50400001928E-02 0. -1.
    10030    2    1    2    0    0  0.00000000000E+00  0.00000000000E+00 -0.11924477085E+04  0.15433405576E+04  0.97977984225E+03 0.  0.
        5    1    3    3  502    0 -0.13756562773E+03 -0.24684073556E+03 -0.12265274917E+04  0.12586685142E+04  0.46999998093E+01 0. -1.
       -5    1    3    3    0  502  0.13756562773E+03  0.24684073556E+03  0.34079783262E+02  0.28467204340E+03  0.46999998093E+01 0.  1.
</event>
<event>
 5   0  0.5998641E-03  0.1078888E+04  0.7818609E-02  0.9226017E-01
        1   -1    0    0  501    0  0.00000000000E+00  0.00000000000E+00  0.53393086130E+03  0.53393086132E+03  0.50400001928E-02 0. -1.
       -1   -1    0    0    0  501  0.00000000000E+00  0.00000000000E+00 -0.54501430244E+03  0.54501430246E+03  0.50400001928E-02 0.  1.
    10030    2    1    2    0    0  0.00000000000E+00  0.00000000000E+00 -0.11083441139E+02  0.10789451638E+04  0.10788882351E+04 0.  0.
        3    1    3    3  502    0 -0.52300721660E+03 -0.57610886929E+02 -0.12447815553E+03  0.54069435388E+03  0.10100000352E+00 0.  1.
       -3    1    3    3    0  502  0.52300721660E+03  0.57610886929E+02  0.11339471440E+03  0.53825080991E+03  0.10100000352E+00 0. -1.
</event>
<event>
 5   0  0.5854579E-03  0.1212581E+04  0.7818609E-02  0.9101915E-01
       -1   -1    0    0    0  501  0.00000000000E+00  0.00000000000E+00  0.30293099040E+03  0.30293099044E+03  0.50400001928E-02 0. -1.
        1   -1    0    0  501    0  0.00000000000E+00  0.00000000000E+00 -0.12134387529E+04  0.12134387529E+04  0.50400001928E-02 0.  1.
    10030    2    1    2    0    0  0.00000000000E+00  0.00000000000E+00 -0.91050776246E+03  0.15163697433E+04  0.12125810542E+04 0.  0.
        4    1    3    3  502    0 -0.39366051720E+03 -0.45535478438E+03 -0.36447183583E+03  0.70367457995E+03  0.12699999809E+01 0. -1.
       -4    1    3    3    0  502  0.39366051720E+03  0.45535478438E+03 -0.54603592663E+03  0.81269516335E+03  0.12699999809E+01 0.  1.
</event>
<event>
 5   0  0.5712664E-03  0.1106626E+04  0.7818609E-02  0.9198758E-01
       -1   -1    0    0    0  501  0.00000000000E+00  0.00000000000E+00  0.87149957912E+03  0.87149957914E+03  0.50400001928E-02 0.  1.
        1   -1    0    0  501    0  0.00000000000E+00  0.00000000000E+00 -0.35129706761E+03  0.35129706765E+03  0.50400001928E-02 0. -1.
    10030    2    1    2    0    0  0.00000000000E+00  0.00000000000E+00  0.52020251151E+03  0.12227966468E+04  0.11066259469E+04 0.  0.
        5    1    3    3  502    0  0.23647045759E+03  0.49565807586E+03  0.33453730198E+03  0.64306492821E+03  0.46999998093E+01 0.  1.
       -5    1    3    3    0  502 -0.23647045759E+03 -0.49565807586E+03  0.18566520953E+03  0.57973171857E+03  0.46999998093E+01 0. -1.
</event>
<event>
 5   0  0.1028016E-02  0.1097446E+04  0.7818609E-02  0.9207685E-01
       -2   -1    0    0    0  501  0.00000000000E+00  0.00000000000E+00  0.53990193901E+03  0.53990193901E+03  0.25500000920E-02 0.  1.
        2   -1    0    0  501    0  0.00000000000E+00  0.00000000000E+00 -0.55768809045E+03  0.55768809045E+03  0.25500000920E-02 0. -1.
    10030    2    1    2    0    0  0.00000000000E+00  0.00000000000E+00 -0.17786151438E+02  0.10975900295E+04  0.10974459101E+04 0.  0.
        2    1    3    3  502    0  0.30326734613E+03 -0.34259116525E+03 -0.31184718574E+03  0.55370430466E+03  0.25500000920E-02 0. -1.
       -2    1    3    3    0  502 -0.30326734613E+03  0.34259116525E+03  0.29406103431E+03  0.54388572480E+03  0.25500000920E-02 0.  1.
</event>
<event>
 5   0  0.5958706E-03  0.7949092E+03  0.7818609E-02  0.9567415E-01
       -1   -1    0    0    0  501  0.00000000000E+00  0.00000000000E+00  0.21958922550E+03  0.21958922556E+03  0.50400001928E-02 0. -1.
        1   -1    0    0  501    0  0.00000000000E+00  0.00000000000E+00 -0.71938936382E+03  0.71938936383E+03  0.50400001928E-02 0.  1.
    10030    2    1    2    0    0  0.00000000000E+00  0.00000000000E+00 -0.49980013832E+03  0.93897858939E+03  0.79490918543E+03 0.  0.
        2    1    3    3  502    0  0.15516010894E+03  0.31088780932E+03 -0.21935227813E+02  0.34814801970E+03  0.25500000920E-02 0. -1.
       -2    1    3    3    0  502 -0.15516010894E+03 -0.31088780932E+03 -0.47786491050E+03  0.59083056970E+03  0.25500000920E-02 0.  1.
</event>
<event>
 5   0  0.9692981E-03  0.1082259E+04  0.7818609E-02  0.9222658E-01
        2   -1    0    0  501    0  0.00000000000E+00  0.00000000000E+00  0.56385656899E+03  0.56385656899E+03  0.25500000920E-02 0.  1.
       -2   -1    0    0    0  501  0.00000000000E+00  0.00000000000E+00 -0.51931836516E+03  0.51931836516E+03  0.25500000920E-02 0. -1.
    10030    2    1    2    0    0  0.00000000000E+00  0.00000000000E+00  0.44538203833E+02  0.10831749342E+04  0.10822588814E+04 0.  0.
        5    1    3    3  502    0  0.20770952467E+03  0.47382376224E+02  0.52009402351E+03  0.56205713189E+03  0.46999998093E+01 0.  1.
       -5    1    3    3    0  502 -0.20770952467E+03 -0.47382376224E+02 -0.47555581968E+03  0.52111780227E+03  0.46999998093E+01 0. -1.
</event>
<event>
 5   0  0.5789905E-03  0.1084779E+04  0.7818609E-02  0.9220155E-01
       -1   -1    0    0    0  501  0.00000000000E+00  0.00000000000E+00  0.37613658073E+03  0.37613658077E+03  0.50400001928E-02 0.  1.
        1   -1    0    0  501    0  0.00000000000E+00  0.00000000000E+00 -0.78212693646E+03  0.78212693647E+03  0.50400001928E-02 0. -1.
    10030    2    1    2    0    0  0.00000000000E+00  0.00000000000E+00 -0.40599035572E+03  0.11582635172E+04  0.10847793354E+04 0.  0.
        1    1    3    3  502    0  0.69119822084E+02 -0.80328153767E+02 -0.77096560864E+03  0.77821470805E+03  0.50400001928E-02 0. -1.
       -1    1    3    3    0  502 -0.69119822084E+02  0.80328153767E+02  0.36497525292E+03  0.38004880919E+03  0.50400001928E-02 0.  1.
</event>
<event>
 5   0  0.9719260E-03  0.1103240E+04  0.7818609E-02  0.9202039E-01
        2   -1    0    0  501    0  0.00000000000E+00  0.00000000000E+00  0.94595927121E+03  0.94595927122E+03  0.25500000920E-02 0. -1.
       -2   -1    0    0    0  501  0.00000000000E+00  0.00000000000E+00 -0.32166795979E+03  0.32166795980E+03  0.25500000920E-02 0.  1.
    10030    2    1    2    0    0  0.00000000000E+00  0.00000000000E+00  0.62429131143E+03  0.12676272310E+04  0.11032402981E+04 0.  0.
        3    1    3    3  502    0  0.40686636217E+03 -0.29245309124E+03  0.57720398781E+03  0.76435168672E+03  0.10100000352E+00 0. -1.
       -3    1    3    3    0  502 -0.40686636217E+03  0.29245309124E+03  0.47087323619E+02  0.50327554430E+03  0.10100000352E+00 0.  1.
</event>
<event>
 5   0  0.9692981E-03  0.1088056E+04  0.7818609E-02  0.9216912E-01
        2   -1    0    0  501    0  0.00000000000E+00  0.00000000000E+00  0.11661753635E+04  0.11661753635E+04  0.25500000920E-02 0.  1.
       -2   -1    0    0    0  501  0.00000000000E+00  0.00000000000E+00 -0.25379262033E+03  0.25379262034E+03  0.25500000920E-02 0. -1.
    10030    2    1    2    0    0  0.00000000000E+00  0.00000000000E+00  0.91238274321E+03  0.14199679839E+04  0.10880564347E+04 0.  0.
        5    1    3    3  502    0 -0.49246859071E+03  0.12234504699E+03  0.20028512791E+03  0.54555462221E+03  0.46999998093E+01 0. -1.
       -5    1    3    3    0  502  0.49246859071E+03 -0.12234504699E+03  0.71209761530E+03  0.87441336167E+03  0.46999998093E+01 0.  1.
</event>
<event>
 5   0  0.9692981E-03  0.1099407E+04  0.7818609E-02  0.9205770E-01
        2   -1    0    0  501    0  0.00000000000E+00  0.00000000000E+00  0.54367326178E+03  0.54367326178E+03  0.25500000920E-02 0.  1.
       -2   -1    0    0    0  501  0.00000000000E+00  0.00000000000E+00 -0.55580017415E+03  0.55580017415E+03  0.25500000920E-02 0. -1.
    10030    2    1    2    0    0  0.00000000000E+00  0.00000000000E+00 -0.12126912372E+02  0.10994734359E+04  0.10994065555E+04 0.  0.
        5    1    3    3  502    0  0.40871447164E+03 -0.19902111455E+03  0.30297747810E+03  0.54632807506E+03  0.46999998093E+01 0.  1.
       -5    1    3    3    0  502 -0.40871447164E+03  0.19902111455E+03 -0.31510439048E+03  0.55314536088E+03  0.46999998093E+01 0. -1.
</event>
<event>
 5   0  0.9719260E-03  0.1110868E+04  0.7818609E-02  0.9194663E-01
       -2   -1    0    0    0  501  0.00000000000E+00  0.00000000000E+00  0.42094683811E+03  0.42094683812E+03  0.25500000920E-02 0.  1.
        2   -1    0    0  501    0  0.00000000000E+00  0.00000000000E+00 -0.73288822228E+03  0.73288822228E+03  0.25500000920E-02 0. -1.
    10030    2    1    2    0    0  0.00000000000E+00  0.00000000000E+00 -0.31194138417E+03  0.11538350604E+04  0.11108680927E+04 0.  0.
        3    1    3    3  502    0 -0.45948502492E+03  0.77239610194E+02 -0.47001349144E+03  0.66181956592E+03  0.10100000352E+00 0. -1.
       -3    1    3    3    0  502  0.45948502492E+03 -0.77239610194E+02  0.15807210727E+03  0.49201549447E+03  0.10100000352E+00 0.  1.
</event>
<event>
 5   0  0.5789905E-03  0.1098876E+04  0.7818609E-02  0.9206288E-01
        1   -1    0    0  501    0  0.00000000000E+00  0.00000000000E+00  0.58174638325E+03  0.58174638327E+03  0.50400001928E-02 0. -1.
       -1   -1    0    0    0  501  0.00000000000E+00  0.00000000000E+00 -0.51892371673E+03  0.51892371676E+03  0.50400001928E-02 0.  1.
    10030    2    1    2    0    0  0.00000000000E+00  0.00000000000E+00  0.62822666516E+02  0.11006701000E+04  0.10988757808E+04 0.  0.
        1    1    3    3  502    0  0.13365995582E+03 -0.52168356267E+03  0.14050783180E+03  0.55656192303E+03  0.50400001928E-02 0. -1.
       -1    1    3    3    0  502 -0.13365995582E+03  0.52168356267E+03 -0.77685165283E+02  0.54410817700E+03  0.50400001928E-02 0.  1.
</event>
<event>
 5   0  0.5958706E-03  0.1145858E+04  0.7818609E-02  0.9161613E-01
       -1   -1    0    0    0  501  0.00000000000E+00  0.00000000000E+00  0.59301058609E+03  0.59301058612E+03  0.50400001928E-02 0. -1.
        1   -1    0    0  501    0  0.00000000000E+00  0.00000000000E+00 -0.55352729351E+03  0.55352729353E+03  0.50400001928E-02 0.  1.
    10030    2    1    2    0    0  0.00000000000E+00  0.00000000000E+00  0.39483292584E+02  0.11465378796E+04  0.11458578355E+04 0.  0.
        2    1    3    3  502    0 -0.44188143002E+03  0.23330959149E+03 -0.26070130769E+03  0.56361133374E+03  0.25500000920E-02 0.  1.
       -2    1    3    3    0  502  0.44188143002E+03 -0.23330959149E+03  0.30018460028E+03  0.58292654591E+03  0.25500000920E-02 0. -1.
</event>
<event>
 5   0  0.5712664E-03  0.1115909E+04  0.7818609E-02  0.9189823E-01
        1   -1    0    0  501    0  0.00000000000E+00  0.00000000000E+00  0.16124940519E+04  0.16124940520E+04  0.50400001928E-02 0.  1.
       -1   -1    0    0    0  501  0.00000000000E+00  0.00000000000E+00 -0.19306311402E+03  0.19306311409E+03  0.50400001928E-02 0. -1.
    10030    2    1    2    0    0  0.00000000000E+00  0.00000000000E+00  0.14194309379E+04  0.18055571660E+04  0.11159088190E+04 0.  0.
        5    1    3    3  502    0 -0.23780864601E+03 -0.28245479717E+03  0.32933698136E+02  0.37072952814E+03  0.46999998093E+01 0. -1.
       -5    1    3    3    0  502  0.23780864601E+03  0.28245479717E+03  0.13864972398E+04  0.14348276379E+04  0.46999998093E+01 0.  1.
</event>
<event>
 5   0  0.1028016E-02  0.1066565E+04  0.7818609E-02  0.9238406E-01
       -2   -1    0    0    0  501  0.00000000000E+00  0.00000000000E+00  0.13502324508E+03  0.13502324511E+03  0.25500000920E-02 0.  1.
        2   -1    0    0  501    0  0.00000000000E+00  0.00000000000E+00 -0.21062330371E+04  0.21062330371E+04  0.25500000920E-02 0. -1.
    10030    2    1    2    0    0  0.00000000000E+00  0.00000000000E+00 -0.19712097920E+04  0.22412562822E+04  0.10665653653E+04 0.  0.
        2    1    3    3  502    0  0.51330209003E+03  0.10597303908E+03 -0.77884496770E+03  0.93878048785E+03  0.25500000920E-02 0.  1.
       -2    1    3    3    0  502 -0.51330209003E+03 -0.10597303908E+03 -0.11923648243E+04  0.13024757944E+04  0.25500000920E-02 0. -1.
</event>
<event>
 5   0  0.5998641E-03  0.1103365E+04  0.7818609E-02  0.9201918E-01
       -1   -1    0    0    0  501  0.00000000000E+00  0.00000000000E+00  0.36191585786E+03  0.36191585789E+03  0.50400001928E-02 0.  1.
        1   -1    0    0  501    0  0.00000000000E+00  0.00000000000E+00 -0.84095184033E+03  0.84095184034E+03  0.50400001928E-02 0. -1.
    10030    2    1    2    0    0  0.00000000000E+00  0.00000000000E+00 -0.47903598247E+03  0.12028676982E+04  0.11033654095E+04 0.  0.
        3    1    3    3  502    0  0.30709430959E+02 -0.21875120133E+03 -0.79063495783E+03  0.82091339615E+03  0.10100000352E+00 0. -1.
       -3    1    3    3    0  502 -0.30709430959E+02  0.21875120133E+03  0.31159897536E+03  0.38195430208E+03  0.10100000352E+00 0.  1.
</event>
<event>
 5   0  0.5854579E-03  0.9845524E+03  0.7818609E-02  0.9325652E-01
        1   -1    0    0  501    0  0.00000000000E+00  0.00000000000E+00  0.87101362608E+03  0.87101362610E+03  0.50400001928E-02 0. -1.
       -1   -1    0    0    0  501  0.00000000000E+00  0.00000000000E+00 -0.27822282286E+03  0.27822282291E+03  0.50400001928E-02 0.  1.
    10030    2    1    2    0    0  0.00000000000E+00  0.00000000000E+00  0.59279080322E+03  0.11492364490E+04  0.98455242590E+03 0.  0.
        4    1    3    3  502    0  0.72057718990E+02 -0.33005544039E+03 -0.12155391212E+03  0.35903464324E+03  0.12699999809E+01 0.  1.
       -4    1    3    3    0  502 -0.72057718990E+02  0.33005544039E+03  0.71434471534E+03  0.79020180576E+03  0.12699999809E+01 0. -1.
</event>
<event>
 5   0  0.9925021E-03  0.1231332E+04  0.7818609E-02  0.9085866E-01
        2   -1    0    0  501    0  0.00000000000E+00  0.00000000000E+00  0.17132272368E+04  0.17132272368E+04  0.25500000920E-02 0. -1.
       -2   -1    0    0    0  501  0.00000000000E+00  0.00000000000E+00 -0.22124587237E+03  0.22124587239E+03  0.25500000920E-02 0.  1.
    10030    2    1    2    0    0  0.00000000000E+00  0.00000000000E+00  0.14919813644E+04  0.19344731091E+04  0.12313317255E+04 0.  0.
        4    1    3    3  502    0  0.22736639735E+03 -0.55824155718E+03  0.94292764134E+03  0.11191261164E+04  0.12699999809E+01 0.  1.
       -4    1    3    3    0  502 -0.22736639735E+03  0.55824155718E+03  0.54905372304E+03  0.81534699270E+03  0.12699999809E+01 0. -1.
</event>
<event>
 5   0  0.3949750E-03  0.1170188E+04  0.7818609E-02  0.9139359E-01
        3   -1    0    0  501    0  0.00000000000E+00  0.00000000000E+00  0.53991398745E+03  0.53991399690E+03  0.10100000352E+00 0.  1.
       -3   -1    0    0    0  501  0.00000000000E+00  0.00000000000E+00 -0.63405442800E+03  0.63405443604E+03  0.10100000352E+00 0. -1.
    10030    2    1    2    0    0  0.00000000000E+00  0.00000000000E+00 -0.94140440547E+02  0.11739684329E+04  0.11701877879E+04 0.  0.
        4    1    3    3  502    0  0.48184394435E+03  0.30665134951E+03  0.80322770817E+02  0.57676858208E+03  0.12699999809E+01 0.  1.
       -4    1    3    3    0  502 -0.48184394435E+03 -0.30665134951E+03 -0.17446321136E+03  0.59719985087E+03  0.12699999809E+01 0. -1.
</event>
<event>
 5   0  0.5854579E-03  0.5777863E+03  0.7818609E-02  0.9952595E-01
       -1   -1    0    0    0  501  0.00000000000E+00  0.00000000000E+00  0.63310570022E+02  0.63310570223E+02  0.50400001928E-02 0.  1.
        1   -1    0    0  501    0  0.00000000000E+00  0.00000000000E+00 -0.13182516473E+04  0.13182516473E+04  0.50400001928E-02 0. -1.
    10030    2    1    2    0    0  0.00000000000E+00  0.00000000000E+00 -0.12549410773E+04  0.13815622176E+04  0.57778633895E+03 0.  0.
        4    1    3    3  502    0 -0.74869814330E+02 -0.99495452048E+02 -0.12507845784E+04  0.12569679823E+04  0.12699999809E+01 0. -1.
       -4    1    3    3    0  502  0.74869814330E+02  0.99495452048E+02 -0.41564989056E+01  0.12459423526E+03  0.12699999809E+01 0.  1.
</event>
<event>
 5   0  0.5854579E-03  0.1101531E+04  0.7818609E-02  0.9203701E-01
       -1   -1    0    0    0  501  0.00000000000E+00  0.00000000000E+00  0.33355782554E+03  0.33355782558E+03  0.50400001928E-02 0. -1.
        1   -1    0    0  501    0  0.00000000000E+00  0.00000000000E+00 -0.90941615303E+03  0.90941615304E+03  0.50400001928E-02 0.  1.
    10030    2    1    2    0    0  0.00000000000E+00  0.00000000000E+00 -0.57585832749E+03  0.12429739786E+04  0.11015314331E+04 0.  0.
        4    1    3    3  502    0  0.76579072280E+02 -0.28256877558E+03  0.23848348216E+03  0.37760488795E+03  0.12699999809E+01 0. -1.
       -4    1    3    3    0  502 -0.76579072280E+02  0.28256877558E+03 -0.81434180965E+03  0.86536909067E+03  0.12699999809E+01 0.  1.
</event>
<event>
 5   0  0.5789905E-03  0.1075411E+04  0.7818609E-02  0.9229495E-01
        1   -1    0    0  501    0  0.00000000000E+00  0.00000000000E+00  0.60849976914E+03  0.60849976917E+03  0.50400001928E-02 0. -1.
       -1   -1    0    0    0  501  0.00000000000E+00  0.00000000000E+00 -0.47514753115E+03  0.47514753118E+03  0.50400001928E-02 0.  1.
    10030    2    1    2    0    0  0.00000000000E+00  0.00000000000E+00  0.13335223799E+03  0.10836473003E+04  0.10754109225E+04 0.  0.
        1    1    3    3  502    0 -0.16785693930E+03  0.18964401722E+03  0.54463617435E+03  0.60064079763E+03  0.50400001928E-02 0. -1.
       -1    1    3    3    0  502  0.16785693930E+03 -0.18964401722E+03 -0.41128393635E+03  0.48300650272E+03  0.50400001928E-02 0.  1.
</event>
<event>
 5   0  0.1019384E-02  0.1133002E+04  0.7818609E-02  0.9173610E-01
       -2   -1    0    0    0  501  0.00000000000E+00  0.00000000000E+00  0.56411838548E+03  0.56411838549E+03  0.25500000920E-02 0.  1.
        2   -1    0    0  501    0  0.00000000000E+00  0.00000000000E+00 -0.56889382443E+03  0.56889382444E+03  0.25500000920E-02 0. -1.
    10030    2    1    2    0    0  0.00000000000E+00  0.00000000000E+00 -0.47754389488E+01  0.11330122099E+04  0.11330021461E+04 0.  0.
        1    1    3    3  502    0 -0.97278218559E+02  0.28769538956E+03 -0.48060925753E+03  0.56852172116E+03  0.50400001928E-02 0. -1.
       -1    1    3    3    0  502  0.97278218559E+02 -0.28769538956E+03  0.47583381858E+03  0.56449048877E+03  0.50400001928E-02 0.  1.
</event>
<event>
 5   0  0.5998641E-03  0.1074670E+04  0.7818609E-02  0.9230237E-01
        1   -1    0    0  501    0  0.00000000000E+00  0.00000000000E+00  0.21127577562E+04  0.21127577562E+04  0.50400001928E-02 0. -1.
       -1   -1    0    0    0  501  0.00000000000E+00  0.00000000000E+00 -0.13665985582E+03  0.13665985592E+03  0.50400001928E-02 0.  1.
    10030    2    1    2    0    0  0.00000000000E+00  0.00000000000E+00  0.19760979004E+04  0.22494176121E+04  0.10746704992E+04 0.  0.
        3    1    3    3  502    0 -0.15976803352E+03  0.22520033611E+03  0.19529040927E+04  0.19723274123E+04  0.10100000352E+00 0. -1.
       -3    1    3    3    0  502  0.15976803352E+03 -0.22520033611E+03  0.23193807704E+02  0.27709019982E+03  0.10100000352E+00 0.  1.
</event>
<event>
 5   0  0.1028016E-02  0.1164961E+04  0.7818609E-02  0.9144091E-01
       -2   -1    0    0    0  501  0.00000000000E+00  0.00000000000E+00  0.28943492063E+03  0.28943492064E+03  0.25500000920E-02 0.  1.
        2   -1    0    0  501    0  0.00000000000E+00  0.00000000000E+00 -0.11722272355E+04  0.11722272355E+04  0.25500000920E-02 0. -1.
    10030    2    1    2    0    0  0.00000000000E+00  0.00000000000E+00 -0.88279231490E+03  0.14616621562E+04  0.11649609382E+04 0.  0.
        2    1    3    3  502    0  0.44270090864E+03  0.56152808612E+02 -0.91110247608E+03  0.10145171040E+04  0.25500000920E-02 0. -1.
       -2    1    3    3    0  502 -0.44270090864E+03 -0.56152808612E+02  0.28310161182E+02  0.44714505215E+03  0.25500000920E-02 0.  1.
</event>
<event>
 5   0  0.9719260E-03  0.1108751E+04  0.7818609E-02  0.9196705E-01
       -2   -1    0    0    0  501  0.00000000000E+00  0.00000000000E+00  0.33719536605E+03  0.33719536606E+03  0.25500000920E-02 0. -1.
        2   -1    0    0  501    0  0.00000000000E+00  0.00000000000E+00 -0.91143597643E+03  0.91143597643E+03  0.25500000920E-02 0.  1.
    10030    2    1    2    0    0  0.00000000000E+00  0.00000000000E+00 -0.57424061037E+03  0.12486313425E+04  0.11087506261E+04 0.  0.
        3    1    3    3  502    0  0.49966548513E+02 -0.17788043487E+03 -0.87574141223E+03  0.89502018769E+03  0.10100000352E+00 0.  1.
       -3    1    3    3    0  502 -0.49966548513E+02  0.17788043487E+03  0.30150080186E+03  0.35361115480E+03  0.10100000352E+00 0. -1.
</event>
<event>
 5   0  0.5712664E-03  0.1077754E+04  0.7818609E-02  0.9227150E-01
        1   -1    0    0  501    0  0.00000000000E+00  0.00000000000E+00  0.14661461739E+04  0.14661461739E+04  0.50400001928E-02 0. -1.
       -1   -1    0    0    0  501  0.00000000000E+00  0.00000000000E+00 -0.19806224025E+03  0.19806224031E+03  0.50400001928E-02 0.  1.
    10030    2    1    2    0    0  0.00000000000E+00  0.00000000000E+00  0.12680839336E+04  0.16642084142E+04  0.10777535818E+04 0.  0.
        5    1    3    3  502    0 -0.32817800471E+03  0.23699539514E+02 -0.24900573529E+02  0.33000696888E+03  0.46999998093E+01 0.  1.
       -5    1    3    3    0  502  0.32817800471E+03 -0.23699539514E+02  0.12929845072E+04  0.13342014453E+04  0.46999998093E+01 0. -1.
</event>
<event>
 5   0  0.5712664E-03  0.1112386E+04  0.7818609E-02  0.9193203E-01
       -1   -1    0    0    0  501  0.00000000000E+00  0.00000000000E+00  0.44662342922E+03  0.44662342925E+03  0.50400001928E-02 0.  1.
        1   -1    0    0  501    0  0.00000000000E+00  0.00000000000E+00 -0.69264311471E+03  0.69264311473E+03  0.50400001928E-02 0. -1.
    10030    2    1    2    0    0  0.00000000000E+00  0.00000000000E+00 -0.24601968549E+03  0.11392665440E+04  0.11123859818E+04 0.  0.
        5    1    3    3  502    0  0.14705155793E+03 -0.53626759058E+03 -0.13429722404E+03  0.57207073319E+03  0.46999998093E+01 0.  1.
       -5    1    3    3    0  502 -0.14705155793E+03  0.53626759058E+03 -0.11172246145E+03  0.56719581079E+03  0.46999998093E+01 0. -1.
</event>
<event>
 5   0  0.9925021E-03  0.1062828E+04  0.7818609E-02  0.9242200E-01
        2   -1    0    0  501    0  0.00000000000E+00  0.00000000000E+00  0.88700862331E+03  0.88700862332E+03  0.25500000920E-02 0.  1.
       -2   -1    0    0    0  501  0.00000000000E+00  0.00000000000E+00 -0.31837418510E+03  0.31837418511E+03  0.25500000920E-02 0. -1.
    10030    2    1    2    0    0  0.00000000000E+00  0.00000000000E+00  0.56863443822E+03  0.12053828084E+04  0.10628276391E+04 0.  0.
        4    1    3    3  502    0 -0.25645502442E+03  0.30107012163E+03  0.68687144957E+03  0.79259472546E+03  0.12699999809E+01 0.  1.
       -4    1    3    3    0  502  0.25645502442E+03 -0.30107012163E+03 -0.11823701136E+03  0.41278808297E+03  0.12699999809E+01 0. -1.
</event>
<event>
 5   0  0.9925021E-03  0.1095016E+04  0.7818609E-02  0.9210063E-01
       -2   -1    0    0    0  501  0.00000000000E+00  0.00000000000E+00  0.11276515965E+03  0.11276515968E+03  0.25500000920E-02 0.  1.
        2   -1    0    0  501    0  0.00000000000E+00  0.00000000000E+00 -0.26583137405E+04  0.26583137405E+04  0.25500000920E-02 0. -1.
    10030    2    1    2    0    0  0.00000000000E+00  0.00000000000E+00 -0.25455485808E+04  0.27710789001E+04  0.10950162983E+04 0.  0.
        4    1    3    3  502    0 -0.50024844572E+03 -0.13648337513E+03 -0.82802161217E+03  0.97698394166E+03  0.12699999809E+01 0.  1.
       -4    1    3    3    0  502  0.50024844572E+03  0.13648337513E+03 -0.17175269686E+04  0.17940949585E+04  0.12699999809E+01 0. -1.
</event>
<event>
 5   0  0.1028016E-02  0.1126485E+04  0.7818609E-02  0.9179755E-01
       -2   -1    0    0    0  501  0.00000000000E+00  0.00000000000E+00  0.86574744138E+03  0.86574744138E+03  0.25500000920E-02 0.  1.
        2   -1    0    0  501    0  0.00000000000E+00  0.00000000000E+00 -0.36643744137E+03  0.36643744137E+03  0.25500000920E-02 0. -1.
    10030    2    1    2    0    0  0.00000000000E+00  0.00000000000E+00  0.49931000001E+03  0.12321848828E+04  0.11264852903E+04 0.  0.
        2    1    3    3  502    0  0.50007866416E+03  0.25832950745E+03  0.22698674753E+03  0.60690673775E+03  0.25500000920E-02 0.  1.
       -2    1    3    3    0  502 -0.50007866416E+03 -0.25832950745E+03  0.27232325248E+03  0.62527814500E+03  0.25500000920E-02 0. -1.
</event>
<event>
 5   0  0.5998641E-03  0.1118292E+04  0.7818609E-02  0.9187544E-01
        1   -1    0    0  501    0  0.00000000000E+00  0.00000000000E+00  0.13519599560E+04  0.13519599560E+04  0.50400001928E-02 0.  1.
       -1   -1    0    0    0  501  0.00000000000E+00  0.00000000000E+00 -0.23125257443E+03  0.23125257449E+03  0.50400001928E-02 0. -1.
    10030    2    1    2    0    0  0.00000000000E+00  0.00000000000E+00  0.11207073815E+04  0.15832125305E+04  0.11182919483E+04 0.  0.
        3    1    3    3  502    0  0.46769311253E+03  0.16223869598E+03  0.19229905653E+03  0.53107172710E+03  0.10100000352E+00 0.  1.
       -3    1    3    3    0  502 -0.46769311253E+03 -0.16223869598E+03  0.92840832502E+03  0.10521408034E+04  0.10100000352E+00 0. -1.
</event>
<event>
 5   0  0.9719260E-03  0.8623796E+03  0.7818609E-02  0.9473871E-01
        2   -1    0    0  501    0  0.00000000000E+00  0.00000000000E+00  0.54258486284E+03  0.54258486285E+03  0.25500000920E-02 0.  1.
       -2   -1    0    0    0  501  0.00000000000E+00  0.00000000000E+00 -0.34266461563E+03  0.34266461564E+03  0.25500000920E-02 0. -1.
    10030    2    1    2    0    0  0.00000000000E+00  0.00000000000E+00  0.19992024721E+03  0.88524947849E+03  0.86237957647E+03 0.  0.
        3    1    3    3  502    0 -0.13943534162E+01 -0.58683527659E+02 -0.33854388819E+03  0.34359521980E+03  0.10100000352E+00 0. -1.
       -3    1    3    3    0  502  0.13943534162E+01  0.58683527659E+02  0.53846413540E+03  0.54165425868E+03  0.10100000352E+00 0.  1.
</event>
<event>
 5   0  0.5712664E-03  0.1092616E+04  0.7818609E-02  0.9212419E-01
        1   -1    0    0  501    0  0.00000000000E+00  0.00000000000E+00  0.88195920609E+03  0.88195920611E+03  0.50400001928E-02 0.  1.
       -1   -1    0    0    0  501  0.00000000000E+00  0.00000000000E+00 -0.33839693919E+03  0.33839693923E+03  0.50400001928E-02 0. -1.
    10030    2    1    2    0    0  0.00000000000E+00  0.00000000000E+00  0.54356226691E+03  0.12203561453E+04  0.10926157529E+04 0.  0.
        5    1    3    3  502    0  0.14167812773E+03  0.91082326166E+01 -0.31740956566E+03  0.34774498436E+03  0.46999998093E+01 0. -1.
       -5    1    3    3    0  502 -0.14167812773E+03 -0.91082326166E+01  0.86097183257E+03  0.87261116097E+03  0.46999998093E+01 0.  1.
</event>
<event>
 5   0  0.5998641E-03  0.1092387E+04  0.7818609E-02  0.9212644E-01
        1   -1    0    0  501    0  0.00000000000E+00  0.00000000000E+00  0.14434985090E+04  0.14434985090E+04  0.50400001928E-02 0.  1.
       -1   -1    0    0    0  501  0.00000000000E+00  0.00000000000E+00 -0.20666961772E+03  0.20666961778E+03  0.50400001928E-02 0. -1.
    10030    2    1    2    0    0  0.00000000000E+00  0.00000000000E+00  0.12368288913E+04  0.16501681268E+04  0.10923869005E+04 0.  0.
        3    1    3    3  502    0  0.39296129375E+03 -0.29434686440E+02  0.11897403907E+04  0.12533025120E+04  0.10100000352E+00 0.  1.
       -3    1    3    3    0  502 -0.39296129375E+03  0.29434686440E+02  0.47088500635E+02  0.39686561484E+03  0.10100000352E+00 0. -1.
</event>
<event>
 5   0  0.5712664E-03  0.1101135E+04  0.7818609E-02  0.9204087E-01
       -1   -1    0    0    0  501  0.00000000000E+00  0.00000000000E+00  0.51705362035E+03  0.51705362037E+03  0.50400001928E-02 0. -1.
        1   -1    0    0  501    0  0.00000000000E+00  0.00000000000E+00 -0.58625315381E+03  0.58625315383E+03  0.50400001928E-02 0.  1.
    10030    2    1    2    0    0  0.00000000000E+00  0.00000000000E+00 -0.69199533460E+02  0.11033067742E+04  0.11011345343E+04 0.  0.
        5    1    3    3  502    0 -0.28383514450E+03  0.16316104036E+02  0.43778932856E+03  0.52202508628E+03  0.46999998093E+01 0. -1.
       -5    1    3    3    0  502  0.28383514450E+03 -0.16316104036E+02 -0.50698886202E+03  0.58128168792E+03  0.46999998093E+01 0.  1.
</event>
<event>
 5   0  0.9925021E-03  0.1121442E+04  0.7818609E-02  0.9184541E-01
        2   -1    0    0  501    0  0.00000000000E+00  0.00000000000E+00  0.88816763226E+03  0.88816763227E+03  0.25500000920E-02 0. -1.
       -2   -1    0    0    0  501  0.00000000000E+00  0.00000000000E+00 -0.35399631854E+03  0.35399631855E+03  0.25500000920E-02 0.  1.
    10030    2    1    2    0    0  0.00000000000E+00  0.00000000000E+00  0.53417131372E+03  0.12421639508E+04  0.11214420575E+04 0.  0.
        4    1    3    3  502    0 -0.54940721391E+03  0.82541387111E+02  0.35104143122E+03  0.65718571699E+03  0.12699999809E+01 0. -1.
       -4    1    3    3    0  502  0.54940721391E+03 -0.82541387111E+02  0.18312988250E+03  0.58497823382E+03  0.12699999809E+01 0.  1.
</event>
<event>
 5   0  0.5958706E-03  0.9854164E+03  0.7818609E-02  0.9324686E-01
       -1   -1    0    0    0  501  0.00000000000E+00  0.00000000000E+00  0.14141651814E+03  0.14141651823E+03  0.50400001928E-02 0. -1.
        1   -1    0    0  501    0  0.00000000000E+00  0.00000000000E+00 -0.17166408775E+04  0.17166408775E+04  0.50400001928E-02 0.  1.
    10030    2    1    2    0    0  0.00000000000E+00  0.00000000000E+00 -0.15752243593E+04  0.18580573957E+04  0.98541641124E+03 0.  0.
        2    1    3    3  502    0 -0.23621686434E+03 -0.36039804932E+03 -0.12380832619E+04  0.13109291836E+04  0.25500000920E-02 0.  1.
       -2    1    3    3    0  502  0.23621686434E+03  0.36039804932E+03 -0.33714109746E+03  0.54712821217E+03  0.25500000920E-02 0. -1.
</event>
<event>
 5   0  0.5998641E-03  0.1120585E+04  0.7818609E-02  0.9185358E-01
        1   -1    0    0  501    0  0.00000000000E+00  0.00000000000E+00  0.77585719843E+03  0.77585719845E+03  0.50400001928E-02 0. -1.
       -1   -1    0    0    0  501  0.00000000000E+00  0.00000000000E+00 -0.40462025203E+03  0.40462025206E+03  0.50400001928E-02 0.  1.
    10030    2    1    2    0    0  0.00000000000E+00  0.00000000000E+00  0.37123694640E+03  0.11804774505E+04  0.11205847316E+04 0.  0.
        3    1    3    3  502    0  0.33200868568E+03 -0.22300795031E+02 -0.28925215515E+03  0.44090125004E+03  0.10100000352E+00 0.  1.
       -3    1    3    3    0  502 -0.33200868568E+03  0.22300795031E+02  0.66048910155E+03  0.73957620047E+03  0.10100000352E+00 0. -1.
</event>
<event>
 5   0  0.1028016E-02  0.1165849E+04  0.7818609E-02  0.9143285E-01
       -2   -1    0    0    0  501  0.00000000000E+00  0.00000000000E+00  0.38133702916E+03  0.38133702917E+03  0.25500000920E-02 0.  1.
        2   -1    0    0  501    0  0.00000000000E+00  0.00000000000E+00 -0.89107777097E+03  0.89107777098E+03  0.25500000920E-02 0. -1.
    10030    2    1    2    0    0  0.00000000000E+00  0.00000000000E+00 -0.50974074182E+03  0.12724148001E+04  0.11658489610E+04 0.  0.
        2    1    3    3  502    0  0.23361995317E+02  0.56495814796E+03 -0.40951711710E+03  0.69816026883E+03  0.25500000920E-02 0. -1.
       -2    1    3    3    0  502 -0.23361995317E+02 -0.56495814796E+03 -0.10022362471E+03  0.57425453131E+03  0.25500000920E-02 0.  1.
</event>
<event>
 5   0  0.5998641E-03  0.1097814E+04  0.7818609E-02  0.9207325E-01
       -1   -1    0    0    0  501  0.00000000000E+00  0.00000000000E+00  0.65521595335E+03  0.65521595337E+03  0.50400001928E-02 0. -1.
        1   -1    0    0  501    0  0.00000000000E+00  0.00000000000E+00 -0.45984660935E+03  0.45984660937E+03  0.50400001928E-02 0.  1.
    10030    2    1    2    0    0  0.00000000000E+00  0.00000000000E+00  0.19536934401E+03  0.11150625627E+04  0.10978138905E+04 0.  0.
        3    1    3    3  502    0  0.48118141143E+01 -0.31512156672E+02 -0.45890563242E+03  0.46001147729E+03  0.10100000352E+00 0.  1.
       -3    1    3    3    0  502 -0.48118141143E+01  0.31512156672E+02  0.65427497643E+03  0.65505108545E+03  0.10100000352E+00 0. -1.
</event>
<event>
 5   0  0.9925021E-03  0.1124087E+04  0.7818609E-02  0.9182028E-01
       -2   -1    0    0    0  501  0.00000000000E+00  0.00000000000E+00  0.19422412795E+03  0.19422412796E+03  0.25500000920E-02 0. -1.
        2   -1    0    0  501    0  0.00000000000E+00  0.00000000000E+00 -0.16264346115E+04  0.16264346115E+04  0.25500000920E-02 0.  1.
    10030    2    1    2    0    0  0.00000000000E+00  0.00000000000E+00 -0.14322104835E+04  0.18206587394E+04  0.11240869078E+04 0.  0.
        4    1    3    3  502    0  0.35314109651E+03  0.43676795545E+03 -0.74915422241E+03  0.93632715586E+03  0.12699999809E+01 0. -1.
       -4    1    3    3    0  502 -0.35314109651E+03 -0.43676795545E+03 -0.68305626112E+03  0.88433158357E+03  0.12699999809E+01 0.  1.
</event>
<event>
 5   0  0.1019384E-02  0.1057414E+04  0.7818609E-02  0.9247723E-01
       -2   -1    0    0    0  501  0.00000000000E+00  0.00000000000E+00  0.21290182394E+03  0.21290182396E+03  0.25500000920E-02 0. -1.
        2   -1    0    0  501    0  0.00000000000E+00  0.00000000000E+00 -0.13129583898E+04  0.13129583898E+04  0.25500000920E-02 0.  1.
    10030    2    1    2    0    0  0.00000000000E+00  0.00000000000E+00 -0.11000565659E+04  0.15258602138E+04  0.10574142726E+04 0.  0.
        1    1    3    3  502    0  0.18768739376E+03  0.39115843941E+03 -0.11401031815E+03  0.44858648572E+03  0.50400001928E-02 0. -1.
       -1    1    3    3    0  502 -0.18768739376E+03 -0.39115843941E+03 -0.98604624775E+03  0.10772737281E+04  0.50400001928E-02 0.  1.
</event>
<event>
 5   0  0.1019384E-02  0.1117610E+04  0.7818609E-02  0.9188196E-01
       -2   -1    0    0    0  501  0.00000000000E+00  0.00000000000E+00  0.34487298660E+03  0.34487298661E+03  0.25500000920E-02 0.  1.
        2   -1    0    0  501    0  0.00000000000E+00  0.00000000000E+00 -0.90544418679E+03  0.90544418680E+03  0.25500000920E-02 0. -1.
    10030    2    1    2    0    0  0.00000000000E+00  0.00000000000E+00 -0.56057120019E+03  0.12503171734E+04  0.11176103810E+04 0.  0.
        1    1    3    3  502    0 -0.54446945263E+03 -0.12062311117E+03 -0.24047472835E+03  0.60730965314E+03  0.50400001928E-02 0.  1.
       -1    1    3    3    0  502  0.54446945263E+03  0.12062311117E+03 -0.32009647184E+03  0.64300752026E+03  0.50400001928E-02 0. -1.
</event>
<event>
 5   0  0.9719260E-03  0.8355888E+03  0.7818609E-02  0.9509886E-01
       -2   -1    0    0    0  501  0.00000000000E+00  0.00000000000E+00  0.25543448275E+03  0.25543448277E+03  0.25500000920E-02 0.  1.
        2   -1    0    0  501    0  0.00000000000E+00  0.00000000000E+00 -0.68335398578E+03  0.68335398578E+03  0.25500000920E-02 0. -1.
    10030    2    1    2    0    0  0.00000000000E+00  0.00000000000E+00 -0.42791950302E+03  0.93878846855E+03  0.83558882688E+03 0.  0.
        3    1    3    3  502    0 -0.49150172735E+02  0.29658539353E+03 -0.53991868164E+03  0.61797316133E+03  0.10100000352E+00 0. -1.
       -3    1    3    3    0  502  0.49150172735E+02 -0.29658539353E+03  0.11199917862E+03  0.32081530722E+03  0.10100000352E+00 0.  1.
</event>
<event>
 5   0  0.9692981E-03  0.1096733E+04  0.7818609E-02  0.9208382E-01
       -2   -1    0    0    0  501  0.00000000000E+00  0.00000000000E+00  0.62282340434E+03  0.62282340434E+03  0.25500000920E-02 0.  1.
        2   -1    0    0  501    0  0.00000000000E+00  0.00000000000E+00 -0.48281109744E+03  0.48281109744E+03  0.25500000920E-02 0. -1.
    10030    2    1    2    0    0  0.00000000000E+00  0.00000000000E+00  0.14001230690E+03  0.11056345018E+04  0.10967334250E+04 0.  0.
        5    1    3    3  502    0  0.42804543549E+03  0.31502647139E+03 -0.66068552771E+02  0.53558539579E+03  0.46999998093E+01 0. -1.
       -5    1    3    3    0  502 -0.42804543549E+03 -0.31502647139E+03  0.20608085967E+03  0.57004910599E+03  0.46999998093E+01 0.  1.
</event>
<event>
 5   0  0.5998641E-03  0.1081470E+04  0.7818609E-02  0.9223443E-01
       -1   -1    0    0    0  501  0.00000000000E+00  0.00000000000E+00  0.30778547156E+03  0.30778547160E+03  0.50400001928E-02 0. -1.
        1   -1    0    0  501    0  0.00000000000E+00  0.00000000000E+00 -0.94999329318E+03  0.94999329320E+03  0.50400001928E-02 0.  1.
    10030    2    1    2    0    0  0.00000000000E+00  0.00000000000E+00 -0.64220782162E+03  0.12577787648E+04  0.10814696182E+04 0.  0.
        3    1    3    3  502    0  0.44339373249E+03 -0.30950237396E+03 -0.32354406822E+03  0.63013529958E+03  0.10100000352E+00 0. -1.
       -3    1    3    3    0  502 -0.44339373249E+03  0.30950237396E+03 -0.31866375341E+03  0.62764346522E+03  0.10100000352E+00 0.  1.
</event>
<event>
 5   0  0.5854579E-03  0.1110486E+04  0.7818609E-02  0.9195031E-01
        1   -1    0    0  501    0  0.00000000000E+00  0.00000000000E+00  0.19305131505E+04  0.19305131505E+04  0.50400001928E-02 0.  1.
       -1   -1    0    0    0  501  0.00000000000E+00  0.00000000000E+00 -0.15969590841E+03  0.15969590849E+03  0.50400001928E-02 0. -1.
    10030    2    1    2    0    0  0.00000000000E+00  0.00000000000E+00  0.17708172421E+04  0.20902090590E+04  0.11104864724E+04 0.  0.
        4    1    3    3  502    0 -0.43716313319E+03 -0.29035432975E+03  0.54412359201E+03  0.75596913834E+03  0.12699999809E+01 0. -1.
       -4    1    3    3    0  502  0.43716313319E+03  0.29035432975E+03  0.12266936501E+04  0.13342399207E+04  0.12699999809E+01 0.  1.
</event>
<event>
 5   0  0.9925021E-03  0.1141874E+04  0.7818609E-02  0.9165313E-01
       -2   -1    0    0    0  501  0.00000000000E+00  0.00000000000E+00  0.66095663718E+03  0.66095663719E+03  0.25500000920E-02 0.  1.
        2   -1    0    0  501    0  0.00000000000E+00  0.00000000000E+00 -0.49317798112E+03  0.49317798113E+03  0.25500000920E-02 0. -1.
    10030    2    1    2    0    0  0.00000000000E+00  0.00000000000E+00  0.16777865606E+03  0.11541346183E+04  0.11418743538E+04 0.  0.
        4    1    3    3  502    0  0.34383895290E+03  0.12805000041E+03 -0.35823805178E+03  0.51279444496E+03  0.12699999809E+01 0. -1.
       -4    1    3    3    0  502 -0.34383895290E+03 -0.12805000041E+03  0.52601670784E+03  0.64134017336E+03  0.12699999809E+01 0.  1.
</event>
<event>
 5   0  0.5998641E-03  0.1139339E+04  0.7818609E-02  0.9167676E-01
       -1   -1    0    0    0  501  0.00000000000E+00  0.00000000000E+00  0.36368860571E+03  0.36368860575E+03  0.50400001928E-02 0. -1.
        1   -1    0    0  501    0  0.00000000000E+00  0.00000000000E+00 -0.89231022155E+03  0.89231022157E+03  0.50400001928E-02 0.  1.
    10030    2    1    2    0    0  0.00000000000E+00  0.00000000000E+00 -0.52862161584E+03  0.12559988273E+04  0.11393385105E+04 0.  0.
        3    1    3    3  502    0  0.18336405740E+03 -0.39682576417E+03  0.13837208155E+03  0.45851925565E+03  0.10100000352E+00 0. -1.
       -3    1    3    3    0  502 -0.18336405740E+03  0.39682576417E+03 -0.66699369739E+03  0.79747957166E+03  0.10100000352E+00 0.  1.
</event>
<event>
 5   0  0.5958706E-03  0.1072173E+04  0.7818609E-02  0.9232747E-01
        1   -1    0    0  501    0  0.00000000000E+00  0.00000000000E+00  0.10814489402E+04  0.10814489402E+04  0.50400001928E-02 0. -1.
       -1   -1    0    0    0  501  0.00000000000E+00  0.00000000000E+00 -0.26574398958E+03  0.26574398963E+03  0.50400001928E-02 0.  1.
    10030    2    1    2    0    0  0.00000000000E+00  0.00000000000E+00  0.81570495058E+03  0.13471929298E+04  0.10721726651E+04 0.  0.
        2    1    3    3  502    0 -0.69006335472E+02  0.43171958199E+03  0.79766329661E+03  0.90962102360E+03  0.25500000920E-02 0.  1.
       -2    1    3    3    0  502  0.69006335472E+02 -0.43171958199E+03  0.18041653970E+02  0.43757190620E+03  0.25500000920E-02 0. -1.
</event>
<event>
 5   0  0.5998641E-03  0.1080042E+04  0.7818609E-02  0.9224865E-01
       -1   -1    0    0    0  501  0.00000000000E+00  0.00000000000E+00  0.16270389587E+03  0.16270389595E+03  0.50400001928E-02 0. -1.
        1   -1    0    0  501    0  0.00000000000E+00  0.00000000000E+00 -0.17923528893E+04  0.17923528893E+04  0.50400001928E-02 0.  1.
    10030    2    1    2    0    0  0.00000000000E+00  0.00000000000E+00 -0.16296489934E+04  0.19550567852E+04  0.10800422176E+04 0.  0.
        3    1    3    3  502    0  0.20659841990E+03  0.42544646493E+03 -0.34301570529E+03  0.58424942097E+03  0.10100000352E+00 0. -1.
       -3    1    3    3    0  502 -0.20659841990E+03 -0.42544646493E+03 -0.12866332881E+04  0.13708073643E+04  0.10100000352E+00 0.  1.
</event>
<event>
 5   0  0.5789905E-03  0.1097006E+04  0.7818609E-02  0.9208115E-01
       -1   -1    0    0    0  501  0.00000000000E+00  0.00000000000E+00  0.34221726541E+03  0.34221726545E+03  0.50400001928E-02 0. -1.
        1   -1    0    0  501    0  0.00000000000E+00  0.00000000000E+00 -0.87913675442E+03  0.87913675444E+03  0.50400001928E-02 0.  1.
    10030    2    1    2    0    0  0.00000000000E+00  0.00000000000E+00 -0.53691948901E+03  0.12213540199E+04  0.10970064285E+04 0.  0.
        1    1    3    3  502    0  0.21665058612E+03 -0.21731210014E+03  0.23770986515E+03  0.38815976782E+03  0.50400001928E-02 0. -1.
       -1    1    3    3    0  502 -0.21665058612E+03  0.21731210014E+03 -0.77462935416E+03  0.83319425207E+03  0.50400001928E-02 0.  1.
</event>
<event>
 5   0  0.5712664E-03  0.1115067E+04  0.7818609E-02  0.9190630E-01
       -1   -1    0    0    0  501  0.00000000000E+00  0.00000000000E+00  0.76210600765E+03  0.76210600766E+03  0.50400001928E-02 0.  1.
        1   -1    0    0  501    0  0.00000000000E+00  0.00000000000E+00 -0.40787462093E+03  0.40787462096E+03  0.50400001928E-02 0. -1.
    10030    2    1    2    0    0  0.00000000000E+00  0.00000000000E+00  0.35423138672E+03  0.11699806286E+04  0.11150671711E+04 0.  0.
        5    1    3    3  502    0 -0.51534596233E+02 -0.44244768306E+03 -0.17466506694E+03  0.47848275043E+03  0.46999998093E+01 0. -1.
       -5    1    3    3    0  502  0.51534596233E+02  0.44244768306E+03  0.52889645366E+03  0.69149787819E+03  0.46999998093E+01 0.  1.
</event>
<event>
 5   0  0.3949750E-03  0.1085749E+04  0.7818609E-02  0.9219194E-01
        4   -1    0    0  501    0  0.00000000000E+00  0.00000000000E+00  0.69332781135E+03  0.69332897451E+03  0.12699999809E+01 0.  1.
       -4   -1    0    0    0  501  0.00000000000E+00  0.00000000000E+00 -0.42506715560E+03  0.42506905282E+03  0.12699999809E+01 0. -1.
    10030    2    1    2    0    0  0.00000000000E+00  0.00000000000E+00  0.26826065575E+03  0.11183980273E+04  0.10857487592E+04 0.  0.
        5    1    3    3  502    0  0.21523729327E+03  0.42970286956E+03 -0.12588624340E+03  0.49683104250E+03  0.46999998093E+01 0. -1.
       -5    1    3    3    0  502 -0.21523729327E+03 -0.42970286956E+03  0.39414689915E+03  0.62156698483E+03  0.46999998093E+01 0.  1.
</event>
<event>
 5   0  0.3949750E-03  0.1106416E+04  0.7818609E-02  0.9198961E-01
        3   -1    0    0  501    0  0.00000000000E+00  0.00000000000E+00  0.11933342820E+04  0.11933342863E+04  0.10100000352E+00 0. -1.
       -3   -1    0    0    0  501  0.00000000000E+00  0.00000000000E+00 -0.25645708051E+03  0.25645710040E+03  0.10100000352E+00 0.  1.
    10030    2    1    2    0    0  0.00000000000E+00  0.00000000000E+00  0.93687720151E+03  0.14497913867E+04  0.11064159138E+04 0.  0.
        2    1    3    3  502    0 -0.62359102718E+02 -0.46856225127E+03  0.91841817492E+02  0.48153313537E+03  0.25500000920E-02 0.  1.
       -2    1    3    3    0  502  0.62359102718E+02  0.46856225127E+03  0.84503538401E+03  0.96825825132E+03  0.25500000920E-02 0. -1.
</event>
<event>
 5   0  0.3949750E-03  0.1071560E+04  0.7818609E-02  0.9233363E-01
       -4   -1    0    0    0  501  0.00000000000E+00  0.00000000000E+00  0.27609138129E+03  0.27609430223E+03  0.12699999809E+01 0.  1.
        4   -1    0    0  501    0  0.00000000000E+00  0.00000000000E+00 -0.10397207238E+04  0.10397214994E+04  0.12699999809E+01 0. -1.
    10030    2    1    2    0    0  0.00000000000E+00  0.00000000000E+00 -0.76362934247E+03  0.13158158016E+04  0.10715602882E+04 0.  0.
        2    1    3    3  502    0 -0.80338439210E+02  0.41806770288E+03  0.17645642682E+02  0.42608243066E+03  0.25500000920E-02 0.  1.
       -2    1    3    3    0  502  0.80338439210E+02 -0.41806770288E+03 -0.78127498516E+03  0.88973337098E+03  0.25500000920E-02 0. -1.
</event>
<event>
 5   0  0.9692981E-03  0.1106176E+04  0.7818609E-02  0.9199193E-01
       -2   -1    0    0    0  501  0.00000000000E+00  0.00000000000E+00  0.37347658941E+03  0.37347658942E+03  0.25500000920E-02 0. -1.
        2   -1    0    0  501    0  0.00000000000E+00  0.00000000000E+00 -0.81907749655E+03  0.81907749656E+03  0.25500000920E-02 0.  1.
    10030    2    1    2    0    0  0.00000000000E+00  0.00000000000E+00 -0.44560090714E+03  0.11925540860E+04  0.11061758809E+04 0.  0.
        5    1    3    3  502    0  0.21091024168E+03 -0.34859912199E+03 -0.62601041139E+03  0.74693748270E+03  0.46999998093E+01 0.  1.
       -5    1    3    3    0  502 -0.21091024168E+03  0.34859912199E+03  0.18040950424E+03  0.44561660328E+03  0.46999998093E+01 0. -1.
</event>
<event>
 5   0  0.5789905E-03  0.1090600E+04  0.7818609E-02  0.9214403E-01
       -1   -1    0    0    0  501  0.00000000000E+00  0.00000000000E+00  0.26355352698E+03  0.26355352703E+03  0.50400001928E-02 0.  1.
        1   -1    0    0  501    0  0.00000000000E+00  0.00000000000E+00 -0.11282414765E+04  0.11282414765E+04  0.50400001928E-02 0. -1.
    10030    2    1    2    0    0  0.00000000000E+00  0.00000000000E+00 -0.86468794950E+03  0.13917950035E+04  0.10905998725E+04 0.  0.
        1    1    3    3  502    0  0.37394047629E+03 -0.16674295111E+03 -0.89197446347E+03  0.98145460163E+03  0.50400001928E-02 0.  1.
       -1    1    3    3    0  502 -0.37394047629E+03  0.16674295111E+03  0.27286513969E+02  0.41034040189E+03  0.50400001928E-02 0. -1.
</event>
<event>
 5   0  0.9692981E-03  0.1041902E+04  0.7818609E-02  0.9263745E-01
       -2   -1    0    0    0  501  0.00000000000E+00  0.00000000000E+00  0.91514729662E+03  0.91514729662E+03  0.25500000920E-02 0.  1.
        2   -1    0    0  501    0  0.00000000000E+00  0.00000000000E+00 -0.29655341020E+03  0.29655341021E+03  0.25500000920E-02 0. -1.
    10030    2    1    2    0    0  0.00000000000E+00  0.00000000000E+00  0.61859388642E+03  0.12117007068E+04  0.10419022059E+04 0.  0.
        5    1    3    3  502    0  0.37632810009E+03  0.11054260178E+02  0.72800306840E+03  0.81960697482E+03  0.46999998093E+01 0.  1.
       -5    1    3    3    0  502 -0.37632810009E+03 -0.11054260178E+02 -0.10940918198E+03  0.39209373201E+03  0.46999998093E+01 0. -1.
</event>
<event>
 5   0  0.5998641E-03  0.1138632E+04  0.7818609E-02  0.9168335E-01
        1   -1    0    0  501    0  0.00000000000E+00  0.00000000000E+00  0.14292397608E+04  0.14292397608E+04  0.50400001928E-02 0. -1.
       -1   -1    0    0    0  501  0.00000000000E+00  0.00000000000E+00 -0.22677856577E+03  0.22677856583E+03  0.50400001928E-02 0.  1.
    10030    2    1    2    0    0  0.00000000000E+00  0.00000000000E+00  0.12024611950E+04  0.16560183266E+04  0.11386324133E+04 0.  0.
        3    1    3    3  502    0 -0.10702081586E+03  0.19384956808E+03  0.13640449536E+04  0.13819007764E+04  0.10100000352E+00 0. -1.
       -3    1    3    3    0  502  0.10702081586E+03 -0.19384956808E+03 -0.16158375864E+03  0.27411755020E+03  0.10100000352E+00 0.  1.
</event>
<event>
 5   0  0.9925021E-03  0.1108417E+04  0.7818609E-02  0.9197027E-01
       -2   -1    0    0    0  501  0.00000000000E+00  0.00000000000E+00  0.10963646747E+04  0.10963646747E+04  0.25500000920E-02 0.  1.
        2   -1    0    0  501    0  0.00000000000E+00  0.00000000000E+00 -0.28015033098E+03  0.28015033100E+03  0.25500000920E-02 0. -1.
    10030    2    1    2    0    0  0.00000000000E+00  0.00000000000E+00  0.81621434372E+03  0.13765150057E+04  0.11084167565E+04 0.  0.
        4    1    3    3  502    0  0.10099083909E+03  0.18615308702E+03  0.10441280569E+04  0.10653906014E+04  0.12699999809E+01 0.  1.
       -4    1    3    3    0  502 -0.10099083909E+03 -0.18615308702E+03 -0.22791371321E+03  0.31112440430E+03  0.12699999809E+01 0. -1.
</event>
<event>
 5   0  0.5854579E-03  0.1053282E+04  0.7818609E-02  0.9251962E-01
       -1   -1    0    0    0  501  0.00000000000E+00  0.00000000000E+00  0.70812178698E+03  0.70812178700E+03  0.50400001928E-02 0.  1.
        1   -1    0    0  501    0  0.00000000000E+00  0.00000000000E+00 -0.39167122659E+03  0.39167122662E+03  0.50400001928E-02 0. -1.
    10030    2    1    2    0    0  0.00000000000E+00  0.00000000000E+00  0.31645056040E+03  0.10997930136E+04  0.10532823532E+04 0.  0.
        4    1    3    3  502    0  0.43311158560E+03  0.29578945445E+03  0.20799853331E+03  0.56421808700E+03  0.12699999809E+01 0.  1.
       -4    1    3    3    0  502 -0.43311158560E+03 -0.29578945445E+03  0.10845202709E+03  0.53557492662E+03  0.12699999809E+01 0. -1.
</event>
<event>
 5   0  0.9925021E-03  0.7032789E+03  0.7818609E-02  0.9711641E-01
       -2   -1    0    0    0  501  0.00000000000E+00  0.00000000000E+00  0.68153607020E+02  0.68153607068E+02  0.25500000920E-02 0.  1.
        2   -1    0    0  501    0  0.00000000000E+00  0.00000000000E+00 -0.18142886203E+04  0.18142886203E+04  0.25500000920E-02 0. -1.
    10030    2    1    2    0    0  0.00000000000E+00  0.00000000000E+00 -0.17461350133E+04  0.18824422273E+04  0.70327893099E+03 0.  0.
        4    1    3    3  502    0  0.23941064585E+03 -0.36256080188E+02 -0.19056123774E+03  0.30813496869E+03  0.12699999809E+01 0.  1.
       -4    1    3    3    0  502 -0.23941064585E+03  0.36256080188E+02 -0.15555737755E+04  0.15743072587E+04  0.12699999809E+01 0. -1.
</event>
<event>
 5   0  0.1028016E-02  0.1077637E+04  0.7818609E-02  0.9227267E-01
       -2   -1    0    0    0  501  0.00000000000E+00  0.00000000000E+00  0.21336276951E+03  0.21336276952E+03  0.25500000920E-02 0. -1.
        2   -1    0    0  501    0  0.00000000000E+00  0.00000000000E+00 -0.13607111995E+04  0.13607111995E+04  0.25500000920E-02 0.  1.
    10030    2    1    2    0    0  0.00000000000E+00  0.00000000000E+00 -0.11473484299E+04  0.15740739690E+04  0.10776365065E+04 0.  0.
        2    1    3    3  502    0 -0.13740592453E+03 -0.10655550269E+01 -0.13346881934E+04  0.13417429326E+04  0.25500000920E-02 0.  1.
       -2    1    3    3    0  502  0.13740592453E+03  0.10655550269E+01  0.18733976345E+03  0.23233103641E+03  0.25500000920E-02 0. -1.
</event>
<event>
 5   0  0.5789905E-03  0.1139434E+04  0.7818609E-02  0.9167587E-01
        1   -1    0    0  501    0  0.00000000000E+00  0.00000000000E+00  0.42198005171E+03  0.42198005174E+03  0.50400001928E-02 0. -1.
       -1   -1    0    0    0  501  0.00000000000E+00  0.00000000000E+00 -0.76917766432E+03  0.76917766433E+03  0.50400001928E-02 0.  1.
    10030    2    1    2    0    0  0.00000000000E+00  0.00000000000E+00 -0.34719761261E+03  0.11911577161E+04  0.11394342993E+04 0.  0.
        1    1    3    3  502    0  0.17342646080E+03  0.49861126054E+03  0.50339373873E+02  0.53030555251E+03  0.50400001928E-02 0. -1.
       -1    1    3    3    0  502 -0.17342646080E+03 -0.49861126054E+03 -0.39753698648E+03  0.66085216356E+03  0.50400001928E-02 0.  1.
</event>
<event>
 5   0  0.5712664E-03  0.1084313E+04  0.7818609E-02  0.9220618E-01
       -1   -1    0    0    0  501  0.00000000000E+00  0.00000000000E+00  0.75796594053E+03  0.75796594055E+03  0.50400001928E-02 0.  1.
        1   -1    0    0  501    0  0.00000000000E+00  0.00000000000E+00 -0.38779253507E+03  0.38779253510E+03  0.50400001928E-02 0. -1.
    10030    2    1    2    0    0  0.00000000000E+00  0.00000000000E+00  0.37017340546E+03  0.11457584756E+04  0.10843127475E+04 0.  0.
        5    1    3    3  502    0 -0.21114255566E+03  0.42258207529E+03 -0.95984286518E+02  0.48207039157E+03  0.46999998093E+01 0.  1.
       -5    1    3    3    0  502  0.21114255566E+03 -0.42258207529E+03  0.46615769198E+03  0.66368808408E+03  0.46999998093E+01 0. -1.
</event>
<event>
 5   0  0.5789905E-03  0.1068729E+04  0.7818609E-02  0.9236219E-01
       -1   -1    0    0    0  501  0.00000000000E+00  0.00000000000E+00  0.29721142664E+03  0.29721142669E+03  0.50400001928E-02 0. -1.
        1   -1    0    0  501    0  0.00000000000E+00  0.00000000000E+00 -0.96074770758E+03  0.96074770759E+03  0.50400001928E-02 0.  1.
    10030    2    1    2    0    0  0.00000000000E+00  0.00000000000E+00 -0.66353628093E+03  0.12579591343E+04  0.10687285845E+04 0.  0.
        1    1    3    3  502    0  0.26229817058E+03 -0.46538824356E+03 -0.31694233913E+03  0.62115939491E+03  0.50400001928E-02 0.  1.
       -1    1    3    3    0  502 -0.26229817058E+03  0.46538824356E+03 -0.34659394180E+03  0.63679973936E+03  0.50400001928E-02 0. -1.
</event>
<event>
 5   0  0.9692981E-03  0.1108602E+04  0.7818609E-02  0.9196848E-01
        2   -1    0    0  501    0  0.00000000000E+00  0.00000000000E+00  0.37209714964E+03  0.37209714965E+03  0.25500000920E-02 0. -1.
       -2   -1    0    0    0  501  0.00000000000E+00  0.00000000000E+00 -0.82572421764E+03  0.82572421764E+03  0.25500000920E-02 0.  1.
    10030    2    1    2    0    0  0.00000000000E+00  0.00000000000E+00 -0.45362706800E+03  0.11978213673E+04  0.11086020526E+04 0.  0.
        5    1    3    3  502    0  0.18548530771E+03  0.38356981505E+03  0.15625697807E+03  0.45383800589E+03  0.46999998093E+01 0. -1.
       -5    1    3    3    0  502 -0.18548530771E+03 -0.38356981505E+03 -0.60988404607E+03  0.74398336140E+03  0.46999998093E+01 0.  1.
</event>
<event>
 5   0  0.9719260E-03  0.1073580E+04  0.7818609E-02  0.9231332E-01
       -2   -1    0    0    0  501  0.00000000000E+00  0.00000000000E+00  0.46729212054E+03  0.46729212055E+03  0.25500000920E-02 0. -1.
        2   -1    0    0  501    0  0.00000000000E+00  0.00000000000E+00 -0.61662422225E+03  0.61662422225E+03  0.25500000920E-02 0.  1.
    10030    2    1    2    0    0  0.00000000000E+00  0.00000000000E+00 -0.14933210171E+03  0.10839163428E+04  0.10735802539E+04 0.  0.
        3    1    3    3  502    0 -0.21602280081E+03 -0.42627172981E+03  0.17216715009E+03  0.50795174561E+03  0.10100000352E+00 0. -1.
       -3    1    3    3    0  502  0.21602280081E+03  0.42627172981E+03 -0.32149925179E+03  0.57596459718E+03  0.10100000352E+00 0.  1.
</event>
<event>
 5   0  0.9719260E-03  0.1085498E+04  0.7818609E-02  0.9219443E-01
       -2   -1    0    0    0  501  0.00000000000E+00  0.00000000000E+00  0.66151763723E+03  0.66151763724E+03  0.25500000920E-02 0. -1.
        2   -1    0    0  501    0  0.00000000000E+00  0.00000000000E+00 -0.44530394748E+03  0.44530394748E+03  0.25500000920E-02 0.  1.
    10030    2    1    2    0    0  0.00000000000E+00  0.00000000000E+00  0.21621368975E+03  0.11068215847E+04  0.10854978861E+04 0.  0.
        3    1    3    3  502    0  0.33858347542E+03 -0.52263730170E+02  0.53733481834E+03  0.63725896190E+03  0.10100000352E+00 0. -1.
       -3    1    3    3    0  502 -0.33858347542E+03  0.52263730170E+02 -0.32112112859E+03  0.46956262282E+03  0.10100000352E+00 0.  1.
</event>
<event>
 5   0  0.5958706E-03  0.1080118E+04  0.7818609E-02  0.9224790E-01
       -1   -1    0    0    0  501  0.00000000000E+00  0.00000000000E+00  0.32372214687E+03  0.32372214691E+03  0.50400001928E-02 0.  1.
        1   -1    0    0  501    0  0.00000000000E+00  0.00000000000E+00 -0.90096966844E+03  0.90096966846E+03  0.50400001928E-02 0. -1.
    10030    2    1    2    0    0  0.00000000000E+00  0.00000000000E+00 -0.57724752157E+03  0.12246918154E+04  0.10801182072E+04 0.  0.
        2    1    3    3  502    0 -0.22527821700E+03  0.49080563063E+03 -0.29410780326E+03  0.61493076200E+03  0.25500000920E-02 0. -1.
       -2    1    3    3    0  502  0.22527821700E+03 -0.49080563063E+03 -0.28313971831E+03  0.60976105337E+03  0.25500000920E-02 0.  1.
</event>
<event>
 5   0  0.9925021E-03  0.1108241E+04  0.7818609E-02  0.9197197E-01
       -2   -1    0    0    0  501  0.00000000000E+00  0.00000000000E+00  0.30786936022E+03  0.30786936024E+03  0.25500000920E-02 0.  1.
        2   -1    0    0  501    0  0.00000000000E+00  0.00000000000E+00 -0.99733639230E+03  0.99733639230E+03  0.25500000920E-02 0. -1.
    10030    2    1    2    0    0  0.00000000000E+00  0.00000000000E+00 -0.68946703208E+03  0.13052057525E+04  0.11082406183E+04 0.  0.
        4    1    3    3  502    0 -0.26779978992E+03 -0.23799072483E+03  0.15311444311E+03  0.38961770772E+03  0.12699999809E+01 0.  1.
       -4    1    3    3    0  502  0.26779978992E+03  0.23799072483E+03 -0.84258147518E+03  0.91558804481E+03  0.12699999809E+01 0. -1.
</event>
<event>
 5   0  0.5789905E-03  0.1194639E+04  0.7818609E-02  0.9117562E-01
        1   -1    0    0  501    0  0.00000000000E+00  0.00000000000E+00  0.23699748748E+03  0.23699748754E+03  0.50400001928E-02 0. -1.
       -1   -1    0    0    0  501  0.00000000000E+00  0.00000000000E+00 -0.15054606063E+04  0.15054606063E+04  0.50400001928E-02 0.  1.
    10030    2    1    2    0    0  0.00000000000E+00  0.00000000000E+00 -0.12684631188E+04  0.17424580939E+04  0.11946386588E+04 0.  0.
        1    1    3    3  502    0  0.52392612240E+03  0.28391394962E+03 -0.69409794406E+03  0.91481018168E+03  0.50400001928E-02 0. -1.
       -1    1    3    3    0  502 -0.52392612240E+03 -0.28391394962E+03 -0.57436517476E+03  0.82764791217E+03  0.50400001928E-02 0.  1.
</event>
<event>
 5   0  0.9719260E-03  0.1077714E+04  0.7818609E-02  0.9227190E-01
        2   -1    0    0  501    0  0.00000000000E+00  0.00000000000E+00  0.14519285343E+04  0.14519285343E+04  0.25500000920E-02 0. -1.
       -2   -1    0    0    0  501  0.00000000000E+00  0.00000000000E+00 -0.19998693423E+03  0.19998693425E+03  0.25500000920E-02 0.  1.
    10030    2    1    2    0    0  0.00000000000E+00  0.00000000000E+00  0.12519416001E+04  0.16519154686E+04  0.10777137585E+04 0.  0.
        3    1    3    3  502    0  0.34520271887E+03  0.38122829692E+03  0.87249281012E+03  0.10127900303E+04  0.10100000352E+00 0.  1.
       -3    1    3    3    0  502 -0.34520271887E+03 -0.38122829692E+03  0.37944878998E+03  0.63912543832E+03  0.10100000352E+00 0. -1.
</event>
<event>
 5   0  0.5789905E-03  0.1130678E+04  0.7818609E-02  0.9175797E-01
       -1   -1    0    0    0  501  0.00000000000E+00  0.00000000000E+00  0.13798051062E+04  0.13798051062E+04  0.50400001928E-02 0. -1.
        1   -1    0    0  501    0  0.00000000000E+00  0.00000000000E+00 -0.23163275048E+03  0.23163275054E+03  0.50400001928E-02 0.  1.
    10030    2    1    2    0    0  0.00000000000E+00  0.00000000000E+00  0.11481723557E+04  0.16114378568E+04  0.11306777648E+04 0.  0.
        1    1    3    3  502    0  0.38426380198E+03 -0.35643355639E+02  0.11628819336E+04  0.12252442654E+04  0.50400001928E-02 0. -1.
       -1    1    3    3    0  502 -0.38426380198E+03  0.35643355639E+02 -0.14709577881E+02  0.38619359137E+03  0.50400001928E-02 0.  1.
</event>
<event>
 5   0  0.9692981E-03  0.1082693E+04  0.7818609E-02  0.9222227E-01
        2   -1    0    0  501    0  0.00000000000E+00  0.00000000000E+00  0.24261964437E+04  0.24261964437E+04  0.25500000920E-02 0. -1.
       -2   -1    0    0    0  501  0.00000000000E+00  0.00000000000E+00 -0.12078821321E+03  0.12078821324E+03  0.25500000920E-02 0.  1.
    10030    2    1    2    0    0  0.00000000000E+00  0.00000000000E+00  0.23054082305E+04  0.25469846570E+04  0.10826928158E+04 0.  0.
        5    1    3    3  502    0 -0.39675476892E+01  0.54131123362E+03  0.11538810396E+04  0.12745576239E+04  0.46999998093E+01 0.  1.
       -5    1    3    3    0  502  0.39675476892E+01 -0.54131123362E+03  0.11515271910E+04  0.12724270331E+04  0.46999998093E+01 0. -1.
</event>
<event>
 5   0  0.5712664E-03  0.1107629E+04  0.7818609E-02  0.9197788E-01
       -1   -1    0    0    0  501  0.00000000000E+00  0.00000000000E+00  0.51078108617E+03  0.51078108620E+03  0.50400001928E-02 0. -1.
        1   -1    0    0  501    0  0.00000000000E+00  0.00000000000E+00 -0.60047343033E+03  0.60047343035E+03  0.50400001928E-02 0.  1.
    10030    2    1    2    0    0  0.00000000000E+00  0.00000000000E+00 -0.89692344157E+02  0.11112545165E+04  0.11076289469E+04 0.  0.
        5    1    3    3  502    0  0.85230466692E+02  0.38787584409E+03  0.34239193948E+03  0.52437222763E+03  0.46999998093E+01 0. -1.
       -5    1    3    3    0  502 -0.85230466692E+02 -0.38787584409E+03 -0.43208428364E+03  0.58688228892E+03  0.46999998093E+01 0.  1.
</event>
<event>
 5   0  0.5958706E-03  0.6537312E+03  0.7818609E-02  0.9799803E-01
        1   -1    0    0  501    0  0.00000000000E+00  0.00000000000E+00  0.44659537248E+03  0.44659537251E+03  0.50400001928E-02 0. -1.
       -1   -1    0    0    0  501  0.00000000000E+00  0.00000000000E+00 -0.23923474253E+03  0.23923474258E+03  0.50400001928E-02 0.  1.
    10030    2    1    2    0    0  0.00000000000E+00  0.00000000000E+00  0.20736062995E+03  0.68583011509E+03  0.65373122604E+03 0.  0.
        2    1    3    3  502    0 -0.10034844206E+03  0.90251728942E+02  0.41599885066E+03  0.43734451883E+03  0.25500000920E-02 0. -1.
       -2    1    3    3    0  502  0.10034844206E+03 -0.90251728942E+02 -0.20863822070E+03  0.24848559625E+03  0.25500000920E-02 0.  1.
</event>
<event>
 5   0  0.1028016E-02  0.1214424E+04  0.7818609E-02  0.9100325E-01
        2   -1    0    0  501    0  0.00000000000E+00  0.00000000000E+00  0.28615848225E+04  0.28615848225E+04  0.25500000920E-02 0. -1.
       -2   -1    0    0    0  501  0.00000000000E+00  0.00000000000E+00 -0.12884682599E+03  0.12884682601E+03  0.25500000920E-02 0.  1.
    10030    2    1    2    0    0  0.00000000000E+00  0.00000000000E+00  0.27327379965E+04  0.29904316485E+04  0.12144235204E+04 0.  0.
        2    1    3    3  502    0 -0.28358540833E+03  0.26416230504E+02  0.45837379748E+02  0.28847801726E+03  0.25500000920E-02 0.  1.
       -2    1    3    3    0  502  0.28358540833E+03 -0.26416230504E+02  0.26869006168E+04  0.27019536313E+04  0.25500000920E-02 0. -1.
</event>
<event>
 5   0  0.9719260E-03  0.1089451E+04  0.7818609E-02  0.9215535E-01
       -2   -1    0    0    0  501  0.00000000000E+00  0.00000000000E+00  0.56448050733E+03  0.56448050734E+03  0.25500000920E-02 0. -1.
        2   -1    0    0  501    0  0.00000000000E+00  0.00000000000E+00 -0.52566229253E+03  0.52566229254E+03  0.25500000920E-02 0.  1.
    10030    2    1    2    0    0  0.00000000000E+00  0.00000000000E+00  0.38818214801E+02  0.10901427999E+04  0.10894514539E+04 0.  0.
        3    1    3    3  502    0 -0.26527739471E+03  0.44059265869E+03  0.19905609778E+03  0.55146833753E+03  0.10100000352E+00 0. -1.
       -3    1    3    3    0  502  0.26527739471E+03 -0.44059265869E+03 -0.16023788298E+03  0.53867446234E+03  0.10100000352E+00 0.  1.
</event>
<event>
 5   0  0.5998641E-03  0.8207325E+03  0.7818609E-02  0.9530483E-01
        1   -1    0    0  501    0  0.00000000000E+00  0.00000000000E+00  0.87968516008E+03  0.87968516010E+03  0.50400001928E-02 0. -1.
       -1   -1    0    0    0  501  0.00000000000E+00  0.00000000000E+00 -0.19143265300E+03  0.19143265306E+03  0.50400001928E-02 0.  1.
    10030    2    1    2    0    0  0.00000000000E+00  0.00000000000E+00  0.68825250709E+03  0.10711178132E+04  0.82073251194E+03 0.  0.
        3    1    3    3  502    0  0.53055556073E+02  0.38922920104E+03  0.18923304052E+03  0.43603144015E+03  0.10100000352E+00 0. -1.
       -3    1    3    3    0  502 -0.53055556073E+02 -0.38922920104E+03  0.49901946657E+03  0.63508637301E+03  0.10100000352E+00 0.  1.
</event>
<event>
 5   0  0.9692981E-03  0.1045325E+04  0.7818609E-02  0.9260184E-01
        2   -1    0    0  501    0  0.00000000000E+00  0.00000000000E+00  0.83898019223E+03  0.83898019224E+03  0.25500000920E-02 0.  1.
       -2   -1    0    0    0  501  0.00000000000E+00  0.00000000000E+00 -0.32560517678E+03  0.32560517679E+03  0.25500000920E-02 0. -1.
    10030    2    1    2    0    0  0.00000000000E+00  0.00000000000E+00  0.51337501545E+03  0.11645853690E+04  0.10453253920E+04 0.  0.
        5    1    3    3  502    0  0.19095657750E+03 -0.44468196581E+03  0.47655496453E+03  0.67921512750E+03  0.46999998093E+01 0.  1.
       -5    1    3    3    0  502 -0.19095657750E+03  0.44468196581E+03  0.36820050924E+02  0.48537024153E+03  0.46999998093E+01 0. -1.
</event>
<event>
 5   0  0.9925021E-03  0.1119657E+04  0.7818609E-02  0.9186242E-01
        2   -1    0    0  501    0  0.00000000000E+00  0.00000000000E+00  0.20283428388E+04  0.20283428388E+04  0.25500000920E-02 0.  1.
       -2   -1    0    0    0  501  0.00000000000E+00  0.00000000000E+00 -0.15451416492E+03  0.15451416494E+03  0.25500000920E-02 0. -1.
    10030    2    1    2    0    0  0.00000000000E+00  0.00000000000E+00  0.18738286739E+04  0.21828570037E+04  0.11196565544E+04 0.  0.
        4    1    3    3  502    0 -0.18936837196E+03 -0.81415810519E+02 -0.77834884960E+02  0.22033791484E+03  0.12699999809E+01 0. -1.
       -4    1    3    3    0  502  0.18936837196E+03  0.81415810519E+02  0.19516635588E+04  0.19625190889E+04  0.12699999809E+01 0.  1.
</event>
<event>
 5   0  0.1028016E-02  0.1265474E+04  0.7818609E-02  0.9057402E-01
        2   -1    0    0  501    0  0.00000000000E+00  0.00000000000E+00  0.94309452413E+03  0.94309452413E+03  0.25500000920E-02 0.  1.
       -2   -1    0    0    0  501  0.00000000000E+00  0.00000000000E+00 -0.42451325614E+03  0.42451325614E+03  0.25500000920E-02 0. -1.
    10030    2    1    2    0    0  0.00000000000E+00  0.00000000000E+00  0.51858126799E+03  0.13676077803E+04  0.12654740255E+04 0.  0.
        2    1    3    3  502    0  0.40467510785E+03 -0.46829409223E+03  0.40141431438E+03  0.73769556832E+03  0.25500000920E-02 0. -1.
       -2    1    3    3    0  502 -0.40467510785E+03  0.46829409223E+03  0.11716695361E+03  0.62991221195E+03  0.25500000920E-02 0.  1.
</event>
<event>
 5   0  0.3949750E-03  0.6219851E+03  0.7818609E-02  0.9860815E-01
        4   -1    0    0  501    0  0.00000000000E+00  0.00000000000E+00  0.58317896658E+02  0.58331723535E+02  0.12699999809E+01 0. -1.
       -4   -1    0    0    0  501  0.00000000000E+00  0.00000000000E+00 -0.16582228858E+04  0.16582233722E+04  0.12699999809E+01 0.  1.
    10030    2    1    2    0    0  0.00000000000E+00  0.00000000000E+00 -0.15999049892E+04  0.17165550957E+04  0.62198506589E+03 0.  0.
        1    1    3    3  502    0  0.10645511614E+03 -0.78447790331E+02 -0.23130446045E+02  0.13424516796E+03  0.50400001928E-02 0. -1.
       -1    1    3    3    0  502 -0.10645511614E+03  0.78447790331E+02 -0.15767745431E+04  0.15823099277E+04  0.50400001928E-02 0.  1.
</event>
<event>
 5   0  0.1028016E-02  0.1091527E+04  0.7818609E-02  0.9213490E-01
       -2   -1    0    0    0  501  0.00000000000E+00  0.00000000000E+00  0.28871890676E+03  0.28871890677E+03  0.25500000920E-02 0. -1.
        2   -1    0    0  501    0  0.00000000000E+00  0.00000000000E+00 -0.10316530943E+04  0.10316530943E+04  0.25500000920E-02 0.  1.
    10030    2    1    2    0    0  0.00000000000E+00  0.00000000000E+00 -0.74293418753E+03  0.13203720011E+04  0.10915269187E+04 0.  0.
        2    1    3    3  502    0  0.34097069497E+03  0.13881214502E+03 -0.85883673978E+03  0.93441445410E+03  0.25500000920E-02 0.  1.
       -2    1    3    3    0  502 -0.34097069497E+03 -0.13881214502E+03  0.11590255225E+03  0.38595754696E+03  0.25500000920E-02 0. -1.
</event>
<event>
 5   0  0.9692981E-03  0.1089452E+04  0.7818609E-02  0.9215534E-01
       -2   -1    0    0    0  501  0.00000000000E+00  0.00000000000E+00  0.11394151329E+03  0.11394151332E+03  0.25500000920E-02 0. -1.
        2   -1    0    0  501    0  0.00000000000E+00  0.00000000000E+00 -0.26042008483E+04  0.26042008483E+04  0.25500000920E-02 0.  1.
    10030    2    1    2    0    0  0.00000000000E+00  0.00000000000E+00 -0.24902593350E+04  0.27181423616E+04  0.10894523131E+04 0.  0.
        5    1    3    3  502    0 -0.30191533354E+03  0.34332471570E+03 -0.50635215739E+03  0.68223113849E+03  0.46999998093E+01 0. -1.
       -5    1    3    3    0  502  0.30191533354E+03 -0.34332471570E+03 -0.19839071776E+04  0.20359112232E+04  0.46999998093E+01 0.  1.
</event>
<event>
 5   0  0.9925021E-03  0.1241086E+04  0.7818609E-02  0.9077635E-01
       -2   -1    0    0    0  501  0.00000000000E+00  0.00000000000E+00  0.39776218435E+03  0.39776218436E+03  0.25500000920E-02 0.  1.
        2   -1    0    0  501    0  0.00000000000E+00  0.00000000000E+00 -0.96809976138E+03  0.96809976138E+03  0.25500000920E-02 0. -1.
    10030    2    1    2    0    0  0.00000000000E+00  0.00000000000E+00 -0.57033757703E+03  0.13658619457E+04  0.12410857759E+04 0.  0.
        4    1    3    3  502    0  0.10088170966E+03  0.17058527723E+03 -0.93233318575E+03  0.95316485369E+03  0.12699999809E+01 0. -1.
       -4    1    3    3    0  502 -0.10088170966E+03 -0.17058527723E+03  0.36199560872E+03  0.41269709205E+03  0.12699999809E+01 0.  1.
</event>
<event>
 5   0  0.1028016E-02  0.1092090E+04  0.7818609E-02  0.9212936E-01
        2   -1    0    0  501    0  0.00000000000E+00  0.00000000000E+00  0.95359204290E+03  0.95359204290E+03  0.25500000920E-02 0. -1.
       -2   -1    0    0    0  501  0.00000000000E+00  0.00000000000E+00 -0.31267569417E+03  0.31267569418E+03  0.25500000920E-02 0.  1.
    10030    2    1    2    0    0  0.00000000000E+00  0.00000000000E+00  0.64091634873E+03  0.12662677371E+04  0.10920898387E+04 0.  0.
        2    1    3    3  502    0 -0.33308445137E+03 -0.40888528276E+03  0.48456858650E+03  0.71619769703E+03  0.25500000920E-02 0.  1.
       -2    1    3    3    0  502  0.33308445137E+03  0.40888528276E+03  0.15634776223E+03  0.55007004005E+03  0.25500000920E-02 0. -1.
</event>
<event>
 5   0  0.9692981E-03  0.1079682E+04  0.7818609E-02  0.9225224E-01
        2   -1    0    0  501    0  0.00000000000E+00  0.00000000000E+00  0.23133967171E+04  0.23133967171E+04  0.25500000920E-02 0. -1.
       -2   -1    0    0    0  501  0.00000000000E+00  0.00000000000E+00 -0.12597430771E+03  0.12597430774E+03  0.25500000920E-02 0.  1.
    10030    2    1    2    0    0  0.00000000000E+00  0.00000000000E+00  0.21874224094E+04  0.24393710248E+04  0.10796824532E+04 0.  0.
        5    1    3    3  502    0  0.48139478705E+03  0.14945454135E+03  0.15302312336E+04  0.16111198960E+04  0.46999998093E+01 0. -1.
       -5    1    3    3    0  502 -0.48139478705E+03 -0.14945454135E+03  0.65719117579E+03  0.82825112887E+03  0.46999998093E+01 0.  1.
</event>
<event>
 5   0  0.5789905E-03  0.1122333E+04  0.7818609E-02  0.9183693E-01
        1   -1    0    0  501    0  0.00000000000E+00  0.00000000000E+00  0.13452323500E+04  0.13452323500E+04  0.50400001928E-02 0.  1.
       -1   -1    0    0    0  501  0.00000000000E+00  0.00000000000E+00 -0.23409197608E+03  0.23409197614E+03  0.50400001928E-02 0. -1.
    10030    2    1    2    0    0  0.00000000000E+00  0.00000000000E+00  0.11111403739E+04  0.15793243262E+04  0.11223334605E+04 0.  0.
        1    1    3    3  502    0 -0.56064630371E+03  0.97488822608E+00  0.58954331895E+03  0.81356410517E+03  0.50400001928E-02 0. -1.
       -1    1    3    3    0  502  0.56064630371E+03 -0.97488822608E+00  0.52159705499E+03  0.76576022100E+03  0.50400001928E-02 0.  1.
</event>
<event>
 5   0  0.9719260E-03  0.1144274E+04  0.7818609E-02  0.9163083E-01
        2   -1    0    0  501    0  0.00000000000E+00  0.00000000000E+00  0.89781384264E+03  0.89781384264E+03  0.25500000920E-02 0.  1.
       -2   -1    0    0    0  501  0.00000000000E+00  0.00000000000E+00 -0.36459732379E+03  0.36459732380E+03  0.25500000920E-02 0. -1.
    10030    2    1    2    0    0  0.00000000000E+00  0.00000000000E+00  0.53321651884E+03  0.12624111664E+04  0.11442736112E+04 0.  0.
        3    1    3    3  502    0 -0.25940114039E+03  0.39588636594E+03 -0.88021194187E+02  0.48141739396E+03  0.10100000352E+00 0.  1.
       -3    1    3    3    0  502  0.25940114039E+03 -0.39588636594E+03  0.62123771303E+03  0.78099377249E+03  0.10100000352E+00 0. -1.
</event>
<event>
 5   0  0.5789905E-03  0.1104999E+04  0.7818609E-02  0.9200333E-01
        1   -1    0    0  501    0  0.00000000000E+00  0.00000000000E+00  0.66667623856E+03  0.66667623858E+03  0.50400001928E-02 0.  1.
       -1   -1    0    0    0  501  0.00000000000E+00  0.00000000000E+00 -0.45787719903E+03  0.45787719905E+03  0.50400001928E-02 0. -1.
    10030    2    1    2    0    0  0.00000000000E+00  0.00000000000E+00  0.20879903954E+03  0.11245534376E+04  0.11049992738E+04 0.  0.
        1    1    3    3  502    0 -0.36695242256E+03  0.83758882424E+02  0.51601477371E+03  0.63870249531E+03  0.50400001928E-02 0.  1.
       -1    1    3    3    0  502  0.36695242256E+03 -0.83758882424E+02 -0.30721573417E+03  0.48585094232E+03  0.50400001928E-02 0. -1.
</event>
<event>
 5   0  0.1028016E-02  0.1088934E+04  0.7818609E-02  0.9216046E-01
        2   -1    0    0  501    0  0.00000000000E+00  0.00000000000E+00  0.16708246114E+04  0.16708246114E+04  0.25500000920E-02 0.  1.
       -2   -1    0    0    0  501  0.00000000000E+00  0.00000000000E+00 -0.17742379717E+03  0.17742379719E+03  0.25500000920E-02 0. -1.
    10030    2    1    2    0    0  0.00000000000E+00  0.00000000000E+00  0.14934008143E+04  0.18482484086E+04  0.10889335094E+04 0.  0.
        2    1    3    3  502    0 -0.29258713388E+03 -0.43149188965E+03  0.48021021599E+03  0.70879780847E+03  0.25500000920E-02 0.  1.
       -2    1    3    3    0  502  0.29258713388E+03  0.43149188965E+03  0.10131905983E+04  0.11394506002E+04  0.25500000920E-02 0. -1.
</event>
<event>
 5   0  0.9692981E-03  0.1108540E+04  0.7818609E-02  0.9196908E-01
       -2   -1    0    0    0  501  0.00000000000E+00  0.00000000000E+00  0.25214597129E+03  0.25214597130E+03  0.25500000920E-02 0.  1.
        2   -1    0    0  501    0  0.00000000000E+00  0.00000000000E+00 -0.12184026978E+04  0.12184026978E+04  0.25500000920E-02 0. -1.
    10030    2    1    2    0    0  0.00000000000E+00  0.00000000000E+00 -0.96625672652E+03  0.14705486691E+04  0.11085401782E+04 0.  0.
        5    1    3    3  502    0 -0.44682681268E+03  0.31960218594E+03 -0.58055162301E+03  0.79928845529E+03  0.46999998093E+01 0.  1.
       -5    1    3    3    0  502  0.44682681268E+03 -0.31960218594E+03 -0.38570510351E+03  0.67126021382E+03  0.46999998093E+01 0. -1.
</event>
<event>
 5   0  0.5789905E-03  0.1088997E+04  0.7818609E-02  0.9215983E-01
        1   -1    0    0  501    0  0.00000000000E+00  0.00000000000E+00  0.53589329172E+03  0.53589329175E+03  0.50400001928E-02 0.  1.
       -1   -1    0    0    0  501  0.00000000000E+00  0.00000000000E+00 -0.55324146600E+03  0.55324146603E+03  0.50400001928E-02 0. -1.
    10030    2    1    2    0    0  0.00000000000E+00  0.00000000000E+00 -0.17348174281E+02  0.10891347578E+04  0.10889965847E+04 0.  0.
        1    1    3    3  502    0  0.39987399722E+03 -0.75956812717E+02  0.35304809349E+03  0.53880572324E+03  0.50400001928E-02 0. -1.
       -1    1    3    3    0  502 -0.39987399722E+03  0.75956812717E+02 -0.37039626777E+03  0.55032903454E+03  0.50400001928E-02 0.  1.
</event>
<event>
 5   0  0.5854579E-03  0.1092219E+04  0.7818609E-02  0.9212809E-01
        1   -1    0    0  501    0  0.00000000000E+00  0.00000000000E+00  0.61552679164E+03  0.61552679166E+03  0.50400001928E-02 0.  1.
       -1   -1    0    0    0  501  0.00000000000E+00  0.00000000000E+00 -0.48452079607E+03  0.48452079609E+03  0.50400001928E-02 0. -1.
    10030    2    1    2    0    0  0.00000000000E+00  0.00000000000E+00  0.13100599558E+03  0.11000475878E+04  0.10922188995E+04 0.  0.
        4    1    3    3  502    0  0.10039071612E+03  0.37947718587E+03 -0.31689284125E+03  0.50448381165E+03  0.12699999809E+01 0. -1.
       -4    1    3    3    0  502 -0.10039071612E+03 -0.37947718587E+03  0.44789883683E+03  0.59556377611E+03  0.12699999809E+01 0.  1.
</event>
<event>
 5   0  0.5998641E-03  0.1183178E+04  0.7818609E-02  0.9127710E-01
        1   -1    0    0  501    0  0.00000000000E+00  0.00000000000E+00  0.78406792206E+03  0.78406792208E+03  0.50400001928E-02 0. -1.
       -1   -1    0    0    0  501  0.00000000000E+00  0.00000000000E+00 -0.44636123048E+03  0.44636123051E+03  0.50400001928E-02 0.  1.
    10030    2    1    2    0    0  0.00000000000E+00  0.00000000000E+00  0.33770669158E+03  0.12304291526E+04  0.11831779621E+04 0.  0.
        3    1    3    3  502    0  0.53974850234E+03  0.17344250637E+03 -0.69135408585E+01  0.56697315284E+03  0.10100000352E+00 0.  1.
       -3    1    3    3    0  502 -0.53974850234E+03 -0.17344250637E+03  0.34462023244E+03  0.66345599975E+03  0.10100000352E+00 0. -1.
</event>
<event>
 5   0  0.5712664E-03  0.1077345E+04  0.7818609E-02  0.9227559E-01
        1   -1    0    0  501    0  0.00000000000E+00  0.00000000000E+00  0.21604955115E+04  0.21604955115E+04  0.50400001928E-02 0. -1.
       -1   -1    0    0    0  501  0.00000000000E+00  0.00000000000E+00 -0.13430624729E+03  0.13430624738E+03  0.50400001928E-02 0.  1.
    10030    2    1    2    0    0  0.00000000000E+00  0.00000000000E+00  0.20261892642E+04  0.22948017589E+04  0.10773449671E+04 0.  0.
        5    1    3    3  502    0 -0.16732584529E+03  0.41453820046E+03  0.37299301877E+03  0.58222481928E+03  0.46999998093E+01 0.  1.
       -5    1    3    3    0  502  0.16732584529E+03 -0.41453820046E+03  0.16531962454E+04  0.17125769396E+04  0.46999998093E+01 0. -1.
</event>
<event>
 5   0  0.5712664E-03  0.1115579E+04  0.7818609E-02  0.9190139E-01
        1   -1    0    0  501    0  0.00000000000E+00  0.00000000000E+00  0.71491391589E+03  0.71491391591E+03  0.50400001928E-02 0.  1.
       -1   -1    0    0    0  501  0.00000000000E+00  0.00000000000E+00 -0.43519783493E+03  0.43519783496E+03  0.50400001928E-02 0. -1.
    10030    2    1    2    0    0  0.00000000000E+00  0.00000000000E+00  0.27971608096E+03  0.11501117509E+04  0.11155787527E+04 0.  0.
        5    1    3    3  502    0  0.33762273614E+03  0.40807009925E+03 -0.40475393524E+02  0.53119738830E+03  0.46999998093E+01 0. -1.
       -5    1    3    3    0  502 -0.33762273614E+03 -0.40807009925E+03  0.32019147449E+03  0.61891436257E+03  0.46999998093E+01 0.  1.
</event>
<event>
 5   0  0.5998641E-03  0.1097321E+04  0.7818609E-02  0.9207807E-01
        1   -1    0    0  501    0  0.00000000000E+00  0.00000000000E+00  0.68610233692E+03  0.68610233694E+03  0.50400001928E-02 0.  1.
       -1   -1    0    0    0  501  0.00000000000E+00  0.00000000000E+00 -0.43875133067E+03  0.43875133070E+03  0.50400001928E-02 0. -1.
    10030    2    1    2    0    0  0.00000000000E+00  0.00000000000E+00  0.24735100625E+03  0.11248536676E+04  0.10973209436E+04 0.  0.
        3    1    3    3  502    0 -0.20852912694E+03  0.35070822183E+03 -0.25233538244E+03  0.47974348257E+03  0.10100000352E+00 0. -1.
       -3    1    3    3    0  502  0.20852912694E+03 -0.35070822183E+03  0.49968638869E+03  0.64511018507E+03  0.10100000352E+00 0.  1.
</event>
<event>
 5   0  0.9692981E-03  0.9279526E+03  0.7818609E-02  0.9391298E-01
        2   -1    0    0  501    0  0.00000000000E+00  0.00000000000E+00  0.11071399941E+04  0.11071399941E+04  0.25500000920E-02 0. -1.
       -2   -1    0    0    0  501  0.00000000000E+00  0.00000000000E+00 -0.19444152387E+03  0.19444152389E+03  0.25500000920E-02 0.  1.
    10030    2    1    2    0    0  0.00000000000E+00  0.00000000000E+00  0.91269847026E+03  0.13015815180E+04  0.92795255830E+03 0.  0.
        5    1    3    3  502    0  0.20819137490E+03  0.39505032581E+03  0.63290057367E+03  0.77459256042E+03  0.46999998093E+01 0. -1.
       -5    1    3    3    0  502 -0.20819137490E+03 -0.39505032581E+03  0.27979789659E+03  0.52698895761E+03  0.46999998093E+01 0.  1.
</event>
<event>
 5   0  0.3949750E-03  0.1123670E+04  0.7818609E-02  0.9182424E-01
       -3   -1    0    0    0  501  0.00000000000E+00  0.00000000000E+00  0.15555840813E+04  0.15555840846E+04  0.10100000352E+00 0.  1.
        3   -1    0    0  501    0  0.00000000000E+00  0.00000000000E+00 -0.20291958460E+03  0.20291960973E+03  0.10100000352E+00 0. -1.
    10030    2    1    2    0    0  0.00000000000E+00  0.00000000000E+00  0.13526644967E+04  0.17585036943E+04  0.11236698814E+04 0.  0.
        5    1    3    3  502    0 -0.39352110024E+03  0.25570356617E+03  0.11596840544E+04  0.12510525034E+04  0.46999998093E+01 0.  1.
       -5    1    3    3    0  502  0.39352110024E+03 -0.25570356617E+03  0.19298044227E+03  0.50745119094E+03  0.46999998093E+01 0. -1.
</event>
<event>
 5   0  0.5712664E-03  0.1108670E+04  0.7818609E-02  0.9196782E-01
        1   -1    0    0  501    0  0.00000000000E+00  0.00000000000E+00  0.35749454384E+03  0.35749454387E+03  0.50400001928E-02 0. -1.
       -1   -1    0    0    0  501  0.00000000000E+00  0.00000000000E+00 -0.85955875156E+03  0.85955875157E+03  0.50400001928E-02 0.  1.
    10030    2    1    2    0    0  0.00000000000E+00  0.00000000000E+00 -0.50206420772E+03  0.12170532954E+04  0.11086704899E+04 0.  0.
        5    1    3    3  502    0  0.21291653572E+03 -0.38682151916E+02 -0.81125051616E+03  0.83963042467E+03  0.46999998093E+01 0.  1.
       -5    1    3    3    0  502 -0.21291653572E+03  0.38682151916E+02  0.30918630844E+03  0.37742287078E+03  0.46999998093E+01 0. -1.
</event>
<event>
 5   0  0.9692981E-03  0.1108439E+04  0.7818609E-02  0.9197006E-01
       -2   -1    0    0    0  501  0.00000000000E+00  0.00000000000E+00  0.29417522374E+03  0.29417522375E+03  0.25500000920E-02 0.  1.
        2   -1    0    0  501    0  0.00000000000E+00  0.00000000000E+00 -0.10441365857E+04  0.10441365857E+04  0.25500000920E-02 0. -1.
    10030    2    1    2    0    0  0.00000000000E+00  0.00000000000E+00 -0.74996136192E+03  0.13383118094E+04  0.11084387466E+04 0.  0.
        5    1    3    3  502    0 -0.16283548886E+03 -0.42801629433E+03 -0.75183879877E+03  0.88033914713E+03  0.46999998093E+01 0. -1.
       -5    1    3    3    0  502  0.16283548886E+03  0.42801629433E+03  0.18774368419E+01  0.45797266230E+03  0.46999998093E+01 0.  1.
</event>
<event>
 5   0  0.5854579E-03  0.1101601E+04  0.7818609E-02  0.9203633E-01
       -1   -1    0    0    0  501  0.00000000000E+00  0.00000000000E+00  0.26571612162E+03  0.26571612166E+03  0.50400001928E-02 0.  1.
        1   -1    0    0  501    0  0.00000000000E+00  0.00000000000E+00 -0.11417494318E+04  0.11417494318E+04  0.50400001928E-02 0. -1.
    10030    2    1    2    0    0  0.00000000000E+00  0.00000000000E+00 -0.87603331015E+03  0.14074655534E+04  0.11016010728E+04 0.  0.
        4    1    3    3  502    0 -0.24338638283E+03 -0.37652154620E+03 -0.84681460596E+03  0.95817639079E+03  0.12699999809E+01 0. -1.
       -4    1    3    3    0  502  0.24338638283E+03  0.37652154620E+03 -0.29218704189E+02  0.44928916265E+03  0.12699999809E+01 0.  1.
</event>
<event>
 5   0  0.5712664E-03  0.9260816E+03  0.7818609E-02  0.9393553E-01
       -1   -1    0    0    0  501  0.00000000000E+00  0.00000000000E+00  0.15271230393E+03  0.15271230401E+03  0.50400001928E-02 0.  1.
        1   -1    0    0  501    0  0.00000000000E+00  0.00000000000E+00 -0.14039914055E+04  0.14039914055E+04  0.50400001928E-02 0. -1.
    10030    2    1    2    0    0  0.00000000000E+00  0.00000000000E+00 -0.12512791016E+04  0.15567037095E+04  0.92608155645E+03 0.  0.
        5    1    3    3  502    0  0.29211214395E+03 -0.29491771131E+02 -0.12274725709E+04  0.12621054914E+04  0.46999998093E+01 0. -1.
       -5    1    3    3    0  502 -0.29211214395E+03  0.29491771131E+02 -0.23806530698E+02  0.29459821810E+03  0.46999998093E+01 0.  1.
</event>
<event>
 5   0  0.9719260E-03  0.9360621E+03  0.7818609E-02  0.9381592E-01
        2   -1    0    0  501    0  0.00000000000E+00  0.00000000000E+00  0.12920181389E+04  0.12920181389E+04  0.25500000920E-02 0.  1.
       -2   -1    0    0    0  501  0.00000000000E+00  0.00000000000E+00 -0.16954332358E+03  0.16954332360E+03  0.25500000920E-02 0. -1.
    10030    2    1    2    0    0  0.00000000000E+00  0.00000000000E+00  0.11224748153E+04  0.14615614625E+04  0.93606206932E+03 0.  0.
        3    1    3    3  502    0  0.20906742059E+03  0.41498925162E+03  0.64856070189E+03  0.79784475905E+03  0.10100000352E+00 0.  1.
       -3    1    3    3    0  502 -0.20906742059E+03 -0.41498925162E+03  0.47391411341E+03  0.66371670342E+03  0.10100000352E+00 0. -1.
</event>
<event>
 5   0  0.9692981E-03  0.1108297E+04  0.7818609E-02  0.9197143E-01
        2   -1    0    0  501    0  0.00000000000E+00  0.00000000000E+00  0.65718200179E+03  0.65718200180E+03  0.25500000920E-02 0.  1.
       -2   -1    0    0    0  501  0.00000000000E+00  0.00000000000E+00 -0.46726833986E+03  0.46726833987E+03  0.25500000920E-02 0. -1.
    10030    2    1    2    0    0  0.00000000000E+00  0.00000000000E+00  0.18991366194E+03  0.11244503417E+04  0.11082966083E+04 0.  0.
        5    1    3    3  502    0  0.47249246263E+02 -0.17188797461E+03 -0.43736200262E+03  0.47231936063E+03  0.46999998093E+01 0. -1.
       -5    1    3    3    0  502 -0.47249246263E+02  0.17188797461E+03  0.62727566456E+03  0.65213098104E+03  0.46999998093E+01 0.  1.
</event>
<event>
 5   0  0.5712664E-03  0.1106855E+04  0.7818609E-02  0.9198536E-01
       -1   -1    0    0    0  501  0.00000000000E+00  0.00000000000E+00  0.22893421489E+03  0.22893421494E+03  0.50400001928E-02 0. -1.
        1   -1    0    0  501    0  0.00000000000E+00  0.00000000000E+00 -0.13378594966E+04  0.13378594966E+04  0.50400001928E-02 0.  1.
    10030    2    1    2    0    0  0.00000000000E+00  0.00000000000E+00 -0.11089252817E+04  0.15667937116E+04  0.11068546671E+04 0.  0.
        5    1    3    3  502    0  0.86852764426E+02 -0.42583398237E+03 -0.69485251677E+02  0.44014574113E+03  0.46999998093E+01 0. -1.
       -5    1    3    3    0  502 -0.86852764426E+02  0.42583398237E+03 -0.10394400301E+04  0.11266479705E+04  0.46999998093E+01 0.  1.
</event>
<event>
 5   0  0.9925021E-03  0.1007207E+04  0.7818609E-02  0.9300675E-01
       -2   -1    0    0    0  501  0.00000000000E+00  0.00000000000E+00  0.16934671002E+03  0.16934671004E+03  0.25500000920E-02 0. -1.
        2   -1    0    0  501    0  0.00000000000E+00  0.00000000000E+00 -0.14976170684E+04  0.14976170684E+04  0.25500000920E-02 0.  1.
    10030    2    1    2    0    0  0.00000000000E+00  0.00000000000E+00 -0.13282703583E+04  0.16669637784E+04  0.10072070759E+04 0.  0.
        4    1    3    3  502    0 -0.16718306641E+03  0.28177403821E+03 -0.31166470364E+02  0.32911965617E+03  0.12699999809E+01 0. -1.
       -4    1    3    3    0  502  0.16718306641E+03 -0.28177403821E+03 -0.12971038880E+04  0.13378441222E+04  0.12699999809E+01 0.  1.
</event>
<event>
 5   0  0.5789905E-03  0.1075584E+04  0.7818609E-02  0.9229322E-01
       -1   -1    0    0    0  501  0.00000000000E+00  0.00000000000E+00  0.51031038946E+03  0.51031038948E+03  0.50400001928E-02 0. -1.
        1   -1    0    0  501    0  0.00000000000E+00  0.00000000000E+00 -0.56675362702E+03  0.56675362705E+03  0.50400001928E-02 0.  1.
    10030    2    1    2    0    0  0.00000000000E+00  0.00000000000E+00 -0.56443237567E+02  0.10770640165E+04  0.10755840537E+04 0.  0.
        1    1    3    3  502    0  0.44445474879E+03 -0.25559975351E+03  0.13432550290E+03  0.53001377196E+03  0.50400001928E-02 0. -1.
       -1    1    3    3    0  502 -0.44445474879E+03  0.25559975351E+03 -0.19076874046E+03  0.54705024456E+03  0.50400001928E-02 0.  1.
</event>
<event>
 5   0  0.5958706E-03  0.1097604E+04  0.7818609E-02  0.9207531E-01
       -1   -1    0    0    0  501  0.00000000000E+00  0.00000000000E+00  0.21759586321E+03  0.21759586327E+03  0.50400001928E-02 0. -1.
        1   -1    0    0  501    0  0.00000000000E+00  0.00000000000E+00 -0.13841413849E+04  0.13841413849E+04  0.50400001928E-02 0.  1.
    10030    2    1    2    0    0  0.00000000000E+00  0.00000000000E+00 -0.11665455217E+04  0.16017372482E+04  0.10976036434E+04 0.  0.
        2    1    3    3  502    0 -0.48672027738E+03 -0.25040058741E+03 -0.52515000620E+03  0.75853781159E+03  0.25500000920E-02 0.  1.
       -2    1    3    3    0  502  0.48672027738E+03  0.25040058741E+03 -0.64139551551E+03  0.84319943662E+03  0.25500000920E-02 0. -1.
</event>
<event>
 5   0  0.5854579E-03  0.1073543E+04  0.7818609E-02  0.9231370E-01
        1   -1    0    0  501    0  0.00000000000E+00  0.00000000000E+00  0.14343017265E+04  0.14343017265E+04  0.50400001928E-02 0.  1.
       -1   -1    0    0    0  501  0.00000000000E+00  0.00000000000E+00 -0.20088067565E+03  0.20088067571E+03  0.50400001928E-02 0. -1.
    10030    2    1    2    0    0  0.00000000000E+00  0.00000000000E+00  0.12334210509E+04  0.16351824022E+04  0.10735427331E+04 0.  0.
        4    1    3    3  502    0 -0.27950372791E+03 -0.41498916326E+03  0.32063791421E+03  0.59426309364E+03  0.12699999809E+01 0. -1.
       -4    1    3    3    0  502  0.27950372791E+03  0.41498916326E+03  0.91278313666E+03  0.10409193086E+04  0.12699999809E+01 0.  1.
</event>
<event>
 5   0  0.5854579E-03  0.1100216E+04  0.7818609E-02  0.9204982E-01
       -1   -1    0    0    0  501  0.00000000000E+00  0.00000000000E+00  0.71077418753E+03  0.71077418755E+03  0.50400001928E-02 0.  1.
        1   -1    0    0  501    0  0.00000000000E+00  0.00000000000E+00 -0.42575905821E+03  0.42575905824E+03  0.50400001928E-02 0. -1.
    10030    2    1    2    0    0  0.00000000000E+00  0.00000000000E+00  0.28501512933E+03  0.11365332458E+04  0.11002155220E+04 0.  0.
        4    1    3    3  502    0  0.13676547495E+03  0.53277161632E+03  0.15093438580E+03  0.57037986641E+03  0.12699999809E+01 0. -1.
       -4    1    3    3    0  502 -0.13676547495E+03 -0.53277161632E+03  0.13408074353E+03  0.56615337938E+03  0.12699999809E+01 0.  1.
</event>
<event>
 5   0  0.5789905E-03  0.1078014E+04  0.7818609E-02  0.9226890E-01
        1   -1    0    0  501    0  0.00000000000E+00  0.00000000000E+00  0.66336340390E+03  0.66336340392E+03  0.50400001928E-02 0.  1.
       -1   -1    0    0    0  501  0.00000000000E+00  0.00000000000E+00 -0.43796302281E+03  0.43796302284E+03  0.50400001928E-02 0. -1.
    10030    2    1    2    0    0  0.00000000000E+00  0.00000000000E+00  0.22540038109E+03  0.11013264268E+04  0.10780141773E+04 0.  0.
        1    1    3    3  502    0 -0.83829442317E+02 -0.50338182910E+03  0.28996908819E+03  0.58694353511E+03  0.50400001928E-02 0. -1.
       -1    1    3    3    0  502  0.83829442317E+02  0.50338182910E+03 -0.64568707105E+02  0.51438289166E+03  0.50400001928E-02 0.  1.
</event>
<event>
 5   0  0.5712664E-03  0.1225945E+04  0.7818609E-02  0.9090445E-01
       -1   -1    0    0    0  501  0.00000000000E+00  0.00000000000E+00  0.53162402264E+03  0.53162402266E+03  0.50400001928E-02 0.  1.
        1   -1    0    0  501    0  0.00000000000E+00  0.00000000000E+00 -0.70676906752E+03  0.70676906754E+03  0.50400001928E-02 0. -1.
    10030    2    1    2    0    0  0.00000000000E+00  0.00000000000E+00 -0.17514504488E+03  0.12383930902E+04  0.12259452105E+04 0.  0.
        5    1    3    3  502    0 -0.36147060810E+03 -0.21027398377E+03  0.36512645332E+03  0.55517165425E+03  0.46999998093E+01 0.  1.
       -5    1    3    3    0  502  0.36147060810E+03  0.21027398377E+03 -0.54027149820E+03  0.68322143595E+03  0.46999998093E+01 0. -1.
</event>
<event>
 5   0  0.9925021E-03  0.1121836E+04  0.7818609E-02  0.9184166E-01
        2   -1    0    0  501    0  0.00000000000E+00  0.00000000000E+00  0.56919956408E+03  0.56919956408E+03  0.25500000920E-02 0. -1.
       -2   -1    0    0    0  501  0.00000000000E+00  0.00000000000E+00 -0.55275715728E+03  0.55275715729E+03  0.25500000920E-02 0.  1.
    10030    2    1    2    0    0  0.00000000000E+00  0.00000000000E+00  0.16442406796E+02  0.11219567214E+04  0.11218362322E+04 0.  0.
        4    1    3    3  502    0 -0.20877704268E+03 -0.13875141183E+03 -0.49361721772E+03  0.55362386001E+03  0.12699999809E+01 0.  1.
       -4    1    3    3    0  502  0.20877704268E+03  0.13875141183E+03  0.51005962452E+03  0.56833286136E+03  0.12699999809E+01 0. -1.
</event>
<event>
 5   0  0.5712664E-03  0.1064456E+04  0.7818609E-02  0.9240545E-01
        1   -1    0    0  501    0  0.00000000000E+00  0.00000000000E+00  0.18766086933E+04  0.18766086933E+04  0.50400001928E-02 0. -1.
       -1   -1    0    0    0  501  0.00000000000E+00  0.00000000000E+00 -0.15094602961E+03  0.15094602970E+03  0.50400001928E-02 0.  1.
    10030    2    1    2    0    0  0.00000000000E+00  0.00000000000E+00  0.17256626637E+04  0.20275547230E+04  0.10644559765E+04 0.  0.
        5    1    3    3  502    0  0.27148065857E+03  0.21654936080E+03  0.94637523142E+02  0.35996350429E+03  0.46999998093E+01 0.  1.
       -5    1    3    3    0  502 -0.27148065857E+03 -0.21654936080E+03  0.16310251405E+04  0.16675912187E+04  0.46999998093E+01 0. -1.
</event>
<event>
 5   0  0.9925021E-03  0.1123631E+04  0.7818609E-02  0.9182461E-01
       -2   -1    0    0    0  501  0.00000000000E+00  0.00000000000E+00  0.31324670528E+03  0.31324670529E+03  0.25500000920E-02 0.  1.
        2   -1    0    0  501    0  0.00000000000E+00  0.00000000000E+00 -0.10076290402E+04  0.10076290402E+04  0.25500000920E-02 0. -1.
    10030    2    1    2    0    0  0.00000000000E+00  0.00000000000E+00 -0.69438233493E+03  0.13208757455E+04  0.11236306813E+04 0.  0.
        4    1    3    3  502    0 -0.33111108199E+03  0.39478703103E+03 -0.61042746030E+03  0.79882078445E+03  0.12699999809E+01 0. -1.
       -4    1    3    3    0  502  0.33111108199E+03 -0.39478703103E+03 -0.83954874631E+02  0.52205496106E+03  0.12699999809E+01 0.  1.
</event>
<event>
 5   0  0.5789905E-03  0.1101744E+04  0.7818609E-02  0.9203494E-01
        1   -1    0    0  501    0  0.00000000000E+00  0.00000000000E+00  0.47964179445E+03  0.47964179448E+03  0.50400001928E-02 0. -1.
       -1   -1    0    0    0  501  0.00000000000E+00  0.00000000000E+00 -0.63267995839E+03  0.63267995841E+03  0.50400001928E-02 0.  1.
    10030    2    1    2    0    0  0.00000000000E+00  0.00000000000E+00 -0.15303816394E+03  0.11123217529E+04  0.11017436191E+04 0.  0.
        1    1    3    3  502    0 -0.35110328664E+03 -0.26697902552E+02 -0.50422966650E+03  0.61500719711E+03  0.50400001928E-02 0.  1.
       -1    1    3    3    0  502  0.35110328664E+03  0.26697902552E+02  0.35119150257E+03  0.49731455578E+03  0.50400001928E-02 0. -1.
</event>
<event>
 5   0  0.3949750E-03  0.6947671E+03  0.7818609E-02  0.9726223E-01
       -3   -1    0    0    0  501  0.00000000000E+00  0.00000000000E+00  0.29516450489E+03  0.29516452217E+03  0.10100000352E+00 0. -1.
        3   -1    0    0  501    0  0.00000000000E+00  0.00000000000E+00 -0.40884088642E+03  0.40884089890E+03  0.10100000352E+00 0.  1.
    10030    2    1    2    0    0  0.00000000000E+00  0.00000000000E+00 -0.11367638153E+03  0.70400542106E+03  0.69476709275E+03 0.  0.
        4    1    3    3  502    0 -0.29516702329E+03  0.18307414775E+03 -0.62746692696E+02  0.35295676159E+03  0.12699999809E+01 0.  1.
       -4    1    3    3    0  502  0.29516702329E+03 -0.18307414775E+03 -0.50929688835E+02  0.35104865947E+03  0.12699999809E+01 0. -1.
</event>
<event>
 5   0  0.1019384E-02  0.1089053E+04  0.7818609E-02  0.9215928E-01
        2   -1    0    0  501    0  0.00000000000E+00  0.00000000000E+00  0.10679671474E+04  0.10679671474E+04  0.25500000920E-02 0. -1.
       -2   -1    0    0    0  501  0.00000000000E+00  0.00000000000E+00 -0.27763878596E+03  0.27763878597E+03  0.25500000920E-02 0.  1.
    10030    2    1    2    0    0  0.00000000000E+00  0.00000000000E+00  0.79032836144E+03  0.13456059334E+04  0.10890529872E+04 0.  0.
        1    1    3    3  502    0 -0.23838998430E+03 -0.47289387696E+03  0.23862759584E+03  0.58086274885E+03  0.50400001928E-02 0. -1.
       -1    1    3    3    0  502  0.23838998430E+03  0.47289387696E+03  0.55170076560E+03  0.76474318452E+03  0.50400001928E-02 0.  1.
</event>
<event>
 5   0  0.5789905E-03  0.1018141E+04  0.7818609E-02  0.9288869E-01
       -1   -1    0    0    0  501  0.00000000000E+00  0.00000000000E+00  0.14485986048E+03  0.14485986057E+03  0.50400001928E-02 0.  1.
        1   -1    0    0  501    0  0.00000000000E+00  0.00000000000E+00 -0.17889893993E+04  0.17889893993E+04  0.50400001928E-02 0. -1.
    10030    2    1    2    0    0  0.00000000000E+00  0.00000000000E+00 -0.16441295388E+04  0.19338492598E+04  0.10181409625E+04 0.  0.
        1    1    3    3  502    0  0.18417973622E+03  0.47045824465E+03 -0.94067600582E+03  0.10677661182E+04  0.50400001928E-02 0. -1.
       -1    1    3    3    0  502 -0.18417973622E+03 -0.47045824465E+03 -0.70345353297E+03  0.86608314166E+03  0.50400001928E-02 0.  1.
</event>
<event>
 5   0  0.1028016E-02  0.1088633E+04  0.7818609E-02  0.9216342E-01
       -2   -1    0    0    0  501  0.00000000000E+00  0.00000000000E+00  0.43996823270E+03  0.43996823271E+03  0.25500000920E-02 0.  1.
        2   -1    0    0  501    0  0.00000000000E+00  0.00000000000E+00 -0.67341375463E+03  0.67341375463E+03  0.25500000920E-02 0. -1.
    10030    2    1    2    0    0  0.00000000000E+00  0.00000000000E+00 -0.23344552193E+03  0.11133819873E+04  0.10886333809E+04 0.  0.
        2    1    3    3  502    0 -0.29260127263E+03  0.33744342112E+03  0.20147249450E+03  0.48997421692E+03  0.25500000920E-02 0. -1.
       -2    1    3    3    0  502  0.29260127263E+03 -0.33744342112E+03 -0.43491801642E+03  0.62340777042E+03  0.25500000920E-02 0.  1.
</event>
<event>
 5   0  0.5789905E-03  0.1094260E+04  0.7818609E-02  0.9210805E-01
        1   -1    0    0  501    0  0.00000000000E+00  0.00000000000E+00  0.45895780312E+03  0.45895780315E+03  0.50400001928E-02 0.  1.
       -1   -1    0    0    0  501  0.00000000000E+00  0.00000000000E+00 -0.65224118543E+03  0.65224118545E+03  0.50400001928E-02 0. -1.
    10030    2    1    2    0    0  0.00000000000E+00  0.00000000000E+00 -0.19328338231E+03  0.11111989886E+04  0.10942598989E+04 0.  0.
        1    1    3    3  502    0  0.22366934227E+03 -0.11175377581E+03  0.39754796838E+03  0.46963950885E+03  0.50400001928E-02 0.  1.
       -1    1    3    3    0  502 -0.22366934227E+03  0.11175377581E+03 -0.59083135069E+03  0.64155947976E+03  0.50400001928E-02 0. -1.
</event>
<event>
 5   0  0.5998641E-03  0.1053035E+04  0.7818609E-02  0.9252216E-01
       -1   -1    0    0    0  501  0.00000000000E+00  0.00000000000E+00  0.22070543538E+03  0.22070543544E+03  0.50400001928E-02 0. -1.
        1   -1    0    0  501    0  0.00000000000E+00  0.00000000000E+00 -0.12560663291E+04  0.12560663291E+04  0.50400001928E-02 0.  1.
    10030    2    1    2    0    0  0.00000000000E+00  0.00000000000E+00 -0.10353608937E+04  0.14767717646E+04  0.10530349777E+04 0.  0.
        3    1    3    3  502    0 -0.21843489374E+03 -0.28467432970E+03  0.22683175253E+02  0.35953833375E+03  0.10100000352E+00 0. -1.
       -3    1    3    3    0  502  0.21843489374E+03  0.28467432970E+03 -0.10580440690E+04  0.11172334308E+04  0.10100000352E+00 0.  1.
</event>
<event>
 5   0  0.5789905E-03  0.1080331E+04  0.7818609E-02  0.9224577E-01
        1   -1    0    0  501    0  0.00000000000E+00  0.00000000000E+00  0.37465685088E+03  0.37465685092E+03  0.50400001928E-02 0. -1.
       -1   -1    0    0    0  501  0.00000000000E+00  0.00000000000E+00 -0.77878936862E+03  0.77878936864E+03  0.50400001928E-02 0.  1.
    10030    2    1    2    0    0  0.00000000000E+00  0.00000000000E+00 -0.40413251774E+03  0.11534462196E+04  0.10803310092E+04 0.  0.
        1    1    3    3  502    0  0.10624597870E+03  0.49410742301E+03  0.14894420981E+01  0.50540337546E+03  0.50400001928E-02 0.  1.
       -1    1    3    3    0  502 -0.10624597870E+03 -0.49410742301E+03 -0.40562195984E+03  0.64804284410E+03  0.50400001928E-02 0. -1.
</event>
<event>
 5   0  0.9692981E-03  0.1079252E+04  0.7818609E-02  0.9225653E-01
       -2   -1    0    0    0  501  0.00000000000E+00  0.00000000000E+00  0.28761408310E+03  0.28761408311E+03  0.25500000920E-02 0. -1.
        2   -1    0    0  501    0  0.00000000000E+00  0.00000000000E+00 -0.10124550563E+04  0.10124550563E+04  0.25500000920E-02 0.  1.
    10030    2    1    2    0    0  0.00000000000E+00  0.00000000000E+00 -0.72484097317E+03  0.13000691394E+04  0.10792522091E+04 0.  0.
        5    1    3    3  502    0  0.42311353457E+03  0.71382747168E+02  0.31713884174E+02  0.43028876372E+03  0.46999998093E+01 0. -1.
       -5    1    3    3    0  502 -0.42311353457E+03 -0.71382747168E+02 -0.75655485734E+03  0.86978037567E+03  0.46999998093E+01 0.  1.
</event>
<event>
 5   0  0.9719260E-03  0.1116947E+04  0.7818609E-02  0.9188830E-01
       -2   -1    0    0    0  501  0.00000000000E+00  0.00000000000E+00  0.88264452016E+03  0.88264452017E+03  0.25500000920E-02 0. -1.
        2   -1    0    0  501    0  0.00000000000E+00  0.00000000000E+00 -0.35336158307E+03  0.35336158308E+03  0.25500000920E-02 0.  1.
    10030    2    1    2    0    0  0.00000000000E+00  0.00000000000E+00  0.52928293709E+03  0.12360061032E+04  0.11169470264E+04 0.  0.
        3    1    3    3  502    0  0.52423912935E+02 -0.25956717594E+02 -0.34996192526E+03  0.35481738566E+03  0.10100000352E+00 0.  1.
       -3    1    3    3    0  502 -0.52423912935E+02  0.25956717594E+02  0.87924486235E+03  0.88118871759E+03  0.10100000352E+00 0. -1.
</event>
<event>
 5   0  0.1019384E-02  0.1104078E+04  0.7818609E-02  0.9201226E-01
       -2   -1    0    0    0  501  0.00000000000E+00  0.00000000000E+00  0.38316615437E+03  0.38316615438E+03  0.25500000920E-02 0.  1.
        2   -1    0    0  501    0  0.00000000000E+00  0.00000000000E+00 -0.79533981033E+03  0.79533981033E+03  0.25500000920E-02 0. -1.
    10030    2    1    2    0    0  0.00000000000E+00  0.00000000000E+00 -0.41217365596E+03  0.11785059647E+04  0.11040784330E+04 0.  0.
        1    1    3    3  502    0 -0.11916291979E+03 -0.21482898114E+03 -0.73377688216E+03  0.77380863617E+03  0.50400001928E-02 0. -1.
       -1    1    3    3    0  502  0.11916291979E+03  0.21482898114E+03  0.32160322621E+03  0.40469732853E+03  0.50400001928E-02 0.  1.
</event>
<event>
 5   0  0.5958706E-03  0.1120322E+04  0.7818609E-02  0.9185608E-01
       -1   -1    0    0    0  501  0.00000000000E+00  0.00000000000E+00  0.26109998445E+03  0.26109998450E+03  0.50400001928E-02 0.  1.
        1   -1    0    0  501    0  0.00000000000E+00  0.00000000000E+00 -0.12017635921E+04  0.12017635921E+04  0.50400001928E-02 0. -1.
    10030    2    1    2    0    0  0.00000000000E+00  0.00000000000E+00 -0.94066360763E+03  0.14628635766E+04  0.11203221952E+04 0.  0.
        2    1    3    3  502    0 -0.42348066490E+03 -0.61726081791E+02 -0.94227506000E+03  0.10349049577E+04  0.25500000920E-02 0. -1.
       -2    1    3    3    0  502  0.42348066490E+03  0.61726081791E+02  0.16114523702E+01  0.42795861891E+03  0.25500000920E-02 0.  1.
</event>
<event>
 5   0  0.5789905E-03  0.1099634E+04  0.7818609E-02  0.9205549E-01
        1   -1    0    0  501    0  0.00000000000E+00  0.00000000000E+00  0.65966218080E+03  0.65966218082E+03  0.50400001928E-02 0. -1.
       -1   -1    0    0    0  501  0.00000000000E+00  0.00000000000E+00 -0.45826279357E+03  0.45826279359E+03  0.50400001928E-02 0.  1.
    10030    2    1    2    0    0  0.00000000000E+00  0.00000000000E+00  0.20139938723E+03  0.11179249744E+04  0.10996338187E+04 0.  0.
        1    1    3    3  502    0  0.38522256074E+03  0.96953733207E+02  0.48715722839E+03  0.62858461076E+03  0.50400001928E-02 0. -1.
       -1    1    3    3    0  502 -0.38522256074E+03 -0.96953733207E+02 -0.28575784116E+03  0.48934036365E+03  0.50400001928E-02 0.  1.
</event>
<event>
 5   0  0.9692981E-03  0.1081674E+04  0.7818609E-02  0.9223240E-01
       -2   -1    0    0    0  501  0.00000000000E+00  0.00000000000E+00  0.26933775694E+03  0.26933775695E+03  0.25500000920E-02 0. -1.
        2   -1    0    0  501    0  0.00000000000E+00  0.00000000000E+00 -0.10860140634E+04  0.10860140634E+04  0.25500000920E-02 0.  1.
    10030    2    1    2    0    0  0.00000000000E+00  0.00000000000E+00 -0.81667630646E+03  0.13553518204E+04  0.10816738729E+04 0.  0.
        5    1    3    3  502    0 -0.49215395216E+03  0.45243094842E+02 -0.13318813936E+03  0.51188242861E+03  0.46999998093E+01 0. -1.
       -5    1    3    3    0  502  0.49215395216E+03 -0.45243094842E+02 -0.68348816710E+03  0.84346939175E+03  0.46999998093E+01 0.  1.
</event>
<event>
 5   0  0.5998641E-03  0.1099568E+04  0.7818609E-02  0.9205613E-01
        1   -1    0    0  501    0  0.00000000000E+00  0.00000000000E+00  0.37963592330E+03  0.37963592333E+03  0.50400001928E-02 0. -1.
       -1   -1    0    0    0  501  0.00000000000E+00  0.00000000000E+00 -0.79619058658E+03  0.79619058660E+03  0.50400001928E-02 0.  1.
    10030    2    1    2    0    0  0.00000000000E+00  0.00000000000E+00 -0.41655466328E+03  0.11758265099E+04  0.10995681852E+04 0.  0.
        3    1    3    3  502    0 -0.38808104179E+03  0.23505830537E+03 -0.54029935275E+03  0.70553717315E+03  0.10100000352E+00 0.  1.
       -3    1    3    3    0  502  0.38808104179E+03 -0.23505830537E+03  0.12374468946E+03  0.47028933678E+03  0.10100000352E+00 0. -1.
</event>
<event>
 5   0  0.5854579E-03  0.1084086E+04  0.7818609E-02  0.9220843E-01
        1   -1    0    0  501    0  0.00000000000E+00  0.00000000000E+00  0.46321484488E+03  0.46321484491E+03  0.50400001928E-02 0.  1.
       -1   -1    0    0    0  501  0.00000000000E+00  0.00000000000E+00 -0.63428537429E+03  0.63428537431E+03  0.50400001928E-02 0. -1.
    10030    2    1    2    0    0  0.00000000000E+00  0.00000000000E+00 -0.17107052941E+03  0.10975002192E+04  0.10840856079E+04 0.  0.
        4    1    3    3  502    0 -0.22595535665E+03 -0.44283059355E+03  0.13313293117E+03  0.51466566627E+03  0.12699999809E+01 0. -1.
       -4    1    3    3    0  502  0.22595535665E+03  0.44283059355E+03 -0.30420346058E+03  0.58283455295E+03  0.12699999809E+01 0.  1.
</event>
<event>
 5   0  0.9719260E-03  0.1032065E+04  0.7818609E-02  0.9274060E-01
        2   -1    0    0  501    0  0.00000000000E+00  0.00000000000E+00  0.50369345999E+03  0.50369345999E+03  0.25500000920E-02 0.  1.
       -2   -1    0    0    0  501  0.00000000000E+00  0.00000000000E+00 -0.52867343272E+03  0.52867343272E+03  0.25500000920E-02 0. -1.
    10030    2    1    2    0    0  0.00000000000E+00  0.00000000000E+00 -0.24979972731E+02  0.10323668927E+04  0.10320646308E+04 0.  0.
        3    1    3    3  502    0 -0.10970056242E+03  0.40569742431E+03 -0.31201837393E+03  0.52343107412E+03  0.10100000352E+00 0. -1.
       -3    1    3    3    0  502  0.10970056242E+03 -0.40569742431E+03  0.28703840120E+03  0.50893581860E+03  0.10100000352E+00 0.  1.
</event>
<event>
 5   0  0.5712664E-03  0.1133991E+04  0.7818609E-02  0.9172681E-01
        1   -1    0    0  501    0  0.00000000000E+00  0.00000000000E+00  0.47727966552E+03  0.47727966555E+03  0.50400001928E-02 0.  1.
       -1   -1    0    0    0  501  0.00000000000E+00  0.00000000000E+00 -0.67357496352E+03  0.67357496354E+03  0.50400001928E-02 0. -1.
    10030    2    1    2    0    0  0.00000000000E+00  0.00000000000E+00 -0.19629529800E+03  0.11508546291E+04  0.11339905349E+04 0.  0.
        5    1    3    3  502    0  0.46480825733E+03  0.32125424053E+03 -0.50432064763E+02  0.56728871512E+03  0.46999998093E+01 0.  1.
       -5    1    3    3    0  502 -0.46480825733E+03 -0.32125424053E+03 -0.14586323324E+03  0.58356591398E+03  0.46999998093E+01 0. -1.
</event>
<event>
 5   0  0.9692981E-03  0.1095307E+04  0.7818609E-02  0.9209778E-01
        2   -1    0    0  501    0  0.00000000000E+00  0.00000000000E+00  0.14384129899E+04  0.14384129899E+04  0.25500000920E-02 0.  1.
       -2   -1    0    0    0  501  0.00000000000E+00  0.00000000000E+00 -0.20851055958E+03  0.20851055960E+03  0.25500000920E-02 0. -1.
    10030    2    1    2    0    0  0.00000000000E+00  0.00000000000E+00  0.12299024303E+04  0.16469235495E+04  0.10953068930E+04 0.  0.
        5    1    3    3  502    0 -0.12663786603E+03 -0.24210159503E+03  0.13285791255E+04  0.13563903988E+04  0.46999998093E+01 0.  1.
       -5    1    3    3    0  502  0.12663786603E+03  0.24210159503E+03 -0.98676695205E+02  0.29053315061E+03  0.46999998093E+01 0. -1.
</event>
<event>
 5   0  0.9925021E-03  0.9788325E+03  0.7818609E-02  0.9332071E-01
        2   -1    0    0  501    0  0.00000000000E+00  0.00000000000E+00  0.14192127932E+04  0.14192127932E+04  0.25500000920E-02 0.  1.
       -2   -1    0    0    0  501  0.00000000000E+00  0.00000000000E+00 -0.16877543559E+03  0.16877543561E+03  0.25500000920E-02 0. -1.
    10030    2    1    2    0    0  0.00000000000E+00  0.00000000000E+00  0.12504373576E+04  0.15879882288E+04  0.97883248286E+03 0.  0.
        4    1    3    3  502    0 -0.17439244267E+03 -0.44196533725E+03  0.81566489825E+03  0.94395811482E+03  0.12699999809E+01 0. -1.
       -4    1    3    3    0  502  0.17439244267E+03  0.44196533725E+03  0.43477245932E+03  0.64403011395E+03  0.12699999809E+01 0.  1.
</event>
<event>
 5   0  0.1019384E-02  0.1108539E+04  0.7818609E-02  0.9196909E-01
       -2   -1    0    0    0  501  0.00000000000E+00  0.00000000000E+00  0.47016517821E+03  0.47016517822E+03  0.25500000920E-02 0.  1.
        2   -1    0    0  501    0  0.00000000000E+00  0.00000000000E+00 -0.65341809404E+03  0.65341809405E+03  0.25500000920E-02 0. -1.
    10030    2    1    2    0    0  0.00000000000E+00  0.00000000000E+00 -0.18325291583E+03  0.11235832723E+04  0.11085385598E+04 0.  0.
        1    1    3    3  502    0 -0.21783594312E+03 -0.74509119567E+02 -0.60266194077E+03  0.64513992427E+03  0.50400001928E-02 0. -1.
       -1    1    3    3    0  502  0.21783594312E+03  0.74509119567E+02  0.41940902494E+03  0.47844334799E+03  0.50400001928E-02 0.  1.
</event>
<event>
 5   0  0.1019384E-02  0.1085564E+04  0.7818609E-02  0.9219377E-01
        2   -1    0    0  501    0  0.00000000000E+00  0.00000000000E+00  0.55271708474E+03  0.55271708474E+03  0.25500000920E-02 0. -1.
       -2   -1    0    0    0  501  0.00000000000E+00  0.00000000000E+00 -0.53302554377E+03  0.53302554378E+03  0.25500000920E-02 0.  1.
    10030    2    1    2    0    0  0.00000000000E+00  0.00000000000E+00  0.19691540967E+02  0.10857426285E+04  0.10855640463E+04 0.  0.
        1    1    3    3  502    0  0.19628510973E+03  0.75510483418E+02 -0.49061904655E+03  0.53379464803E+03  0.50400001928E-02 0.  1.
       -1    1    3    3    0  502 -0.19628510973E+03 -0.75510483418E+02  0.51031058751E+03  0.55194798049E+03  0.50400001928E-02 0. -1.
</event>
<event>
 5   0  0.5958706E-03  0.1091043E+04  0.7818609E-02  0.9213967E-01
        1   -1    0    0  501    0  0.00000000000E+00  0.00000000000E+00  0.33940361736E+03  0.33940361740E+03  0.50400001928E-02 0. -1.
       -1   -1    0    0    0  501  0.00000000000E+00  0.00000000000E+00 -0.87681306304E+03  0.87681306306E+03  0.50400001928E-02 0.  1.
    10030    2    1    2    0    0  0.00000000000E+00  0.00000000000E+00 -0.53740944568E+03  0.12162166805E+04  0.10910426671E+04 0.  0.
        2    1    3    3  502    0  0.28694440636E+03 -0.32756244410E+03  0.97563471072E+02  0.44626547931E+03  0.25500000920E-02 0. -1.
       -2    1    3    3    0  502 -0.28694440636E+03  0.32756244410E+03 -0.63497291675E+03  0.76995120115E+03  0.25500000920E-02 0.  1.
</event>
<event>
 5   0  0.1019384E-02  0.1061654E+04  0.7818609E-02  0.9243394E-01
       -2   -1    0    0    0  501  0.00000000000E+00  0.00000000000E+00  0.30353447955E+03  0.30353447956E+03  0.25500000920E-02 0.  1.
        2   -1    0    0  501    0  0.00000000000E+00  0.00000000000E+00 -0.92832023590E+03  0.92832023590E+03  0.25500000920E-02 0. -1.
    10030    2    1    2    0    0  0.00000000000E+00  0.00000000000E+00 -0.62478575635E+03  0.12318547155E+04  0.10616538036E+04 0.  0.
        1    1    3    3  502    0 -0.57579908460E+02 -0.52719786958E+03 -0.28582795607E+03  0.60245386549E+03  0.50400001928E-02 0. -1.
       -1    1    3    3    0  502  0.57579908460E+02  0.52719786958E+03 -0.33895780028E+03  0.62940084997E+03  0.50400001928E-02 0.  1.
</event>
<event>
 5   0  0.5712664E-03  0.1080683E+04  0.7818609E-02  0.9224227E-01
        1   -1    0    0  501    0  0.00000000000E+00  0.00000000000E+00  0.11021510453E+04  0.11021510453E+04  0.50400001928E-02 0. -1.
       -1   -1    0    0    0  501  0.00000000000E+00  0.00000000000E+00 -0.26490817350E+03  0.26490817355E+03  0.50400001928E-02 0.  1.
    10030    2    1    2    0    0  0.00000000000E+00  0.00000000000E+00  0.83724287175E+03  0.13670592188E+04  0.10806827848E+04 0.  0.
        5    1    3    3  502    0  0.22980162539E+03  0.35750252728E+03  0.84070163376E+03  0.94202875277E+03  0.46999998093E+01 0. -1.
       -5    1    3    3    0  502 -0.22980162539E+03 -0.35750252728E+03 -0.34587620006E+01  0.42503046606E+03  0.46999998093E+01 0.  1.
</event>
<event>
 5   0  0.5998641E-03  0.1084297E+04  0.7818609E-02  0.9220633E-01
       -1   -1    0    0    0  501  0.00000000000E+00  0.00000000000E+00  0.13891681011E+04  0.13891681011E+04  0.50400001928E-02 0.  1.
        1   -1    0    0  501    0  0.00000000000E+00  0.00000000000E+00 -0.21158361462E+03  0.21158361468E+03  0.50400001928E-02 0. -1.
    10030    2    1    2    0    0  0.00000000000E+00  0.00000000000E+00  0.11775844865E+04  0.16007517158E+04  0.10842973913E+04 0.  0.
        3    1    3    3  502    0  0.29764060041E+02 -0.12438962334E+02 -0.21016549970E+03  0.21262684337E+03  0.10100000352E+00 0. -1.
       -3    1    3    3    0  502 -0.29764060041E+02  0.12438962334E+02  0.13877499862E+04  0.13881248725E+04  0.10100000352E+00 0.  1.
</event>
<event>
 5   0  0.9925021E-03  0.1310375E+04  0.7818609E-02  0.9021378E-01
       -2   -1    0    0    0  501  0.00000000000E+00  0.00000000000E+00  0.22704765112E+03  0.22704765113E+03  0.25500000920E-02 0.  1.
        2   -1    0    0  501    0  0.00000000000E+00  0.00000000000E+00 -0.18906643806E+04  0.18906643806E+04  0.25500000920E-02 0. -1.
    10030    2    1    2    0    0  0.00000000000E+00  0.00000000000E+00 -0.16636167295E+04  0.21177120317E+04  0.13103753763E+04 0.  0.
        4    1    3    3  502    0  0.19740319405E+03  0.15472704343E+02 -0.18411493970E+04  0.18517667619E+04  0.12699999809E+01 0. -1.
       -4    1    3    3    0  502 -0.19740319405E+03 -0.15472704343E+02  0.17753266751E+03  0.26594526981E+03  0.12699999809E+01 0.  1.
</event>
<event>
 5   0  0.5854579E-03  0.1068490E+04  0.7818609E-02  0.9236460E-01
       -1   -1    0    0    0  501  0.00000000000E+00  0.00000000000E+00  0.66848315676E+03  0.66848315678E+03  0.50400001928E-02 0.  1.
        1   -1    0    0  501    0  0.00000000000E+00  0.00000000000E+00 -0.42696331241E+03  0.42696331243E+03  0.50400001928E-02 0. -1.
    10030    2    1    2    0    0  0.00000000000E+00  0.00000000000E+00  0.24151984435E+03  0.10954464692E+04  0.10684901177E+04 0.  0.
        4    1    3    3  502    0 -0.47749383023E+03 -0.23729264269E+03  0.86633304796E+02  0.54019912864E+03  0.12699999809E+01 0. -1.
       -4    1    3    3    0  502  0.47749383023E+03  0.23729264269E+03  0.15488653956E+03  0.55524734057E+03  0.12699999809E+01 0.  1.
</event>
<event>
 5   0  0.9719260E-03  0.1054724E+04  0.7818609E-02  0.9250481E-01
       -2   -1    0    0    0  501  0.00000000000E+00  0.00000000000E+00  0.38285963864E+03  0.38285963864E+03  0.25500000920E-02 0.  1.
        2   -1    0    0  501    0  0.00000000000E+00  0.00000000000E+00 -0.72640312020E+03  0.72640312020E+03  0.25500000920E-02 0. -1.
    10030    2    1    2    0    0  0.00000000000E+00  0.00000000000E+00 -0.34354348156E+03  0.11092627588E+04  0.10547235393E+04 0.  0.
        3    1    3    3  502    0  0.37762968741E+03 -0.41400091424E+02 -0.55646211314E+03  0.67377165416E+03  0.10100000352E+00 0. -1.
       -3    1    3    3    0  502 -0.37762968741E+03  0.41400091424E+02  0.21291863158E+03  0.43549110469E+03  0.10100000352E+00 0.  1.
</event>
<event>
 5   0  0.9719260E-03  0.1120747E+04  0.7818609E-02  0.9185204E-01
        2   -1    0    0  501    0  0.00000000000E+00  0.00000000000E+00  0.10666149926E+04  0.10666149926E+04  0.25500000920E-02 0.  1.
       -2   -1    0    0    0  501  0.00000000000E+00  0.00000000000E+00 -0.29440633673E+03  0.29440633674E+03  0.25500000920E-02 0. -1.
    10030    2    1    2    0    0  0.00000000000E+00  0.00000000000E+00  0.77220865584E+03  0.13610213293E+04  0.11207465595E+04 0.  0.
        3    1    3    3  502    0  0.30205560529E+03  0.46573988253E+03  0.47912182698E+03  0.73328641209E+03  0.10100000352E+00 0.  1.
       -3    1    3    3    0  502 -0.30205560529E+03 -0.46573988253E+03  0.29308682886E+03  0.62773491723E+03  0.10100000352E+00 0. -1.
</event>
<event>
 5   0  0.9719260E-03  0.1071542E+04  0.7818609E-02  0.9233381E-01
       -2   -1    0    0    0  501  0.00000000000E+00  0.00000000000E+00  0.55321702296E+03  0.55321702296E+03  0.25500000920E-02 0. -1.
        2   -1    0    0  501    0  0.00000000000E+00  0.00000000000E+00 -0.51887534062E+03  0.51887534063E+03  0.25500000920E-02 0.  1.
    10030    2    1    2    0    0  0.00000000000E+00  0.00000000000E+00  0.34341682333E+02  0.10720923636E+04  0.10715421993E+04 0.  0.
        3    1    3    3  502    0 -0.64538055693E+02 -0.27669076040E+03  0.47163717489E+03  0.55060382533E+03  0.10100000352E+00 0. -1.
       -3    1    3    3    0  502  0.64538055693E+02  0.27669076040E+03 -0.43729549256E+03  0.52148853826E+03  0.10100000352E+00 0.  1.
</event>
<event>
 5   0  0.5958706E-03  0.1171845E+04  0.7818609E-02  0.9137864E-01
       -1   -1    0    0    0  501  0.00000000000E+00  0.00000000000E+00  0.46911108482E+03  0.46911108485E+03  0.50400001928E-02 0. -1.
        1   -1    0    0  501    0  0.00000000000E+00  0.00000000000E+00 -0.73182068122E+03  0.73182068124E+03  0.50400001928E-02 0.  1.
    10030    2    1    2    0    0  0.00000000000E+00  0.00000000000E+00 -0.26270959640E+03  0.12009317661E+04  0.11718450302E+04 0.  0.
        2    1    3    3  502    0  0.11689136072E+03  0.52212291979E+03 -0.37609032542E+03  0.65400295600E+03  0.25500000920E-02 0. -1.
       -2    1    3    3    0  502 -0.11689136072E+03 -0.52212291979E+03  0.11338072902E+03  0.54692881008E+03  0.25500000920E-02 0.  1.
</event>
<event>
 5   0  0.9692981E-03  0.1149011E+04  0.7818609E-02  0.9158697E-01
       -2   -1    0    0    0  501  0.00000000000E+00  0.00000000000E+00  0.11813108277E+04  0.11813108277E+04  0.25500000920E-02 0. -1.
        2   -1    0    0  501    0  0.00000000000E+00  0.00000000000E+00 -0.27939851802E+03  0.27939851804E+03  0.25500000920E-02 0.  1.
    10030    2    1    2    0    0  0.00000000000E+00  0.00000000000E+00  0.90191230967E+03  0.14607093457E+04  0.11490108696E+04 0.  0.
        5    1    3    3  502    0  0.34489011447E+03 -0.20124375268E+03 -0.74107037153E+02  0.40615536683E+03  0.46999998093E+01 0.  1.
       -5    1    3    3    0  502 -0.34489011447E+03  0.20124375268E+03  0.97601934683E+03  0.10545539789E+04  0.46999998093E+01 0. -1.
</event>
<event>
 5   0  0.9692981E-03  0.1110902E+04  0.7818609E-02  0.9194631E-01
       -2   -1    0    0    0  501  0.00000000000E+00  0.00000000000E+00  0.33506317256E+03  0.33506317257E+03  0.25500000920E-02 0.  1.
        2   -1    0    0  501    0  0.00000000000E+00  0.00000000000E+00 -0.92079866252E+03  0.92079866252E+03  0.25500000920E-02 0. -1.
    10030    2    1    2    0    0  0.00000000000E+00  0.00000000000E+00 -0.58573548996E+03  0.12558618351E+04  0.11109018339E+04 0.  0.
        5    1    3    3  502    0  0.49526636692E+03  0.24455357216E+03 -0.35886743906E+03  0.65871325528E+03  0.46999998093E+01 0.  1.
       -5    1    3    3    0  502 -0.49526636692E+03 -0.24455357216E+03 -0.22686805089E+03  0.59714857982E+03  0.46999998093E+01 0. -1.
</event>
<event>
 5   0  0.9925021E-03  0.1116710E+04  0.7818609E-02  0.9189057E-01
        2   -1    0    0  501    0  0.00000000000E+00  0.00000000000E+00  0.82242438993E+03  0.82242438994E+03  0.25500000920E-02 0.  1.
       -2   -1    0    0    0  501  0.00000000000E+00  0.00000000000E+00 -0.37907455926E+03  0.37907455927E+03  0.25500000920E-02 0. -1.
    10030    2    1    2    0    0  0.00000000000E+00  0.00000000000E+00  0.44334983068E+03  0.12014989492E+04  0.11167097441E+04 0.  0.
        4    1    3    3  502    0 -0.11683717913E+03  0.12866659472E+03  0.79257854964E+03  0.81141135638E+03  0.12699999809E+01 0.  1.
       -4    1    3    3    0  502  0.11683717913E+03 -0.12866659472E+03 -0.34922871896E+03  0.39008759282E+03  0.12699999809E+01 0. -1.
</event>
<event>
 5   0  0.9925021E-03  0.1024542E+04  0.7818609E-02  0.9282030E-01
       -2   -1    0    0    0  501  0.00000000000E+00  0.00000000000E+00  0.61138499204E+03  0.61138499205E+03  0.25500000920E-02 0.  1.
        2   -1    0    0  501    0  0.00000000000E+00  0.00000000000E+00 -0.42922463948E+03  0.42922463949E+03  0.25500000920E-02 0. -1.
    10030    2    1    2    0    0  0.00000000000E+00  0.00000000000E+00  0.18216035256E+03  0.10406096315E+04  0.10245418543E+04 0.  0.
        4    1    3    3  502    0  0.16633149434E+03  0.84082501287E+02  0.57572575626E+03  0.60514278674E+03  0.12699999809E+01 0.  1.
       -4    1    3    3    0  502 -0.16633149434E+03 -0.84082501287E+02 -0.39356540369E+03  0.43546684479E+03  0.12699999809E+01 0. -1.
</event>
<event>
 5   0  0.5958706E-03  0.1090306E+04  0.7818609E-02  0.9214692E-01
        1   -1    0    0  501    0  0.00000000000E+00  0.00000000000E+00  0.82630316774E+03  0.82630316776E+03  0.50400001928E-02 0.  1.
       -1   -1    0    0    0  501  0.00000000000E+00  0.00000000000E+00 -0.35966431232E+03  0.35966431235E+03  0.50400001928E-02 0. -1.
    10030    2    1    2    0    0  0.00000000000E+00  0.00000000000E+00  0.46663885542E+03  0.11859674801E+04  0.10903059399E+04 0.  0.
        2    1    3    3  502    0 -0.35318089767E+03  0.39849866992E+03  0.10621767014E+03  0.54297341543E+03  0.25500000920E-02 0. -1.
       -2    1    3    3    0  502  0.35318089767E+03 -0.39849866992E+03  0.36042118528E+03  0.64299406468E+03  0.25500000920E-02 0.  1.
</event>
<event>
 5   0  0.9719260E-03  0.1123909E+04  0.7818609E-02  0.9182196E-01
        2   -1    0    0  501    0  0.00000000000E+00  0.00000000000E+00  0.37472280060E+03  0.37472280061E+03  0.25500000920E-02 0. -1.
       -2   -1    0    0    0  501  0.00000000000E+00  0.00000000000E+00 -0.84273794454E+03  0.84273794455E+03  0.25500000920E-02 0.  1.
    10030    2    1    2    0    0  0.00000000000E+00  0.00000000000E+00 -0.46801514394E+03  0.12174607452E+04  0.11239094675E+04 0.  0.
        3    1    3    3  502    0  0.45332938773E+03  0.12521008486E+03  0.99179083546E+02  0.48064706381E+03  0.10100000352E+00 0. -1.
       -3    1    3    3    0  502 -0.45332938773E+03 -0.12521008486E+03 -0.56719422749E+03  0.73681368135E+03  0.10100000352E+00 0.  1.
</event>
<event>
 5   0  0.5854579E-03  0.1077409E+04  0.7818609E-02  0.9227495E-01
        1   -1    0    0  501    0  0.00000000000E+00  0.00000000000E+00  0.58540141475E+03  0.58540141477E+03  0.50400001928E-02 0.  1.
       -1   -1    0    0    0  501  0.00000000000E+00  0.00000000000E+00 -0.49573228474E+03  0.49573228477E+03  0.50400001928E-02 0. -1.
    10030    2    1    2    0    0  0.00000000000E+00  0.00000000000E+00  0.89669130009E+02  0.10811336995E+04  0.10774087077E+04 0.  0.
        4    1    3    3  502    0 -0.33107709897E+03  0.41328288072E+03 -0.54431578986E+02  0.53233372488E+03  0.12699999809E+01 0. -1.
       -4    1    3    3    0  502  0.33107709897E+03 -0.41328288072E+03  0.14410070900E+03  0.54879997466E+03  0.12699999809E+01 0.  1.
</event>
<event>
 5   0  0.1019384E-02  0.1124309E+04  0.7818609E-02  0.9181817E-01
        2   -1    0    0  501    0  0.00000000000E+00  0.00000000000E+00  0.22215368575E+04  0.22215368575E+04  0.25500000920E-02 0.  1.
       -2   -1    0    0    0  501  0.00000000000E+00  0.00000000000E+00 -0.14225187211E+03  0.14225187214E+03  0.25500000920E-02 0. -1.
    10030    2    1    2    0    0  0.00000000000E+00  0.00000000000E+00  0.20792849854E+04  0.23637887296E+04  0.11243091692E+04 0.  0.
        1    1    3    3  502    0  0.46124305880E+03  0.19572029095E+03  0.15755213080E+04  0.16532752293E+04  0.50400001928E-02 0.  1.
       -1    1    3    3    0  502 -0.46124305880E+03 -0.19572029095E+03  0.50376367737E+03  0.71051350040E+03  0.50400001928E-02 0. -1.
</event>
<event>
 5   0  0.1028016E-02  0.1109883E+04  0.7818609E-02  0.9195613E-01
        2   -1    0    0  501    0  0.00000000000E+00  0.00000000000E+00  0.12451524943E+04  0.12451524943E+04  0.25500000920E-02 0.  1.
       -2   -1    0    0    0  501  0.00000000000E+00  0.00000000000E+00 -0.24732701160E+03  0.24732701161E+03  0.25500000920E-02 0. -1.
    10030    2    1    2    0    0  0.00000000000E+00  0.00000000000E+00  0.99782548268E+03  0.14924795059E+04  0.11098825981E+04 0.  0.
        2    1    3    3  502    0  0.96028152058E+02 -0.53638834349E+03  0.35771101035E+03  0.65183665742E+03  0.25500000920E-02 0. -1.
       -2    1    3    3    0  502 -0.96028152058E+02  0.53638834349E+03  0.64011447232E+03  0.84064284848E+03  0.25500000920E-02 0.  1.
</event>
<event>
 5   0  0.5854579E-03  0.1005653E+04  0.7818609E-02  0.9302366E-01
       -1   -1    0    0    0  501  0.00000000000E+00  0.00000000000E+00  0.11604923846E+04  0.11604923846E+04  0.50400001928E-02 0.  1.
        1   -1    0    0  501    0  0.00000000000E+00  0.00000000000E+00 -0.21786822695E+03  0.21786822701E+03  0.50400001928E-02 0. -1.
    10030    2    1    2    0    0  0.00000000000E+00  0.00000000000E+00  0.94262415764E+03  0.13783606116E+04  0.10056528591E+04 0.  0.
        4    1    3    3  502    0  0.25693660025E+03 -0.53195941337E+02 -0.11659384408E+03  0.28712708353E+03  0.12699999809E+01 0. -1.
       -4    1    3    3    0  502 -0.25693660025E+03  0.53195941337E+02  0.10592180017E+04  0.10912335281E+04  0.12699999809E+01 0.  1.
</event>
<event>
 5   0  0.5958706E-03  0.1081370E+04  0.7818609E-02  0.9223542E-01
        1   -1    0    0  501    0  0.00000000000E+00  0.00000000000E+00  0.16069590879E+04  0.16069590879E+04  0.50400001928E-02 0.  1.
       -1   -1    0    0    0  501  0.00000000000E+00  0.00000000000E+00 -0.18192153186E+03  0.18192153192E+03  0.50400001928E-02 0. -1.
    10030    2    1    2    0    0  0.00000000000E+00  0.00000000000E+00  0.14250375561E+04  0.17888806198E+04  0.10813703509E+04 0.  0.
        2    1    3    3  502    0 -0.13978629956E+03 -0.40354524568E+03  0.16397985556E+03  0.45746952674E+03  0.25500000920E-02 0.  1.
       -2    1    3    3    0  502  0.13978629956E+03  0.40354524568E+03  0.12610577005E+04  0.13314110931E+04  0.25500000920E-02 0. -1.
</event>
<event>
 5   0  0.9925021E-03  0.1141547E+04  0.7818609E-02  0.9165617E-01
       -2   -1    0    0    0  501  0.00000000000E+00  0.00000000000E+00  0.60535684580E+03  0.60535684580E+03  0.25500000920E-02 0.  1.
        2   -1    0    0  501    0  0.00000000000E+00  0.00000000000E+00 -0.53816608495E+03  0.53816608496E+03  0.25500000920E-02 0. -1.
    10030    2    1    2    0    0  0.00000000000E+00  0.00000000000E+00  0.67190760846E+02  0.11435229308E+04  0.11415472372E+04 0.  0.
        4    1    3    3  502    0  0.36990895931E+03  0.28580393017E+03  0.36167463259E+03  0.59103864293E+03  0.12699999809E+01 0.  1.
       -4    1    3    3    0  502 -0.36990895931E+03 -0.28580393017E+03 -0.29448387174E+03  0.55248428783E+03  0.12699999809E+01 0. -1.
</event>
<event>
 5   0  0.9925021E-03  0.1126441E+04  0.7818609E-02  0.9179797E-01
       -2   -1    0    0    0  501  0.00000000000E+00  0.00000000000E+00  0.59856774619E+03  0.59856774620E+03  0.25500000920E-02 0. -1.
        2   -1    0    0  501    0  0.00000000000E+00  0.00000000000E+00 -0.52996027684E+03  0.52996027685E+03  0.25500000920E-02 0.  1.
    10030    2    1    2    0    0  0.00000000000E+00  0.00000000000E+00  0.68607469355E+02  0.11285280230E+04  0.11264406393E+04 0.  0.
        4    1    3    3  502    0 -0.47061588507E+03  0.25959726161E+03  0.20297683922E+03  0.57451828489E+03  0.12699999809E+01 0. -1.
       -4    1    3    3    0  502  0.47061588507E+03 -0.25959726161E+03 -0.13436936987E+03  0.55400973816E+03  0.12699999809E+01 0.  1.
</event>
<event>
 5   0  0.5854579E-03  0.1081082E+04  0.7818609E-02  0.9223829E-01
       -1   -1    0    0    0  501  0.00000000000E+00  0.00000000000E+00  0.54173734617E+03  0.54173734619E+03  0.50400001928E-02 0.  1.
        1   -1    0    0  501    0  0.00000000000E+00  0.00000000000E+00 -0.53934739985E+03  0.53934739987E+03  0.50400001928E-02 0. -1.
    10030    2    1    2    0    0  0.00000000000E+00  0.00000000000E+00  0.23899463205E+01  0.10810847461E+04  0.10810821043E+04 0.  0.
        4    1    3    3  502    0  0.27372911282E+03 -0.44217389217E+03  0.14863222860E+03  0.54086831152E+03  0.12699999809E+01 0.  1.
       -4    1    3    3    0  502 -0.27372911282E+03  0.44217389217E+03 -0.14624228228E+03  0.54021643455E+03  0.12699999809E+01 0. -1.
</event>
<event>
 5   0  0.5958706E-03  0.1089676E+04  0.7818609E-02  0.9215313E-01
       -1   -1    0    0    0  501  0.00000000000E+00  0.00000000000E+00  0.81703772951E+03  0.81703772953E+03  0.50400001928E-02 0.  1.
        1   -1    0    0  501    0  0.00000000000E+00  0.00000000000E+00 -0.36332297490E+03  0.36332297493E+03  0.50400001928E-02 0. -1.
    10030    2    1    2    0    0  0.00000000000E+00  0.00000000000E+00  0.45371475461E+03  0.11803607045E+04  0.10896762428E+04 0.  0.
        2    1    3    3  502    0 -0.24679776833E+03  0.76564484191E+02  0.74643945861E+03  0.78990070519E+03  0.25500000920E-02 0.  1.
       -2    1    3    3    0  502  0.24679776833E+03 -0.76564484191E+02 -0.29272470399E+03  0.39045999927E+03  0.25500000920E-02 0. -1.
</event>
<event>
 5   0  0.9692981E-03  0.1022249E+04  0.7818609E-02  0.9284474E-01
        2   -1    0    0  501    0  0.00000000000E+00  0.00000000000E+00  0.20257901230E+03  0.20257901232E+03  0.25500000920E-02 0. -1.
       -2   -1    0    0    0  501  0.00000000000E+00  0.00000000000E+00 -0.12896106043E+04  0.12896106043E+04  0.25500000920E-02 0.  1.
    10030    2    1    2    0    0  0.00000000000E+00  0.00000000000E+00 -0.10870315920E+04  0.14921896166E+04  0.10222485852E+04 0.  0.
        5    1    3    3  502    0  0.75154971278E+02 -0.50286000381E+03 -0.61949802352E+03  0.80144640762E+03  0.46999998093E+01 0.  1.
       -5    1    3    3    0  502 -0.75154971278E+02  0.50286000381E+03 -0.46753356851E+03  0.69074320903E+03  0.46999998093E+01 0. -1.
</event>
<event>
 5   0  0.9692981E-03  0.1099518E+04  0.7818609E-02  0.9205662E-01
       -2   -1    0    0    0  501  0.00000000000E+00  0.00000000000E+00  0.75693856289E+03  0.75693856289E+03  0.25500000920E-02 0.  1.
        2   -1    0    0  501    0  0.00000000000E+00  0.00000000000E+00 -0.39928579413E+03  0.39928579414E+03  0.25500000920E-02 0. -1.
    10030    2    1    2    0    0  0.00000000000E+00  0.00000000000E+00  0.35765276876E+03  0.11562243570E+04  0.10995177401E+04 0.  0.
        5    1    3    3  502    0  0.40539268058E+03  0.33236899326E+03  0.47587831387E+01  0.52426816532E+03  0.46999998093E+01 0.  1.
       -5    1    3    3    0  502 -0.40539268058E+03 -0.33236899326E+03  0.35289398562E+03  0.63195619171E+03  0.46999998093E+01 0. -1.
</event>
<event>
 5   0  0.5998641E-03  0.1104269E+04  0.7818609E-02  0.9201041E-01
        1   -1    0    0  501    0  0.00000000000E+00  0.00000000000E+00  0.39300953555E+03  0.39300953558E+03  0.50400001928E-02 0. -1.
       -1   -1    0    0    0  501  0.00000000000E+00  0.00000000000E+00 -0.77568791067E+03  0.77568791068E+03  0.50400001928E-02 0.  1.
    10030    2    1    2    0    0  0.00000000000E+00  0.00000000000E+00 -0.38267837512E+03  0.11686974463E+04  0.11042694337E+04 0.  0.
        3    1    3    3  502    0 -0.24024201663E+03  0.49678952617E+03 -0.21075845208E+03  0.59070736849E+03  0.10100000352E+00 0.  1.
       -3    1    3    3    0  502  0.24024201663E+03 -0.49678952617E+03 -0.17191992304E+03  0.57799007777E+03  0.10100000352E+00 0. -1.
</event>
<event>
 5   0  0.1028016E-02  0.1053462E+04  0.7818609E-02  0.9251777E-01
       -2   -1    0    0    0  501  0.00000000000E+00  0.00000000000E+00  0.97047478709E+03  0.97047478710E+03  0.25500000920E-02 0.  1.
        2   -1    0    0  501    0  0.00000000000E+00  0.00000000000E+00 -0.28588645639E+03  0.28588645640E+03  0.25500000920E-02 0. -1.
    10030    2    1    2    0    0  0.00000000000E+00  0.00000000000E+00  0.68458833070E+03  0.12563612435E+04  0.10534620979E+04 0.  0.
        2    1    3    3  502    0  0.41420683200E+03  0.19601780283E+03  0.32549584656E+02  0.45940151738E+03  0.25500000920E-02 0. -1.
       -2    1    3    3    0  502 -0.41420683200E+03 -0.19601780283E+03  0.65203874605E+03  0.79695972612E+03  0.25500000920E-02 0.  1.
</event>
<event>
 5   0  0.5854579E-03  0.1123943E+04  0.7818609E-02  0.9182164E-01
        1   -1    0    0  501    0  0.00000000000E+00  0.00000000000E+00  0.62603897654E+03  0.62603897656E+03  0.50400001928E-02 0. -1.
       -1   -1    0    0    0  501  0.00000000000E+00  0.00000000000E+00 -0.50446069971E+03  0.50446069973E+03  0.50400001928E-02 0.  1.
    10030    2    1    2    0    0  0.00000000000E+00  0.00000000000E+00  0.12157827683E+03  0.11304996763E+04  0.11239431661E+04 0.  0.
        4    1    3    3  502    0 -0.15076321849E+03  0.50983596569E+03 -0.12233938069E+03  0.54555549390E+03  0.12699999809E+01 0.  1.
       -4    1    3    3    0  502  0.15076321849E+03 -0.50983596569E+03  0.24391765752E+03  0.58494418239E+03  0.12699999809E+01 0. -1.
</event>
<event>
 5   0  0.9719260E-03  0.7169720E+03  0.7818609E-02  0.9688640E-01
        2   -1    0    0  501    0  0.00000000000E+00  0.00000000000E+00  0.27464697926E+04  0.27464697926E+04  0.25500000920E-02 0.  1.
       -2   -1    0    0    0  501  0.00000000000E+00  0.00000000000E+00 -0.46791780177E+02  0.46791780246E+02  0.25500000920E-02 0. -1.
    10030    2    1    2    0    0  0.00000000000E+00  0.00000000000E+00  0.26996780124E+04  0.27932615728E+04  0.71697199637E+03 0.  0.
        3    1    3    3  502    0 -0.29306134662E+02  0.29016660253E+03  0.53768618882E+03  0.61168779177E+03  0.10100000352E+00 0. -1.
       -3    1    3    3    0  502  0.29306134662E+02 -0.29016660253E+03  0.21619918236E+04  0.21815737810E+04  0.10100000352E+00 0.  1.
</event>
<event>
 5   0  0.9692981E-03  0.1053973E+04  0.7818609E-02  0.9251252E-01
        2   -1    0    0  501    0  0.00000000000E+00  0.00000000000E+00  0.60175097590E+03  0.60175097590E+03  0.25500000920E-02 0. -1.
       -2   -1    0    0    0  501  0.00000000000E+00  0.00000000000E+00 -0.46151101311E+03  0.46151101312E+03  0.25500000920E-02 0.  1.
    10030    2    1    2    0    0  0.00000000000E+00  0.00000000000E+00  0.14023996279E+03  0.10632619890E+04  0.10539728697E+04 0.  0.
        5    1    3    3  502    0  0.44392631647E+02 -0.28936982189E+03  0.51214493004E+03  0.58993230029E+03  0.46999998093E+01 0. -1.
       -5    1    3    3    0  502 -0.44392631647E+02  0.28936982189E+03 -0.37190496725E+03  0.47332968873E+03  0.46999998093E+01 0.  1.
</event>
<event>
 5   0  0.1028016E-02  0.1143320E+04  0.7818609E-02  0.9163968E-01
        2   -1    0    0  501    0  0.00000000000E+00  0.00000000000E+00  0.94043677867E+03  0.94043677868E+03  0.25500000920E-02 0.  1.
       -2   -1    0    0    0  501  0.00000000000E+00  0.00000000000E+00 -0.34749293357E+03  0.34749293358E+03  0.25500000920E-02 0. -1.
    10030    2    1    2    0    0  0.00000000000E+00  0.00000000000E+00  0.59294384510E+03  0.12879297123E+04  0.11433199641E+04 0.  0.
        2    1    3    3  502    0 -0.37275688350E+03 -0.31917000180E+02  0.78337915413E+03  0.86812976463E+03  0.25500000920E-02 0.  1.
       -2    1    3    3    0  502  0.37275688350E+03  0.31917000180E+02 -0.19043530903E+03  0.41979994763E+03  0.25500000920E-02 0. -1.
</event>
<event>
 5   0  0.5789905E-03  0.1041690E+04  0.7818609E-02  0.9263966E-01
        1   -1    0    0  501    0  0.00000000000E+00  0.00000000000E+00  0.85211964841E+03  0.85211964842E+03  0.50400001928E-02 0. -1.
       -1   -1    0    0    0  501  0.00000000000E+00  0.00000000000E+00 -0.31835848789E+03  0.31835848793E+03  0.50400001928E-02 0.  1.
    10030    2    1    2    0    0  0.00000000000E+00  0.00000000000E+00  0.53376116051E+03  0.11704781364E+04  0.10416900169E+04 0.  0.
        1    1    3    3  502    0  0.37673671041E+03  0.16539899017E+03 -0.91965471812E+02  0.42159817712E+03  0.50400001928E-02 0.  1.
       -1    1    3    3    0  502 -0.37673671041E+03 -0.16539899017E+03  0.62572663233E+03  0.74887995924E+03  0.50400001928E-02 0. -1.
</event>
<event>
 5   0  0.1028016E-02  0.1097932E+04  0.7818609E-02  0.9207210E-01
        2   -1    0    0  501    0  0.00000000000E+00  0.00000000000E+00  0.10662533890E+04  0.10662533890E+04  0.25500000920E-02 0.  1.
       -2   -1    0    0    0  501  0.00000000000E+00  0.00000000000E+00 -0.28263786000E+03  0.28263786001E+03  0.25500000920E-02 0. -1.
    10030    2    1    2    0    0  0.00000000000E+00  0.00000000000E+00  0.78361552898E+03  0.13488912490E+04  0.10979318305E+04 0.  0.
        2    1    3    3  502    0 -0.16028486168E+03  0.52317891953E+03  0.33746978880E+03  0.64287889768E+03  0.25500000920E-02 0. -1.
       -2    1    3    3    0  502  0.16028486168E+03 -0.52317891953E+03  0.44614574019E+03  0.70601235132E+03  0.25500000920E-02 0.  1.
</event>
<event>
 5   0  0.5998641E-03  0.1084496E+04  0.7818609E-02  0.9220436E-01
        1   -1    0    0  501    0  0.00000000000E+00  0.00000000000E+00  0.14181988760E+04  0.14181988761E+04  0.50400001928E-02 0.  1.
       -1   -1    0    0    0  501  0.00000000000E+00  0.00000000000E+00 -0.20732837410E+03  0.20732837416E+03  0.50400001928E-02 0. -1.
    10030    2    1    2    0    0  0.00000000000E+00  0.00000000000E+00  0.12108705019E+04  0.16255272502E+04  0.10844959514E+04 0.  0.
        3    1    3    3  502    0  0.13331787218E+03 -0.32487427571E+03  0.12247384367E+04  0.12740883795E+04  0.10100000352E+00 0.  1.
       -3    1    3    3    0  502 -0.13331787218E+03  0.32487427571E+03 -0.13867934783E+02  0.35143887075E+03  0.10100000352E+00 0. -1.
</event>
<event>
 5   0  0.5854579E-03  0.1037418E+04  0.7818609E-02  0.9268431E-01
        1   -1    0    0  501    0  0.00000000000E+00  0.00000000000E+00  0.11783896939E+04  0.11783896939E+04  0.50400001928E-02 0. -1.
       -1   -1    0    0    0  501  0.00000000000E+00  0.00000000000E+00 -0.22832772790E+03  0.22832772796E+03  0.50400001928E-02 0.  1.
    10030    2    1    2    0    0  0.00000000000E+00  0.00000000000E+00  0.95006196600E+03  0.14067174219E+04  0.10374180284E+04 0.  0.
        4    1    3    3  502    0 -0.14991041470E+03 -0.34954520830E+03 -0.32328393573E+01  0.38035121826E+03  0.12699999809E+01 0.  1.
       -4    1    3    3    0  502  0.14991041470E+03  0.34954520830E+03  0.95329480536E+03  0.10263662036E+04  0.12699999809E+01 0. -1.
</event>
<event>
 5   0  0.9719260E-03  0.1103963E+04  0.7818609E-02  0.9201338E-01
       -2   -1    0    0    0  501  0.00000000000E+00  0.00000000000E+00  0.38921973136E+03  0.38921973136E+03  0.25500000920E-02 0.  1.
        2   -1    0    0  501    0  0.00000000000E+00  0.00000000000E+00 -0.78280655062E+03  0.78280655062E+03  0.25500000920E-02 0. -1.
    10030    2    1    2    0    0  0.00000000000E+00  0.00000000000E+00 -0.39358681926E+03  0.11720262820E+04  0.11039633243E+04 0.  0.
        3    1    3    3  502    0  0.24692650007E+03  0.21793758055E+03  0.27347736294E+03  0.42808803265E+03  0.10100000352E+00 0.  1.
       -3    1    3    3    0  502 -0.24692650007E+03 -0.21793758055E+03 -0.66706418221E+03  0.74393824934E+03  0.10100000352E+00 0. -1.
</event>
<event>
 5   0  0.5789905E-03  0.1084464E+04  0.7818609E-02  0.9220468E-01
        1   -1    0    0  501    0  0.00000000000E+00  0.00000000000E+00  0.42929637736E+03  0.42929637739E+03  0.50400001928E-02 0. -1.
       -1   -1    0    0    0  501  0.00000000000E+00  0.00000000000E+00 -0.68487805490E+03  0.68487805492E+03  0.50400001928E-02 0.  1.
    10030    2    1    2    0    0  0.00000000000E+00  0.00000000000E+00 -0.25558167754E+03  0.11141744323E+04  0.10844642326E+04 0.  0.
        1    1    3    3  502    0  0.68011406557E+02  0.93230701189E+02 -0.67211515128E+03  0.68195035866E+03  0.50400001928E-02 0.  1.
       -1    1    3    3    0  502 -0.68011406557E+02 -0.93230701189E+02  0.41653347374E+03  0.43222407364E+03  0.50400001928E-02 0. -1.
</event>
<event>
 5   0  0.5958706E-03  0.1073750E+04  0.7818609E-02  0.9231162E-01
       -1   -1    0    0    0  501  0.00000000000E+00  0.00000000000E+00  0.51600596332E+03  0.51600596334E+03  0.50400001928E-02 0.  1.
        1   -1    0    0  501    0  0.00000000000E+00  0.00000000000E+00 -0.55858770391E+03  0.55858770393E+03  0.50400001928E-02 0. -1.
    10030    2    1    2    0    0  0.00000000000E+00  0.00000000000E+00 -0.42581740592E+02  0.10745936673E+04  0.10737496659E+04 0.  0.
        2    1    3    3  502    0 -0.11740221008E+03  0.31970857690E+03  0.39405068586E+03  0.52083855090E+03  0.25500000920E-02 0.  1.
       -2    1    3    3    0  502  0.11740221008E+03 -0.31970857690E+03 -0.43663242645E+03  0.55375511637E+03  0.25500000920E-02 0. -1.
</event>
<event>
 5   0  0.5958706E-03  0.1115408E+04  0.7818609E-02  0.9190303E-01
       -1   -1    0    0    0  501  0.00000000000E+00  0.00000000000E+00  0.21572379172E+03  0.21572379178E+03  0.50400001928E-02 0.  1.
        1   -1    0    0  501    0  0.00000000000E+00  0.00000000000E+00 -0.14418142555E+04  0.14418142555E+04  0.50400001928E-02 0. -1.
    10030    2    1    2    0    0  0.00000000000E+00  0.00000000000E+00 -0.12260904638E+04  0.16575380473E+04  0.11154077967E+04 0.  0.
        2    1    3    3  502    0 -0.67896631670E+02 -0.48844785776E+03 -0.22598339395E+03  0.54245714733E+03  0.25500000920E-02 0.  1.
       -2    1    3    3    0  502  0.67896631670E+02  0.48844785776E+03 -0.10001070699E+04  0.11150809000E+04  0.25500000920E-02 0. -1.
</event>
<event>
 5   0  0.9925021E-03  0.1108781E+04  0.7818609E-02  0.9196676E-01
        2   -1    0    0  501    0  0.00000000000E+00  0.00000000000E+00  0.90407822619E+03  0.90407822619E+03  0.25500000920E-02 0.  1.
       -2   -1    0    0    0  501  0.00000000000E+00  0.00000000000E+00 -0.33995803108E+03  0.33995803109E+03  0.25500000920E-02 0. -1.
    10030    2    1    2    0    0  0.00000000000E+00  0.00000000000E+00  0.56412019511E+03  0.12440362573E+04  0.11087806884E+04 0.  0.
        4    1    3    3  502    0 -0.49182190663E+03  0.83614466769E+02  0.10764765255E+02  0.49899665326E+03  0.12699999809E+01 0. -1.
       -4    1    3    3    0  502  0.49182190663E+03 -0.83614466769E+02  0.55335542986E+03  0.74503960401E+03  0.12699999809E+01 0.  1.
</event>
<event>
 5   0  0.5854579E-03  0.1120177E+04  0.7818609E-02  0.9185746E-01
       -1   -1    0    0    0  501  0.00000000000E+00  0.00000000000E+00  0.44650075681E+03  0.44650075684E+03  0.50400001928E-02 0. -1.
        1   -1    0    0  501    0  0.00000000000E+00  0.00000000000E+00 -0.70257238046E+03  0.70257238048E+03  0.50400001928E-02 0.  1.
    10030    2    1    2    0    0  0.00000000000E+00  0.00000000000E+00 -0.25607162365E+03  0.11490731373E+04  0.11201769496E+04 0.  0.
        4    1    3    3  502    0 -0.12345700376E+03 -0.13569692432E+03  0.41480536127E+03  0.45356409436E+03  0.12699999809E+01 0. -1.
       -4    1    3    3    0  502  0.12345700376E+03  0.13569692432E+03 -0.67087698492E+03  0.69550904296E+03  0.12699999809E+01 0.  1.
</event>
<event>
 5   0  0.5854579E-03  0.1066596E+04  0.7818609E-02  0.9238376E-01
        1   -1    0    0  501    0  0.00000000000E+00  0.00000000000E+00  0.17892439069E+04  0.17892439069E+04  0.50400001928E-02 0.  1.
       -1   -1    0    0    0  501  0.00000000000E+00  0.00000000000E+00 -0.15895347932E+03  0.15895347940E+03  0.50400001928E-02 0. -1.
    10030    2    1    2    0    0  0.00000000000E+00  0.00000000000E+00  0.16302904276E+04  0.19481973863E+04  0.10665956018E+04 0.  0.
        4    1    3    3  502    0 -0.15823257246E+03 -0.30975918545E+01  0.17453590947E+04  0.17525202208E+04  0.12699999809E+01 0.  1.
       -4    1    3    3    0  502  0.15823257246E+03  0.30975918545E+01 -0.11506866708E+03  0.19567716552E+03  0.12699999809E+01 0. -1.
</event>
<event>
 5   0  0.9692981E-03  0.1029392E+04  0.7818609E-02  0.9276883E-01
        2   -1    0    0  501    0  0.00000000000E+00  0.00000000000E+00  0.47169292938E+03  0.47169292939E+03  0.25500000920E-02 0. -1.
       -2   -1    0    0    0  501  0.00000000000E+00  0.00000000000E+00 -0.56161937552E+03  0.56161937553E+03  0.25500000920E-02 0.  1.
    10030    2    1    2    0    0  0.00000000000E+00  0.00000000000E+00 -0.89926446141E+02  0.10333123049E+04  0.10293918368E+04 0.  0.
        5    1    3    3  502    0 -0.15156849452E+03  0.30461253535E+03 -0.43260490389E+03  0.55039158613E+03  0.46999998093E+01 0.  1.
       -5    1    3    3    0  502  0.15156849452E+03 -0.30461253535E+03  0.34267845775E+03  0.48292071878E+03  0.46999998093E+01 0. -1.
</event>
<event>
 5   0  0.1019384E-02  0.8846453E+03  0.7818609E-02  0.9444982E-01
        2   -1    0    0  501    0  0.00000000000E+00  0.00000000000E+00  0.20508425940E+04  0.20508425940E+04  0.25500000920E-02 0. -1.
       -2   -1    0    0    0  501  0.00000000000E+00  0.00000000000E+00 -0.95399488246E+02  0.95399488280E+02  0.25500000920E-02 0.  1.
    10030    2    1    2    0    0  0.00000000000E+00  0.00000000000E+00  0.19554431057E+04  0.21462420823E+04  0.88464531644E+03 0.  0.
        1    1    3    3  502    0  0.88058176428E+01 -0.20684567062E+03  0.29407378263E+02  0.20911113744E+03  0.50400001928E-02 0.  1.
       -1    1    3    3    0  502 -0.88058176428E+01  0.20684567062E+03  0.19260357275E+04  0.19371309448E+04  0.50400001928E-02 0. -1.
</event>
<event>
 5   0  0.1019384E-02  0.1087532E+04  0.7818609E-02  0.9217430E-01
       -2   -1    0    0    0  501  0.00000000000E+00  0.00000000000E+00  0.25561212151E+03  0.25561212152E+03  0.25500000920E-02 0.  1.
        2   -1    0    0  501    0  0.00000000000E+00  0.00000000000E+00 -0.11567583148E+04  0.11567583148E+04  0.25500000920E-02 0. -1.
    10030    2    1    2    0    0  0.00000000000E+00  0.00000000000E+00 -0.90114619334E+03  0.14123704364E+04  0.10875319709E+04 0.  0.
        1    1    3    3  502    0 -0.21711194592E+03  0.11234533236E+03  0.18022612987E+03  0.30371125872E+03  0.50400001928E-02 0.  1.
       -1    1    3    3    0  502  0.21711194592E+03 -0.11234533236E+03 -0.10813723232E+04  0.11086591776E+04  0.50400001928E-02 0. -1.
</event>
<event>
 5   0  0.3949750E-03  0.1134731E+04  0.7818609E-02  0.9171987E-01
        3   -1    0    0  501    0  0.00000000000E+00  0.00000000000E+00  0.44184855216E+03  0.44184856370E+03  0.10100000352E+00 0. -1.
       -3   -1    0    0    0  501  0.00000000000E+00  0.00000000000E+00 -0.72853783243E+03  0.72853783943E+03  0.10100000352E+00 0.  1.
    10030    2    1    2    0    0  0.00000000000E+00  0.00000000000E+00 -0.28668928027E+03  0.11703864031E+04  0.11347306241E+04 0.  0.
        3    1    3    3  502    0  0.22624810436E+02  0.33889842498E+03  0.32540171981E+03  0.47037252679E+03  0.10100000352E+00 0. -1.
       -3    1    3    3    0  502 -0.22624810436E+02 -0.33889842498E+03 -0.61209100008E+03  0.70001387635E+03  0.10100000352E+00 0.  1.
</event>
<event>
 5   0  0.5789905E-03  0.1079927E+04  0.7818609E-02  0.9224980E-01
       -1   -1    0    0    0  501  0.00000000000E+00  0.00000000000E+00  0.37482576485E+03  0.37482576489E+03  0.50400001928E-02 0.  1.
        1   -1    0    0  501    0  0.00000000000E+00  0.00000000000E+00 -0.77785623227E+03  0.77785623228E+03  0.50400001928E-02 0. -1.
    10030    2    1    2    0    0  0.00000000000E+00  0.00000000000E+00 -0.40303046741E+03  0.11526819972E+04  0.10799269554E+04 0.  0.
        1    1    3    3  502    0 -0.38681030403E+03 -0.27786545727E+03 -0.47307474956E+03  0.67129065415E+03  0.50400001928E-02 0.  1.
       -1    1    3    3    0  502  0.38681030403E+03  0.27786545727E+03  0.70044282148E+02  0.48139134302E+03  0.50400001928E-02 0. -1.
</event>
<event>
 5   0  0.9692981E-03  0.1100639E+04  0.7818609E-02  0.9204569E-01
        2   -1    0    0  501    0  0.00000000000E+00  0.00000000000E+00  0.21054691006E+04  0.21054691006E+04  0.25500000920E-02 0.  1.
       -2   -1    0    0    0  501  0.00000000000E+00  0.00000000000E+00 -0.14384050310E+03  0.14384050312E+03  0.25500000920E-02 0. -1.
    10030    2    1    2    0    0  0.00000000000E+00  0.00000000000E+00  0.19616285975E+04  0.22493096037E+04  0.11006393319E+04 0.  0.
        5    1    3    3  502    0  0.43180338464E+03  0.17065819377E+03  0.37715753757E+03  0.59820421282E+03  0.46999998093E+01 0.  1.
       -5    1    3    3    0  502 -0.43180338464E+03 -0.17065819377E+03  0.15844710599E+04  0.16511053909E+04  0.46999998093E+01 0. -1.
</event>
<event>
 5   0  0.1028016E-02  0.1081997E+04  0.7818609E-02  0.9222919E-01
        2   -1    0    0  501    0  0.00000000000E+00  0.00000000000E+00  0.74521841813E+03  0.74521841813E+03  0.25500000920E-02 0. -1.
       -2   -1    0    0    0  501  0.00000000000E+00  0.00000000000E+00 -0.39274280997E+03  0.39274280998E+03  0.25500000920E-02 0.  1.
    10030    2    1    2    0    0  0.00000000000E+00  0.00000000000E+00  0.35247560816E+03  0.11379612281E+04  0.10819966277E+04 0.  0.
        2    1    3    3  502    0  0.45521379433E+03 -0.22120514550E+03  0.37724595879E+03  0.63124149766E+03  0.25500000920E-02 0. -1.
       -2    1    3    3    0  502 -0.45521379433E+03  0.22120514550E+03 -0.24770350634E+02  0.50671973044E+03  0.25500000920E-02 0.  1.
</event>
<event>
 5   0  0.5712664E-03  0.1147335E+04  0.7818609E-02  0.9160246E-01
       -1   -1    0    0    0  501  0.00000000000E+00  0.00000000000E+00  0.31818704117E+03  0.31818704121E+03  0.50400001928E-02 0. -1.
        1   -1    0    0  501    0  0.00000000000E+00  0.00000000000E+00 -0.10342797787E+04  0.10342797788E+04  0.50400001928E-02 0.  1.
    10030    2    1    2    0    0  0.00000000000E+00  0.00000000000E+00 -0.71609273757E+03  0.13524668200E+04  0.11473350384E+04 0.  0.
        5    1    3    3  502    0 -0.57058052223E+03  0.56879486414E+02 -0.33850104396E+03  0.66588471606E+03  0.46999998093E+01 0.  1.
       -5    1    3    3    0  502  0.57058052223E+03 -0.56879486414E+02 -0.37759169362E+03  0.68658210391E+03  0.46999998093E+01 0. -1.
</event>
<event>
 5   0  0.1019384E-02  0.1126205E+04  0.7818609E-02  0.9180020E-01
        2   -1    0    0  501    0  0.00000000000E+00  0.00000000000E+00  0.53043843356E+03  0.53043843357E+03  0.25500000920E-02 0. -1.
       -2   -1    0    0    0  501  0.00000000000E+00  0.00000000000E+00 -0.59777809301E+03  0.59777809301E+03  0.25500000920E-02 0.  1.
    10030    2    1    2    0    0  0.00000000000E+00  0.00000000000E+00 -0.67339659447E+02  0.11282165266E+04  0.11262050884E+04 0.  0.
        1    1    3    3  502    0  0.27107643905E+03  0.44911655042E+03 -0.23872141765E+03  0.57634714100E+03  0.50400001928E-02 0.  1.
       -1    1    3    3    0  502 -0.27107643905E+03 -0.44911655042E+03  0.17138175820E+03  0.55186938558E+03  0.50400001928E-02 0. -1.
</event>
<event>
 5   0  0.9925021E-03  0.1091678E+04  0.7818609E-02  0.9213341E-01
        2   -1    0    0  501    0  0.00000000000E+00  0.00000000000E+00  0.56030918540E+03  0.56030918540E+03  0.25500000920E-02 0.  1.
       -2   -1    0    0    0  501  0.00000000000E+00  0.00000000000E+00 -0.53174296652E+03  0.53174296652E+03  0.25500000920E-02 0. -1.
    10030    2    1    2    0    0  0.00000000000E+00  0.00000000000E+00  0.28566218882E+02  0.10920521519E+04  0.10916784662E+04 0.  0.
        4    1    3    3  502    0 -0.41098538866E+03  0.21485826008E+03 -0.27367962106E+03  0.53849346282E+03  0.12699999809E+01 0. -1.
       -4    1    3    3    0  502  0.41098538866E+03 -0.21485826008E+03  0.30224583995E+03  0.55355868910E+03  0.12699999809E+01 0.  1.
</event>
<event>
 5   0  0.1019384E-02  0.1115973E+04  0.7818609E-02  0.9189762E-01
        2   -1    0    0  501    0  0.00000000000E+00  0.00000000000E+00  0.95739886528E+03  0.95739886529E+03  0.25500000920E-02 0. -1.
       -2   -1    0    0    0  501  0.00000000000E+00  0.00000000000E+00 -0.32520272505E+03  0.32520272506E+03  0.25500000920E-02 0.  1.
    10030    2    1    2    0    0  0.00000000000E+00  0.00000000000E+00  0.63219614023E+03  0.12826015903E+04  0.11159726161E+04 0.  0.
        1    1    3    3  502    0  0.10904594822E+03  0.19125707782E+03  0.90536994507E+03  0.93175373683E+03  0.50400001928E-02 0. -1.
       -1    1    3    3    0  502 -0.10904594822E+03 -0.19125707782E+03 -0.27317380484E+03  0.35084785351E+03  0.50400001928E-02 0.  1.
</event>
<event>
 5   0  0.1028016E-02  0.1079860E+04  0.7818609E-02  0.9225047E-01
       -2   -1    0    0    0  501  0.00000000000E+00  0.00000000000E+00  0.53453071056E+03  0.53453071057E+03  0.25500000920E-02 0. -1.
        2   -1    0    0  501    0  0.00000000000E+00  0.00000000000E+00 -0.54538411097E+03  0.54538411097E+03  0.25500000920E-02 0.  1.
    10030    2    1    2    0    0  0.00000000000E+00  0.00000000000E+00 -0.10853400407E+02  0.10799148215E+04  0.10798602805E+04 0.  0.
        2    1    3    3  502    0  0.49094642748E+03 -0.21223890631E+03 -0.79260019129E+02  0.54069945316E+03  0.25500000920E-02 0. -1.
       -2    1    3    3    0  502 -0.49094642748E+03  0.21223890631E+03  0.68406618722E+02  0.53921536838E+03  0.25500000920E-02 0.  1.
</event>
<event>
 5   0  0.5958706E-03  0.9743552E+03  0.7818609E-02  0.9337128E-01
       -1   -1    0    0    0  501  0.00000000000E+00  0.00000000000E+00  0.13758130559E+03  0.13758130569E+03  0.50400001928E-02 0.  1.
        1   -1    0    0  501    0  0.00000000000E+00  0.00000000000E+00 -0.17251036144E+04  0.17251036144E+04  0.50400001928E-02 0. -1.
    10030    2    1    2    0    0  0.00000000000E+00  0.00000000000E+00 -0.15875223088E+04  0.18626849201E+04  0.97435518709E+03 0.  0.
        2    1    3    3  502    0 -0.30216927596E+02  0.20092930547E+03 -0.16402330899E+04  0.16527704734E+04  0.25500000920E-02 0. -1.
       -2    1    3    3    0  502  0.30216927596E+02 -0.20092930547E+03  0.52710781046E+02  0.20991444675E+03  0.25500000920E-02 0.  1.
</event>
<event>
 5   0  0.5958706E-03  0.1136607E+04  0.7818609E-02  0.9170229E-01
        1   -1    0    0  501    0  0.00000000000E+00  0.00000000000E+00  0.11582556044E+04  0.11582556045E+04  0.50400001928E-02 0. -1.
       -1   -1    0    0    0  501  0.00000000000E+00  0.00000000000E+00 -0.27884055654E+03  0.27884055658E+03  0.50400001928E-02 0.  1.
    10030    2    1    2    0    0  0.00000000000E+00  0.00000000000E+00  0.87941504791E+03  0.14370961610E+04  0.11366065940E+04 0.  0.
        2    1    3    3  502    0 -0.43751686514E+03 -0.34486949996E+03  0.58170445876E+03  0.80544152899E+03  0.25500000920E-02 0.  1.
       -2    1    3    3    0  502  0.43751686514E+03  0.34486949996E+03  0.29771058916E+03  0.63165463205E+03  0.25500000920E-02 0. -1.
</event>
<event>
 5   0  0.1019384E-02  0.1104574E+04  0.7818609E-02  0.9200745E-01
        2   -1    0    0  501    0  0.00000000000E+00  0.00000000000E+00  0.16235056115E+04  0.16235056115E+04  0.25500000920E-02 0.  1.
       -2   -1    0    0    0  501  0.00000000000E+00  0.00000000000E+00 -0.18787804810E+03  0.18787804812E+03  0.25500000920E-02 0. -1.
    10030    2    1    2    0    0  0.00000000000E+00  0.00000000000E+00  0.14356275634E+04  0.18113836597E+04  0.11045742445E+04 0.  0.
        1    1    3    3  502    0 -0.51801514410E+03 -0.17483953108E+03  0.84602483686E+03  0.10073065947E+04  0.50400001928E-02 0. -1.
       -1    1    3    3    0  502  0.51801514410E+03  0.17483953108E+03  0.58960272659E+03  0.80407706495E+03  0.50400001928E-02 0.  1.
</event>
<event>
 5   0  0.5789905E-03  0.1108256E+04  0.7818609E-02  0.9197182E-01
       -1   -1    0    0    0  501  0.00000000000E+00  0.00000000000E+00  0.33036498208E+03  0.33036498212E+03  0.50400001928E-02 0. -1.
        1   -1    0    0  501    0  0.00000000000E+00  0.00000000000E+00 -0.92945044586E+03  0.92945044587E+03  0.50400001928E-02 0.  1.
    10030    2    1    2    0    0  0.00000000000E+00  0.00000000000E+00 -0.59908546378E+03  0.12598154280E+04  0.11082560714E+04 0.  0.
        1    1    3    3  502    0 -0.37413203586E+03  0.24075248797E+03 -0.67505285292E+03  0.80847566134E+03  0.50400001928E-02 0.  1.
       -1    1    3    3    0  502  0.37413203586E+03 -0.24075248797E+03  0.75967389139E+02  0.45133976665E+03  0.50400001928E-02 0. -1.
</event>
<event>
 5   0  0.5712664E-03  0.1111084E+04  0.7818609E-02  0.9194456E-01
        1   -1    0    0  501    0  0.00000000000E+00  0.00000000000E+00  0.13768023391E+04  0.13768023391E+04  0.50400001928E-02 0. -1.
       -1   -1    0    0    0  501  0.00000000000E+00  0.00000000000E+00 -0.22416195893E+03  0.22416195898E+03  0.50400001928E-02 0.  1.
    10030    2    1    2    0    0  0.00000000000E+00  0.00000000000E+00  0.11526403802E+04  0.16009642981E+04  0.11110836322E+04 0.  0.
        5    1    3    3  502    0  0.90671010817E+02 -0.34420236349E+03  0.11908754502E+04  0.12429412404E+04  0.46999998093E+01 0. -1.
       -5    1    3    3    0  502 -0.90671010817E+02  0.34420236349E+03 -0.38235070050E+02  0.35802305766E+03  0.46999998093E+01 0.  1.
</event>
<event>
 5   0  0.1019384E-02  0.1165976E+04  0.7818609E-02  0.9143171E-01
       -2   -1    0    0    0  501  0.00000000000E+00  0.00000000000E+00  0.34414430766E+03  0.34414430767E+03  0.25500000920E-02 0. -1.
        2   -1    0    0  501    0  0.00000000000E+00  0.00000000000E+00 -0.98759392684E+03  0.98759392684E+03  0.25500000920E-02 0.  1.
    10030    2    1    2    0    0  0.00000000000E+00  0.00000000000E+00 -0.64344961918E+03  0.13317382345E+04  0.11659756914E+04 0.  0.
        1    1    3    3  502    0 -0.26632642908E+03 -0.40074925650E+03  0.54228575290E+02  0.48422151110E+03  0.50400001928E-02 0. -1.
       -1    1    3    3    0  502  0.26632642908E+03  0.40074925650E+03 -0.69767819447E+03  0.84751672341E+03  0.50400001928E-02 0.  1.
</event>
<event>
 5   0  0.5854579E-03  0.1114789E+04  0.7818609E-02  0.9190896E-01
       -1   -1    0    0    0  501  0.00000000000E+00  0.00000000000E+00  0.65331293187E+03  0.65331293189E+03  0.50400001928E-02 0. -1.
        1   -1    0    0  501    0  0.00000000000E+00  0.00000000000E+00 -0.47555898763E+03  0.47555898766E+03  0.50400001928E-02 0.  1.
    10030    2    1    2    0    0  0.00000000000E+00  0.00000000000E+00  0.17775394424E+03  0.11288719196E+04  0.11147893730E+04 0.  0.
        4    1    3    3  502    0 -0.94249187115E+01 -0.16238385807E+03 -0.45098994375E+03  0.47942766787E+03  0.12699999809E+01 0.  1.
       -4    1    3    3    0  502  0.94249187115E+01  0.16238385807E+03  0.62874388799E+03  0.64944425168E+03  0.12699999809E+01 0. -1.
</event>
<event>
 5   0  0.1028016E-02  0.1077744E+04  0.7818609E-02  0.9227160E-01
        2   -1    0    0  501    0  0.00000000000E+00  0.00000000000E+00  0.10790298378E+04  0.10790298378E+04  0.25500000920E-02 0. -1.
       -2   -1    0    0    0  501  0.00000000000E+00  0.00000000000E+00 -0.26911483838E+03  0.26911483840E+03  0.25500000920E-02 0.  1.
    10030    2    1    2    0    0  0.00000000000E+00  0.00000000000E+00  0.80991499939E+03  0.13481446762E+04  0.10777438293E+04 0.  0.
        2    1    3    3  502    0  0.20337837188E+03 -0.49841310405E+03  0.37420083666E+03  0.65559488299E+03  0.25500000920E-02 0. -1.
       -2    1    3    3    0  502 -0.20337837188E+03  0.49841310405E+03  0.43571416274E+03  0.69254979319E+03  0.25500000920E-02 0.  1.
</event>
<event>
 5   0  0.5854579E-03  0.1096677E+04  0.7818609E-02  0.9208437E-01
        1   -1    0    0  501    0  0.00000000000E+00  0.00000000000E+00  0.74401265160E+03  0.74401265162E+03  0.50400001928E-02 0.  1.
       -1   -1    0    0    0  501  0.00000000000E+00  0.00000000000E+00 -0.40412615316E+03  0.40412615319E+03  0.50400001928E-02 0. -1.
    10030    2    1    2    0    0  0.00000000000E+00  0.00000000000E+00  0.33988649844E+03  0.11481388048E+04  0.10966767451E+04 0.  0.
        4    1    3    3  502    0 -0.49197538754E+03  0.20147458921E+01  0.42344088801E+03  0.64911296373E+03  0.12699999809E+01 0.  1.
       -4    1    3    3    0  502  0.49197538754E+03 -0.20147458921E+01 -0.83554389564E+02  0.49902584108E+03  0.12699999809E+01 0. -1.
</event>
<event>
 5   0  0.5789905E-03  0.1074311E+04  0.7818609E-02  0.9230599E-01
       -1   -1    0    0    0  501  0.00000000000E+00  0.00000000000E+00  0.26178644227E+03  0.26178644231E+03  0.50400001928E-02 0. -1.
        1   -1    0    0  501    0  0.00000000000E+00  0.00000000000E+00 -0.11021799395E+04  0.11021799395E+04  0.50400001928E-02 0.  1.
    10030    2    1    2    0    0  0.00000000000E+00  0.00000000000E+00 -0.84039349727E+03  0.13639663819E+04  0.10743105047E+04 0.  0.
        1    1    3    3  502    0 -0.34482246291E+03  0.73073730169E+02 -0.93481358113E+03  0.99905892341E+03  0.50400001928E-02 0.  1.
       -1    1    3    3    0  502  0.34482246291E+03 -0.73073730169E+02  0.94420083857E+02  0.36490745845E+03  0.50400001928E-02 0. -1.
</event>
<event>
 5   0  0.9692981E-03  0.1101612E+04  0.7818609E-02  0.9203622E-01
        2   -1    0    0  501    0  0.00000000000E+00  0.00000000000E+00  0.17487946826E+04  0.17487946826E+04  0.25500000920E-02 0. -1.
       -2   -1    0    0    0  501  0.00000000000E+00  0.00000000000E+00 -0.17348368743E+03  0.17348368745E+03  0.25500000920E-02 0.  1.
    10030    2    1    2    0    0  0.00000000000E+00  0.00000000000E+00  0.15753109952E+04  0.19222783701E+04  0.11016121824E+04 0.  0.
        5    1    3    3  502    0 -0.15632737564E+03  0.39669528761E+03  0.13960463083E+04  0.14597166796E+04  0.46999998093E+01 0. -1.
       -5    1    3    3    0  502  0.15632737564E+03 -0.39669528761E+03  0.17926468688E+03  0.46256169054E+03  0.46999998093E+01 0.  1.
</event>
<event>
 5   0  0.5998641E-03  0.1081018E+04  0.7818609E-02  0.9223893E-01
       -1   -1    0    0    0  501  0.00000000000E+00  0.00000000000E+00  0.12638336133E+03  0.12638336143E+03  0.50400001928E-02 0. -1.
        1   -1    0    0  501    0  0.00000000000E+00  0.00000000000E+00 -0.23116168845E+04  0.23116168845E+04  0.50400001928E-02 0.  1.
    10030    2    1    2    0    0  0.00000000000E+00  0.00000000000E+00 -0.21852335232E+04  0.24380002460E+04  0.10810178761E+04 0.  0.
        3    1    3    3  502    0  0.40746925384E+03  0.10201906438E+03 -0.18597801246E+04  0.19066256068E+04  0.10100000352E+00 0.  1.
       -3    1    3    3    0  502 -0.40746925384E+03 -0.10201906438E+03 -0.32545339857E+03  0.53137463918E+03  0.10100000352E+00 0. -1.
</event>
<event>
 5   0  0.5998641E-03  0.1029918E+04  0.7818609E-02  0.9276327E-01
        1   -1    0    0  501    0  0.00000000000E+00  0.00000000000E+00  0.82059110189E+03  0.82059110190E+03  0.50400001928E-02 0. -1.
       -1   -1    0    0    0  501  0.00000000000E+00  0.00000000000E+00 -0.32316058521E+03  0.32316058524E+03  0.50400001928E-02 0.  1.
    10030    2    1    2    0    0  0.00000000000E+00  0.00000000000E+00  0.49743051668E+03  0.11437516871E+04  0.10299178622E+04 0.  0.
        3    1    3    3  502    0 -0.13544583824E+03 -0.27142263130E+03  0.71084249097E+03  0.77286019244E+03  0.10100000352E+00 0. -1.
       -3    1    3    3    0  502  0.13544583824E+03  0.27142263130E+03 -0.21341197429E+03  0.37089149471E+03  0.10100000352E+00 0.  1.
</event>
<event>
 5   0  0.1028016E-02  0.1076672E+04  0.7818609E-02  0.9228232E-01
        2   -1    0    0  501    0  0.00000000000E+00  0.00000000000E+00  0.46690758189E+03  0.46690758190E+03  0.25500000920E-02 0. -1.
       -2   -1    0    0    0  501  0.00000000000E+00  0.00000000000E+00 -0.62069184301E+03  0.62069184302E+03  0.25500000920E-02 0.  1.
    10030    2    1    2    0    0  0.00000000000E+00  0.00000000000E+00 -0.15378426112E+03  0.10875994249E+04  0.10766721461E+04 0.  0.
        2    1    3    3  502    0 -0.48367900492E+03  0.48378228474E+02  0.15679947734E+03  0.51075621278E+03  0.25500000920E-02 0. -1.
       -2    1    3    3    0  502  0.48367900492E+03 -0.48378228474E+02 -0.31058373846E+03  0.57684321214E+03  0.25500000920E-02 0.  1.
</event>
<event>
 5   0  0.9925021E-03  0.1090569E+04  0.7818609E-02  0.9214433E-01
        2   -1    0    0  501    0  0.00000000000E+00  0.00000000000E+00  0.27091090779E+03  0.27091090780E+03  0.25500000920E-02 0. -1.
       -2   -1    0    0    0  501  0.00000000000E+00  0.00000000000E+00 -0.10975390184E+04  0.10975390184E+04  0.25500000920E-02 0.  1.
    10030    2    1    2    0    0  0.00000000000E+00  0.00000000000E+00 -0.82662811059E+03  0.13684499262E+04  0.10905691942E+04 0.  0.
        4    1    3    3  502    0  0.11614759488E+03 -0.53000336649E+03 -0.48134993764E+03  0.72532282995E+03  0.12699999809E+01 0. -1.
       -4    1    3    3    0  502 -0.11614759488E+03  0.53000336649E+03 -0.34527817295E+03  0.64312709623E+03  0.12699999809E+01 0.  1.
</event>
<event>
 5   0  0.5998641E-03  0.1096897E+04  0.7818609E-02  0.9208222E-01
        1   -1    0    0  501    0  0.00000000000E+00  0.00000000000E+00  0.13832235521E+04  0.13832235521E+04  0.50400001928E-02 0.  1.
       -1   -1    0    0    0  501  0.00000000000E+00  0.00000000000E+00 -0.21745992479E+03  0.21745992485E+03  0.50400001928E-02 0. -1.
    10030    2    1    2    0    0  0.00000000000E+00  0.00000000000E+00  0.11657636273E+04  0.16006834769E+04  0.10968968769E+04 0.  0.
        3    1    3    3  502    0 -0.25600596499E+02 -0.46578594147E+03  0.10037624041E+04  0.11068653522E+04  0.10100000352E+00 0.  1.
       -3    1    3    3    0  502  0.25600596499E+02  0.46578594147E+03  0.16200122320E+03  0.49381812476E+03  0.10100000352E+00 0. -1.
</event>
<event>
 5   0  0.1028016E-02  0.1124615E+04  0.7818609E-02  0.9181527E-01
        2   -1    0    0  501    0  0.00000000000E+00  0.00000000000E+00  0.12931217944E+04  0.12931217944E+04  0.25500000920E-02 0. -1.
       -2   -1    0    0    0  501  0.00000000000E+00  0.00000000000E+00 -0.24451666414E+03  0.24451666415E+03  0.25500000920E-02 0.  1.
    10030    2    1    2    0    0  0.00000000000E+00  0.00000000000E+00  0.10486051302E+04  0.15376384585E+04  0.11246151831E+04 0.  0.
        2    1    3    3  502    0 -0.35018418671E+03  0.40344458872E+03  0.76422927308E+03  0.93243921123E+03  0.25500000920E-02 0.  1.
       -2    1    3    3    0  502  0.35018418671E+03 -0.40344458872E+03  0.28437585715E+03  0.60519924730E+03  0.25500000920E-02 0. -1.
</event>
<event>
 5   0  0.9925021E-03  0.1078700E+04  0.7818609E-02  0.9226205E-01
        2   -1    0    0  501    0  0.00000000000E+00  0.00000000000E+00  0.97593856719E+03  0.97593856719E+03  0.25500000920E-02 0. -1.
       -2   -1    0    0    0  501  0.00000000000E+00  0.00000000000E+00 -0.29807015548E+03  0.29807015549E+03  0.25500000920E-02 0.  1.
    10030    2    1    2    0    0  0.00000000000E+00  0.00000000000E+00  0.67786841171E+03  0.12740087227E+04  0.10786995142E+04 0.  0.
        4    1    3    3  502    0 -0.94980435805E+02 -0.52070848572E+03  0.46132037747E+03  0.70212300479E+03  0.12699999809E+01 0.  1.
       -4    1    3    3    0  502  0.94980435805E+02  0.52070848572E+03  0.21654803424E+03  0.57188571788E+03  0.12699999809E+01 0. -1.
</event>
<event>
 5   0  0.9719260E-03  0.1115077E+04  0.7818609E-02  0.9190621E-01
        2   -1    0    0  501    0  0.00000000000E+00  0.00000000000E+00  0.69140947378E+03  0.69140947378E+03  0.25500000920E-02 0. -1.
       -2   -1    0    0    0  501  0.00000000000E+00  0.00000000000E+00 -0.44958733813E+03  0.44958733814E+03  0.25500000920E-02 0.  1.
    10030    2    1    2    0    0  0.00000000000E+00  0.00000000000E+00  0.24182213564E+03  0.11409968119E+04  0.11150765801E+04 0.  0.
        3    1    3    3  502    0 -0.38833422161E+03 -0.22896379642E+03  0.45659329098E+03  0.64164268196E+03  0.10100000352E+00 0. -1.
       -3    1    3    3    0  502  0.38833422161E+03  0.22896379642E+03 -0.21477115534E+03  0.49935412996E+03  0.10100000352E+00 0.  1.
</event>
<event>
 5   0  0.5998641E-03  0.1130863E+04  0.7818609E-02  0.9175622E-01
        1   -1    0    0  501    0  0.00000000000E+00  0.00000000000E+00  0.69723458474E+03  0.69723458476E+03  0.50400001928E-02 0.  1.
       -1   -1    0    0    0  501  0.00000000000E+00  0.00000000000E+00 -0.45854369164E+03  0.45854369167E+03  0.50400001928E-02 0. -1.
    10030    2    1    2    0    0  0.00000000000E+00  0.00000000000E+00  0.23869089310E+03  0.11557782764E+04  0.11308625389E+04 0.  0.
        3    1    3    3  502    0  0.46593142591E+03  0.18715230525E+03  0.38506295323E+03  0.63276501733E+03  0.10100000352E+00 0.  1.
       -3    1    3    3    0  502 -0.46593142591E+03 -0.18715230525E+03 -0.14637206013E+03  0.52301325910E+03  0.10100000352E+00 0. -1.
</event>
<event>
 5   0  0.1028016E-02  0.8644287E+03  0.7818609E-02  0.9471173E-01
        2   -1    0    0  501    0  0.00000000000E+00  0.00000000000E+00  0.15746878337E+04  0.15746878337E+04  0.25500000920E-02 0.  1.
       -2   -1    0    0    0  501  0.00000000000E+00  0.00000000000E+00 -0.11863256596E+03  0.11863256599E+03  0.25500000920E-02 0. -1.
    10030    2    1    2    0    0  0.00000000000E+00  0.00000000000E+00  0.14560552677E+04  0.16933203997E+04  0.86442873234E+03 0.  0.
        2    1    3    3  502    0 -0.24379215854E+03  0.30605871680E+03  0.10876463757E+04  0.11558897842E+04  0.25500000920E-02 0.  1.
       -2    1    3    3    0  502  0.24379215854E+03 -0.30605871680E+03  0.36840889204E+03  0.53743061546E+03  0.25500000920E-02 0. -1.
</event>
<event>
 5   0  0.5712664E-03  0.1086734E+04  0.7818609E-02  0.9218219E-01
        1   -1    0    0  501    0  0.00000000000E+00  0.00000000000E+00  0.11893516195E+04  0.11893516195E+04  0.50400001928E-02 0.  1.
       -1   -1    0    0    0  501  0.00000000000E+00  0.00000000000E+00 -0.24824279173E+03  0.24824279178E+03  0.50400001928E-02 0. -1.
    10030    2    1    2    0    0  0.00000000000E+00  0.00000000000E+00  0.94110882773E+03  0.14375944112E+04  0.10867344964E+04 0.  0.
        5    1    3    3  502    0  0.80148905806E+02 -0.26051073138E+03 -0.15123933411E+03  0.31174527173E+03  0.46999998093E+01 0. -1.
       -5    1    3    3    0  502 -0.80148905806E+02  0.26051073138E+03  0.10923481618E+04  0.11258491395E+04  0.46999998093E+01 0.  1.
</event>
<event>
 5   0  0.5958706E-03  0.1071673E+04  0.7818609E-02  0.9233249E-01
        1   -1    0    0  501    0  0.00000000000E+00  0.00000000000E+00  0.78041954251E+03  0.78041954252E+03  0.50400001928E-02 0. -1.
       -1   -1    0    0    0  501  0.00000000000E+00  0.00000000000E+00 -0.36790588952E+03  0.36790588956E+03  0.50400001928E-02 0.  1.
    10030    2    1    2    0    0  0.00000000000E+00  0.00000000000E+00  0.41251365299E+03  0.11483254321E+04  0.10716733570E+04 0.  0.
        2    1    3    3  502    0  0.27588484202E+03 -0.45791707696E+03  0.24519392850E+03  0.58815011520E+03  0.25500000920E-02 0. -1.
       -2    1    3    3    0  502 -0.27588484202E+03  0.45791707696E+03  0.16731972449E+03  0.56017531688E+03  0.25500000920E-02 0.  1.
</event>
<event>
 5   0  0.1028016E-02  0.1133665E+04  0.7818609E-02  0.9172987E-01
       -2   -1    0    0    0  501  0.00000000000E+00  0.00000000000E+00  0.17743296599E+03  0.17743296601E+03  0.25500000920E-02 0.  1.
        2   -1    0    0  501    0  0.00000000000E+00  0.00000000000E+00 -0.18108179778E+04  0.18108179778E+04  0.25500000920E-02 0. -1.
    10030    2    1    2    0    0  0.00000000000E+00  0.00000000000E+00 -0.16333850118E+04  0.19882509438E+04  0.11336645089E+04 0.  0.
        2    1    3    3  502    0 -0.30976754458E+03  0.65178312266E+02  0.79690972812E+01  0.31665067595E+03  0.25500000920E-02 0.  1.
       -2    1    3    3    0  502  0.30976754458E+03 -0.65178312266E+02 -0.16413541091E+04  0.16716002678E+04  0.25500000920E-02 0. -1.
</event>
<event>
 5   0  0.5998641E-03  0.8207138E+03  0.7818609E-02  0.9530509E-01
       -1   -1    0    0    0  501  0.00000000000E+00  0.00000000000E+00  0.18749356235E+03  0.18749356242E+03  0.50400001928E-02 0.  1.
        1   -1    0    0  501    0  0.00000000000E+00  0.00000000000E+00 -0.89812558315E+03  0.89812558316E+03  0.50400001928E-02 0. -1.
    10030    2    1    2    0    0  0.00000000000E+00  0.00000000000E+00 -0.71063202080E+03  0.10856191456E+04  0.82071375051E+03 0.  0.
        3    1    3    3  502    0 -0.37170711862E+03  0.76193115647E+02 -0.14860237552E+03  0.40749754492E+03  0.10100000352E+00 0.  1.
       -3    1    3    3    0  502  0.37170711862E+03 -0.76193115647E+02 -0.56202964528E+03  0.67812160066E+03  0.10100000352E+00 0. -1.
</event>
<event>
 5   0  0.5998641E-03  0.1098960E+04  0.7818609E-02  0.9206207E-01
        1   -1    0    0  501    0  0.00000000000E+00  0.00000000000E+00  0.87531332696E+03  0.87531332698E+03  0.50400001928E-02 0. -1.
       -1   -1    0    0    0  501  0.00000000000E+00  0.00000000000E+00 -0.34493704971E+03  0.34493704975E+03  0.50400001928E-02 0.  1.
    10030    2    1    2    0    0  0.00000000000E+00  0.00000000000E+00  0.53037627725E+03  0.12202503767E+04  0.10989595017E+04 0.  0.
        3    1    3    3  502    0  0.46452948563E+03 -0.98608126410E+02  0.57213389338E+03  0.74353776485E+03  0.10100000352E+00 0. -1.
       -3    1    3    3    0  502 -0.46452948563E+03  0.98608126410E+02 -0.41757616126E+02  0.47671261187E+03  0.10100000352E+00 0.  1.
</event>
<event>
 5   0  0.5998641E-03  0.1182628E+04  0.7818609E-02  0.9128199E-01
       -1   -1    0    0    0  501  0.00000000000E+00  0.00000000000E+00  0.15249605053E+04  0.15249605053E+04  0.50400001928E-02 0.  1.
        1   -1    0    0  501    0  0.00000000000E+00  0.00000000000E+00 -0.22928621982E+03  0.22928621987E+03  0.50400001928E-02 0. -1.
    10030    2    1    2    0    0  0.00000000000E+00  0.00000000000E+00  0.12956742855E+04  0.17542467252E+04  0.11826283096E+04 0.  0.
        3    1    3    3  502    0 -0.22158356844E+03  0.35271550734E+03  0.25282529369E+02  0.41730890646E+03  0.10100000352E+00 0. -1.
       -3    1    3    3    0  502  0.22158356844E+03 -0.35271550734E+03  0.12703917561E+04  0.13369378187E+04  0.10100000352E+00 0.  1.
</event>
<event>
 5   0  0.3949750E-03  0.1098980E+04  0.7818609E-02  0.9206187E-01
       -4   -1    0    0    0  501  0.00000000000E+00  0.00000000000E+00  0.10288710026E+04  0.10288717864E+04  0.12699999809E+01 0.  1.
        4   -1    0    0  501    0  0.00000000000E+00  0.00000000000E+00 -0.29346428210E+03  0.29346703012E+03  0.12699999809E+01 0. -1.
    10030    2    1    2    0    0  0.00000000000E+00  0.00000000000E+00  0.73540672046E+03  0.13223388165E+04  0.10989799366E+04 0.  0.
        5    1    3    3  502    0  0.27694836964E+03  0.48707680036E+02 -0.20030371514E+03  0.34527743314E+03  0.46999998093E+01 0. -1.
       -5    1    3    3    0  502 -0.27694836964E+03 -0.48707680036E+02  0.93571043560E+03  0.97706138335E+03  0.46999998093E+01 0.  1.
</event>
<event>
 5   0  0.9692981E-03  0.1079827E+04  0.7818609E-02  0.9225080E-01
       -2   -1    0    0    0  501  0.00000000000E+00  0.00000000000E+00  0.73943001416E+03  0.73943001416E+03  0.25500000920E-02 0.  1.
        2   -1    0    0  501    0  0.00000000000E+00  0.00000000000E+00 -0.39423131240E+03  0.39423131241E+03  0.25500000920E-02 0. -1.
    10030    2    1    2    0    0  0.00000000000E+00  0.00000000000E+00  0.34519870175E+03  0.11336613266E+04  0.10798267730E+04 0.  0.
        5    1    3    3  502    0  0.11216395818E+03  0.18127355002E+03  0.69335646008E+03  0.72540066458E+03  0.46999998093E+01 0.  1.
       -5    1    3    3    0  502 -0.11216395818E+03 -0.18127355002E+03 -0.34815775832E+03  0.40826066199E+03  0.46999998093E+01 0. -1.
</event>
<event>
 5   0  0.5854579E-03  0.1063067E+04  0.7818609E-02  0.9241956E-01
        1   -1    0    0  501    0  0.00000000000E+00  0.00000000000E+00  0.31011233472E+03  0.31011233476E+03  0.50400001928E-02 0. -1.
       -1   -1    0    0    0  501  0.00000000000E+00  0.00000000000E+00 -0.91104976207E+03  0.91104976208E+03  0.50400001928E-02 0.  1.
    10030    2    1    2    0    0  0.00000000000E+00  0.00000000000E+00 -0.60093742734E+03  0.12211620968E+04  0.10630668254E+04 0.  0.
        4    1    3    3  502    0  0.10599928916E+03 -0.15628098234E+03  0.27027861053E+03  0.32971462654E+03  0.12699999809E+01 0. -1.
       -4    1    3    3    0  502 -0.10599928916E+03  0.15628098234E+03 -0.87121603788E+03  0.89144747030E+03  0.12699999809E+01 0.  1.
</event>
<event>
 5   0  0.5998641E-03  0.1102069E+04  0.7818609E-02  0.9203177E-01
       -1   -1    0    0    0  501  0.00000000000E+00  0.00000000000E+00  0.26636559834E+03  0.26636559839E+03  0.50400001928E-02 0. -1.
        1   -1    0    0  501    0  0.00000000000E+00  0.00000000000E+00 -0.11399336406E+04  0.11399336406E+04  0.50400001928E-02 0.  1.
    10030    2    1    2    0    0  0.00000000000E+00  0.00000000000E+00 -0.87356804222E+03  0.14062992390E+04  0.11020691562E+04 0.  0.
        3    1    3    3  502    0 -0.96328452765E+02  0.57501683257E+02  0.25163885480E+03  0.27551358920E+03  0.10100000352E+00 0. -1.
       -3    1    3    3    0  502  0.96328452765E+02 -0.57501683257E+02 -0.11252068970E+04  0.11307856498E+04  0.10100000352E+00 0.  1.
</event>
<event>
 5   0  0.1028016E-02  0.8320539E+03  0.7818609E-02  0.9514745E-01
       -2   -1    0    0    0  501  0.00000000000E+00  0.00000000000E+00  0.39508893265E+03  0.39508893266E+03  0.25500000920E-02 0.  1.
        2   -1    0    0  501    0  0.00000000000E+00  0.00000000000E+00 -0.43807454777E+03  0.43807454778E+03  0.25500000920E-02 0. -1.
    10030    2    1    2    0    0  0.00000000000E+00  0.00000000000E+00 -0.42985615123E+02  0.83316348043E+03  0.83205385764E+03 0.  0.
        2    1    3    3  502    0  0.61346666853E+02  0.26640430571E+03  0.29252345664E+03  0.40038061932E+03  0.25500000920E-02 0.  1.
       -2    1    3    3    0  502 -0.61346666853E+02 -0.26640430571E+03 -0.33550907176E+03  0.43278286112E+03  0.25500000920E-02 0. -1.
</event>
<event>
 5   0  0.3949750E-03  0.1090417E+04  0.7818609E-02  0.9214583E-01
       -4   -1    0    0    0  501  0.00000000000E+00  0.00000000000E+00  0.11336080184E+04  0.11336087298E+04  0.12699999809E+01 0.  1.
        4   -1    0    0  501    0  0.00000000000E+00  0.00000000000E+00 -0.26221545554E+03  0.26221853105E+03  0.12699999809E+01 0. -1.
    10030    2    1    2    0    0  0.00000000000E+00  0.00000000000E+00  0.87139256287E+03  0.13958272609E+04  0.10904167751E+04 0.  0.
        4    1    3    3  502    0  0.35273208198E+03 -0.39526467885E+03  0.60060636447E+03  0.80086434928E+03  0.12699999809E+01 0. -1.
       -4    1    3    3    0  502 -0.35273208198E+03  0.39526467885E+03  0.27078619840E+03  0.59496291158E+03  0.12699999809E+01 0.  1.
</event>
<event>
 5   0  0.9692981E-03  0.5876444E+03  0.7818609E-02  0.9931377E-01
       -2   -1    0    0    0  501  0.00000000000E+00  0.00000000000E+00  0.16325044825E+03  0.16325044827E+03  0.25500000920E-02 0. -1.
        2   -1    0    0  501    0  0.00000000000E+00  0.00000000000E+00 -0.52882849853E+03  0.52882849853E+03  0.25500000920E-02 0.  1.
    10030    2    1    2    0    0  0.00000000000E+00  0.00000000000E+00 -0.36557805028E+03  0.69207894680E+03  0.58764441439E+03 0.  0.
        5    1    3    3  502    0 -0.14838807323E+03  0.11893614443E+02 -0.48107697131E+03  0.50360462733E+03  0.46999998093E+01 0.  1.
       -5    1    3    3    0  502  0.14838807323E+03 -0.11893614443E+02  0.11549892104E+03  0.18847431947E+03  0.46999998093E+01 0. -1.
</event>
<event>
 5   0  0.5789905E-03  0.1106036E+04  0.7818609E-02  0.9199328E-01
       -1   -1    0    0    0  501  0.00000000000E+00  0.00000000000E+00  0.11388259625E+04  0.11388259625E+04  0.50400001928E-02 0. -1.
        1   -1    0    0  501    0  0.00000000000E+00  0.00000000000E+00 -0.26854764454E+03  0.26854764459E+03  0.50400001928E-02 0.  1.
    10030    2    1    2    0    0  0.00000000000E+00  0.00000000000E+00  0.87027831792E+03  0.14073736071E+04  0.11060362197E+04 0.  0.
        1    1    3    3  502    0  0.52144808418E+03  0.11021795886E+03  0.24738115502E+03  0.58758279317E+03  0.50400001928E-02 0.  1.
       -1    1    3    3    0  502 -0.52144808418E+03 -0.11021795886E+03  0.62289716291E+03  0.81979081389E+03  0.50400001928E-02 0. -1.
</event>
<event>
 5   0  0.9719260E-03  0.1060605E+04  0.7818609E-02  0.9244463E-01
        2   -1    0    0  501    0  0.00000000000E+00  0.00000000000E+00  0.33989256159E+03  0.33989256160E+03  0.25500000920E-02 0. -1.
       -2   -1    0    0    0  501  0.00000000000E+00  0.00000000000E+00 -0.82738173349E+03  0.82738173350E+03  0.25500000920E-02 0.  1.
    10030    2    1    2    0    0  0.00000000000E+00  0.00000000000E+00 -0.48748917191E+03  0.11672742951E+04  0.10606052929E+04 0.  0.
        3    1    3    3  502    0  0.35249181385E+03  0.29313877222E+03 -0.53708426743E+03  0.70614470126E+03  0.10100000352E+00 0.  1.
       -3    1    3    3    0  502 -0.35249181385E+03 -0.29313877222E+03  0.49595095520E+02  0.46112959383E+03  0.10100000352E+00 0. -1.
</event>
<event>
 5   0  0.9692981E-03  0.1081405E+04  0.7818609E-02  0.9223507E-01
        2   -1    0    0  501    0  0.00000000000E+00  0.00000000000E+00  0.44973729427E+03  0.44973729428E+03  0.25500000920E-02 0. -1.
       -2   -1    0    0    0  501  0.00000000000E+00  0.00000000000E+00 -0.65006702335E+03  0.65006702336E+03  0.25500000920E-02 0.  1.
    10030    2    1    2    0    0  0.00000000000E+00  0.00000000000E+00 -0.20032972908E+03  0.10998043176E+04  0.10814053527E+04 0.  0.
        5    1    3    3  502    0  0.25957500721E+03 -0.35914500632E+03 -0.41523075076E+03  0.60729151674E+03  0.46999998093E+01 0.  1.
       -5    1    3    3    0  502 -0.25957500721E+03  0.35914500632E+03  0.21490102168E+03  0.49251280090E+03  0.46999998093E+01 0. -1.
</event>
<event>
 5   0  0.5789905E-03  0.1101512E+04  0.7818609E-02  0.9203719E-01
       -1   -1    0    0    0  501  0.00000000000E+00  0.00000000000E+00  0.37341254994E+03  0.37341254998E+03  0.50400001928E-02 0. -1.
        1   -1    0    0  501    0  0.00000000000E+00  0.00000000000E+00 -0.81232444437E+03  0.81232444439E+03  0.50400001928E-02 0.  1.
    10030    2    1    2    0    0  0.00000000000E+00  0.00000000000E+00 -0.43891189443E+03  0.11857369944E+04  0.11015119467E+04 0.  0.
        1    1    3    3  502    0 -0.34378813450E+03 -0.32479514489E+03 -0.52325889177E+03  0.70532406411E+03  0.50400001928E-02 0.  1.
       -1    1    3    3    0  502  0.34378813450E+03  0.32479514489E+03  0.84346997341E+02  0.48041293025E+03  0.50400001928E-02 0. -1.
</event>
<event>
 5   0  0.1028016E-02  0.1045377E+04  0.7818609E-02  0.9260130E-01
        2   -1    0    0  501    0  0.00000000000E+00  0.00000000000E+00  0.86151719462E+03  0.86151719462E+03  0.25500000920E-02 0. -1.
       -2   -1    0    0    0  501  0.00000000000E+00  0.00000000000E+00 -0.31711850743E+03  0.31711850744E+03  0.25500000920E-02 0.  1.
    10030    2    1    2    0    0  0.00000000000E+00  0.00000000000E+00  0.54439868719E+03  0.11786357021E+04  0.10453765769E+04 0.  0.
        2    1    3    3  502    0 -0.23635725583E+03  0.16561407696E+03 -0.21913945003E+03  0.36237394144E+03  0.25500000920E-02 0.  1.
       -2    1    3    3    0  502  0.23635725583E+03 -0.16561407696E+03  0.76353813722E+03  0.81626176063E+03  0.25500000920E-02 0. -1.
</event>
<event>
 5   0  0.9692981E-03  0.1121292E+04  0.7818609E-02  0.9184684E-01
        2   -1    0    0  501    0  0.00000000000E+00  0.00000000000E+00  0.68074820102E+03  0.68074820102E+03  0.25500000920E-02 0.  1.
       -2   -1    0    0    0  501  0.00000000000E+00  0.00000000000E+00 -0.46173310623E+03  0.46173310624E+03  0.25500000920E-02 0. -1.
    10030    2    1    2    0    0  0.00000000000E+00  0.00000000000E+00  0.21901509478E+03  0.11424813073E+04  0.11212920787E+04 0.  0.
        5    1    3    3  502    0  0.23082983753E+03  0.18017402959E+03  0.59661796664E+03  0.66462032992E+03  0.46999998093E+01 0.  1.
       -5    1    3    3    0  502 -0.23082983753E+03 -0.18017402959E+03 -0.37760287186E+03  0.47786097734E+03  0.46999998093E+01 0. -1.
</event>
<event>
 5   0  0.5958706E-03  0.1096311E+04  0.7818609E-02  0.9208795E-01
        1   -1    0    0  501    0  0.00000000000E+00  0.00000000000E+00  0.10158456585E+04  0.10158456586E+04  0.50400001928E-02 0. -1.
       -1   -1    0    0    0  501  0.00000000000E+00  0.00000000000E+00 -0.29578747482E+03  0.29578747486E+03  0.50400001928E-02 0.  1.
    10030    2    1    2    0    0  0.00000000000E+00  0.00000000000E+00  0.72005818372E+03  0.13116331334E+04  0.10963109453E+04 0.  0.
        2    1    3    3  502    0  0.38247579252E+03  0.34010544269E+03  0.59482658561E+03  0.78471530568E+03  0.25500000920E-02 0. -1.
       -2    1    3    3    0  502 -0.38247579252E+03 -0.34010544269E+03  0.12523159811E+03  0.52691782773E+03  0.25500000920E-02 0.  1.
</event>
<event>
 5   0  0.9692981E-03  0.1109311E+04  0.7818609E-02  0.9196164E-01
        2   -1    0    0  501    0  0.00000000000E+00  0.00000000000E+00  0.90086922629E+03  0.90086922629E+03  0.25500000920E-02 0. -1.
       -2   -1    0    0    0  501  0.00000000000E+00  0.00000000000E+00 -0.34149566291E+03  0.34149566292E+03  0.25500000920E-02 0.  1.
    10030    2    1    2    0    0  0.00000000000E+00  0.00000000000E+00  0.55937356338E+03  0.12423648892E+04  0.11093113785E+04 0.  0.
        5    1    3    3  502    0  0.40936989682E+03  0.23450751814E+03 -0.46913003203E+02  0.47413121428E+03  0.46999998093E+01 0.  1.
       -5    1    3    3    0  502 -0.40936989682E+03 -0.23450751814E+03  0.60628656659E+03  0.76823367493E+03  0.46999998093E+01 0. -1.
</event>
<event>
 5   0  0.5854579E-03  0.1034882E+04  0.7818609E-02  0.9271093E-01
       -1   -1    0    0    0  501  0.00000000000E+00  0.00000000000E+00  0.16157100673E+03  0.16157100681E+03  0.50400001928E-02 0. -1.
        1   -1    0    0  501    0  0.00000000000E+00  0.00000000000E+00 -0.16571361460E+04  0.16571361461E+04  0.50400001928E-02 0.  1.
    10030    2    1    2    0    0  0.00000000000E+00  0.00000000000E+00 -0.14955651393E+04  0.18187071529E+04  0.10348819362E+04 0.  0.
        4    1    3    3  502    0 -0.64968145424E+02  0.82177181742E+02  0.14273760981E+03  0.17705814658E+03  0.12699999809E+01 0. -1.
       -4    1    3    3    0  502  0.64968145424E+02 -0.82177181742E+02 -0.16383027491E+04  0.16416490063E+04  0.12699999809E+01 0.  1.
</event>
<event>
 5   0  0.5712664E-03  0.1211461E+04  0.7818609E-02  0.9102884E-01
        1   -1    0    0  501    0  0.00000000000E+00  0.00000000000E+00  0.95425165487E+03  0.95425165488E+03  0.50400001928E-02 0. -1.
       -1   -1    0    0    0  501  0.00000000000E+00  0.00000000000E+00 -0.38449953487E+03  0.38449953491E+03  0.50400001928E-02 0.  1.
    10030    2    1    2    0    0  0.00000000000E+00  0.00000000000E+00  0.56975211999E+03  0.13387511898E+04  0.12114608000E+04 0.  0.
        5    1    3    3  502    0 -0.45829708746E+03 -0.37541904046E+03  0.42427092116E+03  0.72869992511E+03  0.46999998093E+01 0.  1.
       -5    1    3    3    0  502  0.45829708746E+03  0.37541904046E+03  0.14548119883E+03  0.61005126467E+03  0.46999998093E+01 0. -1.
</event>
<event>
 5   0  0.5712664E-03  0.1114485E+04  0.7818609E-02  0.9191188E-01
       -1   -1    0    0    0  501  0.00000000000E+00  0.00000000000E+00  0.28155518813E+03  0.28155518817E+03  0.50400001928E-02 0. -1.
        1   -1    0    0  501    0  0.00000000000E+00  0.00000000000E+00 -0.11028707438E+04  0.11028707439E+04  0.50400001928E-02 0.  1.
    10030    2    1    2    0    0  0.00000000000E+00  0.00000000000E+00 -0.82131555572E+03  0.13844259320E+04  0.11144845980E+04 0.  0.
        5    1    3    3  502    0  0.55440633988E+02 -0.21762533489E+03 -0.10441400572E+04  0.10680285573E+04  0.46999998093E+01 0.  1.
       -5    1    3    3    0  502 -0.55440633988E+02  0.21762533489E+03  0.22282450144E+03  0.31639737471E+03  0.46999998093E+01 0. -1.
</event>
<event>
 5   0  0.5712664E-03  0.1086192E+04  0.7818609E-02  0.9218755E-01
       -1   -1    0    0    0  501  0.00000000000E+00  0.00000000000E+00  0.45642056153E+03  0.45642056156E+03  0.50400001928E-02 0. -1.
        1   -1    0    0  501    0  0.00000000000E+00  0.00000000000E+00 -0.64623169050E+03  0.64623169052E+03  0.50400001928E-02 0.  1.
    10030    2    1    2    0    0  0.00000000000E+00  0.00000000000E+00 -0.18981112897E+03  0.11026522521E+04  0.10861923054E+04 0.  0.
        5    1    3    3  502    0 -0.26613181695E+03  0.30639794084E+03 -0.46124178620E+03  0.61438743272E+03  0.46999998093E+01 0.  1.
       -5    1    3    3    0  502  0.26613181695E+03 -0.30639794084E+03  0.27143065723E+03  0.48826481936E+03  0.46999998093E+01 0. -1.
</event>
<event>
 5   0  0.9719260E-03  0.1022585E+04  0.7818609E-02  0.9284115E-01
       -2   -1    0    0    0  501  0.00000000000E+00  0.00000000000E+00  0.27685887793E+03  0.27685887794E+03  0.25500000920E-02 0.  1.
        2   -1    0    0  501    0  0.00000000000E+00  0.00000000000E+00 -0.94423540698E+03  0.94423540698E+03  0.25500000920E-02 0. -1.
    10030    2    1    2    0    0  0.00000000000E+00  0.00000000000E+00 -0.66737652905E+03  0.12210942849E+04  0.10225848723E+04 0.  0.
        3    1    3    3  502    0  0.17984650673E+03 -0.21806083338E+03 -0.84245375025E+03  0.88860768877E+03  0.10100000352E+00 0. -1.
       -3    1    3    3    0  502 -0.17984650673E+03  0.21806083338E+03  0.17507722120E+03  0.33248659615E+03  0.10100000352E+00 0.  1.
</event>
<event>
 5   0  0.5712664E-03  0.1091010E+04  0.7818609E-02  0.9213999E-01
        1   -1    0    0  501    0  0.00000000000E+00  0.00000000000E+00  0.23583301652E+03  0.23583301658E+03  0.50400001928E-02 0. -1.
       -1   -1    0    0    0  501  0.00000000000E+00  0.00000000000E+00 -0.12618063850E+04  0.12618063850E+04  0.50400001928E-02 0.  1.
    10030    2    1    2    0    0  0.00000000000E+00  0.00000000000E+00 -0.10259733685E+04  0.14976394016E+04  0.10910098186E+04 0.  0.
        5    1    3    3  502    0 -0.13541063220E+03 -0.52840515218E+03 -0.50977562307E+03  0.74661993011E+03  0.46999998093E+01 0. -1.
       -5    1    3    3    0  502  0.13541063220E+03  0.52840515218E+03 -0.51619774539E+03  0.75101947146E+03  0.46999998093E+01 0.  1.
</event>
<event>
 5   0  0.5712664E-03  0.1112673E+04  0.7818609E-02  0.9192927E-01
        1   -1    0    0  501    0  0.00000000000E+00  0.00000000000E+00  0.73782007261E+03  0.73782007262E+03  0.50400001928E-02 0.  1.
       -1   -1    0    0    0  501  0.00000000000E+00  0.00000000000E+00 -0.41949273371E+03  0.41949273374E+03  0.50400001928E-02 0. -1.
    10030    2    1    2    0    0  0.00000000000E+00  0.00000000000E+00  0.31832733890E+03  0.11573128064E+04  0.11126727448E+04 0.  0.
        5    1    3    3  502    0 -0.49362008537E+03 -0.15142473948E+03  0.37459108187E+03  0.63791128617E+03  0.46999998093E+01 0.  1.
       -5    1    3    3    0  502  0.49362008537E+03  0.15142473948E+03 -0.56263742969E+02  0.51940152020E+03  0.46999998093E+01 0. -1.
</event>
<event>
 5   0  0.9719260E-03  0.1055971E+04  0.7818609E-02  0.9249201E-01
        2   -1    0    0  501    0  0.00000000000E+00  0.00000000000E+00  0.14327494667E+04  0.14327494667E+04  0.25500000920E-02 0. -1.
       -2   -1    0    0    0  501  0.00000000000E+00  0.00000000000E+00 -0.19456895953E+03  0.19456895954E+03  0.25500000920E-02 0.  1.
    10030    2    1    2    0    0  0.00000000000E+00  0.00000000000E+00  0.12381805071E+04  0.16273184262E+04  0.10559707818E+04 0.  0.
        3    1    3    3  502    0 -0.29003671333E+03  0.38264165603E+03  0.95753760178E+03  0.10711742160E+04  0.10100000352E+00 0. -1.
       -3    1    3    3    0  502  0.29003671333E+03 -0.38264165603E+03  0.28064290535E+03  0.55614421019E+03  0.10100000352E+00 0.  1.
</event>
<event>
 5   0  0.1019384E-02  0.1130229E+04  0.7818609E-02  0.9176220E-01
        2   -1    0    0  501    0  0.00000000000E+00  0.00000000000E+00  0.13897236077E+04  0.13897236077E+04  0.25500000920E-02 0.  1.
       -2   -1    0    0    0  501  0.00000000000E+00  0.00000000000E+00 -0.22979699077E+03  0.22979699079E+03  0.25500000920E-02 0. -1.
    10030    2    1    2    0    0  0.00000000000E+00  0.00000000000E+00  0.11599266170E+04  0.16195205985E+04  0.11302288318E+04 0.  0.
        1    1    3    3  502    0  0.21222984147E+03  0.15508420576E+03  0.12967951326E+04  0.13231667440E+04  0.50400001928E-02 0.  1.
       -1    1    3    3    0  502 -0.21222984147E+03 -0.15508420576E+03 -0.13686851564E+03  0.29635385451E+03  0.50400001928E-02 0. -1.
</event>
<event>
 5   0  0.9925021E-03  0.1148929E+04  0.7818609E-02  0.9158772E-01
        2   -1    0    0  501    0  0.00000000000E+00  0.00000000000E+00  0.87137919647E+03  0.87137919648E+03  0.25500000920E-02 0. -1.
       -2   -1    0    0    0  501  0.00000000000E+00  0.00000000000E+00 -0.37872074136E+03  0.37872074137E+03  0.25500000920E-02 0.  1.
    10030    2    1    2    0    0  0.00000000000E+00  0.00000000000E+00  0.49265845511E+03  0.12500999378E+04  0.11489288495E+04 0.  0.
        4    1    3    3  502    0 -0.51430288471E+03  0.58328573368E+02 -0.24808963735E+02  0.51819569400E+03  0.12699999809E+01 0.  1.
       -4    1    3    3    0  502  0.51430288471E+03 -0.58328573368E+02  0.51746741885E+03  0.73190424385E+03  0.12699999809E+01 0. -1.
</event>
<event>
 5   0  0.5958706E-03  0.1117777E+04  0.7818609E-02  0.9188037E-01
        1   -1    0    0  501    0  0.00000000000E+00  0.00000000000E+00  0.69863345224E+03  0.69863345226E+03  0.50400001928E-02 0.  1.
       -1   -1    0    0    0  501  0.00000000000E+00  0.00000000000E+00 -0.44709580651E+03  0.44709580654E+03  0.50400001928E-02 0. -1.
    10030    2    1    2    0    0  0.00000000000E+00  0.00000000000E+00  0.25153764573E+03  0.11457292588E+04  0.11177765194E+04 0.  0.
        2    1    3    3  502    0  0.15188019998E+03 -0.53331948231E+03  0.54320425544E+02  0.55717858358E+03  0.25500000920E-02 0.  1.
       -2    1    3    3    0  502 -0.15188019998E+03  0.53331948231E+03  0.19721722018E+03  0.58855067522E+03  0.25500000920E-02 0. -1.
</event>
<event>
 5   0  0.9692981E-03  0.9908539E+03  0.7818609E-02  0.9318633E-01
        2   -1    0    0  501    0  0.00000000000E+00  0.00000000000E+00  0.14075063046E+04  0.14075063046E+04  0.25500000920E-02 0.  1.
       -2   -1    0    0    0  501  0.00000000000E+00  0.00000000000E+00 -0.17438489716E+03  0.17438489717E+03  0.25500000920E-02 0. -1.
    10030    2    1    2    0    0  0.00000000000E+00  0.00000000000E+00  0.12331214075E+04  0.15818912018E+04  0.99085385844E+03 0.  0.
        5    1    3    3  502    0  0.57442894773E+02  0.10138460827E+02 -0.16884775597E+03  0.17870122899E+03  0.46999998093E+01 0. -1.
       -5    1    3    3    0  502 -0.57442894773E+02 -0.10138460827E+02  0.14019691635E+04  0.14031899728E+04  0.46999998093E+01 0.  1.
</event>
<event>
 5   0  0.5854579E-03  0.8298632E+03  0.7818609E-02  0.9517770E-01
       -1   -1    0    0    0  501  0.00000000000E+00  0.00000000000E+00  0.87793648930E+03  0.87793648931E+03  0.50400001928E-02 0. -1.
        1   -1    0    0  501    0  0.00000000000E+00  0.00000000000E+00 -0.19610558543E+03  0.19610558549E+03  0.50400001928E-02 0.  1.
    10030    2    1    2    0    0  0.00000000000E+00  0.00000000000E+00  0.68183090387E+03  0.10740420748E+04  0.82986323993E+03 0.  0.
        4    1    3    3  502    0 -0.15695629274E+03  0.36249735302E+03  0.50527386214E+03  0.64136019321E+03  0.12699999809E+01 0. -1.
       -4    1    3    3    0  502  0.15695629274E+03 -0.36249735302E+03  0.17655704172E+03  0.43268188159E+03  0.12699999809E+01 0.  1.
</event>
<event>
 5   0  0.1019384E-02  0.1127569E+04  0.7818609E-02  0.9178730E-01
       -2   -1    0    0    0  501  0.00000000000E+00  0.00000000000E+00  0.33468001402E+03  0.33468001403E+03  0.25500000920E-02 0. -1.
        2   -1    0    0  501    0  0.00000000000E+00  0.00000000000E+00 -0.94972196652E+03  0.94972196652E+03  0.25500000920E-02 0.  1.
    10030    2    1    2    0    0  0.00000000000E+00  0.00000000000E+00 -0.61504195250E+03  0.12844019805E+04  0.11275689976E+04 0.  0.
        1    1    3    3  502    0 -0.38040301571E+03 -0.15532147948E+03  0.13220554694E+03  0.43163586854E+03  0.50400001928E-02 0. -1.
       -1    1    3    3    0  502  0.38040301571E+03  0.15532147948E+03 -0.74724749944E+03  0.85276611201E+03  0.50400001928E-02 0.  1.
</event>
<event>
 5   0  0.9692981E-03  0.7559786E+03  0.7818609E-02  0.9626017E-01
       -2   -1    0    0    0  501  0.00000000000E+00  0.00000000000E+00  0.10912023472E+03  0.10912023475E+03  0.25500000920E-02 0.  1.
        2   -1    0    0  501    0  0.00000000000E+00  0.00000000000E+00 -0.13093439341E+04  0.13093439341E+04  0.25500000920E-02 0. -1.
    10030    2    1    2    0    0  0.00000000000E+00  0.00000000000E+00 -0.12002236994E+04  0.14184641689E+04  0.75597861727E+03 0.  0.
        5    1    3    3  502    0 -0.32088634543E+03 -0.16808390218E+02 -0.22671184435E+03  0.39328223839E+03  0.46999998093E+01 0.  1.
       -5    1    3    3    0  502  0.32088634543E+03  0.16808390218E+02 -0.97351185507E+03  0.10251819305E+04  0.46999998093E+01 0. -1.
</event>
<event>
 5   0  0.1028016E-02  0.1086554E+04  0.7818609E-02  0.9218398E-01
       -2   -1    0    0    0  501  0.00000000000E+00  0.00000000000E+00  0.10345646983E+03  0.10345646986E+03  0.25500000920E-02 0.  1.
        2   -1    0    0  501    0  0.00000000000E+00  0.00000000000E+00 -0.28528874521E+04  0.28528874521E+04  0.25500000920E-02 0. -1.
    10030    2    1    2    0    0  0.00000000000E+00  0.00000000000E+00 -0.27494309823E+04  0.29563439220E+04  0.10865535691E+04 0.  0.
        2    1    3    3  502    0  0.39014647777E+03  0.37734553488E+03 -0.14382772412E+04  0.15372850580E+04  0.25500000920E-02 0.  1.
       -2    1    3    3    0  502 -0.39014647777E+03 -0.37734553488E+03 -0.13111537410E+04  0.14190588640E+04  0.25500000920E-02 0. -1.
</event>
<event>
 5   0  0.5789905E-03  0.8141412E+03  0.7818609E-02  0.9539771E-01
        1   -1    0    0  501    0  0.00000000000E+00  0.00000000000E+00  0.11287453302E+04  0.11287453302E+04  0.50400001928E-02 0. -1.
       -1   -1    0    0    0  501  0.00000000000E+00  0.00000000000E+00 -0.14680591582E+03  0.14680591591E+03  0.50400001928E-02 0.  1.
    10030    2    1    2    0    0  0.00000000000E+00  0.00000000000E+00  0.98193941433E+03  0.12755512461E+04  0.81414124569E+03 0.  0.
        1    1    3    3  502    0 -0.36288392391E+03 -0.17610296220E+03  0.57691954677E+03  0.70394116160E+03  0.50400001928E-02 0. -1.
       -1    1    3    3    0  502  0.36288392391E+03  0.17610296220E+03  0.40501986757E+03  0.57161008447E+03  0.50400001928E-02 0.  1.
</event>
<event>
 5   0  0.5854579E-03  0.1119116E+04  0.7818609E-02  0.9186758E-01
       -1   -1    0    0    0  501  0.00000000000E+00  0.00000000000E+00  0.45533191591E+03  0.45533191593E+03  0.50400001928E-02 0.  1.
        1   -1    0    0  501    0  0.00000000000E+00  0.00000000000E+00 -0.68764112355E+03  0.68764112357E+03  0.50400001928E-02 0. -1.
    10030    2    1    2    0    0  0.00000000000E+00  0.00000000000E+00 -0.23230920765E+03  0.11429730395E+04  0.11191156335E+04 0.  0.
        4    1    3    3  502    0 -0.27535546313E+03  0.31480573703E+03  0.26349565745E+03  0.49432262495E+03  0.12699999809E+01 0.  1.
       -4    1    3    3    0  502  0.27535546313E+03 -0.31480573703E+03 -0.49580486510E+03  0.64865041455E+03  0.12699999809E+01 0. -1.
</event>
<event>
 5   0  0.1028016E-02  0.1215570E+04  0.7818609E-02  0.9099336E-01
       -2   -1    0    0    0  501  0.00000000000E+00  0.00000000000E+00  0.22029934818E+03  0.22029934819E+03  0.25500000920E-02 0. -1.
        2   -1    0    0  501    0  0.00000000000E+00  0.00000000000E+00 -0.16768224493E+04  0.16768224494E+04  0.25500000920E-02 0.  1.
    10030    2    1    2    0    0  0.00000000000E+00  0.00000000000E+00 -0.14565231012E+04  0.18971217975E+04  0.12155704712E+04 0.  0.
        2    1    3    3  502    0 -0.48604167911E+03 -0.30332974743E+03 -0.41164087907E+03  0.70547406957E+03  0.25500000920E-02 0. -1.
       -2    1    3    3    0  502  0.48604167911E+03  0.30332974743E+03 -0.10448822221E+04  0.11916477280E+04  0.25500000920E-02 0.  1.
</event>
<event>
 5   0  0.9692981E-03  0.8770288E+03  0.7818609E-02  0.9454761E-01
        2   -1    0    0  501    0  0.00000000000E+00  0.00000000000E+00  0.35300049016E+03  0.35300049017E+03  0.25500000920E-02 0.  1.
       -2   -1    0    0    0  501  0.00000000000E+00  0.00000000000E+00 -0.54474392615E+03  0.54474392616E+03  0.25500000920E-02 0. -1.
    10030    2    1    2    0    0  0.00000000000E+00  0.00000000000E+00 -0.19174343599E+03  0.89774441633E+03  0.87702878619E+03 0.  0.
        5    1    3    3  502    0  0.13395315737E+03 -0.13576893589E+03  0.30829126333E+03  0.36254964538E+03  0.46999998093E+01 0.  1.
       -5    1    3    3    0  502 -0.13395315737E+03  0.13576893589E+03 -0.50003469932E+03  0.53519477095E+03  0.46999998093E+01 0. -1.
</event>
<event>
 5   0  0.5854579E-03  0.1137950E+04  0.7818609E-02  0.9168972E-01
       -1   -1    0    0    0  501  0.00000000000E+00  0.00000000000E+00  0.75717598164E+03  0.75717598165E+03  0.50400001928E-02 0. -1.
        1   -1    0    0  501    0  0.00000000000E+00  0.00000000000E+00 -0.42755276969E+03  0.42755276972E+03  0.50400001928E-02 0.  1.
    10030    2    1    2    0    0  0.00000000000E+00  0.00000000000E+00  0.32962321195E+03  0.11847287514E+04  0.11379502416E+04 0.  0.
        4    1    3    3  502    0  0.28460938582E+03 -0.26454028023E+03  0.59752558841E+03  0.71275697406E+03  0.12699999809E+01 0. -1.
       -4    1    3    3    0  502 -0.28460938582E+03  0.26454028023E+03 -0.26790237646E+03  0.47197177731E+03  0.12699999809E+01 0.  1.
</event>
<event>
 5   0  0.5958706E-03  0.1133977E+04  0.7818609E-02  0.9172694E-01
       -1   -1    0    0    0  501  0.00000000000E+00  0.00000000000E+00  0.36684497621E+03  0.36684497625E+03  0.50400001928E-02 0. -1.
        1   -1    0    0  501    0  0.00000000000E+00  0.00000000000E+00 -0.87632598597E+03  0.87632598599E+03  0.50400001928E-02 0.  1.
    10030    2    1    2    0    0  0.00000000000E+00  0.00000000000E+00 -0.50948100976E+03  0.12431709622E+04  0.11339766938E+04 0.  0.
        2    1    3    3  502    0  0.13122665826E+03  0.45866490092E+03  0.81165345158E+02  0.48392327949E+03  0.25500000920E-02 0. -1.
       -2    1    3    3    0  502 -0.13122665826E+03 -0.45866490092E+03 -0.59064635492E+03  0.75924768275E+03  0.25500000920E-02 0.  1.
</event>
<event>
 5   0  0.3949750E-03  0.1096071E+04  0.7818609E-02  0.9209030E-01
       -3   -1    0    0    0  501  0.00000000000E+00  0.00000000000E+00  0.35709515857E+03  0.35709517285E+03  0.10100000352E+00 0.  1.
        3   -1    0    0  501    0  0.00000000000E+00  0.00000000000E+00 -0.84107270540E+03  0.84107271147E+03  0.10100000352E+00 0. -1.
    10030    2    1    2    0    0  0.00000000000E+00  0.00000000000E+00 -0.48397754684E+03  0.11981678843E+04  0.10960711716E+04 0.  0.
        1    1    3    3  502    0 -0.11026368782E+03  0.11882535802E+03  0.33028793364E+03  0.36792345086E+03  0.50400001928E-02 0.  1.
       -1    1    3    3    0  502  0.11026368782E+03 -0.11882535802E+03 -0.81426548048E+03  0.83024443346E+03  0.50400001928E-02 0. -1.
</event>
<event>
 5   0  0.9925021E-03  0.1279329E+04  0.7818609E-02  0.9046120E-01
        2   -1    0    0  501    0  0.00000000000E+00  0.00000000000E+00  0.44288705072E+03  0.44288705072E+03  0.25500000920E-02 0. -1.
       -2   -1    0    0    0  501  0.00000000000E+00  0.00000000000E+00 -0.92387098148E+03  0.92387098148E+03  0.25500000920E-02 0.  1.
    10030    2    1    2    0    0  0.00000000000E+00  0.00000000000E+00 -0.48098393076E+03  0.13667580322E+04  0.12793287212E+04 0.  0.
        4    1    3    3  502    0  0.52095963458E+03  0.23445940662E+03 -0.54790431831E+03  0.79156232170E+03  0.12699999809E+01 0.  1.
       -4    1    3    3    0  502 -0.52095963458E+03 -0.23445940662E+03  0.66920387544E+02  0.57519571051E+03  0.12699999809E+01 0. -1.
</event>
<event>
 5   0  0.5712664E-03  0.1115955E+04  0.7818609E-02  0.9189779E-01
        1   -1    0    0  501    0  0.00000000000E+00  0.00000000000E+00  0.12423370632E+04  0.12423370632E+04  0.50400001928E-02 0. -1.
       -1   -1    0    0    0  501  0.00000000000E+00  0.00000000000E+00 -0.25060746664E+03  0.25060746669E+03  0.50400001928E-02 0.  1.
    10030    2    1    2    0    0  0.00000000000E+00  0.00000000000E+00  0.99172959651E+03  0.14929445299E+04  0.11159550961E+04 0.  0.
        5    1    3    3  502    0 -0.36384134829E+03  0.19982840510E+03  0.99464828067E+03  0.10778029553E+04  0.46999998093E+01 0. -1.
       -5    1    3    3    0  502  0.36384134829E+03 -0.19982840510E+03 -0.29186841586E+01  0.41514157456E+03  0.46999998093E+01 0.  1.
</event>
<event>
 5   0  0.9925021E-03  0.1120554E+04  0.7818609E-02  0.9185387E-01
        2   -1    0    0  501    0  0.00000000000E+00  0.00000000000E+00  0.13508959857E+04  0.13508959857E+04  0.25500000920E-02 0. -1.
       -2   -1    0    0    0  501  0.00000000000E+00  0.00000000000E+00 -0.23237195713E+03  0.23237195714E+03  0.25500000920E-02 0.  1.
    10030    2    1    2    0    0  0.00000000000E+00  0.00000000000E+00  0.11185240286E+04  0.15832679429E+04  0.11205540488E+04 0.  0.
        4    1    3    3  502    0  0.54996054986E+03  0.90195005178E+02  0.47788656164E+03  0.73414502931E+03  0.12699999809E+01 0.  1.
       -4    1    3    3    0  502 -0.54996054986E+03 -0.90195005178E+02  0.64063746694E+03  0.84912291355E+03  0.12699999809E+01 0. -1.
</event>
<event>
 5   0  0.9925021E-03  0.1057610E+04  0.7818609E-02  0.9247523E-01
        2   -1    0    0  501    0  0.00000000000E+00  0.00000000000E+00  0.90567819398E+03  0.90567819398E+03  0.25500000920E-02 0.  1.
       -2   -1    0    0    0  501  0.00000000000E+00  0.00000000000E+00 -0.30875711016E+03  0.30875711017E+03  0.25500000920E-02 0. -1.
    10030    2    1    2    0    0  0.00000000000E+00  0.00000000000E+00  0.59692108382E+03  0.12144353041E+04  0.10576097237E+04 0.  0.
        4    1    3    3  502    0 -0.43268212200E+02 -0.46134946881E+03  0.59103057238E+03  0.75102211748E+03  0.12699999809E+01 0.  1.
       -4    1    3    3    0  502  0.43268212200E+02  0.46134946881E+03  0.58905114410E+01  0.46341318667E+03  0.12699999809E+01 0. -1.
</event>
<event>
 5   0  0.9719260E-03  0.1053901E+04  0.7818609E-02  0.9251326E-01
       -2   -1    0    0    0  501  0.00000000000E+00  0.00000000000E+00  0.30704413777E+03  0.30704413778E+03  0.25500000920E-02 0.  1.
        2   -1    0    0  501    0  0.00000000000E+00  0.00000000000E+00 -0.90435463178E+03  0.90435463179E+03  0.25500000920E-02 0. -1.
    10030    2    1    2    0    0  0.00000000000E+00  0.00000000000E+00 -0.59731049401E+03  0.12113987696E+04  0.10539009217E+04 0.  0.
        3    1    3    3  502    0  0.47829670844E+02 -0.32529808470E+03 -0.77198323224E+03  0.83908559896E+03  0.10100000352E+00 0. -1.
       -3    1    3    3    0  502 -0.47829670844E+02  0.32529808470E+03  0.17467273823E+03  0.37231317061E+03  0.10100000352E+00 0.  1.
</event>
<event>
 5   0  0.5958706E-03  0.1117299E+04  0.7818609E-02  0.9188494E-01
       -1   -1    0    0    0  501  0.00000000000E+00  0.00000000000E+00  0.35546462942E+03  0.35546462945E+03  0.50400001928E-02 0.  1.
        1   -1    0    0  501    0  0.00000000000E+00  0.00000000000E+00 -0.87797480350E+03  0.87797480351E+03  0.50400001928E-02 0. -1.
    10030    2    1    2    0    0  0.00000000000E+00  0.00000000000E+00 -0.52251017408E+03  0.12334394330E+04  0.11172985066E+04 0.  0.
        2    1    3    3  502    0 -0.31271070721E+03 -0.20347842122E+03  0.19777696338E+03  0.42226435032E+03  0.25500000920E-02 0.  1.
       -2    1    3    3    0  502  0.31271070721E+03  0.20347842122E+03 -0.72028713746E+03  0.81117508264E+03  0.25500000920E-02 0. -1.
</event>
<event>
 5   0  0.5854579E-03  0.1150552E+04  0.7818609E-02  0.9157274E-01
       -1   -1    0    0    0  501  0.00000000000E+00  0.00000000000E+00  0.11293910834E+04  0.11293910834E+04  0.50400001928E-02 0. -1.
        1   -1    0    0  501    0  0.00000000000E+00  0.00000000000E+00 -0.29302749832E+03  0.29302749836E+03  0.50400001928E-02 0.  1.
    10030    2    1    2    0    0  0.00000000000E+00  0.00000000000E+00  0.83636358509E+03  0.14224185818E+04  0.11505522914E+04 0.  0.
        4    1    3    3  502    0  0.24550029286E+03  0.35782298526E+03 -0.48726507330E+02  0.43667329664E+03  0.12699999809E+01 0.  1.
       -4    1    3    3    0  502 -0.24550029286E+03 -0.35782298526E+03  0.88509009242E+03  0.98574528514E+03  0.12699999809E+01 0. -1.
</event>
<event>
 5   0  0.5712664E-03  0.1120390E+04  0.7818609E-02  0.9185543E-01
       -1   -1    0    0    0  501  0.00000000000E+00  0.00000000000E+00  0.61469249916E+03  0.61469249918E+03  0.50400001928E-02 0.  1.
        1   -1    0    0  501    0  0.00000000000E+00  0.00000000000E+00 -0.51052913034E+03  0.51052913036E+03  0.50400001928E-02 0. -1.
    10030    2    1    2    0    0  0.00000000000E+00  0.00000000000E+00  0.10416336882E+03  0.11252216295E+04  0.11203899804E+04 0.  0.
        5    1    3    3  502    0  0.47131196023E+03  0.24422994361E+03  0.23177535260E+03  0.57924531356E+03  0.46999998093E+01 0. -1.
       -5    1    3    3    0  502 -0.47131196023E+03 -0.24422994361E+03 -0.12761198377E+03  0.54597631598E+03  0.46999998093E+01 0.  1.
</event>
<event>
 5   0  0.1019384E-02  0.1083252E+04  0.7818609E-02  0.9221671E-01
        2   -1    0    0  501    0  0.00000000000E+00  0.00000000000E+00  0.43717156250E+03  0.43717156251E+03  0.25500000920E-02 0.  1.
       -2   -1    0    0    0  501  0.00000000000E+00  0.00000000000E+00 -0.67103776166E+03  0.67103776166E+03  0.25500000920E-02 0. -1.
    10030    2    1    2    0    0  0.00000000000E+00  0.00000000000E+00 -0.23386619916E+03  0.11082093242E+04  0.10832518207E+04 0.  0.
        1    1    3    3  502    0  0.51673727324E+02  0.22857628041E+03  0.38262171173E+03  0.44868325618E+03  0.50400001928E-02 0.  1.
       -1    1    3    3    0  502 -0.51673727324E+02 -0.22857628041E+03 -0.61648791089E+03  0.65952606799E+03  0.50400001928E-02 0. -1.
</event>
<event>
 5   0  0.9692981E-03  0.1061440E+04  0.7818609E-02  0.9243612E-01
        2   -1    0    0  501    0  0.00000000000E+00  0.00000000000E+00  0.66998555939E+03  0.66998555939E+03  0.25500000920E-02 0. -1.
       -2   -1    0    0    0  501  0.00000000000E+00  0.00000000000E+00 -0.42040296655E+03  0.42040296656E+03  0.25500000920E-02 0.  1.
    10030    2    1    2    0    0  0.00000000000E+00  0.00000000000E+00  0.24958259284E+03  0.10903885260E+04  0.10614403737E+04 0.  0.
        5    1    3    3  502    0  0.28704578281E+03  0.17649162493E+03  0.54596958592E+03  0.64159913797E+03  0.46999998093E+01 0. -1.
       -5    1    3    3    0  502 -0.28704578281E+03 -0.17649162493E+03 -0.29638699308E+03  0.44878938798E+03  0.46999998093E+01 0.  1.
</event>
<event>
 5   0  0.9925021E-03  0.1102452E+04  0.7818609E-02  0.9202805E-01
        2   -1    0    0  501    0  0.00000000000E+00  0.00000000000E+00  0.20770366365E+04  0.20770366365E+04  0.25500000920E-02 0.  1.
       -2   -1    0    0    0  501  0.00000000000E+00  0.00000000000E+00 -0.14629016611E+03  0.14629016613E+03  0.25500000920E-02 0. -1.
    10030    2    1    2    0    0  0.00000000000E+00  0.00000000000E+00  0.19307464703E+04  0.22233268026E+04  0.11024518758E+04 0.  0.
        4    1    3    3  502    0 -0.26233386601E+03  0.18914840686E+03  0.65160248146E+02  0.32991460700E+03  0.12699999809E+01 0. -1.
       -4    1    3    3    0  502  0.26233386601E+03 -0.18914840686E+03  0.18655862222E+04  0.18934121956E+04  0.12699999809E+01 0.  1.
</event>
<event>
 5   0  0.5712664E-03  0.1100613E+04  0.7818609E-02  0.9204595E-01
       -1   -1    0    0    0  501  0.00000000000E+00  0.00000000000E+00  0.64290311728E+03  0.64290311730E+03  0.50400001928E-02 0. -1.
        1   -1    0    0  501    0  0.00000000000E+00  0.00000000000E+00 -0.47104652586E+03  0.47104652588E+03  0.50400001928E-02 0.  1.
    10030    2    1    2    0    0  0.00000000000E+00  0.00000000000E+00  0.17185659142E+03  0.11139496432E+04  0.11006130653E+04 0.  0.
        5    1    3    3  502    0  0.60536168083E+02 -0.40473060675E+03 -0.28642046637E+03  0.49953004439E+03  0.46999998093E+01 0.  1.
       -5    1    3    3    0  502 -0.60536168083E+02  0.40473060675E+03  0.45827705779E+03  0.61441959880E+03  0.46999998093E+01 0. -1.
</event>
<event>
 5   0  0.5789905E-03  0.1100393E+04  0.7818609E-02  0.9204809E-01
       -1   -1    0    0    0  501  0.00000000000E+00  0.00000000000E+00  0.74118097713E+03  0.74118097714E+03  0.50400001928E-02 0. -1.
        1   -1    0    0  501    0  0.00000000000E+00  0.00000000000E+00 -0.40842404701E+03  0.40842404704E+03  0.50400001928E-02 0.  1.
    10030    2    1    2    0    0  0.00000000000E+00  0.00000000000E+00  0.33275693012E+03  0.11496050242E+04  0.11003929012E+04 0.  0.
        1    1    3    3  502    0  0.53765188634E+03  0.71914902834E+02  0.26255439045E+03  0.60264094791E+03  0.50400001928E-02 0. -1.
       -1    1    3    3    0  502 -0.53765188634E+03 -0.71914902834E+02  0.70202539673E+02  0.54696407627E+03  0.50400001928E-02 0.  1.
</event>
<event>
 5   0  0.3949750E-03  0.1093429E+04  0.7818609E-02  0.9211620E-01
        4   -1    0    0  501    0  0.00000000000E+00  0.00000000000E+00  0.35305357347E+03  0.35305585768E+03  0.12699999809E+01 0. -1.
       -4   -1    0    0    0  501  0.00000000000E+00  0.00000000000E+00 -0.84659932646E+03  0.84660027904E+03  0.12699999809E+01 0.  1.
    10030    2    1    2    0    0  0.00000000000E+00  0.00000000000E+00 -0.49354575299E+03  0.11996561367E+04  0.10934292094E+04 0.  0.
        1    1    3    3  502    0  0.47891762503E+03 -0.13769150497E+03 -0.34012044299E-01  0.49831821489E+03  0.50400001928E-02 0.  1.
       -1    1    3    3    0  502 -0.47891762503E+03  0.13769150497E+03 -0.49351174095E+03  0.70133792182E+03  0.50400001928E-02 0. -1.
</event>
<event>
 5   0  0.5958706E-03  0.1090833E+04  0.7818609E-02  0.9214173E-01
        1   -1    0    0  501    0  0.00000000000E+00  0.00000000000E+00  0.72208897365E+03  0.72208897367E+03  0.50400001928E-02 0. -1.
       -1   -1    0    0    0  501  0.00000000000E+00  0.00000000000E+00 -0.41197011268E+03  0.41197011271E+03  0.50400001928E-02 0.  1.
    10030    2    1    2    0    0  0.00000000000E+00  0.00000000000E+00  0.31011886096E+03  0.11340590864E+04  0.10908328485E+04 0.  0.
        2    1    3    3  502    0  0.93185450765E+02 -0.43160779583E+03  0.48791907025E+03  0.65805306532E+03  0.25500000920E-02 0. -1.
       -2    1    3    3    0  502 -0.93185450765E+02  0.43160779583E+03 -0.17780020929E+03  0.47600602106E+03  0.25500000920E-02 0.  1.
</event>
<event>
 5   0  0.5998641E-03  0.1089740E+04  0.7818609E-02  0.9215250E-01
       -1   -1    0    0    0  501  0.00000000000E+00  0.00000000000E+00  0.60600673914E+03  0.60600673916E+03  0.50400001928E-02 0. -1.
        1   -1    0    0  501    0  0.00000000000E+00  0.00000000000E+00 -0.48990123170E+03  0.48990123173E+03  0.50400001928E-02 0.  1.
    10030    2    1    2    0    0  0.00000000000E+00  0.00000000000E+00  0.11610550743E+03  0.10959079709E+04  0.10897402405E+04 0.  0.
        3    1    3    3  502    0  0.16063674051E+03  0.37819162336E+03 -0.30181382797E+03  0.50982807233E+03  0.10100000352E+00 0. -1.
       -3    1    3    3    0  502 -0.16063674051E+03 -0.37819162336E+03  0.41791933540E+03  0.58607989855E+03  0.10100000352E+00 0.  1.
</event>
<event>
 5   0  0.1019384E-02  0.1104266E+04  0.7818609E-02  0.9201044E-01
        2   -1    0    0  501    0  0.00000000000E+00  0.00000000000E+00  0.18413367804E+03  0.18413367805E+03  0.25500000920E-02 0. -1.
       -2   -1    0    0    0  501  0.00000000000E+00  0.00000000000E+00 -0.16555941676E+04  0.16555941676E+04  0.25500000920E-02 0.  1.
    10030    2    1    2    0    0  0.00000000000E+00  0.00000000000E+00 -0.14714604896E+04  0.18397278457E+04  0.11042656265E+04 0.  0.
        1    1    3    3  502    0 -0.10284168778E+03  0.15870529419E+03 -0.15999541473E+04  0.16110918834E+04  0.50400001928E-02 0.  1.
       -1    1    3    3    0  502  0.10284168778E+03 -0.15870529419E+03  0.12849365774E+03  0.22863596229E+03  0.50400001928E-02 0. -1.
</event>
<event>
 5   0  0.5958706E-03  0.1112913E+04  0.7818609E-02  0.9192697E-01
       -1   -1    0    0    0  501  0.00000000000E+00  0.00000000000E+00  0.28404439701E+03  0.28404439705E+03  0.50400001928E-02 0. -1.
        1   -1    0    0  501    0  0.00000000000E+00  0.00000000000E+00 -0.10901242958E+04  0.10901242958E+04  0.50400001928E-02 0.  1.
    10030    2    1    2    0    0  0.00000000000E+00  0.00000000000E+00 -0.80607989878E+03  0.13741686929E+04  0.11129127518E+04 0.  0.
        2    1    3    3  502    0 -0.26182107524E+03  0.52681665330E+02 -0.10058179774E+04  0.10406706669E+04  0.25500000920E-02 0.  1.
       -2    1    3    3    0  502  0.26182107524E+03 -0.52681665330E+02  0.19973807857E+03  0.33349802599E+03  0.25500000920E-02 0. -1.
</event>
<event>
 5   0  0.5854579E-03  0.1100141E+04  0.7818609E-02  0.9205054E-01
        1   -1    0    0  501    0  0.00000000000E+00  0.00000000000E+00  0.89043376005E+03  0.89043376006E+03  0.50400001928E-02 0. -1.
       -1   -1    0    0    0  501  0.00000000000E+00  0.00000000000E+00 -0.33980929643E+03  0.33980929646E+03  0.50400001928E-02 0.  1.
    10030    2    1    2    0    0  0.00000000000E+00  0.00000000000E+00  0.55062446362E+03  0.12302430565E+04  0.11001412083E+04 0.  0.
        4    1    3    3  502    0 -0.32957996199E+03  0.14252917636E+03 -0.19066591711E+03  0.40656195384E+03  0.12699999809E+01 0.  1.
       -4    1    3    3    0  502  0.32957996199E+03 -0.14252917636E+03  0.74129038073E+03  0.82368110269E+03  0.12699999809E+01 0. -1.
</event>
<event>
 5   0  0.9925021E-03  0.1120856E+04  0.7818609E-02  0.9185099E-01
       -2   -1    0    0    0  501  0.00000000000E+00  0.00000000000E+00  0.11192443456E+03  0.11192443459E+03  0.25500000920E-02 0. -1.
        2   -1    0    0  501    0  0.00000000000E+00  0.00000000000E+00 -0.28061764999E+04  0.28061764999E+04  0.25500000920E-02 0.  1.
    10030    2    1    2    0    0  0.00000000000E+00  0.00000000000E+00 -0.26942520654E+04  0.29181009345E+04  0.11208563121E+04 0.  0.
        4    1    3    3  502    0  0.30932209319E+03 -0.19265224966E+03 -0.24556088812E+04  0.24825010850E+04  0.12699999809E+01 0.  1.
       -4    1    3    3    0  502 -0.30932209319E+03  0.19265224966E+03 -0.23864318410E+03  0.43559984946E+03  0.12699999809E+01 0. -1.
</event>
<event>
 5   0  0.5712664E-03  0.1005278E+04  0.7818609E-02  0.9302775E-01
       -1   -1    0    0    0  501  0.00000000000E+00  0.00000000000E+00  0.42755519894E+03  0.42755519897E+03  0.50400001928E-02 0. -1.
        1   -1    0    0  501    0  0.00000000000E+00  0.00000000000E+00 -0.59090845695E+03  0.59090845697E+03  0.50400001928E-02 0.  1.
    10030    2    1    2    0    0  0.00000000000E+00  0.00000000000E+00 -0.16335325800E+03  0.10184636559E+04  0.10052780369E+04 0.  0.
        5    1    3    3  502    0  0.65577643009E+02 -0.46013311569E+03 -0.27549980566E+03  0.54031948358E+03  0.46999998093E+01 0.  1.
       -5    1    3    3    0  502 -0.65577643009E+02  0.46013311569E+03  0.11214654766E+03  0.47814417236E+03  0.46999998093E+01 0. -1.
</event>
<event>
 5   0  0.5712664E-03  0.1120496E+04  0.7818609E-02  0.9185442E-01
       -1   -1    0    0    0  501  0.00000000000E+00  0.00000000000E+00  0.26366307197E+03  0.26366307201E+03  0.50400001928E-02 0.  1.
        1   -1    0    0  501    0  0.00000000000E+00  0.00000000000E+00 -0.11904506223E+04  0.11904506223E+04  0.50400001928E-02 0. -1.
    10030    2    1    2    0    0  0.00000000000E+00  0.00000000000E+00 -0.92678755030E+03  0.14541136943E+04  0.11204960832E+04 0.  0.
        5    1    3    3  502    0 -0.26665301530E+03  0.45714676793E+03 -0.70187034039E+03  0.87905122872E+03  0.46999998093E+01 0. -1.
       -5    1    3    3    0  502  0.26665301530E+03 -0.45714676793E+03 -0.22491720991E+03  0.57506246557E+03  0.46999998093E+01 0.  1.
</event>
<event>
 5   0  0.3949750E-03  0.1091517E+04  0.7818609E-02  0.9213499E-01
       -3   -1    0    0    0  501  0.00000000000E+00  0.00000000000E+00  0.35240647632E+03  0.35240649079E+03  0.10100000352E+00 0. -1.
        3   -1    0    0  501    0  0.00000000000E+00  0.00000000000E+00 -0.84519608924E+03  0.84519609527E+03  0.10100000352E+00 0.  1.
    10030    2    1    2    0    0  0.00000000000E+00  0.00000000000E+00 -0.49278961292E+03  0.11976025861E+04  0.10915174536E+04 0.  0.
        3    1    3    3  502    0 -0.12989558951E+03  0.51244853941E+03 -0.39512871446E+03  0.66000233402E+03  0.10100000352E+00 0.  1.
       -3    1    3    3    0  502  0.12989558951E+03 -0.51244853941E+03 -0.97660898458E+02  0.53760025205E+03  0.10100000352E+00 0. -1.
</event>
<event>
 5   0  0.5958706E-03  0.1120238E+04  0.7818609E-02  0.9185688E-01
       -1   -1    0    0    0  501  0.00000000000E+00  0.00000000000E+00  0.52286846525E+03  0.52286846527E+03  0.50400001928E-02 0.  1.
        1   -1    0    0  501    0  0.00000000000E+00  0.00000000000E+00 -0.60002359234E+03  0.60002359236E+03  0.50400001928E-02 0. -1.
    10030    2    1    2    0    0  0.00000000000E+00  0.00000000000E+00 -0.77155127092E+02  0.11228920576E+04  0.11202382155E+04 0.  0.
        2    1    3    3  502    0 -0.11383933306E+03  0.57822878465E+01  0.51111979116E+03  0.52367572937E+03  0.25500000920E-02 0.  1.
       -2    1    3    3    0  502  0.11383933306E+03 -0.57822878465E+01 -0.58827491826E+03  0.59921632827E+03  0.25500000920E-02 0. -1.
</event>
<event>
 5   0  0.1019384E-02  0.1120609E+04  0.7818609E-02  0.9185335E-01
        2   -1    0    0  501    0  0.00000000000E+00  0.00000000000E+00  0.59064289394E+03  0.59064289395E+03  0.25500000920E-02 0.  1.
       -2   -1    0    0    0  501  0.00000000000E+00  0.00000000000E+00 -0.53152433642E+03  0.53152433642E+03  0.25500000920E-02 0. -1.
    10030    2    1    2    0    0  0.00000000000E+00  0.00000000000E+00  0.59118557527E+02  0.11221672304E+04  0.11206088921E+04 0.  0.
        1    1    3    3  502    0  0.33575151228E+03 -0.30314663530E+03  0.36064590092E+03  0.57852608097E+03  0.50400001928E-02 0.  1.
       -1    1    3    3    0  502 -0.33575151228E+03  0.30314663530E+03 -0.30152734339E+03  0.54364114940E+03  0.50400001928E-02 0. -1.
</event>
<event>
 5   0  0.5958706E-03  0.1106544E+04  0.7818609E-02  0.9198837E-01
       -1   -1    0    0    0  501  0.00000000000E+00  0.00000000000E+00  0.73125521377E+03  0.73125521379E+03  0.50400001928E-02 0. -1.
        1   -1    0    0  501    0  0.00000000000E+00  0.00000000000E+00 -0.41860894420E+03  0.41860894423E+03  0.50400001928E-02 0.  1.
    10030    2    1    2    0    0  0.00000000000E+00  0.00000000000E+00  0.31264626957E+03  0.11498641580E+04  0.11065441211E+04 0.  0.
        2    1    3    3  502    0  0.58877630924E+02  0.16230697313E+03  0.70254379351E+03  0.72344862344E+03  0.25500000920E-02 0. -1.
       -2    1    3    3    0  502 -0.58877630924E+02 -0.16230697313E+03 -0.38989752394E+03  0.42641553458E+03  0.25500000920E-02 0.  1.
</event>
<event>
 5   0  0.1019384E-02  0.1090080E+04  0.7818609E-02  0.9214915E-01
        2   -1    0    0  501    0  0.00000000000E+00  0.00000000000E+00  0.11572120188E+04  0.11572120188E+04  0.25500000920E-02 0.  1.
       -2   -1    0    0    0  501  0.00000000000E+00  0.00000000000E+00 -0.25671037717E+03  0.25671037718E+03  0.25500000920E-02 0. -1.
    10030    2    1    2    0    0  0.00000000000E+00  0.00000000000E+00  0.90050164165E+03  0.14139223960E+04  0.10900795087E+04 0.  0.
        1    1    3    3  502    0  0.27848825835E+03 -0.32881030153E+03  0.88316617979E+03  0.98267717261E+03  0.50400001928E-02 0.  1.
       -1    1    3    3    0  502 -0.27848825835E+03  0.32881030153E+03  0.17335461858E+02  0.43124522339E+03  0.50400001928E-02 0. -1.
</event>
<event>
 5   0  0.9719260E-03  0.1046572E+04  0.7818609E-02  0.9258890E-01
        2   -1    0    0  501    0  0.00000000000E+00  0.00000000000E+00  0.13795784036E+04  0.13795784036E+04  0.25500000920E-02 0.  1.
       -2   -1    0    0    0  501  0.00000000000E+00  0.00000000000E+00 -0.19848691352E+03  0.19848691354E+03  0.25500000920E-02 0. -1.
    10030    2    1    2    0    0  0.00000000000E+00  0.00000000000E+00  0.11810914901E+04  0.15780653172E+04  0.10465720411E+04 0.  0.
        3    1    3    3  502    0 -0.38479637403E+03 -0.20638250429E+03  0.15570579579E+03  0.46357986646E+03  0.10100000352E+00 0. -1.
       -3    1    3    3    0  502  0.38479637403E+03  0.20638250429E+03  0.10253856943E+04  0.11144854507E+04  0.10100000352E+00 0.  1.
</event>
<event>
 5   0  0.9719260E-03  0.1123204E+04  0.7818609E-02  0.9182866E-01
       -2   -1    0    0    0  501  0.00000000000E+00  0.00000000000E+00  0.58626973704E+03  0.58626973704E+03  0.25500000920E-02 0. -1.
        2   -1    0    0  501    0  0.00000000000E+00  0.00000000000E+00 -0.53797240643E+03  0.53797240643E+03  0.25500000920E-02 0.  1.
    10030    2    1    2    0    0  0.00000000000E+00  0.00000000000E+00  0.48297330609E+02  0.11242421435E+04  0.11232042401E+04 0.  0.
        3    1    3    3  502    0 -0.34714207789E+03 -0.27118115464E+03 -0.32452663107E+03  0.54714201570E+03  0.10100000352E+00 0.  1.
       -3    1    3    3    0  502  0.34714207789E+03  0.27118115464E+03  0.37282396168E+03  0.57710012777E+03  0.10100000352E+00 0. -1.
</event>
<event>
 5   0  0.5789905E-03  0.1088225E+04  0.7818609E-02  0.9216746E-01
        1   -1    0    0  501    0  0.00000000000E+00  0.00000000000E+00  0.90201045949E+03  0.90201045950E+03  0.50400001928E-02 0.  1.
       -1   -1    0    0    0  501  0.00000000000E+00  0.00000000000E+00 -0.32822035442E+03  0.32822035446E+03  0.50400001928E-02 0. -1.
    10030    2    1    2    0    0  0.00000000000E+00  0.00000000000E+00  0.57379010507E+03  0.12302308140E+04  0.10882245958E+04 0.  0.
        1    1    3    3  502    0  0.17157496288E+03 -0.13551685989E+03  0.85016608865E+03  0.87782980442E+03  0.50400001928E-02 0.  1.
       -1    1    3    3    0  502 -0.17157496288E+03  0.13551685989E+03 -0.27637598358E+03  0.35240100954E+03  0.50400001928E-02 0. -1.
</event>
<event>
 5   0  0.5998641E-03  0.1156941E+04  0.7818609E-02  0.9151404E-01
        1   -1    0    0  501    0  0.00000000000E+00  0.00000000000E+00  0.69123681014E+03  0.69123681016E+03  0.50400001928E-02 0.  1.
       -1   -1    0    0    0  501  0.00000000000E+00  0.00000000000E+00 -0.48410095854E+03  0.48410095857E+03  0.50400001928E-02 0. -1.
    10030    2    1    2    0    0  0.00000000000E+00  0.00000000000E+00  0.20713585160E+03  0.11753377687E+04  0.11569414893E+04 0.  0.
        3    1    3    3  502    0  0.23146549428E+03  0.10686368197E+03  0.63108586234E+03  0.68063609764E+03  0.10100000352E+00 0.  1.
       -3    1    3    3    0  502 -0.23146549428E+03 -0.10686368197E+03 -0.42395001074E+03  0.49470167108E+03  0.10100000352E+00 0. -1.
</event>
<event>
 5   0  0.9719260E-03  0.1100898E+04  0.7818609E-02  0.9204317E-01
       -2   -1    0    0    0  501  0.00000000000E+00  0.00000000000E+00  0.89533883999E+03  0.89533883999E+03  0.25500000920E-02 0. -1.
        2   -1    0    0  501    0  0.00000000000E+00  0.00000000000E+00 -0.33841250690E+03  0.33841250690E+03  0.25500000920E-02 0.  1.
    10030    2    1    2    0    0  0.00000000000E+00  0.00000000000E+00  0.55692633309E+03  0.12337513469E+04  0.11008975636E+04 0.  0.
        3    1    3    3  502    0 -0.24754647473E+03 -0.26091405187E+03 -0.18852264049E+03  0.40607412598E+03  0.10100000352E+00 0.  1.
       -3    1    3    3    0  502  0.24754647473E+03  0.26091405187E+03  0.74544897358E+03  0.82767722092E+03  0.10100000352E+00 0. -1.
</event>
<event>
 5   0  0.5712664E-03  0.1079554E+04  0.7818609E-02  0.9225352E-01
        1   -1    0    0  501    0  0.00000000000E+00  0.00000000000E+00  0.26595657181E+03  0.26595657186E+03  0.50400001928E-02 0.  1.
       -1   -1    0    0    0  501  0.00000000000E+00  0.00000000000E+00 -0.10955144545E+04  0.10955144545E+04  0.50400001928E-02 0. -1.
    10030    2    1    2    0    0  0.00000000000E+00  0.00000000000E+00 -0.82955788269E+03  0.13614710264E+04  0.10795541093E+04 0.  0.
        5    1    3    3  502    0 -0.35383560000E+03 -0.21138638977E+03 -0.85428890191E+03  0.94853331810E+03  0.46999998093E+01 0. -1.
       -5    1    3    3    0  502  0.35383560000E+03  0.21138638977E+03  0.24731019222E+02  0.41293770828E+03  0.46999998093E+01 0.  1.
</event>
<event>
 5   0  0.1028016E-02  0.1333931E+04  0.7818609E-02  0.9003082E-01
       -2   -1    0    0    0  501  0.00000000000E+00  0.00000000000E+00  0.23035687039E+03  0.23035687040E+03  0.25500000920E-02 0.  1.
        2   -1    0    0  501    0  0.00000000000E+00  0.00000000000E+00 -0.19311043973E+04  0.19311043973E+04  0.25500000920E-02 0. -1.
    10030    2    1    2    0    0  0.00000000000E+00  0.00000000000E+00 -0.17007475269E+04  0.21614612677E+04  0.13339312806E+04 0.  0.
        2    1    3    3  502    0  0.42329232342E+03 -0.48811615166E+02 -0.18942406111E+02  0.42651820547E+03  0.25500000920E-02 0.  1.
       -2    1    3    3    0  502 -0.42329232342E+03  0.48811615166E+02 -0.16818051208E+04  0.17349430622E+04  0.25500000920E-02 0. -1.
</event>
<event>
 5   0  0.5789905E-03  0.1067119E+04  0.7818609E-02  0.9237847E-01
       -1   -1    0    0    0  501  0.00000000000E+00  0.00000000000E+00  0.23945311989E+03  0.23945311994E+03  0.50400001928E-02 0.  1.
        1   -1    0    0  501    0  0.00000000000E+00  0.00000000000E+00 -0.11888986479E+04  0.11888986479E+04  0.50400001928E-02 0. -1.
    10030    2    1    2    0    0  0.00000000000E+00  0.00000000000E+00 -0.94944552799E+03  0.14283517678E+04  0.10671185323E+04 0.  0.
        1    1    3    3  502    0  0.17220610477E+03  0.41648571831E+03 -0.85700864906E+03  0.96828669343E+03  0.50400001928E-02 0. -1.
       -1    1    3    3    0  502 -0.17220610477E+03 -0.41648571831E+03 -0.92436878929E+02  0.46006507441E+03  0.50400001928E-02 0.  1.
</event>
<event>
 5   0  0.5789905E-03  0.1062137E+04  0.7818609E-02  0.9242902E-01
       -1   -1    0    0    0  501  0.00000000000E+00  0.00000000000E+00  0.52904911100E+03  0.52904911102E+03  0.50400001928E-02 0. -1.
        1   -1    0    0  501    0  0.00000000000E+00  0.00000000000E+00 -0.53309559471E+03  0.53309559473E+03  0.50400001928E-02 0.  1.
    10030    2    1    2    0    0  0.00000000000E+00  0.00000000000E+00 -0.40464837081E+01  0.10621447058E+04  0.10621369977E+04 0.  0.
        1    1    3    3  502    0 -0.31789854639E+03  0.32358972642E+03 -0.27818453627E+03  0.53212445263E+03  0.50400001928E-02 0.  1.
       -1    1    3    3    0  502  0.31789854639E+03 -0.32358972642E+03  0.27413805256E+03  0.53002025313E+03  0.50400001928E-02 0. -1.
</event>
<event>
 5   0  0.5958706E-03  0.1093471E+04  0.7818609E-02  0.9211579E-01
        1   -1    0    0  501    0  0.00000000000E+00  0.00000000000E+00  0.24783389227E+04  0.24783389227E+04  0.50400001928E-02 0. -1.
       -1   -1    0    0    0  501  0.00000000000E+00  0.00000000000E+00 -0.12061286740E+03  0.12061286751E+03  0.50400001928E-02 0.  1.
    10030    2    1    2    0    0  0.00000000000E+00  0.00000000000E+00  0.23577260553E+04  0.25989517903E+04  0.10934707385E+04 0.  0.
        2    1    3    3  502    0  0.35810694219E+03  0.34820086179E+03  0.17073191698E+04  0.17788825621E+04  0.25500000920E-02 0. -1.
       -2    1    3    3    0  502 -0.35810694219E+03 -0.34820086179E+03  0.65040688557E+03  0.82006922817E+03  0.25500000920E-02 0.  1.
</event>
<event>
 5   0  0.9925021E-03  0.1162899E+04  0.7818609E-02  0.9145965E-01
       -2   -1    0    0    0  501  0.00000000000E+00  0.00000000000E+00  0.34194702783E+03  0.34194702784E+03  0.25500000920E-02 0. -1.
        2   -1    0    0  501    0  0.00000000000E+00  0.00000000000E+00 -0.98870218179E+03  0.98870218179E+03  0.25500000920E-02 0.  1.
    10030    2    1    2    0    0  0.00000000000E+00  0.00000000000E+00 -0.64675515395E+03  0.13306492096E+04  0.11628994324E+04 0.  0.
        4    1    3    3  502    0 -0.53462283167E+03 -0.89478353868E+01 -0.58475955398E+03  0.79236796046E+03  0.12699999809E+01 0.  1.
       -4    1    3    3    0  502  0.53462283167E+03  0.89478353868E+01 -0.61995599974E+02  0.53828124917E+03  0.12699999809E+01 0. -1.
</event>
<event>
 5   0  0.5998641E-03  0.1144463E+04  0.7818609E-02  0.9162907E-01
       -1   -1    0    0    0  501  0.00000000000E+00  0.00000000000E+00  0.13292557179E+03  0.13292557189E+03  0.50400001928E-02 0.  1.
        1   -1    0    0  501    0  0.00000000000E+00  0.00000000000E+00 -0.24633995607E+04  0.24633995607E+04  0.50400001928E-02 0. -1.
    10030    2    1    2    0    0  0.00000000000E+00  0.00000000000E+00 -0.23304739889E+04  0.25963251326E+04  0.11444628352E+04 0.  0.
        3    1    3    3  502    0 -0.30509803453E+03  0.41945744246E+03 -0.17135594536E+04  0.17903394561E+04  0.10100000352E+00 0. -1.
       -3    1    3    3    0  502  0.30509803453E+03 -0.41945744246E+03 -0.61691453531E+03  0.80598567654E+03  0.10100000352E+00 0.  1.
</event>
<event>
 5   0  0.5712664E-03  0.1119225E+04  0.7818609E-02  0.9186654E-01
        1   -1    0    0  501    0  0.00000000000E+00  0.00000000000E+00  0.38526269987E+03  0.38526269990E+03  0.50400001928E-02 0.  1.
       -1   -1    0    0    0  501  0.00000000000E+00  0.00000000000E+00 -0.81286395884E+03  0.81286395885E+03  0.50400001928E-02 0. -1.
    10030    2    1    2    0    0  0.00000000000E+00  0.00000000000E+00 -0.42760125897E+03  0.11981266588E+04  0.11192250237E+04 0.  0.
        5    1    3    3  502    0 -0.10163905952E+03  0.54522143115E+03 -0.29353047129E+03  0.62751823478E+03  0.46999998093E+01 0. -1.
       -5    1    3    3    0  502  0.10163905952E+03 -0.54522143115E+03 -0.13407078768E+03  0.57060842398E+03  0.46999998093E+01 0.  1.
</event>
<event>
 5   0  0.5958706E-03  0.1100040E+04  0.7818609E-02  0.9205153E-01
        1   -1    0    0  501    0  0.00000000000E+00  0.00000000000E+00  0.94548379778E+03  0.94548379779E+03  0.50400001928E-02 0.  1.
       -1   -1    0    0    0  501  0.00000000000E+00  0.00000000000E+00 -0.31996510178E+03  0.31996510182E+03  0.50400001928E-02 0. -1.
    10030    2    1    2    0    0  0.00000000000E+00  0.00000000000E+00  0.62551869600E+03  0.12654488996E+04  0.11000396713E+04 0.  0.
        2    1    3    3  502    0 -0.36780761994E+03  0.10545746400E+03 -0.14177100492E+03  0.40804747254E+03  0.25500000920E-02 0. -1.
       -2    1    3    3    0  502  0.36780761994E+03 -0.10545746400E+03  0.76728970092E+03  0.85740142707E+03  0.25500000920E-02 0.  1.
</event>
<event>
 5   0  0.1028016E-02  0.1106737E+04  0.7818609E-02  0.9198650E-01
       -2   -1    0    0    0  501  0.00000000000E+00  0.00000000000E+00  0.34219004127E+03  0.34219004128E+03  0.25500000920E-02 0.  1.
        2   -1    0    0  501    0  0.00000000000E+00  0.00000000000E+00 -0.89487360746E+03  0.89487360746E+03  0.25500000920E-02 0. -1.
    10030    2    1    2    0    0  0.00000000000E+00  0.00000000000E+00 -0.55268356619E+03  0.12370636487E+04  0.11067372528E+04 0.  0.
        2    1    3    3  502    0 -0.10191565648E+03 -0.82205495172E+02  0.32462538981E+03  0.35003740970E+03  0.25500000920E-02 0.  1.
       -2    1    3    3    0  502  0.10191565648E+03  0.82205495172E+02 -0.87730895599E+03  0.88702623904E+03  0.25500000920E-02 0. -1.
</event>
<event>
 5   0  0.3949750E-03  0.1120962E+04  0.7818609E-02  0.9184999E-01
        3   -1    0    0  501    0  0.00000000000E+00  0.00000000000E+00  0.16309369314E+04  0.16309369345E+04  0.10100000352E+00 0.  1.
       -3   -1    0    0    0  501  0.00000000000E+00  0.00000000000E+00 -0.19261246074E+03  0.19261248722E+03  0.10100000352E+00 0. -1.
    10030    2    1    2    0    0  0.00000000000E+00  0.00000000000E+00  0.14383244707E+04  0.18235494217E+04  0.11209617347E+04 0.  0.
        4    1    3    3  502    0 -0.34225410399E+03 -0.23923016187E+03  0.11098380899E+03  0.43207402237E+03  0.12699999809E+01 0. -1.
       -4    1    3    3    0  502  0.34225410399E+03  0.23923016187E+03  0.13273406617E+04  0.13914753994E+04  0.12699999809E+01 0.  1.
</event>
<event>
 5   0  0.9925021E-03  0.1105403E+04  0.7818609E-02  0.9199942E-01
        2   -1    0    0  501    0  0.00000000000E+00  0.00000000000E+00  0.10952643824E+04  0.10952643824E+04  0.25500000920E-02 0.  1.
       -2   -1    0    0    0  501  0.00000000000E+00  0.00000000000E+00 -0.27890882375E+03  0.27890882376E+03  0.25500000920E-02 0. -1.
    10030    2    1    2    0    0  0.00000000000E+00  0.00000000000E+00  0.81635555862E+03  0.13741732061E+04  0.11054029140E+04 0.  0.
        4    1    3    3  502    0  0.44518803553E+02 -0.23758310274E+02 -0.27603733489E+03  0.28061469015E+03  0.12699999809E+01 0. -1.
       -4    1    3    3    0  502 -0.44518803553E+02  0.23758310274E+02  0.10923928935E+04  0.10935585160E+04  0.12699999809E+01 0.  1.
</event>
<event>
 5   0  0.9925021E-03  0.1085095E+04  0.7818609E-02  0.9219842E-01
       -2   -1    0    0    0  501  0.00000000000E+00  0.00000000000E+00  0.50605297932E+03  0.50605297933E+03  0.25500000920E-02 0. -1.
        2   -1    0    0  501    0  0.00000000000E+00  0.00000000000E+00 -0.58167427833E+03  0.58167427834E+03  0.25500000920E-02 0.  1.
    10030    2    1    2    0    0  0.00000000000E+00  0.00000000000E+00 -0.75621299015E+02  0.10877272577E+04  0.10850953904E+04 0.  0.
        4    1    3    3  502    0 -0.30480185480E+03  0.30356903222E+03  0.29359378945E+03  0.52082363053E+03  0.12699999809E+01 0. -1.
       -4    1    3    3    0  502  0.30480185480E+03 -0.30356903222E+03 -0.36921508847E+03  0.56690362714E+03  0.12699999809E+01 0.  1.
</event>
<event>
 5   0  0.5854579E-03  0.1111215E+04  0.7818609E-02  0.9194329E-01
       -1   -1    0    0    0  501  0.00000000000E+00  0.00000000000E+00  0.27132331497E+03  0.27132331502E+03  0.50400001928E-02 0.  1.
        1   -1    0    0  501    0  0.00000000000E+00  0.00000000000E+00 -0.11377566171E+04  0.11377566171E+04  0.50400001928E-02 0. -1.
    10030    2    1    2    0    0  0.00000000000E+00  0.00000000000E+00 -0.86643330213E+03  0.14090799321E+04  0.11112153653E+04 0.  0.
        4    1    3    3  502    0  0.79560777574E+02 -0.21366866471E+03 -0.10757005178E+04  0.10995987598E+04  0.12699999809E+01 0. -1.
       -4    1    3    3    0  502 -0.79560777574E+02  0.21366866471E+03  0.20926721565E+03  0.30948117237E+03  0.12699999809E+01 0.  1.
</event>
<event>
 5   0  0.1028016E-02  0.1112631E+04  0.7818609E-02  0.9192967E-01
        2   -1    0    0  501    0  0.00000000000E+00  0.00000000000E+00  0.10637101063E+04  0.10637101063E+04  0.25500000920E-02 0.  1.
       -2   -1    0    0    0  501  0.00000000000E+00  0.00000000000E+00 -0.29095049031E+03  0.29095049032E+03  0.25500000920E-02 0. -1.
    10030    2    1    2    0    0  0.00000000000E+00  0.00000000000E+00  0.77275961601E+03  0.13546605966E+04  0.11126310745E+04 0.  0.
        2    1    3    3  502    0  0.14993316318E+02  0.15234380840E+03 -0.26480307760E+03  0.30586615603E+03  0.25500000920E-02 0. -1.
       -2    1    3    3    0  502 -0.14993316318E+02 -0.15234380840E+03  0.10375626936E+04  0.10487944406E+04  0.25500000920E-02 0.  1.
</event>
<event>
 5   0  0.3949750E-03  0.1101925E+04  0.7818609E-02  0.9203317E-01
       -3   -1    0    0    0  501  0.00000000000E+00  0.00000000000E+00  0.73851650737E+03  0.73851651428E+03  0.10100000352E+00 0.  1.
        3   -1    0    0  501    0  0.00000000000E+00  0.00000000000E+00 -0.41103999310E+03  0.41104000551E+03  0.10100000352E+00 0. -1.
    10030    2    1    2    0    0  0.00000000000E+00  0.00000000000E+00  0.32747651428E+03  0.11495565198E+04  0.11019252809E+04 0.  0.
        1    1    3    3  502    0  0.17358194348E+03  0.30635354834E+03  0.60582053653E+03  0.70071514198E+03  0.50400001928E-02 0.  1.
       -1    1    3    3    0  502 -0.17358194348E+03 -0.30635354834E+03 -0.27834402226E+03  0.44884137781E+03  0.50400001928E-02 0. -1.
</event>
<event>
 5   0  0.9925021E-03  0.1107573E+04  0.7818609E-02  0.9197842E-01
        2   -1    0    0  501    0  0.00000000000E+00  0.00000000000E+00  0.10598382647E+04  0.10598382647E+04  0.25500000920E-02 0. -1.
       -2   -1    0    0    0  501  0.00000000000E+00  0.00000000000E+00 -0.28936427120E+03  0.28936427121E+03  0.25500000920E-02 0.  1.
    10030    2    1    2    0    0  0.00000000000E+00  0.00000000000E+00  0.77047399352E+03  0.13492025359E+04  0.11075727102E+04 0.  0.
        4    1    3    3  502    0  0.43042681276E+03 -0.25101350649E+03  0.90848160041E+02  0.50648792944E+03  0.12699999809E+01 0.  1.
       -4    1    3    3    0  502 -0.43042681276E+03  0.25101350649E+03  0.67962583348E+03  0.84271460651E+03  0.12699999809E+01 0. -1.
</event>
<event>
 5   0  0.9692981E-03  0.1085067E+04  0.7818609E-02  0.9219870E-01
        2   -1    0    0  501    0  0.00000000000E+00  0.00000000000E+00  0.49442064069E+03  0.49442064069E+03  0.25500000920E-02 0. -1.
       -2   -1    0    0    0  501  0.00000000000E+00  0.00000000000E+00 -0.59532828616E+03  0.59532828617E+03  0.25500000920E-02 0.  1.
    10030    2    1    2    0    0  0.00000000000E+00  0.00000000000E+00 -0.10090764548E+03  0.10897489269E+04  0.10850669890E+04 0.  0.
        5    1    3    3  502    0 -0.55508277759E+02  0.17623897655E+01 -0.59244547484E+03  0.59506134606E+03  0.46999998093E+01 0.  1.
       -5    1    3    3    0  502  0.55508277759E+02 -0.17623897655E+01  0.49153782936E+03  0.49468758081E+03  0.46999998093E+01 0. -1.
</event>
<event>
 5   0  0.9692981E-03  0.1107133E+04  0.7818609E-02  0.9198267E-01
        2   -1    0    0  501    0  0.00000000000E+00  0.00000000000E+00  0.48867244827E+03  0.48867244828E+03  0.25500000920E-02 0.  1.
       -2   -1    0    0    0  501  0.00000000000E+00  0.00000000000E+00 -0.62707839033E+03  0.62707839034E+03  0.25500000920E-02 0. -1.
    10030    2    1    2    0    0  0.00000000000E+00  0.00000000000E+00 -0.13840594206E+03  0.11157508386E+04  0.11071331126E+04 0.  0.
        5    1    3    3  502    0 -0.10391850231E+03  0.20686913186E+03 -0.57592881182E+03  0.62073342033E+03  0.46999998093E+01 0. -1.
       -5    1    3    3    0  502  0.10391850231E+03 -0.20686913186E+03  0.43752286976E+03  0.49501741828E+03  0.46999998093E+01 0.  1.
</event>
<event>
 5   0  0.9719260E-03  0.1069043E+04  0.7818609E-02  0.9235901E-01
        2   -1    0    0  501    0  0.00000000000E+00  0.00000000000E+00  0.15914360710E+04  0.15914360710E+04  0.25500000920E-02 0.  1.
       -2   -1    0    0    0  501  0.00000000000E+00  0.00000000000E+00 -0.17953187191E+03  0.17953187193E+03  0.25500000920E-02 0. -1.
    10030    2    1    2    0    0  0.00000000000E+00  0.00000000000E+00  0.14119041991E+04  0.17709679429E+04  0.10690434919E+04 0.  0.
        3    1    3    3  502    0 -0.37800860795E+03 -0.70185444724E+02  0.13211186421E+04  0.13759254998E+04  0.10100000352E+00 0.  1.
       -3    1    3    3    0  502  0.37800860795E+03  0.70185444724E+02  0.90785557030E+02  0.39504244316E+03  0.10100000352E+00 0. -1.
</event>
<event>
 5   0  0.5712664E-03  0.1107746E+04  0.7818609E-02  0.9197675E-01
        1   -1    0    0  501    0  0.00000000000E+00  0.00000000000E+00  0.77239495961E+03  0.77239495963E+03  0.50400001928E-02 0. -1.
       -1   -1    0    0    0  501  0.00000000000E+00  0.00000000000E+00 -0.39717379060E+03  0.39717379063E+03  0.50400001928E-02 0.  1.
    10030    2    1    2    0    0  0.00000000000E+00  0.00000000000E+00  0.37522116901E+03  0.11695687503E+04  0.11077455195E+04 0.  0.
        5    1    3    3  502    0  0.13514716259E+03 -0.36466585415E+03 -0.22874148707E+03  0.45121025990E+03  0.46999998093E+01 0.  1.
       -5    1    3    3    0  502 -0.13514716259E+03  0.36466585415E+03  0.60396265608E+03  0.71835849036E+03  0.46999998093E+01 0. -1.
</event>
<event>
 5   0  0.5958706E-03  0.1071111E+04  0.7818609E-02  0.9233815E-01
       -1   -1    0    0    0  501  0.00000000000E+00  0.00000000000E+00  0.19258419077E+03  0.19258419084E+03  0.50400001928E-02 0.  1.
        1   -1    0    0  501    0  0.00000000000E+00  0.00000000000E+00 -0.14893221244E+04  0.14893221244E+04  0.50400001928E-02 0. -1.
    10030    2    1    2    0    0  0.00000000000E+00  0.00000000000E+00 -0.12967379336E+04  0.16819063152E+04  0.10711113783E+04 0.  0.
        2    1    3    3  502    0 -0.40081967515E+03 -0.17305087291E+03 -0.11354405611E+04  0.12164819293E+04  0.25500000920E-02 0. -1.
       -2    1    3    3    0  502  0.40081967515E+03  0.17305087291E+03 -0.16129737251E+03  0.46542438589E+03  0.25500000920E-02 0.  1.
</event>
<event>
 5   0  0.1019384E-02  0.1155029E+04  0.7818609E-02  0.9153156E-01
       -2   -1    0    0    0  501  0.00000000000E+00  0.00000000000E+00  0.71257443335E+03  0.71257443336E+03  0.25500000920E-02 0. -1.
        2   -1    0    0  501    0  0.00000000000E+00  0.00000000000E+00 -0.46805393553E+03  0.46805393553E+03  0.25500000920E-02 0.  1.
    10030    2    1    2    0    0  0.00000000000E+00  0.00000000000E+00  0.24452049783E+03  0.11806283689E+04  0.11550294678E+04 0.  0.
        1    1    3    3  502    0 -0.26024474774E+03  0.57176718133E+02  0.64598963338E+03  0.69878402406E+03  0.50400001928E-02 0. -1.
       -1    1    3    3    0  502  0.26024474774E+03 -0.57176718133E+02 -0.40146913555E+03  0.48184434483E+03  0.50400001928E-02 0.  1.
</event>
<event>
 5   0  0.5854579E-03  0.1100910E+04  0.7818609E-02  0.9204305E-01
        1   -1    0    0  501    0  0.00000000000E+00  0.00000000000E+00  0.85339609773E+03  0.85339609774E+03  0.50400001928E-02 0.  1.
       -1   -1    0    0    0  501  0.00000000000E+00  0.00000000000E+00 -0.35505279313E+03  0.35505279316E+03  0.50400001928E-02 0. -1.
    10030    2    1    2    0    0  0.00000000000E+00  0.00000000000E+00  0.49834330460E+03  0.12084488909E+04  0.11009099294E+04 0.  0.
        4    1    3    3  502    0  0.30743276824E+03  0.40402042280E+03  0.15667993285E+02  0.50793159770E+03  0.12699999809E+01 0. -1.
       -4    1    3    3    0  502 -0.30743276824E+03 -0.40402042280E+03  0.48267531132E+03  0.70051729321E+03  0.12699999809E+01 0.  1.
</event>
<event>
 5   0  0.9719260E-03  0.1099011E+04  0.7818609E-02  0.9206157E-01
       -2   -1    0    0    0  501  0.00000000000E+00  0.00000000000E+00  0.47016668318E+03  0.47016668319E+03  0.25500000920E-02 0.  1.
        2   -1    0    0  501    0  0.00000000000E+00  0.00000000000E+00 -0.64223211538E+03  0.64223211539E+03  0.25500000920E-02 0. -1.
    10030    2    1    2    0    0  0.00000000000E+00  0.00000000000E+00 -0.17206543220E+03  0.11123987986E+04  0.10990107252E+04 0.  0.
        3    1    3    3  502    0  0.26824345536E+03  0.19590524060E+03 -0.52911264689E+03  0.62473483810E+03  0.10100000352E+00 0. -1.
       -3    1    3    3    0  502 -0.26824345536E+03 -0.19590524060E+03  0.35704721469E+03  0.48766396048E+03  0.10100000352E+00 0.  1.
</event>
<event>
 5   0  0.5998641E-03  0.1084075E+04  0.7818609E-02  0.9220854E-01
       -1   -1    0    0    0  501  0.00000000000E+00  0.00000000000E+00  0.37303979447E+03  0.37303979451E+03  0.50400001928E-02 0.  1.
        1   -1    0    0  501    0  0.00000000000E+00  0.00000000000E+00 -0.78759587799E+03  0.78759587801E+03  0.50400001928E-02 0. -1.
    10030    2    1    2    0    0  0.00000000000E+00  0.00000000000E+00 -0.41455608352E+03  0.11606356725E+04  0.10840749134E+04 0.  0.
        3    1    3    3  502    0 -0.27138991551E+03 -0.31606487462E+03 -0.57854677611E+03  0.71292767765E+03  0.10100000352E+00 0. -1.
       -3    1    3    3    0  502  0.27138991551E+03  0.31606487462E+03  0.16399069259E+03  0.44770799487E+03  0.10100000352E+00 0.  1.
</event>
<event>
 5   0  0.5998641E-03  0.1131226E+04  0.7818609E-02  0.9175280E-01
       -1   -1    0    0    0  501  0.00000000000E+00  0.00000000000E+00  0.40082281815E+03  0.40082281818E+03  0.50400001928E-02 0.  1.
        1   -1    0    0  501    0  0.00000000000E+00  0.00000000000E+00 -0.79815352565E+03  0.79815352566E+03  0.50400001928E-02 0. -1.
    10030    2    1    2    0    0  0.00000000000E+00  0.00000000000E+00 -0.39733070750E+03  0.11989763438E+04  0.11312261410E+04 0.  0.
        3    1    3    3  502    0 -0.52447536022E+03  0.20848874272E+03 -0.15934674275E+03  0.58645831390E+03  0.10100000352E+00 0.  1.
       -3    1    3    3    0  502  0.52447536022E+03 -0.20848874272E+03 -0.23798396475E+03  0.61251802994E+03  0.10100000352E+00 0. -1.
</event>
<event>
 5   0  0.5712664E-03  0.9184183E+03  0.7818609E-02  0.9402846E-01
       -1   -1    0    0    0  501  0.00000000000E+00  0.00000000000E+00  0.11648491305E+03  0.11648491316E+03  0.50400001928E-02 0. -1.
        1   -1    0    0  501    0  0.00000000000E+00  0.00000000000E+00 -0.18103032867E+04  0.18103032867E+04  0.50400001928E-02 0.  1.
    10030    2    1    2    0    0  0.00000000000E+00  0.00000000000E+00 -0.16938183736E+04  0.19267881998E+04  0.91841825123E+03 0.  0.
        5    1    3    3  502    0 -0.19808764866E+03 -0.17162730593E+03 -0.16379092186E+04  0.16587535523E+04  0.46999998093E+01 0.  1.
       -5    1    3    3    0  502  0.19808764866E+03  0.17162730593E+03 -0.55909155019E+02  0.26803464759E+03  0.46999998093E+01 0. -1.
</event>
<event>
 5   0  0.1028016E-02  0.1108735E+04  0.7818609E-02  0.9196720E-01
        2   -1    0    0  501    0  0.00000000000E+00  0.00000000000E+00  0.10337091400E+04  0.10337091400E+04  0.25500000920E-02 0.  1.
       -2   -1    0    0    0  501  0.00000000000E+00  0.00000000000E+00 -0.29730159693E+03  0.29730159694E+03  0.25500000920E-02 0. -1.
    10030    2    1    2    0    0  0.00000000000E+00  0.00000000000E+00  0.73640754310E+03  0.13310107370E+04  0.11087350957E+04 0.  0.
        2    1    3    3  502    0 -0.69959481135E+02 -0.53737226773E+03  0.22789635654E+03  0.58787756587E+03  0.25500000920E-02 0.  1.
       -2    1    3    3    0  502  0.69959481135E+02  0.53737226773E+03  0.50851118656E+03  0.74313317110E+03  0.25500000920E-02 0. -1.
</event>
<event>
 5   0  0.9692981E-03  0.1078424E+04  0.7818609E-02  0.9226480E-01
       -2   -1    0    0    0  501  0.00000000000E+00  0.00000000000E+00  0.41823528663E+03  0.41823528663E+03  0.25500000920E-02 0.  1.
        2   -1    0    0  501    0  0.00000000000E+00  0.00000000000E+00 -0.69518218512E+03  0.69518218513E+03  0.25500000920E-02 0. -1.
    10030    2    1    2    0    0  0.00000000000E+00  0.00000000000E+00 -0.27694689850E+03  0.11134174718E+04  0.10784242587E+04 0.  0.
        5    1    3    3  502    0 -0.46665599579E+03 -0.14737168145E+03 -0.37218429927E+03  0.61484101484E+03  0.46999998093E+01 0. -1.
       -5    1    3    3    0  502  0.46665599579E+03  0.14737168145E+03  0.95237400777E+02  0.49857645693E+03  0.46999998093E+01 0.  1.
</event>
<event>
 5   0  0.5854579E-03  0.1092295E+04  0.7818609E-02  0.9212734E-01
       -1   -1    0    0    0  501  0.00000000000E+00  0.00000000000E+00  0.11286328552E+04  0.11286328552E+04  0.50400001928E-02 0.  1.
        1   -1    0    0  501    0  0.00000000000E+00  0.00000000000E+00 -0.26428199190E+03  0.26428199195E+03  0.50400001928E-02 0. -1.
    10030    2    1    2    0    0  0.00000000000E+00  0.00000000000E+00  0.86435086328E+03  0.13929148471E+04  0.10922954529E+04 0.  0.
        4    1    3    3  502    0  0.30499011701E+03  0.36486787677E+03  0.89694062841E+02  0.48393612883E+03  0.12699999809E+01 0. -1.
       -4    1    3    3    0  502 -0.30499011701E+03 -0.36486787677E+03  0.77465680044E+03  0.90897871831E+03  0.12699999809E+01 0.  1.
</event>
<event>
 5   0  0.9925021E-03  0.1005290E+04  0.7818609E-02  0.9302762E-01
        2   -1    0    0  501    0  0.00000000000E+00  0.00000000000E+00  0.43477910048E+03  0.43477910048E+03  0.25500000920E-02 0.  1.
       -2   -1    0    0    0  501  0.00000000000E+00  0.00000000000E+00 -0.58110370464E+03  0.58110370464E+03  0.25500000920E-02 0. -1.
    10030    2    1    2    0    0  0.00000000000E+00  0.00000000000E+00 -0.14632460416E+03  0.10158828051E+04  0.10052895026E+04 0.  0.
        4    1    3    3  502    0  0.13602740900E+03  0.47929629154E+03 -0.59654139012E+01  0.49826257149E+03  0.12699999809E+01 0.  1.
       -4    1    3    3    0  502 -0.13602740900E+03 -0.47929629154E+03 -0.14035919026E+03  0.51762023364E+03  0.12699999809E+01 0. -1.
</event>
<event>
 5   0  0.5712664E-03  0.1106406E+04  0.7818609E-02  0.9198970E-01
       -1   -1    0    0    0  501  0.00000000000E+00  0.00000000000E+00  0.55599160199E+03  0.55599160202E+03  0.50400001928E-02 0. -1.
        1   -1    0    0  501    0  0.00000000000E+00  0.00000000000E+00 -0.55042853307E+03  0.55042853310E+03  0.50400001928E-02 0.  1.
    10030    2    1    2    0    0  0.00000000000E+00  0.00000000000E+00  0.55630689210E+01  0.11064201351E+04  0.11064061495E+04 0.  0.
        5    1    3    3  502    0  0.33893441020E+03  0.88326727172E+01  0.43988773616E+03  0.55540783299E+03  0.46999998093E+01 0. -1.
       -5    1    3    3    0  502 -0.33893441020E+03 -0.88326727172E+01 -0.43432466724E+03  0.55101230213E+03  0.46999998093E+01 0.  1.
</event>
<event>
 5   0  0.1028016E-02  0.1113155E+04  0.7818609E-02  0.9192465E-01
       -2   -1    0    0    0  501  0.00000000000E+00  0.00000000000E+00  0.20616583602E+03  0.20616583604E+03  0.25500000920E-02 0.  1.
        2   -1    0    0  501    0  0.00000000000E+00  0.00000000000E+00 -0.15025685614E+04  0.15025685614E+04  0.25500000920E-02 0. -1.
    10030    2    1    2    0    0  0.00000000000E+00  0.00000000000E+00 -0.12964027253E+04  0.17087343974E+04  0.11131546230E+04 0.  0.
        2    1    3    3  502    0 -0.19681549468E+03  0.65406782744E+02  0.14463326670E+03  0.25285009001E+03  0.25500000920E-02 0.  1.
       -2    1    3    3    0  502  0.19681549468E+03 -0.65406782744E+02 -0.14410359920E+04  0.14558843074E+04  0.25500000920E-02 0. -1.
</event>
<event>
 5   0  0.9719260E-03  0.1033627E+04  0.7818609E-02  0.9272413E-01
       -2   -1    0    0    0  501  0.00000000000E+00  0.00000000000E+00  0.43704461774E+03  0.43704461775E+03  0.25500000920E-02 0. -1.
        2   -1    0    0  501    0  0.00000000000E+00  0.00000000000E+00 -0.61114179940E+03  0.61114179940E+03  0.25500000920E-02 0.  1.
    10030    2    1    2    0    0  0.00000000000E+00  0.00000000000E+00 -0.17409718165E+03  0.10481864172E+04  0.10336270780E+04 0.  0.
        3    1    3    3  502    0 -0.19792005814E+03 -0.29009001862E+03 -0.47156182019E+03  0.58795844137E+03  0.10100000352E+00 0.  1.
       -3    1    3    3    0  502  0.19792005814E+03  0.29009001862E+03  0.29746463853E+03  0.46022797579E+03  0.10100000352E+00 0. -1.
</event>
<event>
 5   0  0.5958706E-03  0.1054089E+04  0.7818609E-02  0.9251132E-01
       -1   -1    0    0    0  501  0.00000000000E+00  0.00000000000E+00  0.31880691628E+03  0.31880691632E+03  0.50400001928E-02 0. -1.
        1   -1    0    0  501    0  0.00000000000E+00  0.00000000000E+00 -0.87129885533E+03  0.87129885534E+03  0.50400001928E-02 0.  1.
    10030    2    1    2    0    0  0.00000000000E+00  0.00000000000E+00 -0.55249193905E+03  0.11901057717E+04  0.10540893724E+04 0.  0.
        2    1    3    3  502    0 -0.39873280153E+03 -0.20769773165E+03  0.34290294984E+02  0.45089025171E+03  0.25500000920E-02 0. -1.
       -2    1    3    3    0  502  0.39873280153E+03  0.20769773165E+03 -0.58678223403E+03  0.73921551995E+03  0.25500000920E-02 0.  1.
</event>
<event>
 5   0  0.5712664E-03  0.8815753E+03  0.7818609E-02  0.9448911E-01
        1   -1    0    0  501    0  0.00000000000E+00  0.00000000000E+00  0.19828199914E+04  0.19828199914E+04  0.50400001928E-02 0.  1.
       -1   -1    0    0    0  501  0.00000000000E+00  0.00000000000E+00 -0.97988605198E+02  0.97988605328E+02  0.50400001928E-02 0. -1.
    10030    2    1    2    0    0  0.00000000000E+00  0.00000000000E+00  0.18848313862E+04  0.20808085967E+04  0.88157532965E+03 0.  0.
        5    1    3    3  502    0 -0.14683232618E+03  0.27190254524E+03  0.16842540811E+04  0.17123739737E+04  0.46999998093E+01 0.  1.
       -5    1    3    3    0  502  0.14683232618E+03 -0.27190254524E+03  0.20057730508E+03  0.36843462301E+03  0.46999998093E+01 0. -1.
</event>
<event>
 5   0  0.9719260E-03  0.1038848E+04  0.7818609E-02  0.9266934E-01
        2   -1    0    0  501    0  0.00000000000E+00  0.00000000000E+00  0.50553460252E+03  0.50553460253E+03  0.25500000920E-02 0.  1.
       -2   -1    0    0    0  501  0.00000000000E+00  0.00000000000E+00 -0.53369494849E+03  0.53369494850E+03  0.25500000920E-02 0. -1.
    10030    2    1    2    0    0  0.00000000000E+00  0.00000000000E+00 -0.28160345968E+02  0.10392295510E+04  0.10388479459E+04 0.  0.
        3    1    3    3  502    0 -0.34456810093E+03 -0.36101906254E+03 -0.15814457909E+03  0.52351853625E+03  0.10100000352E+00 0. -1.
       -3    1    3    3    0  502  0.34456810093E+03  0.36101906254E+03  0.12998423312E+03  0.51571101477E+03  0.10100000352E+00 0.  1.
</event>
<event>
 5   0  0.9719260E-03  0.1123391E+04  0.7818609E-02  0.9182688E-01
        2   -1    0    0  501    0  0.00000000000E+00  0.00000000000E+00  0.14718429267E+04  0.14718429267E+04  0.25500000920E-02 0. -1.
       -2   -1    0    0    0  501  0.00000000000E+00  0.00000000000E+00 -0.21435852710E+03  0.21435852712E+03  0.25500000920E-02 0.  1.
    10030    2    1    2    0    0  0.00000000000E+00  0.00000000000E+00  0.12574843995E+04  0.16862014538E+04  0.11233914401E+04 0.  0.
        3    1    3    3  502    0  0.82580624454E+02 -0.27131028615E+03 -0.99004000208E+02  0.30038414266E+03  0.10100000352E+00 0.  1.
       -3    1    3    3    0  502 -0.82580624454E+02  0.27131028615E+03  0.13564883998E+04  0.13858173111E+04  0.10100000352E+00 0. -1.
</event>
<event>
 5   0  0.1028016E-02  0.1118573E+04  0.7818609E-02  0.9187276E-01
        2   -1    0    0  501    0  0.00000000000E+00  0.00000000000E+00  0.59462443438E+03  0.59462443438E+03  0.25500000920E-02 0. -1.
       -2   -1    0    0    0  501  0.00000000000E+00  0.00000000000E+00 -0.52604881539E+03  0.52604881539E+03  0.25500000920E-02 0.  1.
    10030    2    1    2    0    0  0.00000000000E+00  0.00000000000E+00  0.68575618991E+02  0.11206732498E+04  0.11185731613E+04 0.  0.
        2    1    3    3  502    0  0.21527869388E+03  0.40262800231E+03  0.35792254293E+03  0.58014030288E+03  0.25500000920E-02 0. -1.
       -2    1    3    3    0  502 -0.21527869388E+03 -0.40262800231E+03 -0.28934692394E+03  0.54053294690E+03  0.25500000920E-02 0.  1.
</event>
<event>
 5   0  0.5789905E-03  0.9928088E+03  0.7818609E-02  0.9316467E-01
       -1   -1    0    0    0  501  0.00000000000E+00  0.00000000000E+00  0.36006544322E+03  0.36006544325E+03  0.50400001928E-02 0. -1.
        1   -1    0    0  501    0  0.00000000000E+00  0.00000000000E+00 -0.68436817216E+03  0.68436817218E+03  0.50400001928E-02 0.  1.
    10030    2    1    2    0    0  0.00000000000E+00  0.00000000000E+00 -0.32430272894E+03  0.10444336154E+04  0.99280880185E+03 0.  0.
        1    1    3    3  502    0  0.16379466216E+03  0.25232220321E+03  0.25325114992E+03  0.39323190428E+03  0.50400001928E-02 0. -1.
       -1    1    3    3    0  502 -0.16379466216E+03 -0.25232220321E+03 -0.57755387886E+03  0.65120171114E+03  0.50400001928E-02 0.  1.
</event>
<event>
 5   0  0.9925021E-03  0.1119022E+04  0.7818609E-02  0.9186848E-01
       -2   -1    0    0    0  501  0.00000000000E+00  0.00000000000E+00  0.83482287119E+03  0.83482287120E+03  0.25500000920E-02 0.  1.
        2   -1    0    0  501    0  0.00000000000E+00  0.00000000000E+00 -0.37499255242E+03  0.37499255243E+03  0.25500000920E-02 0. -1.
    10030    2    1    2    0    0  0.00000000000E+00  0.00000000000E+00  0.45983031878E+03  0.12098154236E+04  0.11190216429E+04 0.  0.
        4    1    3    3  502    0  0.51372979950E+03 -0.17017370123E+03  0.38347217118E+03  0.66327212700E+03  0.12699999809E+01 0.  1.
       -4    1    3    3    0  502 -0.51372979950E+03  0.17017370123E+03  0.76358147593E+02  0.54654329663E+03  0.12699999809E+01 0. -1.
</event>
<event>
 5   0  0.9719260E-03  0.1074144E+04  0.7818609E-02  0.9230766E-01
        2   -1    0    0  501    0  0.00000000000E+00  0.00000000000E+00  0.88406545267E+03  0.88406545267E+03  0.25500000920E-02 0. -1.
       -2   -1    0    0    0  501  0.00000000000E+00  0.00000000000E+00 -0.32627271285E+03  0.32627271286E+03  0.25500000920E-02 0.  1.
    10030    2    1    2    0    0  0.00000000000E+00  0.00000000000E+00  0.55779273982E+03  0.12103381655E+04  0.10741441869E+04 0.  0.
        3    1    3    3  502    0  0.30345882699E+03 -0.41433323755E+03  0.10185308260E+03  0.52357745564E+03  0.10100000352E+00 0.  1.
       -3    1    3    3    0  502 -0.30345882699E+03  0.41433323755E+03  0.45593965722E+03  0.68676070989E+03  0.10100000352E+00 0. -1.
</event>
<event>
 5   0  0.3949750E-03  0.1061130E+04  0.7818609E-02  0.9243927E-01
        4   -1    0    0  501    0  0.00000000000E+00  0.00000000000E+00  0.30951858265E+03  0.30952118813E+03  0.12699999809E+01 0. -1.
       -4   -1    0    0    0  501  0.00000000000E+00  0.00000000000E+00 -0.90946812029E+03  0.90946900701E+03  0.12699999809E+01 0.  1.
    10030    2    1    2    0    0  0.00000000000E+00  0.00000000000E+00 -0.59994953764E+03  0.12189901951E+04  0.10611303634E+04 0.  0.
        4    1    3    3  502    0 -0.36468753553E+03 -0.26684044648E+03  0.19408914096E+02  0.45230425743E+03  0.12699999809E+01 0. -1.
       -4    1    3    3    0  502  0.36468753553E+03  0.26684044648E+03 -0.61935845174E+03  0.76668593771E+03  0.12699999809E+01 0.  1.
</event>
<event>
 5   0  0.5854579E-03  0.1088116E+04  0.7818609E-02  0.9216852E-01
        1   -1    0    0  501    0  0.00000000000E+00  0.00000000000E+00  0.62372202433E+03  0.62372202435E+03  0.50400001928E-02 0.  1.
       -1   -1    0    0    0  501  0.00000000000E+00  0.00000000000E+00 -0.47456930774E+03  0.47456930777E+03  0.50400001928E-02 0. -1.
    10030    2    1    2    0    0  0.00000000000E+00  0.00000000000E+00  0.14915271658E+03  0.10982913321E+04  0.10881164080E+04 0.  0.
        4    1    3    3  502    0  0.12142583513E+03  0.92395451443E+02  0.60168235226E+03  0.62072894149E+03  0.12699999809E+01 0.  1.
       -4    1    3    3    0  502 -0.12142583513E+03 -0.92395451443E+02 -0.45252963567E+03  0.47756239063E+03  0.12699999809E+01 0. -1.
</event>
<event>
 5   0  0.1019384E-02  0.1085756E+04  0.7818609E-02  0.9219187E-01
       -2   -1    0    0    0  501  0.00000000000E+00  0.00000000000E+00  0.17800276358E+03  0.17800276360E+03  0.25500000920E-02 0. -1.
        2   -1    0    0  501    0  0.00000000000E+00  0.00000000000E+00 -0.16556858846E+04  0.16556858846E+04  0.25500000920E-02 0.  1.
    10030    2    1    2    0    0  0.00000000000E+00  0.00000000000E+00 -0.14776831210E+04  0.18336886482E+04  0.10857562583E+04 0.  0.
        1    1    3    3  502    0  0.14888283053E+03  0.16816500917E+03  0.95856290150E+02  0.24420072875E+03  0.50400001928E-02 0. -1.
       -1    1    3    3    0  502 -0.14888283053E+03 -0.16816500917E+03 -0.15735394112E+04  0.15894879194E+04  0.50400001928E-02 0.  1.
</event>
<event>
 5   0  0.5712664E-03  0.1131342E+04  0.7818609E-02  0.9175171E-01
       -1   -1    0    0    0  501  0.00000000000E+00  0.00000000000E+00  0.48644211678E+03  0.48644211680E+03  0.50400001928E-02 0.  1.
        1   -1    0    0  501    0  0.00000000000E+00  0.00000000000E+00 -0.65780440398E+03  0.65780440400E+03  0.50400001928E-02 0. -1.
    10030    2    1    2    0    0  0.00000000000E+00  0.00000000000E+00 -0.17136228720E+03  0.11442465208E+04  0.11313421529E+04 0.  0.
        5    1    3    3  502    0  0.20857099414E+03  0.44767160366E+03 -0.36459822045E+03  0.61389386434E+03  0.46999998093E+01 0. -1.
       -5    1    3    3    0  502 -0.20857099414E+03 -0.44767160366E+03  0.19323593325E+03  0.53035265646E+03  0.46999998093E+01 0.  1.
</event>
<event>
 5   0  0.5854579E-03  0.8762098E+03  0.7818609E-02  0.9455819E-01
       -1   -1    0    0    0  501  0.00000000000E+00  0.00000000000E+00  0.12151296869E+03  0.12151296879E+03  0.50400001928E-02 0.  1.
        1   -1    0    0  501    0  0.00000000000E+00  0.00000000000E+00 -0.15795507905E+04  0.15795507905E+04  0.50400001928E-02 0. -1.
    10030    2    1    2    0    0  0.00000000000E+00  0.00000000000E+00 -0.14580378218E+04  0.17010637593E+04  0.87620980557E+03 0.  0.
        4    1    3    3  502    0  0.25298559165E+03 -0.35168698055E+03 -0.60247296461E+03  0.74206517763E+03  0.12699999809E+01 0.  1.
       -4    1    3    3    0  502 -0.25298559165E+03  0.35168698055E+03 -0.85556485720E+03  0.95899858167E+03  0.12699999809E+01 0. -1.
</event>
<event>
 5   0  0.9719260E-03  0.1102240E+04  0.7818609E-02  0.9203012E-01
       -2   -1    0    0    0  501  0.00000000000E+00  0.00000000000E+00  0.35439607803E+03  0.35439607804E+03  0.25500000920E-02 0. -1.
        2   -1    0    0  501    0  0.00000000000E+00  0.00000000000E+00 -0.85704409203E+03  0.85704409203E+03  0.25500000920E-02 0.  1.
    10030    2    1    2    0    0  0.00000000000E+00  0.00000000000E+00 -0.50264801400E+03  0.12114401701E+04  0.11022396562E+04 0.  0.
        3    1    3    3  502    0 -0.57937775367E+02 -0.15326961698E+03 -0.82965359565E+03  0.84567928926E+03  0.10100000352E+00 0.  1.
       -3    1    3    3    0  502  0.57937775367E+02  0.15326961698E+03  0.32700558165E+03  0.36576088082E+03  0.10100000352E+00 0. -1.
</event>
<event>
 5   0  0.5854579E-03  0.1083619E+04  0.7818609E-02  0.9221307E-01
       -1   -1    0    0    0  501  0.00000000000E+00  0.00000000000E+00  0.26583148243E+03  0.26583148247E+03  0.50400001928E-02 0. -1.
        1   -1    0    0  501    0  0.00000000000E+00  0.00000000000E+00 -0.11042986013E+04  0.11042986013E+04  0.50400001928E-02 0.  1.
    10030    2    1    2    0    0  0.00000000000E+00  0.00000000000E+00 -0.83846711891E+03  0.13701300838E+04  0.10836186308E+04 0.  0.
        4    1    3    3  502    0  0.84194459725E+02 -0.52238950028E+03 -0.56655801391E+03  0.77522196374E+03  0.12699999809E+01 0.  1.
       -4    1    3    3    0  502 -0.84194459725E+02  0.52238950028E+03 -0.27190910500E+03  0.59490812007E+03  0.12699999809E+01 0. -1.
</event>
<event>
 5   0  0.5789905E-03  0.1074982E+04  0.7818609E-02  0.9229925E-01
       -1   -1    0    0    0  501  0.00000000000E+00  0.00000000000E+00  0.40740021036E+03  0.40740021039E+03  0.50400001928E-02 0.  1.
        1   -1    0    0  501    0  0.00000000000E+00  0.00000000000E+00 -0.70912271535E+03  0.70912271537E+03  0.50400001928E-02 0. -1.
    10030    2    1    2    0    0  0.00000000000E+00  0.00000000000E+00 -0.30172250499E+03  0.11165229258E+04  0.10749823132E+04 0.  0.
        1    1    3    3  502    0  0.64070167003E+02  0.29341173870E+03 -0.61384600634E+03  0.68337570503E+03  0.50400001928E-02 0. -1.
       -1    1    3    3    0  502 -0.64070167003E+02 -0.29341173870E+03  0.31212350135E+03  0.43314722073E+03  0.50400001928E-02 0.  1.
</event>
<event>
 5   0  0.5958706E-03  0.1091291E+04  0.7818609E-02  0.9213722E-01
        1   -1    0    0  501    0  0.00000000000E+00  0.00000000000E+00  0.37901129437E+03  0.37901129440E+03  0.50400001928E-02 0.  1.
       -1   -1    0    0    0  501  0.00000000000E+00  0.00000000000E+00 -0.78554155518E+03  0.78554155520E+03  0.50400001928E-02 0. -1.
    10030    2    1    2    0    0  0.00000000000E+00  0.00000000000E+00 -0.40653026082E+03  0.11645528496E+04  0.10912912015E+04 0.  0.
        2    1    3    3  502    0  0.15208584048E+03  0.57897366288E+02  0.35251235744E+03  0.38826172880E+03  0.25500000920E-02 0.  1.
       -2    1    3    3    0  502 -0.15208584048E+03 -0.57897366288E+02 -0.75904261826E+03  0.77629112080E+03  0.25500000920E-02 0. -1.
</event>
<event>
 5   0  0.1019384E-02  0.1114789E+04  0.7818609E-02  0.9190896E-01
       -2   -1    0    0    0  501  0.00000000000E+00  0.00000000000E+00  0.19259288176E+03  0.19259288178E+03  0.25500000920E-02 0. -1.
        2   -1    0    0  501    0  0.00000000000E+00  0.00000000000E+00 -0.16131895017E+04  0.16131895017E+04  0.25500000920E-02 0.  1.
    10030    2    1    2    0    0  0.00000000000E+00  0.00000000000E+00 -0.14205966199E+04  0.18057823834E+04  0.11147893343E+04 0.  0.
        1    1    3    3  502    0  0.13981198797E+03  0.72823074190E+02  0.15573133476E+03  0.22159160807E+03  0.50400001928E-02 0. -1.
       -1    1    3    3    0  502 -0.13981198797E+03 -0.72823074190E+02 -0.15763279546E+04  0.15841907754E+04  0.50400001928E-02 0.  1.
</event>
<event>
 5   0  0.5712664E-03  0.1131201E+04  0.7818609E-02  0.9175304E-01
        1   -1    0    0  501    0  0.00000000000E+00  0.00000000000E+00  0.99697864902E+03  0.99697864903E+03  0.50400001928E-02 0. -1.
       -1   -1    0    0    0  501  0.00000000000E+00  0.00000000000E+00 -0.32087349124E+03  0.32087349127E+03  0.50400001928E-02 0.  1.
    10030    2    1    2    0    0  0.00000000000E+00  0.00000000000E+00  0.67610515779E+03  0.13178521403E+04  0.11312011666E+04 0.  0.
        5    1    3    3  502    0  0.39011968672E+03 -0.24953392827E+02 -0.13812696390E+03  0.41462897865E+03  0.46999998093E+01 0.  1.
       -5    1    3    3    0  502 -0.39011968672E+03  0.24953392827E+02  0.81423212168E+03  0.90322316166E+03  0.46999998093E+01 0. -1.
</event>
<event>
 5   0  0.9719260E-03  0.1130015E+04  0.7818609E-02  0.9176421E-01
       -2   -1    0    0    0  501  0.00000000000E+00  0.00000000000E+00  0.61615983572E+03  0.61615983572E+03  0.25500000920E-02 0. -1.
        2   -1    0    0  501    0  0.00000000000E+00  0.00000000000E+00 -0.51810180357E+03  0.51810180358E+03  0.25500000920E-02 0.  1.
    10030    2    1    2    0    0  0.00000000000E+00  0.00000000000E+00  0.98058032146E+02  0.11342616393E+04  0.11300150834E+04 0.  0.
        3    1    3    3  502    0  0.47936060868E+03  0.18197209310E+03  0.28726685320E+03  0.58772671453E+03  0.10100000352E+00 0.  1.
       -3    1    3    3    0  502 -0.47936060868E+03 -0.18197209310E+03 -0.18920882105E+03  0.54653492477E+03  0.10100000352E+00 0. -1.
</event>
<event>
 5   0  0.1028016E-02  0.1099079E+04  0.7818609E-02  0.9206090E-01
       -2   -1    0    0    0  501  0.00000000000E+00  0.00000000000E+00  0.89940073823E+03  0.89940073824E+03  0.25500000920E-02 0.  1.
        2   -1    0    0  501    0  0.00000000000E+00  0.00000000000E+00 -0.33577218579E+03  0.33577218580E+03  0.25500000920E-02 0. -1.
    10030    2    1    2    0    0  0.00000000000E+00  0.00000000000E+00  0.56362855245E+03  0.12351729240E+04  0.10990791633E+04 0.  0.
        2    1    3    3  502    0  0.98669541020E+02  0.49588704415E+03  0.52377391400E+03  0.72799639550E+03  0.25500000920E-02 0.  1.
       -2    1    3    3    0  502 -0.98669541020E+02 -0.49588704415E+03  0.39854638451E+02  0.50717652853E+03  0.25500000920E-02 0. -1.
</event>
<event>
 5   0  0.9925021E-03  0.1091795E+04  0.7818609E-02  0.9213226E-01
        2   -1    0    0  501    0  0.00000000000E+00  0.00000000000E+00  0.58719160787E+03  0.58719160787E+03  0.25500000920E-02 0.  1.
       -2   -1    0    0    0  501  0.00000000000E+00  0.00000000000E+00 -0.50750716260E+03  0.50750716261E+03  0.25500000920E-02 0. -1.
    10030    2    1    2    0    0  0.00000000000E+00  0.00000000000E+00  0.79684445264E+02  0.10946987705E+04  0.10917947551E+04 0.  0.
        4    1    3    3  502    0  0.40705159305E+03 -0.48894433254E+02 -0.32156160728E+03  0.52104236410E+03  0.12699999809E+01 0. -1.
       -4    1    3    3    0  502 -0.40705159305E+03  0.48894433254E+02  0.40124605254E+03  0.57365640639E+03  0.12699999809E+01 0.  1.
</event>
<event>
 5   0  0.9719260E-03  0.9629141E+03  0.7818609E-02  0.9350182E-01
        2   -1    0    0  501    0  0.00000000000E+00  0.00000000000E+00  0.81715852467E+03  0.81715852467E+03  0.25500000920E-02 0. -1.
       -2   -1    0    0    0  501  0.00000000000E+00  0.00000000000E+00 -0.28366696709E+03  0.28366696710E+03  0.25500000920E-02 0.  1.
    10030    2    1    2    0    0  0.00000000000E+00  0.00000000000E+00  0.53349155758E+03  0.11008254918E+04  0.96291407785E+03 0.  0.
        3    1    3    3  502    0  0.34779118003E+03 -0.25040414112E+03  0.51757820274E+03  0.67197332160E+03  0.10100000352E+00 0. -1.
       -3    1    3    3    0  502 -0.34779118003E+03  0.25040414112E+03  0.15913354843E+02  0.42885217017E+03  0.10100000352E+00 0.  1.
</event>
<event>
 5   0  0.5789905E-03  0.1133591E+04  0.7818609E-02  0.9173057E-01
       -1   -1    0    0    0  501  0.00000000000E+00  0.00000000000E+00  0.62849108769E+03  0.62849108771E+03  0.50400001928E-02 0. -1.
        1   -1    0    0  501    0  0.00000000000E+00  0.00000000000E+00 -0.51115612675E+03  0.51115612678E+03  0.50400001928E-02 0.  1.
    10030    2    1    2    0    0  0.00000000000E+00  0.00000000000E+00  0.11733496094E+03  0.11396472145E+04  0.11335908788E+04 0.  0.
        1    1    3    3  502    0  0.45994128263E+03  0.10237161625E+01 -0.27432718370E+03  0.53553938716E+03  0.50400001928E-02 0.  1.
       -1    1    3    3    0  502 -0.45994128263E+03 -0.10237161625E+01  0.39166214464E+03  0.60410782732E+03  0.50400001928E-02 0. -1.
</event>
<event>
 5   0  0.5712664E-03  0.1098166E+04  0.7818609E-02  0.9206982E-01
       -1   -1    0    0    0  501  0.00000000000E+00  0.00000000000E+00  0.79945041678E+03  0.79945041679E+03  0.50400001928E-02 0. -1.
        1   -1    0    0  501    0  0.00000000000E+00  0.00000000000E+00 -0.37712397727E+03  0.37712397730E+03  0.50400001928E-02 0.  1.
    10030    2    1    2    0    0  0.00000000000E+00  0.00000000000E+00  0.42232643951E+03  0.11765743941E+04  0.10981655992E+04 0.  0.
        5    1    3    3  502    0  0.13538773223E+03  0.25296863503E+03 -0.29039249848E+03  0.40825587751E+03  0.46999998093E+01 0.  1.
       -5    1    3    3    0  502 -0.13538773223E+03 -0.25296863503E+03  0.71271893799E+03  0.76831851658E+03  0.46999998093E+01 0. -1.
</event>
<event>
 5   0  0.5712664E-03  0.1114843E+04  0.7818609E-02  0.9190844E-01
       -1   -1    0    0    0  501  0.00000000000E+00  0.00000000000E+00  0.12954068211E+03  0.12954068221E+03  0.50400001928E-02 0.  1.
        1   -1    0    0  501    0  0.00000000000E+00  0.00000000000E+00 -0.23986193809E+04  0.23986193809E+04  0.50400001928E-02 0. -1.
    10030    2    1    2    0    0  0.00000000000E+00  0.00000000000E+00 -0.22690786988E+04  0.25281600631E+04  0.11148431116E+04 0.  0.
        5    1    3    3  502    0 -0.80639742625E+02  0.21513027376E+02  0.11524608631E+03  0.14237039315E+03  0.46999998093E+01 0.  1.
       -5    1    3    3    0  502  0.80639742625E+02 -0.21513027376E+02 -0.23843247851E+04  0.23857896700E+04  0.46999998093E+01 0. -1.
</event>
<event>
 5   0  0.9925021E-03  0.1097229E+04  0.7818609E-02  0.9207897E-01
        2   -1    0    0  501    0  0.00000000000E+00  0.00000000000E+00  0.67621989502E+03  0.67621989503E+03  0.25500000920E-02 0. -1.
       -2   -1    0    0    0  501  0.00000000000E+00  0.00000000000E+00 -0.44508868770E+03  0.44508868771E+03  0.25500000920E-02 0.  1.
    10030    2    1    2    0    0  0.00000000000E+00  0.00000000000E+00  0.23113120732E+03  0.11213085827E+04  0.10972289199E+04 0.  0.
        4    1    3    3  502    0 -0.45021660993E+02  0.31346965047E+03  0.57337687762E+03  0.65502124272E+03  0.12699999809E+01 0. -1.
       -4    1    3    3    0  502  0.45021660993E+02 -0.31346965047E+03 -0.34224567030E+03  0.46628734002E+03  0.12699999809E+01 0.  1.
</event>
<event>
 5   0  0.1028016E-02  0.1077772E+04  0.7818609E-02  0.9227132E-01
        2   -1    0    0  501    0  0.00000000000E+00  0.00000000000E+00  0.10787991888E+04  0.10787991889E+04  0.25500000920E-02 0. -1.
       -2   -1    0    0    0  501  0.00000000000E+00  0.00000000000E+00 -0.26918647228E+03  0.26918647229E+03  0.25500000920E-02 0.  1.
    10030    2    1    2    0    0  0.00000000000E+00  0.00000000000E+00  0.80961271657E+03  0.13479856611E+04  0.10777720500E+04 0.  0.
        2    1    3    3  502    0  0.19543158929E+02  0.21677726625E+03  0.10213769208E+04  0.10443108410E+04  0.25500000920E-02 0. -1.
       -2    1    3    3    0  502 -0.19543158929E+02 -0.21677726625E+03 -0.21176420421E+03  0.30367482019E+03  0.25500000920E-02 0.  1.
</event>
<event>
 5   0  0.5958706E-03  0.1095939E+04  0.7818609E-02  0.9209159E-01
       -1   -1    0    0    0  501  0.00000000000E+00  0.00000000000E+00  0.88721983592E+03  0.88721983593E+03  0.50400001928E-02 0.  1.
        1   -1    0    0  501    0  0.00000000000E+00  0.00000000000E+00 -0.33843965499E+03  0.33843965502E+03  0.50400001928E-02 0. -1.
    10030    2    1    2    0    0  0.00000000000E+00  0.00000000000E+00  0.54878018093E+03  0.12256594910E+04  0.10959386392E+04 0.  0.
        2    1    3    3  502    0  0.44192184867E+03  0.39811901566E+01  0.63671207577E+03  0.77505679640E+03  0.25500000920E-02 0.  1.
       -2    1    3    3    0  502 -0.44192184867E+03 -0.39811901566E+01 -0.87931894838E+02  0.45060269456E+03  0.25500000920E-02 0. -1.
</event>
<event>
 5   0  0.9692981E-03  0.1091018E+04  0.7818609E-02  0.9213991E-01
        2   -1    0    0  501    0  0.00000000000E+00  0.00000000000E+00  0.11007285954E+04  0.11007285954E+04  0.25500000920E-02 0.  1.
       -2   -1    0    0    0  501  0.00000000000E+00  0.00000000000E+00 -0.27034822181E+03  0.27034822182E+03  0.25500000920E-02 0. -1.
    10030    2    1    2    0    0  0.00000000000E+00  0.00000000000E+00  0.83038037363E+03  0.13710768173E+04  0.10910179072E+04 0.  0.
        5    1    3    3  502    0 -0.30831836707E+03 -0.36661818488E+03  0.74311011572E+03  0.88414017161E+03  0.46999998093E+01 0. -1.
       -5    1    3    3    0  502  0.30831836707E+03  0.36661818488E+03  0.87270257905E+02  0.48693664565E+03  0.46999998093E+01 0.  1.
</event>
<event>
 5   0  0.1019384E-02  0.1014511E+04  0.7818609E-02  0.9292771E-01
        2   -1    0    0  501    0  0.00000000000E+00  0.00000000000E+00  0.15587230420E+04  0.15587230420E+04  0.25500000920E-02 0.  1.
       -2   -1    0    0    0  501  0.00000000000E+00  0.00000000000E+00 -0.16507623458E+03  0.16507623460E+03  0.25500000920E-02 0. -1.
    10030    2    1    2    0    0  0.00000000000E+00  0.00000000000E+00  0.13936468074E+04  0.17237992766E+04  0.10145109769E+04 0.  0.
        1    1    3    3  502    0 -0.13316478380E+03 -0.48449759084E+03  0.57864613731E+03  0.76635639713E+03  0.50400001928E-02 0.  1.
       -1    1    3    3    0  502  0.13316478380E+03  0.48449759084E+03  0.81500067012E+03  0.95744287949E+03  0.50400001928E-02 0. -1.
</event>
<event>
 5   0  0.5854579E-03  0.1087137E+04  0.7818609E-02  0.9217820E-01
        1   -1    0    0  501    0  0.00000000000E+00  0.00000000000E+00  0.59110752394E+03  0.59110752397E+03  0.50400001928E-02 0.  1.
       -1   -1    0    0    0  501  0.00000000000E+00  0.00000000000E+00 -0.49985296213E+03  0.49985296215E+03  0.50400001928E-02 0. -1.
    10030    2    1    2    0    0  0.00000000000E+00  0.00000000000E+00  0.91254561816E+02  0.10909604861E+04  0.10871372440E+04 0.  0.
        4    1    3    3  502    0 -0.36626140230E+03 -0.58372564961E+02  0.44440427897E+03  0.57883637344E+03  0.12699999809E+01 0.  1.
       -4    1    3    3    0  502  0.36626140230E+03  0.58372564961E+02 -0.35314971715E+03  0.51212411267E+03  0.12699999809E+01 0. -1.
</event>
<event>
 5   0  0.5712664E-03  0.9408554E+03  0.7818609E-02  0.9375903E-01
        1   -1    0    0  501    0  0.00000000000E+00  0.00000000000E+00  0.48764534010E+03  0.48764534013E+03  0.50400001928E-02 0.  1.
       -1   -1    0    0    0  501  0.00000000000E+00  0.00000000000E+00 -0.45381799551E+03  0.45381799554E+03  0.50400001928E-02 0. -1.
    10030    2    1    2    0    0  0.00000000000E+00  0.00000000000E+00  0.33827344590E+02  0.94146333567E+03  0.94085542097E+03 0.  0.
        5    1    3    3  502    0 -0.37960115985E+03  0.24400234810E+03  0.14983757862E+03  0.47550770384E+03  0.46999998093E+01 0. -1.
       -5    1    3    3    0  502  0.37960115985E+03 -0.24400234810E+03 -0.11601023403E+03  0.46595563184E+03  0.46999998093E+01 0.  1.
</event>
<event>
 5   0  0.5789905E-03  0.1103444E+04  0.7818609E-02  0.9201841E-01
        1   -1    0    0  501    0  0.00000000000E+00  0.00000000000E+00  0.75946921716E+03  0.75946921718E+03  0.50400001928E-02 0.  1.
       -1   -1    0    0    0  501  0.00000000000E+00  0.00000000000E+00 -0.40080269546E+03  0.40080269549E+03  0.50400001928E-02 0. -1.
    10030    2    1    2    0    0  0.00000000000E+00  0.00000000000E+00  0.35866652170E+03  0.11602719127E+04  0.11034442612E+04 0.  0.
        1    1    3    3  502    0  0.42487984175E+03  0.35071131528E+03  0.14821164632E+03  0.57051555519E+03  0.50400001928E-02 0. -1.
       -1    1    3    3    0  502 -0.42487984175E+03 -0.35071131528E+03  0.21045487539E+03  0.58975635748E+03  0.50400001928E-02 0.  1.
</event>
<event>
 5   0  0.5998641E-03  0.1097684E+04  0.7818609E-02  0.9207453E-01
        1   -1    0    0  501    0  0.00000000000E+00  0.00000000000E+00  0.12918377824E+04  0.12918377824E+04  0.50400001928E-02 0.  1.
       -1   -1    0    0    0  501  0.00000000000E+00  0.00000000000E+00 -0.23317734386E+03  0.23317734391E+03  0.50400001928E-02 0. -1.
    10030    2    1    2    0    0  0.00000000000E+00  0.00000000000E+00  0.10586604386E+04  0.15250151263E+04  0.10976835662E+04 0.  0.
        3    1    3    3  502    0 -0.39153307882E+02 -0.54404576788E+03  0.61393539391E+03  0.82124019456E+03  0.10100000352E+00 0.  1.
       -3    1    3    3    0  502  0.39153307882E+02  0.54404576788E+03  0.44472504465E+03  0.70377493178E+03  0.10100000352E+00 0. -1.
</event>
<event>
 5   0  0.9719260E-03  0.1055053E+04  0.7818609E-02  0.9250142E-01
       -2   -1    0    0    0  501  0.00000000000E+00  0.00000000000E+00  0.26588447362E+03  0.26588447363E+03  0.25500000920E-02 0.  1.
        2   -1    0    0  501    0  0.00000000000E+00  0.00000000000E+00 -0.10466361829E+04  0.10466361829E+04  0.25500000920E-02 0. -1.
    10030    2    1    2    0    0  0.00000000000E+00  0.00000000000E+00 -0.78075170924E+03  0.13125206565E+04  0.10550531940E+04 0.  0.
        3    1    3    3  502    0  0.13854894441E+03 -0.29726081710E+03  0.12364378330E+03  0.35049621786E+03  0.10100000352E+00 0.  1.
       -3    1    3    3    0  502 -0.13854894441E+03  0.29726081710E+03 -0.90439549254E+03  0.96202443863E+03  0.10100000352E+00 0. -1.
</event>
<event>
 5   0  0.1019384E-02  0.7908953E+03  0.7818609E-02  0.9573290E-01
       -2   -1    0    0    0  501  0.00000000000E+00  0.00000000000E+00  0.18681682289E+03  0.18681682291E+03  0.25500000920E-02 0. -1.
        2   -1    0    0  501    0  0.00000000000E+00  0.00000000000E+00 -0.83707052528E+03  0.83707052529E+03  0.25500000920E-02 0.  1.
    10030    2    1    2    0    0  0.00000000000E+00  0.00000000000E+00 -0.65025370239E+03  0.10238873482E+04  0.79089533082E+03 0.  0.
        1    1    3    3  502    0 -0.34774573926E+03  0.52304707225E+02 -0.90966643100E+02  0.36323244865E+03  0.50400001928E-02 0. -1.
       -1    1    3    3    0  502  0.34774573926E+03 -0.52304707225E+02 -0.55928705929E+03  0.66065489954E+03  0.50400001928E-02 0.  1.
</event>
<event>
 5   0  0.5712664E-03  0.1093751E+04  0.7818609E-02  0.9211304E-01
        1   -1    0    0  501    0  0.00000000000E+00  0.00000000000E+00  0.89456630187E+03  0.89456630189E+03  0.50400001928E-02 0.  1.
       -1   -1    0    0    0  501  0.00000000000E+00  0.00000000000E+00 -0.33432142656E+03  0.33432142660E+03  0.50400001928E-02 0. -1.
    10030    2    1    2    0    0  0.00000000000E+00  0.00000000000E+00  0.56024487532E+03  0.12288877285E+04  0.10937507618E+04 0.  0.
        5    1    3    3  502    0  0.29383448634E+03 -0.19588145405E+03 -0.18900980016E+03  0.40056840110E+03  0.46999998093E+01 0. -1.
       -5    1    3    3    0  502 -0.29383448634E+03  0.19588145405E+03  0.74925467548E+03  0.82831932739E+03  0.46999998093E+01 0.  1.
</event>
<event>
 5   0  0.9925021E-03  0.1159960E+04  0.7818609E-02  0.9148644E-01
        2   -1    0    0  501    0  0.00000000000E+00  0.00000000000E+00  0.93609668448E+03  0.93609668448E+03  0.25500000920E-02 0.  1.
       -2   -1    0    0    0  501  0.00000000000E+00  0.00000000000E+00 -0.35933997983E+03  0.35933997983E+03  0.25500000920E-02 0. -1.
    10030    2    1    2    0    0  0.00000000000E+00  0.00000000000E+00  0.57675670466E+03  0.12954366643E+04  0.11599602816E+04 0.  0.
        4    1    3    3  502    0  0.36203409874E+03 -0.42632291149E+03  0.45978144413E+03  0.72403073331E+03  0.12699999809E+01 0. -1.
       -4    1    3    3    0  502 -0.36203409874E+03  0.42632291149E+03  0.11697526052E+03  0.57140593101E+03  0.12699999809E+01 0.  1.
</event>
<event>
 5   0  0.5958706E-03  0.1055771E+04  0.7818609E-02  0.9249406E-01
       -1   -1    0    0    0  501  0.00000000000E+00  0.00000000000E+00  0.68234247055E+03  0.68234247057E+03  0.50400001928E-02 0.  1.
        1   -1    0    0  501    0  0.00000000000E+00  0.00000000000E+00 -0.40839160736E+03  0.40839160739E+03  0.50400001928E-02 0. -1.
    10030    2    1    2    0    0  0.00000000000E+00  0.00000000000E+00  0.27395086319E+03  0.10907340780E+04  0.10557706917E+04 0.  0.
        2    1    3    3  502    0  0.29443880323E+03 -0.17981344602E+03 -0.27580062755E+03  0.44169341220E+03  0.25500000920E-02 0.  1.
       -2    1    3    3    0  502 -0.29443880323E+03  0.17981344602E+03  0.54975149075E+03  0.64904066575E+03  0.25500000920E-02 0. -1.
</event>
<event>
 5   0  0.9692981E-03  0.1140142E+04  0.7818609E-02  0.9166927E-01
       -2   -1    0    0    0  501  0.00000000000E+00  0.00000000000E+00  0.43795756119E+03  0.43795756120E+03  0.25500000920E-02 0.  1.
        2   -1    0    0  501    0  0.00000000000E+00  0.00000000000E+00 -0.74203687675E+03  0.74203687675E+03  0.25500000920E-02 0. -1.
    10030    2    1    2    0    0  0.00000000000E+00  0.00000000000E+00 -0.30407931555E+03  0.11799944380E+04  0.11401415015E+04 0.  0.
        5    1    3    3  502    0  0.48691155688E+03 -0.22972866553E+03  0.41860217007E+02  0.54003008412E+03  0.46999998093E+01 0.  1.
       -5    1    3    3    0  502 -0.48691155688E+03  0.22972866553E+03 -0.34593953256E+03  0.63996435383E+03  0.46999998093E+01 0. -1.
</event>
<event>
 5   0  0.9692981E-03  0.1094322E+04  0.7818609E-02  0.9210744E-01
       -2   -1    0    0    0  501  0.00000000000E+00  0.00000000000E+00  0.33798978767E+03  0.33798978768E+03  0.25500000920E-02 0. -1.
        2   -1    0    0  501    0  0.00000000000E+00  0.00000000000E+00 -0.88578204525E+03  0.88578204525E+03  0.25500000920E-02 0.  1.
    10030    2    1    2    0    0  0.00000000000E+00  0.00000000000E+00 -0.54779225758E+03  0.12237718329E+04  0.10943222293E+04 0.  0.
        5    1    3    3  502    0  0.23186447787E+03 -0.39926798462E+03  0.54408084134E+02  0.46492837002E+03  0.46999998093E+01 0. -1.
       -5    1    3    3    0  502 -0.23186447787E+03  0.39926798462E+03 -0.60220034172E+03  0.75884346291E+03  0.46999998093E+01 0.  1.
</event>
<event>
 5   0  0.9719260E-03  0.1070595E+04  0.7818609E-02  0.9234335E-01
        2   -1    0    0  501    0  0.00000000000E+00  0.00000000000E+00  0.15457252483E+04  0.15457252483E+04  0.25500000920E-02 0.  1.
       -2   -1    0    0    0  501  0.00000000000E+00  0.00000000000E+00 -0.18537805711E+03  0.18537805712E+03  0.25500000920E-02 0. -1.
    10030    2    1    2    0    0  0.00000000000E+00  0.00000000000E+00  0.13603471912E+04  0.17311033054E+04  0.10705952426E+04 0.  0.
        3    1    3    3  502    0 -0.40434647217E+03  0.91939577982E+02  0.13280520960E+03  0.43541496237E+03  0.10100000352E+00 0. -1.
       -3    1    3    3    0  502  0.40434647217E+03 -0.91939577982E+02  0.12275419816E+04  0.12956883430E+04  0.10100000352E+00 0.  1.
</event>
<event>
 5   0  0.9692981E-03  0.1097453E+04  0.7818609E-02  0.9207678E-01
       -2   -1    0    0    0  501  0.00000000000E+00  0.00000000000E+00  0.32473651085E+03  0.32473651086E+03  0.25500000920E-02 0.  1.
        2   -1    0    0  501    0  0.00000000000E+00  0.00000000000E+00 -0.92721615071E+03  0.92721615071E+03  0.25500000920E-02 0. -1.
    10030    2    1    2    0    0  0.00000000000E+00  0.00000000000E+00 -0.60247963986E+03  0.12519526616E+04  0.10974533021E+04 0.  0.
        5    1    3    3  502    0  0.14162058710E+03 -0.19432954651E+03 -0.86388662401E+03  0.89673995812E+03  0.46999998093E+01 0. -1.
       -5    1    3    3    0  502 -0.14162058710E+03  0.19432954651E+03  0.26140698415E+03  0.35521270346E+03  0.46999998093E+01 0.  1.
</event>
<event>
 5   0  0.1028016E-02  0.1130028E+04  0.7818609E-02  0.9176409E-01
        2   -1    0    0  501    0  0.00000000000E+00  0.00000000000E+00  0.11391445922E+04  0.11391445922E+04  0.25500000920E-02 0.  1.
       -2   -1    0    0    0  501  0.00000000000E+00  0.00000000000E+00 -0.28024599566E+03  0.28024599567E+03  0.25500000920E-02 0. -1.
    10030    2    1    2    0    0  0.00000000000E+00  0.00000000000E+00  0.85889859653E+03  0.14193905879E+04  0.11300278058E+04 0.  0.
        2    1    3    3  502    0 -0.65952405537E+02 -0.35983062396E+02  0.11328425439E+04  0.11353311102E+04  0.25500000920E-02 0.  1.
       -2    1    3    3    0  502  0.65952405537E+02  0.35983062396E+02 -0.27394394733E+03  0.28405947768E+03  0.25500000920E-02 0. -1.
</event>
<event>
 5   0  0.9692981E-03  0.1046319E+04  0.7818609E-02  0.9259152E-01
        2   -1    0    0  501    0  0.00000000000E+00  0.00000000000E+00  0.64723482590E+03  0.64723482590E+03  0.25500000920E-02 0.  1.
       -2   -1    0    0    0  501  0.00000000000E+00  0.00000000000E+00 -0.42286984039E+03  0.42286984040E+03  0.25500000920E-02 0. -1.
    10030    2    1    2    0    0  0.00000000000E+00  0.00000000000E+00  0.22436498551E+03  0.10701046663E+04  0.10463194302E+04 0.  0.
        5    1    3    3  502    0 -0.16188810888E+03 -0.27441674088E+03  0.53653837468E+03  0.62402550026E+03  0.46999998093E+01 0.  1.
       -5    1    3    3    0  502  0.16188810888E+03  0.27441674088E+03 -0.31217338917E+03  0.44607916604E+03  0.46999998093E+01 0. -1.
</event>
<event>
 5   0  0.1028016E-02  0.1085515E+04  0.7818609E-02  0.9219426E-01
        2   -1    0    0  501    0  0.00000000000E+00  0.00000000000E+00  0.51602192393E+03  0.51602192394E+03  0.25500000920E-02 0.  1.
       -2   -1    0    0    0  501  0.00000000000E+00  0.00000000000E+00 -0.57087864665E+03  0.57087864666E+03  0.25500000920E-02 0. -1.
    10030    2    1    2    0    0  0.00000000000E+00  0.00000000000E+00 -0.54856722717E+02  0.10869005706E+04  0.10855153570E+04 0.  0.
        2    1    3    3  502    0 -0.15386493335E+02 -0.44769040517E+03 -0.33428714676E+03  0.55893768843E+03  0.25500000920E-02 0. -1.
       -2    1    3    3    0  502  0.15386493335E+02  0.44769040517E+03  0.27943042404E+03  0.52796288216E+03  0.25500000920E-02 0.  1.
</event>
<event>
 5   0  0.9925021E-03  0.1107747E+04  0.7818609E-02  0.9197674E-01
        2   -1    0    0  501    0  0.00000000000E+00  0.00000000000E+00  0.95050167322E+03  0.95050167323E+03  0.25500000920E-02 0.  1.
       -2   -1    0    0    0  501  0.00000000000E+00  0.00000000000E+00 -0.32275132841E+03  0.32275132842E+03  0.25500000920E-02 0. -1.
    10030    2    1    2    0    0  0.00000000000E+00  0.00000000000E+00  0.62775034482E+03  0.12732530016E+04  0.11077466817E+04 0.  0.
        4    1    3    3  502    0  0.17635295260E+03 -0.22727467674E+03  0.85789856193E+03  0.90484567637E+03  0.12699999809E+01 0.  1.
       -4    1    3    3    0  502 -0.17635295260E+03  0.22727467674E+03 -0.23014821711E+03  0.36840732528E+03  0.12699999809E+01 0. -1.
</event>
<event>
 5   0  0.1019384E-02  0.1140245E+04  0.7818609E-02  0.9166831E-01
       -2   -1    0    0    0  501  0.00000000000E+00  0.00000000000E+00  0.27306844105E+03  0.27306844107E+03  0.25500000920E-02 0. -1.
        2   -1    0    0  501    0  0.00000000000E+00  0.00000000000E+00 -0.11903222353E+04  0.11903222353E+04  0.25500000920E-02 0.  1.
    10030    2    1    2    0    0  0.00000000000E+00  0.00000000000E+00 -0.91725379424E+03  0.14633906764E+04  0.11402446003E+04 0.  0.
        1    1    3    3  502    0 -0.22954114840E+03 -0.14028873546E+03  0.18649020807E+03  0.32733570816E+03  0.50400001928E-02 0. -1.
       -1    1    3    3    0  502  0.22954114840E+03  0.14028873546E+03 -0.11037440023E+04  0.11360549682E+04  0.50400001928E-02 0.  1.
</event>
<event>
 5   0  0.5789905E-03  0.1093485E+04  0.7818609E-02  0.9211565E-01
        1   -1    0    0  501    0  0.00000000000E+00  0.00000000000E+00  0.58584142523E+03  0.58584142525E+03  0.50400001928E-02 0.  1.
       -1   -1    0    0    0  501  0.00000000000E+00  0.00000000000E+00 -0.51025333776E+03  0.51025333779E+03  0.50400001928E-02 0. -1.
    10030    2    1    2    0    0  0.00000000000E+00  0.00000000000E+00  0.75588087468E+02  0.10960947630E+04  0.10934853317E+04 0.  0.
        1    1    3    3  502    0 -0.26269843729E+03 -0.47441326447E+03  0.10759590006E+03  0.55286100622E+03  0.50400001928E-02 0.  1.
       -1    1    3    3    0  502  0.26269843729E+03  0.47441326447E+03 -0.32007812588E+02  0.54323375682E+03  0.50400001928E-02 0. -1.
</event>
<event>
 5   0  0.5712664E-03  0.1139922E+04  0.7818609E-02  0.9167132E-01
       -1   -1    0    0    0  501  0.00000000000E+00  0.00000000000E+00  0.33033461009E+03  0.33033461013E+03  0.50400001928E-02 0. -1.
        1   -1    0    0  501    0  0.00000000000E+00  0.00000000000E+00 -0.98341351171E+03  0.98341351172E+03  0.50400001928E-02 0.  1.
    10030    2    1    2    0    0  0.00000000000E+00  0.00000000000E+00 -0.65307890161E+03  0.13137481219E+04  0.11399219605E+04 0.  0.
        5    1    3    3  502    0 -0.11649289063E+03 -0.13238735424E+03  0.29808055406E+03  0.34636846254E+03  0.46999998093E+01 0. -1.
       -5    1    3    3    0  502  0.11649289063E+03  0.13238735424E+03 -0.95115945568E+03  0.96737965932E+03  0.46999998093E+01 0.  1.
</event>
<event>
 5   0  0.5958706E-03  0.1009717E+04  0.7818609E-02  0.9297951E-01
       -1   -1    0    0    0  501  0.00000000000E+00  0.00000000000E+00  0.18929723361E+03  0.18929723368E+03  0.50400001928E-02 0.  1.
        1   -1    0    0  501    0  0.00000000000E+00  0.00000000000E+00 -0.13464649250E+04  0.13464649250E+04  0.50400001928E-02 0. -1.
    10030    2    1    2    0    0  0.00000000000E+00  0.00000000000E+00 -0.11571676914E+04  0.15357621587E+04  0.10097169614E+04 0.  0.
        2    1    3    3  502    0 -0.30801582650E+03 -0.21415019480E+03 -0.64707625031E+02  0.38068508252E+03  0.25500000920E-02 0.  1.
       -2    1    3    3    0  502  0.30801582650E+03  0.21415019480E+03 -0.10924600664E+04  0.11550770762E+04  0.25500000920E-02 0. -1.
</event>
<event>
 5   0  0.5712664E-03  0.1107542E+04  0.7818609E-02  0.9197872E-01
        1   -1    0    0  501    0  0.00000000000E+00  0.00000000000E+00  0.96992303078E+03  0.96992303079E+03  0.50400001928E-02 0. -1.
       -1   -1    0    0    0  501  0.00000000000E+00  0.00000000000E+00 -0.31617157595E+03  0.31617157599E+03  0.50400001928E-02 0.  1.
    10030    2    1    2    0    0  0.00000000000E+00  0.00000000000E+00  0.65375145483E+03  0.12860946068E+04  0.11075415897E+04 0.  0.
        5    1    3    3  502    0 -0.43560208030E+03 -0.74514927183E+02  0.71434322383E+03  0.84000593936E+03  0.46999998093E+01 0. -1.
       -5    1    3    3    0  502  0.43560208030E+03  0.74514927183E+02 -0.60591769002E+02  0.44608866742E+03  0.46999998093E+01 0.  1.
</event>
<event>
 5   0  0.1019384E-02  0.1134732E+04  0.7818609E-02  0.9171985E-01
       -2   -1    0    0    0  501  0.00000000000E+00  0.00000000000E+00  0.15180055317E+03  0.15180055319E+03  0.25500000920E-02 0.  1.
        2   -1    0    0  501    0  0.00000000000E+00  0.00000000000E+00 -0.21205746175E+04  0.21205746175E+04  0.25500000920E-02 0. -1.
    10030    2    1    2    0    0  0.00000000000E+00  0.00000000000E+00 -0.19687740643E+04  0.22723751707E+04  0.11347323914E+04 0.  0.
        1    1    3    3  502    0  0.20206719318E+03 -0.32778016823E+03 -0.18188426278E+04  0.18591555863E+04  0.50400001928E-02 0. -1.
       -1    1    3    3    0  502 -0.20206719318E+03  0.32778016823E+03 -0.14993143650E+03  0.41321958439E+03  0.50400001928E-02 0.  1.
</event>
<event>
 5   0  0.9925021E-03  0.1047691E+04  0.7818609E-02  0.9257731E-01
       -2   -1    0    0    0  501  0.00000000000E+00  0.00000000000E+00  0.32054860207E+03  0.32054860208E+03  0.25500000920E-02 0.  1.
        2   -1    0    0  501    0  0.00000000000E+00  0.00000000000E+00 -0.85607685573E+03  0.85607685573E+03  0.25500000920E-02 0. -1.
    10030    2    1    2    0    0  0.00000000000E+00  0.00000000000E+00 -0.53552825366E+03  0.11766254578E+04  0.10476912510E+04 0.  0.
        4    1    3    3  502    0 -0.42322334868E+03  0.29736472883E+03 -0.17468620552E+03  0.54594932743E+03  0.12699999809E+01 0.  1.
       -4    1    3    3    0  502  0.42322334868E+03 -0.29736472883E+03 -0.36084204815E+03  0.63067613038E+03  0.12699999809E+01 0. -1.
</event>
<event>
 5   0  0.5854579E-03  0.1106948E+04  0.7818609E-02  0.9198446E-01
        1   -1    0    0  501    0  0.00000000000E+00  0.00000000000E+00  0.30509547267E+03  0.30509547271E+03  0.50400001928E-02 0. -1.
       -1   -1    0    0    0  501  0.00000000000E+00  0.00000000000E+00 -0.10040576688E+04  0.10040576688E+04  0.50400001928E-02 0.  1.
    10030    2    1    2    0    0  0.00000000000E+00  0.00000000000E+00 -0.69896219608E+03  0.13091531415E+04  0.11069479646E+04 0.  0.
        4    1    3    3  502    0  0.45687905548E+03 -0.30736558971E+03 -0.28342334813E+03  0.61930806893E+03  0.12699999809E+01 0.  1.
       -4    1    3    3    0  502 -0.45687905548E+03  0.30736558971E+03 -0.41553884796E+03  0.68984507256E+03  0.12699999809E+01 0. -1.
</event>
<event>
 5   0  0.5958706E-03  0.1116943E+04  0.7818609E-02  0.9188834E-01
        1   -1    0    0  501    0  0.00000000000E+00  0.00000000000E+00  0.58084265937E+03  0.58084265939E+03  0.50400001928E-02 0.  1.
       -1   -1    0    0    0  501  0.00000000000E+00  0.00000000000E+00 -0.53696174773E+03  0.53696174776E+03  0.50400001928E-02 0. -1.
    10030    2    1    2    0    0  0.00000000000E+00  0.00000000000E+00  0.43880911640E+02  0.11178044071E+04  0.11169427730E+04 0.  0.
        2    1    3    3  502    0  0.52518281171E+03 -0.11358934140E+03  0.17427734572E+03  0.56488239256E+03  0.25500000920E-02 0.  1.
       -2    1    3    3    0  502 -0.52518281171E+03  0.11358934140E+03 -0.13039643408E+03  0.55292201459E+03  0.25500000920E-02 0. -1.
</event>
<event>
 5   0  0.5958706E-03  0.1073045E+04  0.7818609E-02  0.9231869E-01
       -1   -1    0    0    0  501  0.00000000000E+00  0.00000000000E+00  0.17730836892E+03  0.17730836899E+03  0.50400001928E-02 0.  1.
        1   -1    0    0  501    0  0.00000000000E+00  0.00000000000E+00 -0.16234797583E+04  0.16234797583E+04  0.50400001928E-02 0. -1.
    10030    2    1    2    0    0  0.00000000000E+00  0.00000000000E+00 -0.14461713894E+04  0.18007881273E+04  0.10730452889E+04 0.  0.
        2    1    3    3  502    0  0.49353737819E+03  0.20533968453E+03 -0.64594275367E+03  0.83844234790E+03  0.25500000920E-02 0.  1.
       -2    1    3    3    0  502 -0.49353737819E+03 -0.20533968453E+03 -0.80022863572E+03  0.96234577941E+03  0.25500000920E-02 0. -1.
</event>
<event>
 5   0  0.1028016E-02  0.1112879E+04  0.7818609E-02  0.9192730E-01
       -2   -1    0    0    0  501  0.00000000000E+00  0.00000000000E+00  0.14083077040E+04  0.14083077040E+04  0.25500000920E-02 0.  1.
        2   -1    0    0  501    0  0.00000000000E+00  0.00000000000E+00 -0.21985590975E+03  0.21985590977E+03  0.25500000920E-02 0. -1.
    10030    2    1    2    0    0  0.00000000000E+00  0.00000000000E+00  0.11884517943E+04  0.16281636138E+04  0.11128787382E+04 0.  0.
        2    1    3    3  502    0  0.16712545528E+03 -0.11557015115E+03 -0.16363726649E+03  0.26089180253E+03  0.25500000920E-02 0. -1.
       -2    1    3    3    0  502 -0.16712545528E+03  0.11557015115E+03  0.13520890608E+04  0.13672718113E+04  0.25500000920E-02 0.  1.
</event>
<event>
 5   0  0.5854579E-03  0.1059406E+04  0.7818609E-02  0.9245686E-01
        1   -1    0    0  501    0  0.00000000000E+00  0.00000000000E+00  0.58177771010E+03  0.58177771012E+03  0.50400001928E-02 0. -1.
       -1   -1    0    0    0  501  0.00000000000E+00  0.00000000000E+00 -0.48228992687E+03  0.48228992689E+03  0.50400001928E-02 0.  1.
    10030    2    1    2    0    0  0.00000000000E+00  0.00000000000E+00  0.99487783236E+02  0.10640676370E+04  0.10594064929E+04 0.  0.
        4    1    3    3  502    0 -0.48497258780E+03 -0.20424702221E+03  0.11057984241E+03  0.53772183464E+03  0.12699999809E+01 0. -1.
       -4    1    3    3    0  502  0.48497258780E+03  0.20424702221E+03 -0.11092059176E+02  0.52634580237E+03  0.12699999809E+01 0.  1.
</event>
<event>
 5   0  0.5958706E-03  0.5843119E+03  0.7818609E-02  0.9938499E-01
       -1   -1    0    0    0  501  0.00000000000E+00  0.00000000000E+00  0.28856771677E+03  0.28856771682E+03  0.50400001928E-02 0.  1.
        1   -1    0    0  501    0  0.00000000000E+00  0.00000000000E+00 -0.29578875697E+03  0.29578875701E+03  0.50400001928E-02 0. -1.
    10030    2    1    2    0    0  0.00000000000E+00  0.00000000000E+00 -0.72210401990E+01  0.58435647383E+03  0.58431185602E+03 0.  0.
        2    1    3    3  502    0  0.12081340370E+03  0.26562001359E+03 -0.17936980653E+02  0.29235527260E+03  0.25500000920E-02 0. -1.
       -2    1    3    3    0  502 -0.12081340370E+03 -0.26562001359E+03  0.10715940454E+02  0.29200120123E+03  0.25500000920E-02 0.  1.
</event>
<event>
 5   0  0.5998641E-03  0.1061882E+04  0.7818609E-02  0.9243162E-01
        1   -1    0    0  501    0  0.00000000000E+00  0.00000000000E+00  0.12281007410E+04  0.12281007410E+04  0.50400001928E-02 0.  1.
       -1   -1    0    0    0  501  0.00000000000E+00  0.00000000000E+00 -0.22954009732E+03  0.22954009737E+03  0.50400001928E-02 0. -1.
    10030    2    1    2    0    0  0.00000000000E+00  0.00000000000E+00  0.99856064365E+03  0.14576408383E+04  0.10618820342E+04 0.  0.
        3    1    3    3  502    0  0.85650441898E+02 -0.48724621055E+03  0.23468995047E+03  0.54756209780E+03  0.10100000352E+00 0. -1.
       -3    1    3    3    0  502 -0.85650441898E+02  0.48724621055E+03  0.76387069318E+03  0.91007874054E+03  0.10100000352E+00 0.  1.
</event>
<event>
 5   0  0.5854579E-03  0.9427762E+03  0.7818609E-02  0.9373634E-01
       -1   -1    0    0    0  501  0.00000000000E+00  0.00000000000E+00  0.33868142689E+03  0.33868142692E+03  0.50400001928E-02 0.  1.
        1   -1    0    0  501    0  0.00000000000E+00  0.00000000000E+00 -0.65609372137E+03  0.65609372139E+03  0.50400001928E-02 0. -1.
    10030    2    1    2    0    0  0.00000000000E+00  0.00000000000E+00 -0.31741229448E+03  0.99477514831E+03  0.94277623591E+03 0.  0.
        4    1    3    3  502    0 -0.55302001332E+01  0.73411073959E+02  0.33257634907E+03  0.34062943172E+03  0.12699999809E+01 0.  1.
       -4    1    3    3    0  502  0.55302001332E+01 -0.73411073959E+02 -0.64998864355E+03  0.65414571659E+03  0.12699999809E+01 0. -1.
</event>
<event>
 5   0  0.9925021E-03  0.1068922E+04  0.7818609E-02  0.9236024E-01
       -2   -1    0    0    0  501  0.00000000000E+00  0.00000000000E+00  0.11079180128E+03  0.11079180131E+03  0.25500000920E-02 0. -1.
        2   -1    0    0  501    0  0.00000000000E+00  0.00000000000E+00 -0.25782451199E+04  0.25782451199E+04  0.25500000920E-02 0.  1.
    10030    2    1    2    0    0  0.00000000000E+00  0.00000000000E+00 -0.24674533186E+04  0.26890369212E+04  0.10689217390E+04 0.  0.
        4    1    3    3  502    0 -0.29291450745E+03 -0.39146369321E+03 -0.17768054074E+04  0.18428461142E+04  0.12699999809E+01 0.  1.
       -4    1    3    3    0  502  0.29291450745E+03  0.39146369321E+03 -0.69064791119E+03  0.84619080704E+03  0.12699999809E+01 0. -1.
</event>
<event>
 5   0  0.1028016E-02  0.1098870E+04  0.7818609E-02  0.9206294E-01
       -2   -1    0    0    0  501  0.00000000000E+00  0.00000000000E+00  0.54079883774E+03  0.54079883775E+03  0.25500000920E-02 0.  1.
        2   -1    0    0  501    0  0.00000000000E+00  0.00000000000E+00 -0.55820925759E+03  0.55820925760E+03  0.25500000920E-02 0. -1.
    10030    2    1    2    0    0  0.00000000000E+00  0.00000000000E+00 -0.17410419848E+02  0.10990080953E+04  0.10988701793E+04 0.  0.
        2    1    3    3  502    0 -0.40481304248E+03  0.36911510592E+03 -0.50655163330E+02  0.55016861630E+03  0.25500000920E-02 0. -1.
       -2    1    3    3    0  502  0.40481304248E+03 -0.36911510592E+03  0.33244743482E+02  0.54883947904E+03  0.25500000920E-02 0.  1.
</event>
<event>
 5   0  0.9692981E-03  0.1074287E+04  0.7818609E-02  0.9230622E-01
       -2   -1    0    0    0  501  0.00000000000E+00  0.00000000000E+00  0.80054115042E+03  0.80054115043E+03  0.25500000920E-02 0.  1.
        2   -1    0    0  501    0  0.00000000000E+00  0.00000000000E+00 -0.36041027155E+03  0.36041027156E+03  0.25500000920E-02 0. -1.
    10030    2    1    2    0    0  0.00000000000E+00  0.00000000000E+00  0.44013087887E+03  0.11609514220E+04  0.10742872119E+04 0.  0.
        5    1    3    3  502    0 -0.58582769233E+02  0.51133283530E+03  0.38610929834E+03  0.64342496810E+03  0.46999998093E+01 0.  1.
       -5    1    3    3    0  502  0.58582769233E+02 -0.51133283530E+03  0.54021580534E+02  0.51752645389E+03  0.46999998093E+01 0. -1.
</event>
<event>
 5   0  0.9719260E-03  0.1100338E+04  0.7818609E-02  0.9204863E-01
        2   -1    0    0  501    0  0.00000000000E+00  0.00000000000E+00  0.24013038840E+04  0.24013038840E+04  0.25500000920E-02 0.  1.
       -2   -1    0    0    0  501  0.00000000000E+00  0.00000000000E+00 -0.12605062741E+03  0.12605062744E+03  0.25500000920E-02 0. -1.
    10030    2    1    2    0    0  0.00000000000E+00  0.00000000000E+00  0.22752532566E+04  0.25273545114E+04  0.11003378776E+04 0.  0.
        3    1    3    3  502    0  0.37895096648E+03  0.31037466551E+03  0.17129943888E+04  0.17816526189E+04  0.10100000352E+00 0.  1.
       -3    1    3    3    0  502 -0.37895096648E+03 -0.31037466551E+03  0.56225886775E+03  0.74570189256E+03  0.10100000352E+00 0. -1.
</event>
<event>
 5   0  0.1019384E-02  0.1081066E+04  0.7818609E-02  0.9223845E-01
       -2   -1    0    0    0  501  0.00000000000E+00  0.00000000000E+00  0.27857443976E+03  0.27857443977E+03  0.25500000920E-02 0. -1.
        2   -1    0    0  501    0  0.00000000000E+00  0.00000000000E+00 -0.10488258685E+04  0.10488258685E+04  0.25500000920E-02 0.  1.
    10030    2    1    2    0    0  0.00000000000E+00  0.00000000000E+00 -0.77025142878E+03  0.13274003083E+04  0.10810662861E+04 0.  0.
        1    1    3    3  502    0  0.21906808474E+03  0.28043283916E+03  0.11445374725E+03  0.37380885934E+03  0.50400001928E-02 0. -1.
       -1    1    3    3    0  502 -0.21906808474E+03 -0.28043283916E+03 -0.88470517603E+03  0.95359144898E+03  0.50400001928E-02 0.  1.
</event>
<event>
 5   0  0.5998641E-03  0.1096550E+04  0.7818609E-02  0.9208561E-01
       -1   -1    0    0    0  501  0.00000000000E+00  0.00000000000E+00  0.22173782109E+03  0.22173782115E+03  0.50400001928E-02 0.  1.
        1   -1    0    0  501    0  0.00000000000E+00  0.00000000000E+00 -0.13556794222E+04  0.13556794222E+04  0.50400001928E-02 0. -1.
    10030    2    1    2    0    0  0.00000000000E+00  0.00000000000E+00 -0.11339416011E+04  0.15774172434E+04  0.10965498643E+04 0.  0.
        3    1    3    3  502    0  0.49634528791E+03  0.23118792588E+03 -0.60763024618E+03  0.81793705637E+03  0.10100000352E+00 0.  1.
       -3    1    3    3    0  502 -0.49634528791E+03 -0.23118792588E+03 -0.52631135494E+03  0.75948018700E+03  0.10100000352E+00 0. -1.
</event>
<event>
 5   0  0.5789905E-03  0.1087708E+04  0.7818609E-02  0.9217256E-01
       -1   -1    0    0    0  501  0.00000000000E+00  0.00000000000E+00  0.30288919050E+03  0.30288919054E+03  0.50400001928E-02 0. -1.
        1   -1    0    0  501    0  0.00000000000E+00  0.00000000000E+00 -0.97651979827E+03  0.97651979828E+03  0.50400001928E-02 0.  1.
    10030    2    1    2    0    0  0.00000000000E+00  0.00000000000E+00 -0.67363060777E+03  0.12794089888E+04  0.10877082168E+04 0.  0.
        1    1    3    3  502    0 -0.19572591258E+03  0.30421727700E+03  0.14086168287E+03  0.38819943097E+03  0.50400001928E-02 0. -1.
       -1    1    3    3    0  502  0.19572591258E+03 -0.30421727700E+03 -0.81449229064E+03  0.89120955785E+03  0.50400001928E-02 0.  1.
</event>
<event>
 5   0  0.9719260E-03  0.1108724E+04  0.7818609E-02  0.9196731E-01
        2   -1    0    0  501    0  0.00000000000E+00  0.00000000000E+00  0.13102543460E+04  0.13102543460E+04  0.25500000920E-02 0.  1.
       -2   -1    0    0    0  501  0.00000000000E+00  0.00000000000E+00 -0.23454768156E+03  0.23454768158E+03  0.25500000920E-02 0. -1.
    10030    2    1    2    0    0  0.00000000000E+00  0.00000000000E+00  0.10757066644E+04  0.15448020276E+04  0.11087238053E+04 0.  0.
        3    1    3    3  502    0 -0.15844458578E+03  0.25635773304E+03 -0.11043995251E+03  0.32096879500E+03  0.10100000352E+00 0. -1.
       -3    1    3    3    0  502  0.15844458578E+03 -0.25635773304E+03  0.11861466169E+04  0.12238332326E+04  0.10100000352E+00 0.  1.
</event>
<event>
 5   0  0.5958706E-03  0.1101491E+04  0.7818609E-02  0.9203740E-01
        1   -1    0    0  501    0  0.00000000000E+00  0.00000000000E+00  0.43404681759E+03  0.43404681761E+03  0.50400001928E-02 0.  1.
       -1   -1    0    0    0  501  0.00000000000E+00  0.00000000000E+00 -0.69882034045E+03  0.69882034046E+03  0.50400001928E-02 0. -1.
    10030    2    1    2    0    0  0.00000000000E+00  0.00000000000E+00 -0.26477352286E+03  0.11328671581E+04  0.11014912526E+04 0.  0.
        2    1    3    3  502    0  0.33869328508E+03 -0.28057382559E+03  0.20854619299E+03  0.48675078591E+03  0.25500000920E-02 0.  1.
       -2    1    3    3    0  502 -0.33869328508E+03  0.28057382559E+03 -0.47331971585E+03  0.64611637217E+03  0.25500000920E-02 0. -1.
</event>
<event>
 5   0  0.1019384E-02  0.1104679E+04  0.7818609E-02  0.9200643E-01
       -2   -1    0    0    0  501  0.00000000000E+00  0.00000000000E+00  0.24488598935E+03  0.24488598937E+03  0.25500000920E-02 0.  1.
        2   -1    0    0  501    0  0.00000000000E+00  0.00000000000E+00 -0.12457997363E+04  0.12457997363E+04  0.25500000920E-02 0. -1.
    10030    2    1    2    0    0  0.00000000000E+00  0.00000000000E+00 -0.10009137470E+04  0.14906857257E+04  0.11046789597E+04 0.  0.
        1    1    3    3  502    0  0.36841087417E+02 -0.50578923120E+03 -0.20512336149E+03  0.54704259941E+03  0.50400001928E-02 0.  1.
       -1    1    3    3    0  502 -0.36841087417E+02  0.50578923120E+03 -0.79579038547E+03  0.94364312627E+03  0.50400001928E-02 0. -1.
</event>
<event>
 5   0  0.9719260E-03  0.1121192E+04  0.7818609E-02  0.9184779E-01
       -2   -1    0    0    0  501  0.00000000000E+00  0.00000000000E+00  0.18278628145E+03  0.18278628146E+03  0.25500000920E-02 0. -1.
        2   -1    0    0  501    0  0.00000000000E+00  0.00000000000E+00 -0.17193195491E+04  0.17193195491E+04  0.25500000920E-02 0.  1.
    10030    2    1    2    0    0  0.00000000000E+00  0.00000000000E+00 -0.15365332676E+04  0.19021058306E+04  0.11211922708E+04 0.  0.
        3    1    3    3  502    0 -0.20125657419E+03 -0.50298284436E+03 -0.10127753994E+04  0.11485686616E+04  0.10100000352E+00 0. -1.
       -3    1    3    3    0  502  0.20125657419E+03  0.50298284436E+03 -0.52375786819E+03  0.75353716900E+03  0.10100000352E+00 0.  1.
</event>
<event>
 5   0  0.3949750E-03  0.1091687E+04  0.7818609E-02  0.9213333E-01
        3   -1    0    0  501    0  0.00000000000E+00  0.00000000000E+00  0.79816043057E+03  0.79816043696E+03  0.10100000352E+00 0.  1.
       -3   -1    0    0    0  501  0.00000000000E+00  0.00000000000E+00 -0.37328949089E+03  0.37328950455E+03  0.10100000352E+00 0. -1.
    10030    2    1    2    0    0  0.00000000000E+00  0.00000000000E+00  0.42487093968E+03  0.11714499415E+04  0.10916866080E+04 0.  0.
        1    1    3    3  502    0 -0.38785634114E+03  0.14943820237E+03  0.59209495782E+03  0.72342294461E+03  0.50400001928E-02 0.  1.
       -1    1    3    3    0  502  0.38785634114E+03 -0.14943820237E+03 -0.16722401814E+03  0.44802699690E+03  0.50400001928E-02 0. -1.
</event>
<event>
 5   0  0.5789905E-03  0.1114473E+04  0.7818609E-02  0.9191199E-01
       -1   -1    0    0    0  501  0.00000000000E+00  0.00000000000E+00  0.71726444098E+03  0.71726444100E+03  0.50400001928E-02 0.  1.
        1   -1    0    0  501    0  0.00000000000E+00  0.00000000000E+00 -0.43291232756E+03  0.43291232759E+03  0.50400001928E-02 0. -1.
    10030    2    1    2    0    0  0.00000000000E+00  0.00000000000E+00  0.28435211342E+03  0.11501767686E+04  0.11144731825E+04 0.  0.
        1    1    3    3  502    0  0.55068918876E+03  0.25472598161E+02  0.58300119135E+02  0.55435218029E+03  0.50400001928E-02 0. -1.
       -1    1    3    3    0  502 -0.55068918876E+03 -0.25472598161E+02  0.22605199428E+03  0.59582458830E+03  0.50400001928E-02 0.  1.
</event>
<event>
 5   0  0.9719260E-03  0.1114291E+04  0.7818609E-02  0.9191374E-01
        2   -1    0    0  501    0  0.00000000000E+00  0.00000000000E+00  0.23612137509E+04  0.23612137509E+04  0.25500000920E-02 0.  1.
       -2   -1    0    0    0  501  0.00000000000E+00  0.00000000000E+00 -0.13146242454E+03  0.13146242457E+03  0.25500000920E-02 0. -1.
    10030    2    1    2    0    0  0.00000000000E+00  0.00000000000E+00  0.22297513263E+04  0.24926761754E+04  0.11142905987E+04 0.  0.
        3    1    3    3  502    0  0.42477367372E+03 -0.93065202750E+02  0.33571261086E+03  0.54936033087E+03  0.10100000352E+00 0. -1.
       -3    1    3    3    0  502 -0.42477367372E+03  0.93065202750E+02  0.18940387155E+04  0.19433158446E+04  0.10100000352E+00 0.  1.
</event>
<event>
 5   0  0.1019384E-02  0.1050965E+04  0.7818609E-02  0.9254349E-01
        2   -1    0    0  501    0  0.00000000000E+00  0.00000000000E+00  0.13540852163E+04  0.13540852163E+04  0.25500000920E-02 0.  1.
       -2   -1    0    0    0  501  0.00000000000E+00  0.00000000000E+00 -0.20392491506E+03  0.20392491507E+03  0.25500000920E-02 0. -1.
    10030    2    1    2    0    0  0.00000000000E+00  0.00000000000E+00  0.11501603013E+04  0.15580101314E+04  0.10509647239E+04 0.  0.
        1    1    3    3  502    0 -0.47614286188E+03  0.18820565576E+03  0.75047631040E+03  0.90848670121E+03  0.50400001928E-02 0. -1.
       -1    1    3    3    0  502  0.47614286188E+03 -0.18820565576E+03  0.39968399085E+03  0.64952343018E+03  0.50400001928E-02 0.  1.
</event>
<event>
 5   0  0.5958706E-03  0.1094900E+04  0.7818609E-02  0.9210176E-01
       -1   -1    0    0    0  501  0.00000000000E+00  0.00000000000E+00  0.19628032502E+03  0.19628032508E+03  0.50400001928E-02 0.  1.
        1   -1    0    0  501    0  0.00000000000E+00  0.00000000000E+00 -0.15269068321E+04  0.15269068321E+04  0.50400001928E-02 0. -1.
    10030    2    1    2    0    0  0.00000000000E+00  0.00000000000E+00 -0.13306265070E+04  0.17231871571E+04  0.10949004874E+04 0.  0.
        2    1    3    3  502    0  0.11253275630E+03 -0.68519041589E+02  0.17095678014E+03  0.21583489287E+03  0.25500000920E-02 0.  1.
       -2    1    3    3    0  502 -0.11253275630E+03  0.68519041589E+02 -0.15015832872E+04  0.15073522643E+04  0.25500000920E-02 0. -1.
</event>
<event>
 5   0  0.9925021E-03  0.1128832E+04  0.7818609E-02  0.9177537E-01
       -2   -1    0    0    0  501  0.00000000000E+00  0.00000000000E+00  0.25551162383E+03  0.25551162384E+03  0.25500000920E-02 0. -1.
        2   -1    0    0  501    0  0.00000000000E+00  0.00000000000E+00 -0.12467757134E+04  0.12467757134E+04  0.25500000920E-02 0.  1.
    10030    2    1    2    0    0  0.00000000000E+00  0.00000000000E+00 -0.99126408955E+03  0.15022873372E+04  0.11288324713E+04 0.  0.
        4    1    3    3  502    0 -0.81974342537E+02 -0.37441425519E+03  0.55754100554E+02  0.38731893829E+03  0.12699999809E+01 0. -1.
       -4    1    3    3    0  502  0.81974342537E+02  0.37441425519E+03 -0.10470181901E+04  0.11149683989E+04  0.12699999809E+01 0.  1.
</event>
<event>
 5   0  0.1028016E-02  0.1114438E+04  0.7818609E-02  0.9191232E-01
        2   -1    0    0  501    0  0.00000000000E+00  0.00000000000E+00  0.99685215598E+03  0.99685215599E+03  0.25500000920E-02 0. -1.
       -2   -1    0    0    0  501  0.00000000000E+00  0.00000000000E+00 -0.31147374968E+03  0.31147374969E+03  0.25500000920E-02 0.  1.
    10030    2    1    2    0    0  0.00000000000E+00  0.00000000000E+00  0.68537840630E+03  0.13083259057E+04  0.11144384755E+04 0.  0.
        2    1    3    3  502    0  0.21946041419E+02 -0.20731638627E+03 -0.26396490757E+03  0.33636168805E+03  0.25500000920E-02 0.  1.
       -2    1    3    3    0  502 -0.21946041419E+02  0.20731638627E+03  0.94934331387E+03  0.97196421763E+03  0.25500000920E-02 0. -1.
</event>
<event>
 5   0  0.5998641E-03  0.1089235E+04  0.7818609E-02  0.9215748E-01
        1   -1    0    0  501    0  0.00000000000E+00  0.00000000000E+00  0.21859384858E+04  0.21859384858E+04  0.50400001928E-02 0.  1.
       -1   -1    0    0    0  501  0.00000000000E+00  0.00000000000E+00 -0.13568923321E+03  0.13568923330E+03  0.50400001928E-02 0. -1.
    10030    2    1    2    0    0  0.00000000000E+00  0.00000000000E+00  0.20502492526E+04  0.23216277191E+04  0.10892351759E+04 0.  0.
        3    1    3    3  502    0 -0.24224037879E+03 -0.75857530774E+02  0.20521408040E+04  0.20677806111E+04  0.10100000352E+00 0.  1.
       -3    1    3    3    0  502  0.24224037879E+03  0.75857530774E+02 -0.18915513528E+01  0.25384710804E+03  0.10100000352E+00 0. -1.
</event>
<event>
 5   0  0.5854579E-03  0.1329215E+04  0.7818609E-02  0.9006713E-01
        1   -1    0    0  501    0  0.00000000000E+00  0.00000000000E+00  0.71956771320E+03  0.71956771322E+03  0.50400001928E-02 0.  1.
       -1   -1    0    0    0  501  0.00000000000E+00  0.00000000000E+00 -0.61384468837E+03  0.61384468839E+03  0.50400001928E-02 0. -1.
    10030    2    1    2    0    0  0.00000000000E+00  0.00000000000E+00  0.10572302484E+03  0.13334124016E+04  0.13292145330E+04 0.  0.
        4    1    3    3  502    0 -0.48591472209E+02 -0.12873176556E+01 -0.61205788048E+03  0.61398636004E+03  0.12699999809E+01 0. -1.
       -4    1    3    3    0  502  0.48591472209E+02  0.12873176556E+01  0.71778090531E+03  0.71942604157E+03  0.12699999809E+01 0.  1.
</event>
<event>
 5   0  0.5712664E-03  0.1048197E+04  0.7818609E-02  0.9257208E-01
       -1   -1    0    0    0  501  0.00000000000E+00  0.00000000000E+00  0.15605976540E+03  0.15605976548E+03  0.50400001928E-02 0. -1.
        1   -1    0    0  501    0  0.00000000000E+00  0.00000000000E+00 -0.17600899808E+04  0.17600899808E+04  0.50400001928E-02 0.  1.
    10030    2    1    2    0    0  0.00000000000E+00  0.00000000000E+00 -0.16040302154E+04  0.19161497463E+04  0.10481969845E+04 0.  0.
        5    1    3    3  502    0  0.45053295497E+03  0.25383535047E+03 -0.95761169491E+03  0.10883265029E+04  0.46999998093E+01 0.  1.
       -5    1    3    3    0  502 -0.45053295497E+03 -0.25383535047E+03 -0.64641852046E+03  0.82782324336E+03  0.46999998093E+01 0. -1.
</event>
<event>
 5   0  0.5854579E-03  0.1094412E+04  0.7818609E-02  0.9210655E-01
        1   -1    0    0  501    0  0.00000000000E+00  0.00000000000E+00  0.56457763695E+03  0.56457763697E+03  0.50400001928E-02 0.  1.
       -1   -1    0    0    0  501  0.00000000000E+00  0.00000000000E+00 -0.53036887713E+03  0.53036887716E+03  0.50400001928E-02 0. -1.
    10030    2    1    2    0    0  0.00000000000E+00  0.00000000000E+00  0.34208759813E+02  0.10949465141E+04  0.10944120017E+04 0.  0.
        4    1    3    3  502    0  0.43744872665E+03 -0.13217204624E+03 -0.28404421813E+03  0.53806465132E+03  0.12699999809E+01 0. -1.
       -4    1    3    3    0  502 -0.43744872665E+03  0.13217204624E+03  0.31825297794E+03  0.55688186280E+03  0.12699999809E+01 0.  1.
</event>
<event>
 5   0  0.5789905E-03  0.1096053E+04  0.7818609E-02  0.9209047E-01
       -1   -1    0    0    0  501  0.00000000000E+00  0.00000000000E+00  0.26601426470E+03  0.26601426475E+03  0.50400001928E-02 0. -1.
        1   -1    0    0  501    0  0.00000000000E+00  0.00000000000E+00 -0.11290116172E+04  0.11290116172E+04  0.50400001928E-02 0.  1.
    10030    2    1    2    0    0  0.00000000000E+00  0.00000000000E+00 -0.86299735249E+03  0.13950258819E+04  0.10960532747E+04 0.  0.
        1    1    3    3  502    0 -0.25620060265E+03  0.20791486799E+03 -0.98842310478E+03  0.10420401025E+04  0.50400001928E-02 0.  1.
       -1    1    3    3    0  502  0.25620060265E+03 -0.20791486799E+03  0.12542575229E+03  0.35298577945E+03  0.50400001928E-02 0. -1.
</event>
<event>
 5   0  0.9692981E-03  0.1119182E+04  0.7818609E-02  0.9186695E-01
       -2   -1    0    0    0  501  0.00000000000E+00  0.00000000000E+00  0.25882288438E+03  0.25882288440E+03  0.25500000920E-02 0. -1.
        2   -1    0    0  501    0  0.00000000000E+00  0.00000000000E+00 -0.12098705589E+04  0.12098705589E+04  0.25500000920E-02 0.  1.
    10030    2    1    2    0    0  0.00000000000E+00  0.00000000000E+00 -0.95104767454E+03  0.14686934433E+04  0.11191821796E+04 0.  0.
        5    1    3    3  502    0  0.23788425847E+03  0.85148005394E+01 -0.11400912890E+04  0.11646852191E+04  0.46999998093E+01 0.  1.
       -5    1    3    3    0  502 -0.23788425847E+03 -0.85148005394E+01  0.18904361445E+03  0.30400822426E+03  0.46999998093E+01 0. -1.
</event>
<event>
 5   0  0.5854579E-03  0.1084185E+04  0.7818609E-02  0.9220745E-01
       -1   -1    0    0    0  501  0.00000000000E+00  0.00000000000E+00  0.28087021101E+03  0.28087021105E+03  0.50400001928E-02 0.  1.
        1   -1    0    0  501    0  0.00000000000E+00  0.00000000000E+00 -0.10462635106E+04  0.10462635106E+04  0.50400001928E-02 0. -1.
    10030    2    1    2    0    0  0.00000000000E+00  0.00000000000E+00 -0.76539329963E+03  0.13271337217E+04  0.10841849529E+04 0.  0.
        4    1    3    3  502    0  0.48679585339E+03  0.58771403903E+02 -0.99728296855E+02  0.50037148889E+03  0.12699999809E+01 0.  1.
       -4    1    3    3    0  502 -0.48679585339E+03 -0.58771403903E+02 -0.66566500277E+03  0.82676223281E+03  0.12699999809E+01 0. -1.
</event>
<event>
 5   0  0.9692981E-03  0.1112178E+04  0.7818609E-02  0.9193403E-01
        2   -1    0    0  501    0  0.00000000000E+00  0.00000000000E+00  0.12538151947E+04  0.12538151947E+04  0.25500000920E-02 0. -1.
       -2   -1    0    0    0  501  0.00000000000E+00  0.00000000000E+00 -0.24663538249E+03  0.24663538250E+03  0.25500000920E-02 0.  1.
    10030    2    1    2    0    0  0.00000000000E+00  0.00000000000E+00  0.10071798122E+04  0.15004505772E+04  0.11121783852E+04 0.  0.
        5    1    3    3  502    0  0.49064959705E+03 -0.21359055141E+03  0.29963259551E+03  0.61331862276E+03  0.46999998093E+01 0.  1.
       -5    1    3    3    0  502 -0.49064959705E+03  0.21359055141E+03  0.70754721672E+03  0.88713195446E+03  0.46999998093E+01 0. -1.
</event>
<event>
 5   0  0.9719260E-03  0.1162862E+04  0.7818609E-02  0.9145999E-01
        2   -1    0    0  501    0  0.00000000000E+00  0.00000000000E+00  0.66017443560E+03  0.66017443560E+03  0.25500000920E-02 0.  1.
       -2   -1    0    0    0  501  0.00000000000E+00  0.00000000000E+00 -0.51207967887E+03  0.51207967888E+03  0.25500000920E-02 0. -1.
    10030    2    1    2    0    0  0.00000000000E+00  0.00000000000E+00  0.14809475672E+03  0.11722541145E+04  0.11628618370E+04 0.  0.
        3    1    3    3  502    0 -0.51480044517E+03  0.55293058347E+02  0.34073102562E+03  0.61981808837E+03  0.10100000352E+00 0.  1.
       -3    1    3    3    0  502  0.51480044517E+03 -0.55293058347E+02 -0.19263626890E+03  0.55243602611E+03  0.10100000352E+00 0. -1.
</event>
<event>
 5   0  0.9719260E-03  0.6385692E+03  0.7818609E-02  0.9828468E-01
        2   -1    0    0  501    0  0.00000000000E+00  0.00000000000E+00  0.66142976312E+03  0.66142976312E+03  0.25500000920E-02 0. -1.
       -2   -1    0    0    0  501  0.00000000000E+00  0.00000000000E+00 -0.15412466991E+03  0.15412466993E+03  0.25500000920E-02 0.  1.
    10030    2    1    2    0    0  0.00000000000E+00  0.00000000000E+00  0.50730509321E+03  0.81555443305E+03  0.63856916280E+03 0.  0.
        3    1    3    3  502    0  0.12680638863E+03 -0.25887017935E+03  0.78309232340E+02  0.29870717438E+03  0.10100000352E+00 0.  1.
       -3    1    3    3    0  502 -0.12680638863E+03  0.25887017935E+03  0.42899586087E+03  0.51684725868E+03  0.10100000352E+00 0. -1.
</event>
<event>
 5   0  0.5712664E-03  0.1094851E+04  0.7818609E-02  0.9210225E-01
        1   -1    0    0  501    0  0.00000000000E+00  0.00000000000E+00  0.39498898714E+03  0.39498898718E+03  0.50400001928E-02 0. -1.
       -1   -1    0    0    0  501  0.00000000000E+00  0.00000000000E+00 -0.75869074247E+03  0.75869074249E+03  0.50400001928E-02 0.  1.
    10030    2    1    2    0    0  0.00000000000E+00  0.00000000000E+00 -0.36370175533E+03  0.11536797297E+04  0.10948506527E+04 0.  0.
        5    1    3    3  502    0 -0.16281696912E+03 -0.46185516811E+02 -0.73040942061E+03  0.74977495231E+03  0.46999998093E+01 0.  1.
       -5    1    3    3    0  502  0.16281696912E+03  0.46185516811E+02  0.36670766528E+03  0.40390477735E+03  0.46999998093E+01 0. -1.
</event>
<event>
 5   0  0.9692981E-03  0.1104608E+04  0.7818609E-02  0.9200713E-01
        2   -1    0    0  501    0  0.00000000000E+00  0.00000000000E+00  0.41040852671E+03  0.41040852671E+03  0.25500000920E-02 0.  1.
       -2   -1    0    0    0  501  0.00000000000E+00  0.00000000000E+00 -0.74325819987E+03  0.74325819988E+03  0.25500000920E-02 0. -1.
    10030    2    1    2    0    0  0.00000000000E+00  0.00000000000E+00 -0.33284967317E+03  0.11536667266E+04  0.11046076277E+04 0.  0.
        5    1    3    3  502    0  0.27281668374E+03 -0.31831478317E+03  0.20907643155E+03  0.46849577195E+03  0.46999998093E+01 0.  1.
       -5    1    3    3    0  502 -0.27281668374E+03  0.31831478317E+03 -0.54192610472E+03  0.68517095464E+03  0.46999998093E+01 0. -1.
</event>
<event>
 5   0  0.9719260E-03  0.1103346E+04  0.7818609E-02  0.9201936E-01
        2   -1    0    0  501    0  0.00000000000E+00  0.00000000000E+00  0.17982361721E+04  0.17982361721E+04  0.25500000920E-02 0. -1.
       -2   -1    0    0    0  501  0.00000000000E+00  0.00000000000E+00 -0.16924549312E+03  0.16924549314E+03  0.25500000920E-02 0.  1.
    10030    2    1    2    0    0  0.00000000000E+00  0.00000000000E+00  0.16289906789E+04  0.19674816652E+04  0.11033464872E+04 0.  0.
        3    1    3    3  502    0 -0.53802336213E+03  0.12121797772E+03  0.79054329789E+03  0.96390956648E+03  0.10100000352E+00 0.  1.
       -3    1    3    3    0  502  0.53802336213E+03 -0.12121797772E+03  0.83844738105E+03  0.10035720987E+04  0.10100000352E+00 0. -1.
</event>
<event>
 5   0  0.5789905E-03  0.1456595E+04  0.7818609E-02  0.8913841E-01
        1   -1    0    0  501    0  0.00000000000E+00  0.00000000000E+00  0.14230420817E+04  0.14230420817E+04  0.50400001928E-02 0. -1.
       -1   -1    0    0    0  501  0.00000000000E+00  0.00000000000E+00 -0.37273480064E+03  0.37273480068E+03  0.50400001928E-02 0.  1.
    10030    2    1    2    0    0  0.00000000000E+00  0.00000000000E+00  0.10503072810E+04  0.17957768824E+04  0.14565950799E+04 0.  0.
        1    1    3    3  502    0  0.97997747239E+00  0.46299838984E+02  0.14212250277E+04  0.14219793299E+04  0.50400001928E-02 0. -1.
       -1    1    3    3    0  502 -0.97997747239E+00 -0.46299838984E+02 -0.37091774661E+03  0.37379755246E+03  0.50400001928E-02 0.  1.
</event>
<event>
 5   0  0.5998641E-03  0.1117273E+04  0.7818609E-02  0.9188518E-01
        1   -1    0    0  501    0  0.00000000000E+00  0.00000000000E+00  0.77833289471E+03  0.77833289473E+03  0.50400001928E-02 0.  1.
       -1   -1    0    0    0  501  0.00000000000E+00  0.00000000000E+00 -0.40095253026E+03  0.40095253029E+03  0.50400001928E-02 0. -1.
    10030    2    1    2    0    0  0.00000000000E+00  0.00000000000E+00  0.37738036445E+03  0.11792854250E+04  0.11172726499E+04 0.  0.
        3    1    3    3  502    0  0.38022045316E+03  0.39629256664E+03  0.29663649004E+03  0.62418635743E+03  0.10100000352E+00 0.  1.
       -3    1    3    3    0  502 -0.38022045316E+03 -0.39629256664E+03  0.80743874413E+02  0.55509906759E+03  0.10100000352E+00 0. -1.
</event>
<event>
 5   0  0.5958706E-03  0.1087200E+04  0.7818609E-02  0.9217758E-01
       -1   -1    0    0    0  501  0.00000000000E+00  0.00000000000E+00  0.36876892967E+03  0.36876892971E+03  0.50400001928E-02 0.  1.
        1   -1    0    0  501    0  0.00000000000E+00  0.00000000000E+00 -0.80131747860E+03  0.80131747862E+03  0.50400001928E-02 0. -1.
    10030    2    1    2    0    0  0.00000000000E+00  0.00000000000E+00 -0.43254854893E+03  0.11700864083E+04  0.10872000532E+04 0.  0.
        2    1    3    3  502    0 -0.38930756003E+03  0.19344877592E+03 -0.56752752013E+03  0.71489180392E+03  0.25500000920E-02 0. -1.
       -2    1    3    3    0  502  0.38930756003E+03 -0.19344877592E+03  0.13497897120E+03  0.45519460440E+03  0.25500000920E-02 0.  1.
</event>
<event>
 5   0  0.3949750E-03  0.1079595E+04  0.7818609E-02  0.9225311E-01
        3   -1    0    0  501    0  0.00000000000E+00  0.00000000000E+00  0.68802532266E+03  0.68802533007E+03  0.10100000352E+00 0.  1.
       -3   -1    0    0    0  501  0.00000000000E+00  0.00000000000E+00 -0.42350410440E+03  0.42350411644E+03  0.10100000352E+00 0. -1.
    10030    2    1    2    0    0  0.00000000000E+00  0.00000000000E+00  0.26452121826E+03  0.11115294465E+04  0.10795954036E+04 0.  0.
        1    1    3    3  502    0  0.82565039189E+02  0.17068056398E+03  0.65261378329E+03  0.67959810976E+03  0.50400001928E-02 0.  1.
       -1    1    3    3    0  502 -0.82565039189E+02 -0.17068056398E+03 -0.38809256503E+03  0.43193133676E+03  0.50400001928E-02 0. -1.
</event>
<event>
 5   0  0.1019384E-02  0.1120245E+04  0.7818609E-02  0.9185681E-01
       -2   -1    0    0    0  501  0.00000000000E+00  0.00000000000E+00  0.58871786232E+03  0.58871786233E+03  0.25500000920E-02 0. -1.
        2   -1    0    0  501    0  0.00000000000E+00  0.00000000000E+00 -0.53291606776E+03  0.53291606777E+03  0.25500000920E-02 0.  1.
    10030    2    1    2    0    0  0.00000000000E+00  0.00000000000E+00  0.55801794561E+02  0.11216339301E+04  0.11202449879E+04 0.  0.
        1    1    3    3  502    0 -0.24227555035E+03 -0.49350507975E+03  0.13523690202E+03  0.56615697976E+03  0.50400001928E-02 0.  1.
       -1    1    3    3    0  502  0.24227555035E+03  0.49350507975E+03 -0.79435107458E+02  0.55547695034E+03  0.50400001928E-02 0. -1.
</event>
<event>
 5   0  0.9692981E-03  0.8366967E+03  0.7818609E-02  0.9508368E-01
        2   -1    0    0  501    0  0.00000000000E+00  0.00000000000E+00  0.73652187528E+03  0.73652187529E+03  0.25500000920E-02 0. -1.
       -2   -1    0    0    0  501  0.00000000000E+00  0.00000000000E+00 -0.23762410367E+03  0.23762410368E+03  0.25500000920E-02 0.  1.
    10030    2    1    2    0    0  0.00000000000E+00  0.00000000000E+00  0.49889777161E+03  0.97414597897E+03  0.83669672034E+03 0.  0.
        5    1    3    3  502    0 -0.94201388391E+02  0.14425915217E+03 -0.19436585051E+03  0.25977832551E+03  0.46999998093E+01 0.  1.
       -5    1    3    3    0  502  0.94201388391E+02 -0.14425915217E+03  0.69326362212E+03  0.71436765346E+03  0.46999998093E+01 0. -1.
</event>
<event>
 5   0  0.1028016E-02  0.1222110E+04  0.7818609E-02  0.9093721E-01
        2   -1    0    0  501    0  0.00000000000E+00  0.00000000000E+00  0.89350979798E+03  0.89350979798E+03  0.25500000920E-02 0. -1.
       -2   -1    0    0    0  501  0.00000000000E+00  0.00000000000E+00 -0.41788943383E+03  0.41788943384E+03  0.25500000920E-02 0.  1.
    10030    2    1    2    0    0  0.00000000000E+00  0.00000000000E+00  0.47562036415E+03  0.13113992318E+04  0.12221101482E+04 0.  0.
        2    1    3    3  502    0 -0.37892333097E+03 -0.17979299639E+03  0.71466482359E+03  0.82864601754E+03  0.25500000920E-02 0. -1.
       -2    1    3    3    0  502  0.37892333097E+03  0.17979299639E+03 -0.23904445945E+03  0.48275321428E+03  0.25500000920E-02 0.  1.
</event>
<event>
 5   0  0.9719260E-03  0.1172072E+04  0.7818609E-02  0.9137659E-01
       -2   -1    0    0    0  501  0.00000000000E+00  0.00000000000E+00  0.80479632429E+03  0.80479632430E+03  0.25500000920E-02 0. -1.
        2   -1    0    0  501    0  0.00000000000E+00  0.00000000000E+00 -0.42673921711E+03  0.42673921712E+03  0.25500000920E-02 0.  1.
    10030    2    1    2    0    0  0.00000000000E+00  0.00000000000E+00  0.37805710718E+03  0.12315355414E+04  0.11720719319E+04 0.  0.
        3    1    3    3  502    0 -0.52563986098E+03  0.22488963598E+03  0.32426550414E+03  0.65728284566E+03  0.10100000352E+00 0.  1.
       -3    1    3    3    0  502  0.52563986098E+03 -0.22488963598E+03  0.53791603042E+02  0.57425269576E+03  0.10100000352E+00 0. -1.
</event>
<event>
 5   0  0.5958706E-03  0.1083113E+04  0.7818609E-02  0.9221809E-01
        1   -1    0    0  501    0  0.00000000000E+00  0.00000000000E+00  0.62009278674E+03  0.62009278676E+03  0.50400001928E-02 0.  1.
       -1   -1    0    0    0  501  0.00000000000E+00  0.00000000000E+00 -0.47296683995E+03  0.47296683997E+03  0.50400001928E-02 0. -1.
    10030    2    1    2    0    0  0.00000000000E+00  0.00000000000E+00  0.14712594680E+03  0.10930596267E+04  0.10831127842E+04 0.  0.
        2    1    3    3  502    0 -0.25332082711E+03  0.38297968753E+03 -0.21619477804E+03  0.50752838794E+03  0.25500000920E-02 0. -1.
       -2    1    3    3    0  502  0.25332082711E+03 -0.38297968753E+03  0.36332072484E+03  0.58553123880E+03  0.25500000920E-02 0.  1.
</event>
<event>
 5   0  0.5789905E-03  0.1095779E+04  0.7818609E-02  0.9209316E-01
       -1   -1    0    0    0  501  0.00000000000E+00  0.00000000000E+00  0.10167239532E+04  0.10167239532E+04  0.50400001928E-02 0. -1.
        1   -1    0    0  501    0  0.00000000000E+00  0.00000000000E+00 -0.29524529958E+03  0.29524529962E+03  0.50400001928E-02 0.  1.
    10030    2    1    2    0    0  0.00000000000E+00  0.00000000000E+00  0.72147865362E+03  0.13119692528E+04  0.10957791168E+04 0.  0.
        1    1    3    3  502    0  0.27460994157E+03 -0.32714418232E+03 -0.50106907419E+02  0.43005190179E+03  0.50400001928E-02 0.  1.
       -1    1    3    3    0  502 -0.27460994157E+03  0.32714418232E+03  0.77158556104E+03  0.88191735104E+03  0.50400001928E-02 0. -1.
</event>
<event>
 5   0  0.9719260E-03  0.1022580E+04  0.7818609E-02  0.9284121E-01
       -2   -1    0    0    0  501  0.00000000000E+00  0.00000000000E+00  0.24670739975E+03  0.24670739976E+03  0.25500000920E-02 0.  1.
        2   -1    0    0  501    0  0.00000000000E+00  0.00000000000E+00 -0.10596246063E+04  0.10596246063E+04  0.25500000920E-02 0. -1.
    10030    2    1    2    0    0  0.00000000000E+00  0.00000000000E+00 -0.81291720651E+03  0.13063320060E+04  0.10225795447E+04 0.  0.
        3    1    3    3  502    0  0.43532394648E+03  0.20165074737E+03 -0.63227861666E+03  0.79369151538E+03  0.10100000352E+00 0. -1.
       -3    1    3    3    0  502 -0.43532394648E+03 -0.20165074737E+03 -0.18063858984E+03  0.51264049063E+03  0.10100000352E+00 0.  1.
</event>
<event>
 5   0  0.9692981E-03  0.1092358E+04  0.7818609E-02  0.9212673E-01
        2   -1    0    0  501    0  0.00000000000E+00  0.00000000000E+00  0.19437177657E+04  0.19437177657E+04  0.25500000920E-02 0.  1.
       -2   -1    0    0    0  501  0.00000000000E+00  0.00000000000E+00 -0.15347460274E+03  0.15347460276E+03  0.25500000920E-02 0. -1.
    10030    2    1    2    0    0  0.00000000000E+00  0.00000000000E+00  0.17902431630E+04  0.20971923685E+04  0.10923576556E+04 0.  0.
        5    1    3    3  502    0  0.33188046587E+03  0.19778940831E+03  0.15397959776E+03  0.41592920094E+03  0.46999998093E+01 0. -1.
       -5    1    3    3    0  502 -0.33188046587E+03 -0.19778940831E+03  0.16362635652E+04  0.16812631676E+04  0.46999998093E+01 0.  1.
</event>
<event>
 5   0  0.5998641E-03  0.1120585E+04  0.7818609E-02  0.9185357E-01
       -1   -1    0    0    0  501  0.00000000000E+00  0.00000000000E+00  0.58170013867E+03  0.58170013869E+03  0.50400001928E-02 0. -1.
        1   -1    0    0  501    0  0.00000000000E+00  0.00000000000E+00 -0.53967312299E+03  0.53967312301E+03  0.50400001928E-02 0.  1.
    10030    2    1    2    0    0  0.00000000000E+00  0.00000000000E+00  0.42027015675E+02  0.11213732617E+04  0.11205854372E+04 0.  0.
        3    1    3    3  502    0  0.20791863795E+03  0.26554735827E+03  0.46874549807E+03  0.57746680567E+03  0.10100000352E+00 0. -1.
       -3    1    3    3    0  502 -0.20791863795E+03 -0.26554735827E+03 -0.42671848240E+03  0.54390645603E+03  0.10100000352E+00 0.  1.
</event>
<event>
 5   0  0.5958706E-03  0.9913577E+03  0.7818609E-02  0.9318075E-01
       -1   -1    0    0    0  501  0.00000000000E+00  0.00000000000E+00  0.16959781496E+04  0.16959781496E+04  0.50400001928E-02 0.  1.
        1   -1    0    0  501    0  0.00000000000E+00  0.00000000000E+00 -0.14487067993E+03  0.14487068002E+03  0.50400001928E-02 0. -1.
    10030    2    1    2    0    0  0.00000000000E+00  0.00000000000E+00  0.15511074696E+04  0.18408488296E+04  0.99135767061E+03 0.  0.
        2    1    3    3  502    0  0.20627202058E+03 -0.25478039985E+03  0.85156855991E+02  0.33869291217E+03  0.25500000920E-02 0. -1.
       -2    1    3    3    0  502 -0.20627202058E+03  0.25478039985E+03  0.14659506136E+04  0.15021559174E+04  0.25500000920E-02 0.  1.
</event>
<event>
 5   0  0.5958706E-03  0.1090170E+04  0.7818609E-02  0.9214827E-01
        1   -1    0    0  501    0  0.00000000000E+00  0.00000000000E+00  0.38757081732E+03  0.38757081735E+03  0.50400001928E-02 0. -1.
       -1   -1    0    0    0  501  0.00000000000E+00  0.00000000000E+00 -0.76661452255E+03  0.76661452257E+03  0.50400001928E-02 0.  1.
    10030    2    1    2    0    0  0.00000000000E+00  0.00000000000E+00 -0.37904370523E+03  0.11541853399E+04  0.10901695595E+04 0.  0.
        2    1    3    3  502    0  0.22763094337E+03  0.49515818319E+03 -0.17792683584E+03  0.57328477363E+03  0.25500000920E-02 0. -1.
       -2    1    3    3    0  502 -0.22763094337E+03 -0.49515818319E+03 -0.20111686940E+03  0.58090056629E+03  0.25500000920E-02 0.  1.
</event>
<event>
 5   0  0.9925021E-03  0.1096831E+04  0.7818609E-02  0.9208286E-01
        2   -1    0    0  501    0  0.00000000000E+00  0.00000000000E+00  0.33749045298E+03  0.33749045299E+03  0.25500000920E-02 0.  1.
       -2   -1    0    0    0  501  0.00000000000E+00  0.00000000000E+00 -0.89116453740E+03  0.89116453740E+03  0.25500000920E-02 0. -1.
    10030    2    1    2    0    0  0.00000000000E+00  0.00000000000E+00 -0.55367408441E+03  0.12286549904E+04  0.10968309321E+04 0.  0.
        4    1    3    3  502    0 -0.38810795779E+03 -0.35615618081E+03 -0.44776329889E+03  0.69135272963E+03  0.12699999809E+01 0.  1.
       -4    1    3    3    0  502  0.38810795779E+03  0.35615618081E+03 -0.10591078552E+03  0.53730226076E+03  0.12699999809E+01 0. -1.
</event>
<event>
 5   0  0.5712664E-03  0.1017805E+04  0.7818609E-02  0.9289229E-01
        1   -1    0    0  501    0  0.00000000000E+00  0.00000000000E+00  0.92655742919E+03  0.92655742920E+03  0.50400001928E-02 0. -1.
       -1   -1    0    0    0  501  0.00000000000E+00  0.00000000000E+00 -0.27950984822E+03  0.27950984827E+03  0.50400001928E-02 0.  1.
    10030    2    1    2    0    0  0.00000000000E+00  0.00000000000E+00  0.64704758096E+03  0.12060672775E+04  0.10178053378E+04 0.  0.
        5    1    3    3  502    0  0.14341716092E+03  0.19675291125E+03  0.85303323373E+03  0.88711215637E+03  0.46999998093E+01 0. -1.
       -5    1    3    3    0  502 -0.14341716092E+03 -0.19675291125E+03 -0.20598565277E+03  0.31895512110E+03  0.46999998093E+01 0.  1.
</event>
<event>
 5   0  0.9692981E-03  0.1079087E+04  0.7818609E-02  0.9225819E-01
       -2   -1    0    0    0  501  0.00000000000E+00  0.00000000000E+00  0.31172989122E+03  0.31172989123E+03  0.25500000920E-02 0.  1.
        2   -1    0    0  501    0  0.00000000000E+00  0.00000000000E+00 -0.93384361811E+03  0.93384361811E+03  0.25500000920E-02 0. -1.
    10030    2    1    2    0    0  0.00000000000E+00  0.00000000000E+00 -0.62211372689E+03  0.12455735093E+04  0.10790865943E+04 0.  0.
        5    1    3    3  502    0 -0.41847554067E+03 -0.69016797316E+02  0.73858313954E+02  0.43053714937E+03  0.46999998093E+01 0.  1.
       -5    1    3    3    0  502  0.41847554067E+03  0.69016797316E+02 -0.69597204084E+03  0.81503635998E+03  0.46999998093E+01 0. -1.
</event>
<event>
 5   0  0.5958706E-03  0.9999879E+03  0.7818609E-02  0.9308558E-01
        1   -1    0    0  501    0  0.00000000000E+00  0.00000000000E+00  0.10524999151E+03  0.10524999163E+03  0.50400001928E-02 0.  1.
       -1   -1    0    0    0  501  0.00000000000E+00  0.00000000000E+00 -0.23752394634E+04  0.23752394634E+04  0.50400001928E-02 0. -1.
    10030    2    1    2    0    0  0.00000000000E+00  0.00000000000E+00 -0.22699894719E+04  0.24804894550E+04  0.99998786696E+03 0.  0.
        2    1    3    3  502    0  0.38024673283E+03 -0.30413618671E+03 -0.14168098756E+04  0.14981443927E+04  0.25500000920E-02 0.  1.
       -2    1    3    3    0  502 -0.38024673283E+03  0.30413618671E+03 -0.85317959632E+03  0.98234506233E+03  0.25500000920E-02 0. -1.
</event>
<event>
 5   0  0.3949750E-03  0.1061139E+04  0.7818609E-02  0.9243918E-01
       -3   -1    0    0    0  501  0.00000000000E+00  0.00000000000E+00  0.98458543352E+03  0.98458543870E+03  0.10100000352E+00 0. -1.
        3   -1    0    0  501    0  0.00000000000E+00  0.00000000000E+00 -0.28591131210E+03  0.28591132993E+03  0.10100000352E+00 0.  1.
    10030    2    1    2    0    0  0.00000000000E+00  0.00000000000E+00  0.69867412143E+03  0.12704967686E+04  0.10611392515E+04 0.  0.
        5    1    3    3  502    0 -0.75585763536E+02  0.48090160637E+03  0.60191375129E+03  0.77414586264E+03  0.46999998093E+01 0. -1.
       -5    1    3    3    0  502  0.75585763536E+02 -0.48090160637E+03  0.96760370141E+02  0.49635090600E+03  0.46999998093E+01 0.  1.
</event>
<event>
 5   0  0.1019384E-02  0.1122263E+04  0.7818609E-02  0.9183760E-01
        2   -1    0    0  501    0  0.00000000000E+00  0.00000000000E+00  0.58208132452E+03  0.58208132453E+03  0.25500000920E-02 0.  1.
       -2   -1    0    0    0  501  0.00000000000E+00  0.00000000000E+00 -0.54093586497E+03  0.54093586497E+03  0.25500000920E-02 0. -1.
    10030    2    1    2    0    0  0.00000000000E+00  0.00000000000E+00  0.41145459554E+02  0.11230171895E+04  0.11222631862E+04 0.  0.
        1    1    3    3  502    0  0.40186759461E+02  0.10305247011E+03 -0.52991856814E+03  0.54133952018E+03  0.50400001928E-02 0. -1.
       -1    1    3    3    0  502 -0.40186759461E+02 -0.10305247011E+03  0.57106402769E+03  0.58167766931E+03  0.50400001928E-02 0.  1.
</event>
<event>
 5   0  0.5998641E-03  0.1128718E+04  0.7818609E-02  0.9177645E-01
        1   -1    0    0  501    0  0.00000000000E+00  0.00000000000E+00  0.66062211792E+03  0.66062211794E+03  0.50400001928E-02 0. -1.
       -1   -1    0    0    0  501  0.00000000000E+00  0.00000000000E+00 -0.48212297480E+03  0.48212297483E+03  0.50400001928E-02 0.  1.
    10030    2    1    2    0    0  0.00000000000E+00  0.00000000000E+00  0.17849914312E+03  0.11427450928E+04  0.11287180352E+04 0.  0.
        3    1    3    3  502    0 -0.39024820691E+01 -0.36258457011E+03 -0.34858085810E+03  0.50298252920E+03  0.10100000352E+00 0.  1.
       -3    1    3    3    0  502  0.39024820691E+01  0.36258457011E+03  0.52708000122E+03  0.63976256356E+03  0.10100000352E+00 0. -1.
</event>
<event>
 5   0  0.3949750E-03  0.1144272E+04  0.7818609E-02  0.9163084E-01
        4   -1    0    0  501    0  0.00000000000E+00  0.00000000000E+00  0.25968967544E+03  0.25969278086E+03  0.12699999809E+01 0. -1.
       -4   -1    0    0    0  501  0.00000000000E+00  0.00000000000E+00 -0.12604929845E+04  0.12604936243E+04  0.12699999809E+01 0.  1.
    10030    2    1    2    0    0  0.00000000000E+00  0.00000000000E+00 -0.10008033091E+04  0.15201864052E+04  0.11442724514E+04 0.  0.
        2    1    3    3  502    0 -0.39907649777E+03  0.25314915600E+03 -0.92882202481E+03  0.10421405376E+04  0.25500000920E-02 0.  1.
       -2    1    3    3    0  502  0.39907649777E+03 -0.25314915600E+03 -0.71981284297E+02  0.47804586762E+03  0.25500000920E-02 0. -1.
</event>
<event>
 5   0  0.1028016E-02  0.1146103E+04  0.7818609E-02  0.9161386E-01
        2   -1    0    0  501    0  0.00000000000E+00  0.00000000000E+00  0.13043436591E+04  0.13043436591E+04  0.25500000920E-02 0.  1.
       -2   -1    0    0    0  501  0.00000000000E+00  0.00000000000E+00 -0.25176513817E+03  0.25176513818E+03  0.25500000920E-02 0. -1.
    10030    2    1    2    0    0  0.00000000000E+00  0.00000000000E+00  0.10525785209E+04  0.15561087973E+04  0.11461034187E+04 0.  0.
        2    1    3    3  502    0 -0.48720546371E+02 -0.57014443103E+03  0.56813531958E+03  0.80635978647E+03  0.25500000920E-02 0. -1.
       -2    1    3    3    0  502  0.48720546371E+02  0.57014443103E+03  0.48444320132E+03  0.74974901079E+03  0.25500000920E-02 0.  1.
</event>
<event>
 5   0  0.1028016E-02  0.1142798E+04  0.7818609E-02  0.9164454E-01
       -2   -1    0    0    0  501  0.00000000000E+00  0.00000000000E+00  0.43537373148E+03  0.43537373149E+03  0.25500000920E-02 0. -1.
        2   -1    0    0  501    0  0.00000000000E+00  0.00000000000E+00 -0.74992261708E+03  0.74992261709E+03  0.25500000920E-02 0.  1.
    10030    2    1    2    0    0  0.00000000000E+00  0.00000000000E+00 -0.31454888560E+03  0.11852963486E+04  0.11427976341E+04 0.  0.
        2    1    3    3  502    0  0.29638993840E+03  0.48533084837E+03 -0.99492904838E+02  0.57731435638E+03  0.25500000920E-02 0. -1.
       -2    1    3    3    0  502 -0.29638993840E+03 -0.48533084837E+03 -0.21505598076E+03  0.60798199220E+03  0.25500000920E-02 0.  1.
</event>
<event>
 5   0  0.9925021E-03  0.1094888E+04  0.7818609E-02  0.9210188E-01
        2   -1    0    0  501    0  0.00000000000E+00  0.00000000000E+00  0.55297824227E+03  0.55297824228E+03  0.25500000920E-02 0.  1.
       -2   -1    0    0    0  501  0.00000000000E+00  0.00000000000E+00 -0.54196556792E+03  0.54196556793E+03  0.25500000920E-02 0. -1.
    10030    2    1    2    0    0  0.00000000000E+00  0.00000000000E+00  0.11012674346E+02  0.10949438102E+04  0.10948884274E+04 0.  0.
        4    1    3    3  502    0  0.17259073976E+03 -0.51482157769E+01  0.52503188033E+03  0.55269716467E+03  0.12699999809E+01 0.  1.
       -4    1    3    3    0  502 -0.17259073976E+03  0.51482157769E+01 -0.51401920598E+03  0.54224664553E+03  0.12699999809E+01 0. -1.
</event>
<event>
 5   0  0.1028016E-02  0.1113869E+04  0.7818609E-02  0.9191778E-01
       -2   -1    0    0    0  501  0.00000000000E+00  0.00000000000E+00  0.37619594805E+03  0.37619594805E+03  0.25500000920E-02 0. -1.
        2   -1    0    0  501    0  0.00000000000E+00  0.00000000000E+00 -0.82450705018E+03  0.82450705019E+03  0.25500000920E-02 0.  1.
    10030    2    1    2    0    0  0.00000000000E+00  0.00000000000E+00 -0.44831110214E+03  0.12007029982E+04  0.11138693127E+04 0.  0.
        2    1    3    3  502    0  0.49601903223E+02  0.44995583044E+03 -0.57387838492E+03  0.73092886031E+03  0.25500000920E-02 0.  1.
       -2    1    3    3    0  502 -0.49601903223E+02 -0.44995583044E+03  0.12556728278E+03  0.46977413793E+03  0.25500000920E-02 0. -1.
</event>
<event>
 5   0  0.1028016E-02  0.1073437E+04  0.7818609E-02  0.9231476E-01
        2   -1    0    0  501    0  0.00000000000E+00  0.00000000000E+00  0.70452868441E+03  0.70452868441E+03  0.25500000920E-02 0. -1.
       -2   -1    0    0    0  501  0.00000000000E+00  0.00000000000E+00 -0.40887877481E+03  0.40887877481E+03  0.25500000920E-02 0.  1.
    10030    2    1    2    0    0  0.00000000000E+00  0.00000000000E+00  0.29564990960E+03  0.11134074592E+04  0.10734371436E+04 0.  0.
        2    1    3    3  502    0  0.56195318447E+02 -0.39773912592E+02  0.69992966066E+03  0.70330747744E+03  0.25500000920E-02 0. -1.
       -2    1    3    3    0  502 -0.56195318447E+02  0.39773912592E+02 -0.40427975106E+03  0.41009998179E+03  0.25500000920E-02 0.  1.
</event>
<event>
 5   0  0.9719260E-03  0.1059969E+04  0.7818609E-02  0.9245112E-01
       -2   -1    0    0    0  501  0.00000000000E+00  0.00000000000E+00  0.20999722925E+03  0.20999722927E+03  0.25500000920E-02 0. -1.
        2   -1    0    0  501    0  0.00000000000E+00  0.00000000000E+00 -0.13375573828E+04  0.13375573828E+04  0.25500000920E-02 0.  1.
    10030    2    1    2    0    0  0.00000000000E+00  0.00000000000E+00 -0.11275601536E+04  0.15475546121E+04  0.10599685738E+04 0.  0.
        3    1    3    3  502    0  0.89836546541E+02  0.51671619376E+03 -0.45242592466E+03  0.69264381720E+03  0.10100000352E+00 0.  1.
       -3    1    3    3    0  502 -0.89836546541E+02 -0.51671619376E+03 -0.67513422892E+03  0.85491079491E+03  0.10100000352E+00 0. -1.
</event>
<event>
 5   0  0.5958706E-03  0.1087793E+04  0.7818609E-02  0.9217172E-01
       -1   -1    0    0    0  501  0.00000000000E+00  0.00000000000E+00  0.41660202698E+03  0.41660202701E+03  0.50400001928E-02 0.  1.
        1   -1    0    0  501    0  0.00000000000E+00  0.00000000000E+00 -0.71008601425E+03  0.71008601427E+03  0.50400001928E-02 0. -1.
    10030    2    1    2    0    0  0.00000000000E+00  0.00000000000E+00 -0.29348398727E+03  0.11266880413E+04  0.10877927613E+04 0.  0.
        2    1    3    3  502    0  0.44262343571E+03  0.24939669171E+03  0.54389629074E+02  0.51095249039E+03  0.25500000920E-02 0.  1.
       -2    1    3    3    0  502 -0.44262343571E+03 -0.24939669171E+03 -0.34787361634E+03  0.61573555089E+03  0.25500000920E-02 0. -1.
</event>
<event>
 5   0  0.5789905E-03  0.1115414E+04  0.7818609E-02  0.9190298E-01
        1   -1    0    0  501    0  0.00000000000E+00  0.00000000000E+00  0.15639348067E+04  0.15639348067E+04  0.50400001928E-02 0. -1.
       -1   -1    0    0    0  501  0.00000000000E+00  0.00000000000E+00 -0.19888096326E+03  0.19888096332E+03  0.50400001928E-02 0.  1.
    10030    2    1    2    0    0  0.00000000000E+00  0.00000000000E+00  0.13650538435E+04  0.17628157701E+04  0.11154135751E+04 0.  0.
        1    1    3    3  502    0 -0.35493817348E+02 -0.31291183957E+03 -0.44915788765E+02  0.31810542045E+03  0.50400001928E-02 0.  1.
       -1    1    3    3    0  502  0.35493817348E+02  0.31291183957E+03  0.14099696322E+04  0.14447103496E+04  0.50400001928E-02 0. -1.
</event>
<event>
 5   0  0.5998641E-03  0.1135811E+04  0.7818609E-02  0.9170974E-01
        1   -1    0    0  501    0  0.00000000000E+00  0.00000000000E+00  0.48057341948E+03  0.48057341951E+03  0.50400001928E-02 0. -1.
       -1   -1    0    0    0  501  0.00000000000E+00  0.00000000000E+00 -0.67110848450E+03  0.67110848452E+03  0.50400001928E-02 0.  1.
    10030    2    1    2    0    0  0.00000000000E+00  0.00000000000E+00 -0.19053506502E+03  0.11516819040E+04  0.11358114267E+04 0.  0.
        3    1    3    3  502    0  0.18840279040E+03 -0.20913922155E+02  0.44754790791E+03  0.48603718339E+03  0.10100000352E+00 0. -1.
       -3    1    3    3    0  502 -0.18840279040E+03  0.20913922155E+02 -0.63808297293E+03  0.66564472064E+03  0.10100000352E+00 0.  1.
</event>
<event>
 5   0  0.3949750E-03  0.1047514E+04  0.7818609E-02  0.9257915E-01
       -3   -1    0    0    0  501  0.00000000000E+00  0.00000000000E+00  0.45193977017E+03  0.45193978146E+03  0.10100000352E+00 0.  1.
        3   -1    0    0  501    0  0.00000000000E+00  0.00000000000E+00 -0.60698649130E+03  0.60698649970E+03  0.10100000352E+00 0. -1.
    10030    2    1    2    0    0  0.00000000000E+00  0.00000000000E+00 -0.15504672113E+03  0.10589262812E+04  0.10475139060E+04 0.  0.
        1    1    3    3  502    0  0.22007974114E+03  0.35650834426E+03  0.24020658240E+03  0.48294150188E+03  0.50400001928E-02 0.  1.
       -1    1    3    3    0  502 -0.22007974114E+03 -0.35650834426E+03 -0.39525330353E+03  0.57598477928E+03  0.50400001928E-02 0. -1.
</event>
<event>
 5   0  0.5958706E-03  0.1116682E+04  0.7818609E-02  0.9189083E-01
       -1   -1    0    0    0  501  0.00000000000E+00  0.00000000000E+00  0.43538550999E+03  0.43538551002E+03  0.50400001928E-02 0.  1.
        1   -1    0    0  501    0  0.00000000000E+00  0.00000000000E+00 -0.71601999962E+03  0.71601999964E+03  0.50400001928E-02 0. -1.
    10030    2    1    2    0    0  0.00000000000E+00  0.00000000000E+00 -0.28063448963E+03  0.11514055097E+04  0.11166821083E+04 0.  0.
        2    1    3    3  502    0  0.48706884182E+02  0.54836622627E+03 -0.23630801728E+03  0.59909878795E+03  0.25500000920E-02 0.  1.
       -2    1    3    3    0  502 -0.48706884182E+02 -0.54836622627E+03 -0.44326472349E+02  0.55230672171E+03  0.25500000920E-02 0. -1.
</event>
<event>
 5   0  0.5789905E-03  0.1086307E+04  0.7818609E-02  0.9218642E-01
        1   -1    0    0  501    0  0.00000000000E+00  0.00000000000E+00  0.50203512365E+03  0.50203512368E+03  0.50400001928E-02 0. -1.
       -1   -1    0    0    0  501  0.00000000000E+00  0.00000000000E+00 -0.58763948205E+03  0.58763948207E+03  0.50400001928E-02 0.  1.
    10030    2    1    2    0    0  0.00000000000E+00  0.00000000000E+00 -0.85604358395E+02  0.10896746057E+04  0.10863068812E+04 0.  0.
        1    1    3    3  502    0 -0.25536497666E+03 -0.46783605773E+03  0.62086857490E+02  0.53659726622E+03  0.50400001928E-02 0. -1.
       -1    1    3    3    0  502  0.25536497666E+03  0.46783605773E+03 -0.14769121589E+03  0.55307733952E+03  0.50400001928E-02 0.  1.
</event>
<event>
 5   0  0.9925021E-03  0.1078095E+04  0.7818609E-02  0.9226809E-01
        2   -1    0    0  501    0  0.00000000000E+00  0.00000000000E+00  0.11724968699E+04  0.11724968699E+04  0.25500000920E-02 0.  1.
       -2   -1    0    0    0  501  0.00000000000E+00  0.00000000000E+00 -0.24782328144E+03  0.24782328145E+03  0.25500000920E-02 0. -1.
    10030    2    1    2    0    0  0.00000000000E+00  0.00000000000E+00  0.92467358847E+03  0.14203201514E+04  0.10780946559E+04 0.  0.
        4    1    3    3  502    0 -0.24491849371E+03 -0.25444377012E+03  0.99884807191E+03  0.10594459799E+04  0.12699999809E+01 0. -1.
       -4    1    3    3    0  502  0.24491849371E+03  0.25444377012E+03 -0.74174483444E+02  0.36087417144E+03  0.12699999809E+01 0.  1.
</event>
<event>
 5   0  0.9925021E-03  0.1109556E+04  0.7818609E-02  0.9195928E-01
        2   -1    0    0  501    0  0.00000000000E+00  0.00000000000E+00  0.11319175520E+04  0.11319175520E+04  0.25500000920E-02 0. -1.
       -2   -1    0    0    0  501  0.00000000000E+00  0.00000000000E+00 -0.27190904177E+03  0.27190904178E+03  0.25500000920E-02 0.  1.
    10030    2    1    2    0    0  0.00000000000E+00  0.00000000000E+00  0.86000851027E+03  0.14038265938E+04  0.11095559778E+04 0.  0.
        4    1    3    3  502    0  0.54062137281E+03  0.85244883642E+02  0.54484537457E+03  0.77226695774E+03  0.12699999809E+01 0. -1.
       -4    1    3    3    0  502 -0.54062137281E+03 -0.85244883642E+02  0.31516313570E+03  0.63155963608E+03  0.12699999809E+01 0.  1.
</event>
<event>
 5   0  0.1028016E-02  0.1086701E+04  0.7818609E-02  0.9218252E-01
       -2   -1    0    0    0  501  0.00000000000E+00  0.00000000000E+00  0.75869252663E+03  0.75869252663E+03  0.25500000920E-02 0.  1.
        2   -1    0    0  501    0  0.00000000000E+00  0.00000000000E+00 -0.38912976434E+03  0.38912976434E+03  0.25500000920E-02 0. -1.
    10030    2    1    2    0    0  0.00000000000E+00  0.00000000000E+00  0.36956276229E+03  0.11478222910E+04  0.10867011440E+04 0.  0.
        2    1    3    3  502    0 -0.47067769453E+03  0.86663134783E+02  0.45650913056E+03  0.66139895476E+03  0.25500000920E-02 0.  1.
       -2    1    3    3    0  502  0.47067769453E+03 -0.86663134783E+02 -0.86946368269E+02  0.48642333622E+03  0.25500000920E-02 0. -1.
</event>
<event>
 5   0  0.5712664E-03  0.9666883E+03  0.7818609E-02  0.9345854E-01
        1   -1    0    0  501    0  0.00000000000E+00  0.00000000000E+00  0.52400198189E+03  0.52400198191E+03  0.50400001928E-02 0.  1.
       -1   -1    0    0    0  501  0.00000000000E+00  0.00000000000E+00 -0.44584096453E+03  0.44584096456E+03  0.50400001928E-02 0. -1.
    10030    2    1    2    0    0  0.00000000000E+00  0.00000000000E+00  0.78161017359E+02  0.96984294647E+03  0.96668826215E+03 0.  0.
        5    1    3    3  502    0 -0.46454425728E+02 -0.37505799046E+01 -0.44355840442E+03  0.44602491931E+03  0.46999998093E+01 0. -1.
       -5    1    3    3    0  502  0.46454425728E+02  0.37505799046E+01  0.52171942178E+03  0.52381802716E+03  0.46999998093E+01 0.  1.
</event>
<event>
 5   0  0.5854579E-03  0.1118073E+04  0.7818609E-02  0.9187753E-01
        1   -1    0    0  501    0  0.00000000000E+00  0.00000000000E+00  0.31586428269E+03  0.31586428273E+03  0.50400001928E-02 0. -1.
       -1   -1    0    0    0  501  0.00000000000E+00  0.00000000000E+00 -0.98941824297E+03  0.98941824299E+03  0.50400001928E-02 0.  1.
    10030    2    1    2    0    0  0.00000000000E+00  0.00000000000E+00 -0.67355396028E+03  0.13052825257E+04  0.11180731347E+04 0.  0.
        4    1    3    3  502    0  0.21022542314E+03 -0.22342011340E+03  0.20881700281E+03  0.37110298998E+03  0.12699999809E+01 0. -1.
       -4    1    3    3    0  502 -0.21022542314E+03  0.22342011340E+03 -0.88237096309E+03  0.93417953575E+03  0.12699999809E+01 0.  1.
</event>
<event>
 5   0  0.5998641E-03  0.1112340E+04  0.7818609E-02  0.9193247E-01
       -1   -1    0    0    0  501  0.00000000000E+00  0.00000000000E+00  0.80641838449E+03  0.80641838451E+03  0.50400001928E-02 0. -1.
        1   -1    0    0  501    0  0.00000000000E+00  0.00000000000E+00 -0.38357920190E+03  0.38357920193E+03  0.50400001928E-02 0.  1.
    10030    2    1    2    0    0  0.00000000000E+00  0.00000000000E+00  0.42283918259E+03  0.11899975864E+04  0.11123404521E+04 0.  0.
        3    1    3    3  502    0  0.53112731248E+03  0.13550809195E+03  0.11068282354E+03  0.55920422269E+03  0.10100000352E+00 0.  1.
       -3    1    3    3    0  502 -0.53112731248E+03 -0.13550809195E+03  0.31215635905E+03  0.63079336375E+03  0.10100000352E+00 0. -1.
</event>
<event>
 5   0  0.3949750E-03  0.1067984E+04  0.7818609E-02  0.9236971E-01
        3   -1    0    0  501    0  0.00000000000E+00  0.00000000000E+00  0.23176270618E+03  0.23176272819E+03  0.10100000352E+00 0.  1.
       -3   -1    0    0    0  501  0.00000000000E+00  0.00000000000E+00 -0.12303426255E+04  0.12303426296E+04  0.10100000352E+00 0. -1.
    10030    2    1    2    0    0  0.00000000000E+00  0.00000000000E+00 -0.99857991932E+03  0.14621053578E+04  0.10679841863E+04 0.  0.
        4    1    3    3  502    0  0.36478705752E+02 -0.47471276205E+03 -0.16826972333E+03  0.50497446976E+03  0.12699999809E+01 0.  1.
       -4    1    3    3    0  502 -0.36478705752E+02  0.47471276205E+03 -0.83031019600E+03  0.95713088807E+03  0.12699999809E+01 0. -1.
</event>
<event>
 5   0  0.5854579E-03  0.1106297E+04  0.7818609E-02  0.9199076E-01
       -1   -1    0    0    0  501  0.00000000000E+00  0.00000000000E+00  0.34884244039E+03  0.34884244043E+03  0.50400001928E-02 0.  1.
        1   -1    0    0  501    0  0.00000000000E+00  0.00000000000E+00 -0.87711011117E+03  0.87711011118E+03  0.50400001928E-02 0. -1.
    10030    2    1    2    0    0  0.00000000000E+00  0.00000000000E+00 -0.52826767078E+03  0.12259525516E+04  0.11062969433E+04 0.  0.
        4    1    3    3  502    0  0.31879708185E+03  0.36164178443E+03 -0.56467835593E+03  0.74248206592E+03  0.12699999809E+01 0. -1.
       -4    1    3    3    0  502 -0.31879708185E+03 -0.36164178443E+03  0.36410685153E+02  0.48347048570E+03  0.12699999809E+01 0.  1.
</event>
<event>
 5   0  0.5958706E-03  0.1087904E+04  0.7818609E-02  0.9217062E-01
        1   -1    0    0  501    0  0.00000000000E+00  0.00000000000E+00  0.72600647611E+03  0.72600647613E+03  0.50400001928E-02 0.  1.
       -1   -1    0    0    0  501  0.00000000000E+00  0.00000000000E+00 -0.40755006088E+03  0.40755006091E+03  0.50400001928E-02 0. -1.
    10030    2    1    2    0    0  0.00000000000E+00  0.00000000000E+00  0.31845641523E+03  0.11335565370E+04  0.10879043774E+04 0.  0.
        2    1    3    3  502    0  0.11471512371E+02  0.43064109535E+03 -0.18682387545E+03  0.46955990997E+03  0.25500000920E-02 0.  1.
       -2    1    3    3    0  502 -0.11471512371E+02 -0.43064109535E+03  0.50528029068E+03  0.66399662707E+03  0.25500000920E-02 0. -1.
</event>
<event>
 5   0  0.1019384E-02  0.1059806E+04  0.7818609E-02  0.9245278E-01
       -2   -1    0    0    0  501  0.00000000000E+00  0.00000000000E+00  0.22007878051E+03  0.22007878053E+03  0.25500000920E-02 0. -1.
        2   -1    0    0  501    0  0.00000000000E+00  0.00000000000E+00 -0.12758944401E+04  0.12758944401E+04  0.25500000920E-02 0.  1.
    10030    2    1    2    0    0  0.00000000000E+00  0.00000000000E+00 -0.10558156596E+04  0.14959732207E+04  0.10598061945E+04 0.  0.
        1    1    3    3  502    0 -0.10657243943E+03  0.79107794754E+02 -0.12520520985E+04  0.12590671886E+04  0.50400001928E-02 0.  1.
       -1    1    3    3    0  502  0.10657243943E+03 -0.79107794754E+02  0.19623643890E+03  0.23690603204E+03  0.50400001928E-02 0. -1.
</event>
<event>
 5   0  0.1028016E-02  0.1045367E+04  0.7818609E-02  0.9260140E-01
       -2   -1    0    0    0  501  0.00000000000E+00  0.00000000000E+00  0.73795804551E+03  0.73795804552E+03  0.25500000920E-02 0.  1.
        2   -1    0    0  501    0  0.00000000000E+00  0.00000000000E+00 -0.37020823857E+03  0.37020823858E+03  0.25500000920E-02 0. -1.
    10030    2    1    2    0    0  0.00000000000E+00  0.00000000000E+00  0.36774980694E+03  0.11081662841E+04  0.10453672047E+04 0.  0.
        2    1    3    3  502    0 -0.24996053595E+03 -0.42741415412E+03  0.36137005430E+03  0.61298568076E+03  0.25500000920E-02 0.  1.
       -2    1    3    3    0  502  0.24996053595E+03  0.42741415412E+03  0.63797526416E+01  0.49518060333E+03  0.25500000920E-02 0. -1.
</event>
<event>
 5   0  0.9719260E-03  0.1214054E+04  0.7818609E-02  0.9100643E-01
       -2   -1    0    0    0  501  0.00000000000E+00  0.00000000000E+00  0.71361172361E+03  0.71361172361E+03  0.25500000920E-02 0. -1.
        2   -1    0    0  501    0  0.00000000000E+00  0.00000000000E+00 -0.51636204192E+03  0.51636204193E+03  0.25500000920E-02 0.  1.
    10030    2    1    2    0    0  0.00000000000E+00  0.00000000000E+00  0.19724968169E+03  0.12299737655E+04  0.12140543756E+04 0.  0.
        3    1    3    3  502    0  0.20680526150E+03  0.23995577844E+03  0.62323211117E+03  0.69911763416E+03  0.10100000352E+00 0. -1.
       -3    1    3    3    0  502 -0.20680526150E+03 -0.23995577844E+03 -0.42598242949E+03  0.53085613138E+03  0.10100000352E+00 0.  1.
</event>
<event>
 5   0  0.9692981E-03  0.1095487E+04  0.7818609E-02  0.9209601E-01
       -2   -1    0    0    0  501  0.00000000000E+00  0.00000000000E+00  0.17634181787E+03  0.17634181789E+03  0.25500000920E-02 0. -1.
        2   -1    0    0  501    0  0.00000000000E+00  0.00000000000E+00 -0.17013726524E+04  0.17013726524E+04  0.25500000920E-02 0.  1.
    10030    2    1    2    0    0  0.00000000000E+00  0.00000000000E+00 -0.15250308345E+04  0.18777144703E+04  0.10954873736E+04 0.  0.
        5    1    3    3  502    0 -0.46904122152E+03 -0.96281747692E+02 -0.12183714776E+04  0.13090916660E+04  0.46999998093E+01 0.  1.
       -5    1    3    3    0  502  0.46904122152E+03  0.96281747692E+02 -0.30665935689E+03  0.56862280431E+03  0.46999998093E+01 0. -1.
</event>
<event>
 5   0  0.3949750E-03  0.1114742E+04  0.7818609E-02  0.9190941E-01
        3   -1    0    0  501    0  0.00000000000E+00  0.00000000000E+00  0.78780816085E+03  0.78780816733E+03  0.10100000352E+00 0.  1.
       -3   -1    0    0    0  501  0.00000000000E+00  0.00000000000E+00 -0.39433787515E+03  0.39433788808E+03  0.10100000352E+00 0. -1.
    10030    2    1    2    0    0  0.00000000000E+00  0.00000000000E+00  0.39347028570E+03  0.11821460554E+04  0.11147423158E+04 0.  0.
        3    1    3    3  502    0  0.25493902723E+03  0.40077321044E+03 -0.11253115305E+03  0.48813557996E+03  0.10100000352E+00 0. -1.
       -3    1    3    3    0  502 -0.25493902723E+03 -0.40077321044E+03  0.50600143875E+03  0.69401047545E+03  0.10100000352E+00 0.  1.
</event>
<event>
 5   0  0.5998641E-03  0.1102269E+04  0.7818609E-02  0.9202983E-01
        1   -1    0    0  501    0  0.00000000000E+00  0.00000000000E+00  0.21231570043E+04  0.21231570043E+04  0.50400001928E-02 0.  1.
       -1   -1    0    0    0  501  0.00000000000E+00  0.00000000000E+00 -0.14306484648E+03  0.14306484657E+03  0.50400001928E-02 0. -1.
    10030    2    1    2    0    0  0.00000000000E+00  0.00000000000E+00  0.19800921578E+04  0.22662218509E+04  0.11022688075E+04 0.  0.
        3    1    3    3  502    0 -0.91792578583E+02 -0.35091651090E+03  0.13693157944E+03  0.38770935345E+03  0.10100000352E+00 0. -1.
       -3    1    3    3    0  502  0.91792578583E+02  0.35091651090E+03  0.18431605784E+04  0.18785124974E+04  0.10100000352E+00 0.  1.
</event>
<event>
 5   0  0.5958706E-03  0.1237150E+04  0.7818609E-02  0.9080947E-01
        1   -1    0    0  501    0  0.00000000000E+00  0.00000000000E+00  0.44101587735E+03  0.44101587737E+03  0.50400001928E-02 0.  1.
       -1   -1    0    0    0  501  0.00000000000E+00  0.00000000000E+00 -0.86762164655E+03  0.86762164656E+03  0.50400001928E-02 0. -1.
    10030    2    1    2    0    0  0.00000000000E+00  0.00000000000E+00 -0.42660576920E+03  0.13086375239E+04  0.12371498239E+04 0.  0.
        2    1    3    3  502    0 -0.20306267893E+03 -0.21938267332E+03  0.35953556315E+03  0.46757783321E+03  0.25500000920E-02 0.  1.
       -2    1    3    3    0  502  0.20306267893E+03  0.21938267332E+03 -0.78614133235E+03  0.84105969073E+03  0.25500000920E-02 0. -1.
</event>
<event>
 5   0  0.5998641E-03  0.1111635E+04  0.7818609E-02  0.9193925E-01
       -1   -1    0    0    0  501  0.00000000000E+00  0.00000000000E+00  0.83114585206E+03  0.83114585207E+03  0.50400001928E-02 0.  1.
        1   -1    0    0  501    0  0.00000000000E+00  0.00000000000E+00 -0.37169569132E+03  0.37169569135E+03  0.50400001928E-02 0. -1.
    10030    2    1    2    0    0  0.00000000000E+00  0.00000000000E+00  0.45945016074E+03  0.12028415434E+04  0.11116354296E+04 0.  0.
        3    1    3    3  502    0 -0.35253673969E+03  0.26013638685E+03  0.59981075394E+03  0.74278263533E+03  0.10100000352E+00 0.  1.
       -3    1    3    3    0  502  0.35253673969E+03 -0.26013638685E+03 -0.14036059321E+03  0.46005890810E+03  0.10100000352E+00 0. -1.
</event>
<event>
 5   0  0.1028016E-02  0.1091949E+04  0.7818609E-02  0.9213075E-01
        2   -1    0    0  501    0  0.00000000000E+00  0.00000000000E+00  0.92389503297E+03  0.92389503298E+03  0.25500000920E-02 0.  1.
       -2   -1    0    0    0  501  0.00000000000E+00  0.00000000000E+00 -0.32264279819E+03  0.32264279820E+03  0.25500000920E-02 0. -1.
    10030    2    1    2    0    0  0.00000000000E+00  0.00000000000E+00  0.60125223478E+03  0.12465378312E+04  0.10919488609E+04 0.  0.
        2    1    3    3  502    0  0.31649762948E+03  0.31017351241E+03 -0.63443465512E+02  0.44766441738E+03  0.25500000920E-02 0. -1.
       -2    1    3    3    0  502 -0.31649762948E+03 -0.31017351241E+03  0.66469570030E+03  0.79887341379E+03  0.25500000920E-02 0.  1.
</event>
<event>
 5   0  0.1019384E-02  0.1168871E+04  0.7818609E-02  0.9140549E-01
        2   -1    0    0  501    0  0.00000000000E+00  0.00000000000E+00  0.48757508301E+03  0.48757508302E+03  0.25500000920E-02 0. -1.
       -2   -1    0    0    0  501  0.00000000000E+00  0.00000000000E+00 -0.70053750991E+03  0.70053750992E+03  0.25500000920E-02 0.  1.
    10030    2    1    2    0    0  0.00000000000E+00  0.00000000000E+00 -0.21296242690E+03  0.11881125929E+04  0.11688706251E+04 0.  0.
        1    1    3    3  502    0  0.47722109432E+03 -0.32798781361E+03 -0.18683094967E+03  0.60845852983E+03  0.50400001928E-02 0.  1.
       -1    1    3    3    0  502 -0.47722109432E+03  0.32798781361E+03 -0.26131477233E+02  0.57965406310E+03  0.50400001928E-02 0. -1.
</event>
<event>
 5   0  0.1019384E-02  0.1054972E+04  0.7818609E-02  0.9250225E-01
       -2   -1    0    0    0  501  0.00000000000E+00  0.00000000000E+00  0.26595728972E+03  0.26595728973E+03  0.25500000920E-02 0.  1.
        2   -1    0    0  501    0  0.00000000000E+00  0.00000000000E+00 -0.10461894645E+04  0.10461894645E+04  0.25500000920E-02 0. -1.
    10030    2    1    2    0    0  0.00000000000E+00  0.00000000000E+00 -0.78023217474E+03  0.13121467542E+04  0.10549724442E+04 0.  0.
        1    1    3    3  502    0 -0.15874290503E+03 -0.32024514298E+03 -0.87260635147E+03  0.94297301454E+03  0.50400001928E-02 0. -1.
       -1    1    3    3    0  502  0.15874290503E+03  0.32024514298E+03  0.92374176727E+02  0.36917373966E+03  0.50400001928E-02 0.  1.
</event>
<event>
 5   0  0.9719260E-03  0.1088961E+04  0.7818609E-02  0.9216018E-01
        2   -1    0    0  501    0  0.00000000000E+00  0.00000000000E+00  0.87911251220E+03  0.87911251220E+03  0.25500000920E-02 0. -1.
       -2   -1    0    0    0  501  0.00000000000E+00  0.00000000000E+00 -0.33722560424E+03  0.33722560425E+03  0.25500000920E-02 0.  1.
    10030    2    1    2    0    0  0.00000000000E+00  0.00000000000E+00  0.54188690795E+03  0.12163381165E+04  0.10889614284E+04 0.  0.
        3    1    3    3  502    0  0.32534974094E+03  0.31272990028E+03  0.61121975510E+03  0.75976446593E+03  0.10100000352E+00 0. -1.
       -3    1    3    3    0  502 -0.32534974094E+03 -0.31272990028E+03 -0.69332847149E+02  0.45657365053E+03  0.10100000352E+00 0.  1.
</event>
<event>
 5   0  0.5854579E-03  0.1131913E+04  0.7818609E-02  0.9174634E-01
        1   -1    0    0  501    0  0.00000000000E+00  0.00000000000E+00  0.13730971493E+04  0.13730971493E+04  0.50400001928E-02 0.  1.
       -1   -1    0    0    0  501  0.00000000000E+00  0.00000000000E+00 -0.23327314111E+03  0.23327314116E+03  0.50400001928E-02 0. -1.
    10030    2    1    2    0    0  0.00000000000E+00  0.00000000000E+00  0.11398240082E+04  0.16063702905E+04  0.11319128679E+04 0.  0.
        4    1    3    3  502    0 -0.19766472755E+03 -0.30307216373E+03  0.11875028625E+04  0.12414059539E+04  0.12699999809E+01 0.  1.
       -4    1    3    3    0  502  0.19766472755E+03  0.30307216373E+03 -0.47678854307E+02  0.36496433661E+03  0.12699999809E+01 0. -1.
</event>
<event>
 5   0  0.9719260E-03  0.9700802E+03  0.7818609E-02  0.9341983E-01
        2   -1    0    0  501    0  0.00000000000E+00  0.00000000000E+00  0.11717257954E+04  0.11717257954E+04  0.25500000920E-02 0. -1.
       -2   -1    0    0    0  501  0.00000000000E+00  0.00000000000E+00 -0.20078409038E+03  0.20078409040E+03  0.25500000920E-02 0.  1.
    10030    2    1    2    0    0  0.00000000000E+00  0.00000000000E+00  0.97094170504E+03  0.13725098858E+04  0.97008019879E+03 0.  0.
        3    1    3    3  502    0 -0.11247861900E+03 -0.16704676673E+03 -0.13883807454E+03  0.24460597529E+03  0.10100000352E+00 0.  1.
       -3    1    3    3    0  502  0.11247861900E+03  0.16704676673E+03  0.11097797796E+04  0.11279039105E+04  0.10100000352E+00 0. -1.
</event>
<event>
 5   0  0.5958706E-03  0.1063548E+04  0.7818609E-02  0.9241468E-01
        1   -1    0    0  501    0  0.00000000000E+00  0.00000000000E+00  0.15536300488E+04  0.15536300488E+04  0.50400001928E-02 0.  1.
       -1   -1    0    0    0  501  0.00000000000E+00  0.00000000000E+00 -0.18201466393E+03  0.18201466400E+03  0.50400001928E-02 0. -1.
    10030    2    1    2    0    0  0.00000000000E+00  0.00000000000E+00  0.13716153849E+04  0.17356447128E+04  0.10635477446E+04 0.  0.
        2    1    3    3  502    0  0.19731122712E+02 -0.50468818460E+03  0.41427756295E+03  0.65324220627E+03  0.25500000920E-02 0. -1.
       -2    1    3    3    0  502 -0.19731122712E+02  0.50468818460E+03  0.95733782193E+03  0.10824025065E+04  0.25500000920E-02 0.  1.
</event>
<event>
 5   0  0.9692981E-03  0.1072592E+04  0.7818609E-02  0.9232325E-01
       -2   -1    0    0    0  501  0.00000000000E+00  0.00000000000E+00  0.19139054915E+03  0.19139054917E+03  0.25500000920E-02 0.  1.
        2   -1    0    0  501    0  0.00000000000E+00  0.00000000000E+00 -0.15027562564E+04  0.15027562564E+04  0.25500000920E-02 0. -1.
    10030    2    1    2    0    0  0.00000000000E+00  0.00000000000E+00 -0.13113657072E+04  0.16941468056E+04  0.10725918985E+04 0.  0.
        5    1    3    3  502    0 -0.18364937755E+03  0.15744737041E+03  0.10028771880E+03  0.26190930656E+03  0.46999998093E+01 0.  1.
       -5    1    3    3    0  502  0.18364937755E+03 -0.15744737041E+03 -0.14116534260E+04  0.14322374990E+04  0.46999998093E+01 0. -1.
</event>
<event>
 5   0  0.9719260E-03  0.1097317E+04  0.7818609E-02  0.9207811E-01
        2   -1    0    0  501    0  0.00000000000E+00  0.00000000000E+00  0.29330613181E+03  0.29330613182E+03  0.25500000920E-02 0.  1.
       -2   -1    0    0    0  501  0.00000000000E+00  0.00000000000E+00 -0.10263202374E+04  0.10263202374E+04  0.25500000920E-02 0. -1.
    10030    2    1    2    0    0  0.00000000000E+00  0.00000000000E+00 -0.73301410562E+03  0.13196263693E+04  0.10973167617E+04 0.  0.
        3    1    3    3  502    0 -0.18788635777E+03  0.38936591088E+03  0.39747072943E+02  0.43415082172E+03  0.10100000352E+00 0.  1.
       -3    1    3    3    0  502  0.18788635777E+03 -0.38936591088E+03 -0.77276117857E+03  0.88547554754E+03  0.10100000352E+00 0. -1.
</event>
<event>
 5   0  0.5958706E-03  0.1085045E+04  0.7818609E-02  0.9219891E-01
       -1   -1    0    0    0  501  0.00000000000E+00  0.00000000000E+00  0.41834461770E+03  0.41834461773E+03  0.50400001928E-02 0. -1.
        1   -1    0    0  501    0  0.00000000000E+00  0.00000000000E+00 -0.70356083498E+03  0.70356083499E+03  0.50400001928E-02 0.  1.
    10030    2    1    2    0    0  0.00000000000E+00  0.00000000000E+00 -0.28521621727E+03  0.11219054527E+04  0.10850454158E+04 0.  0.
        2    1    3    3  502    0  0.40029006168E+03 -0.22166350800E+03  0.15877987345E+03  0.48433241939E+03  0.25500000920E-02 0. -1.
       -2    1    3    3    0  502 -0.40029006168E+03  0.22166350800E+03 -0.44399609072E+03  0.63757303334E+03  0.25500000920E-02 0.  1.
</event>
<event>
 5   0  0.5958706E-03  0.1090209E+04  0.7818609E-02  0.9214788E-01
        1   -1    0    0  501    0  0.00000000000E+00  0.00000000000E+00  0.79979789972E+03  0.79979789974E+03  0.50400001928E-02 0. -1.
       -1   -1    0    0    0  501  0.00000000000E+00  0.00000000000E+00 -0.37151750040E+03  0.37151750044E+03  0.50400001928E-02 0.  1.
    10030    2    1    2    0    0  0.00000000000E+00  0.00000000000E+00  0.42828039932E+03  0.11713154002E+04  0.10902090012E+04 0.  0.
        2    1    3    3  502    0  0.44637586521E+03 -0.30659962936E+03  0.28109986107E+03  0.61014086707E+03  0.25500000920E-02 0. -1.
       -2    1    3    3    0  502 -0.44637586521E+03  0.30659962936E+03  0.14718053825E+03  0.56117453311E+03  0.25500000920E-02 0.  1.
</event>
<event>
 5   0  0.3949750E-03  0.1092950E+04  0.7818609E-02  0.9212090E-01
        3   -1    0    0  501    0  0.00000000000E+00  0.00000000000E+00  0.29314433884E+03  0.29314435624E+03  0.10100000352E+00 0.  1.
       -3   -1    0    0    0  501  0.00000000000E+00  0.00000000000E+00 -0.10187308513E+04  0.10187308563E+04  0.10100000352E+00 0. -1.
    10030    2    1    2    0    0  0.00000000000E+00  0.00000000000E+00 -0.72558651247E+03  0.13118752126E+04  0.10929504958E+04 0.  0.
        3    1    3    3  502    0  0.15626432261E+03  0.51606174267E+03 -0.46945804014E+03  0.71493294960E+03  0.10100000352E+00 0.  1.
       -3    1    3    3    0  502 -0.15626432261E+03 -0.51606174267E+03 -0.25612847233E+03  0.59694226296E+03  0.10100000352E+00 0. -1.
</event>
<event>
 5   0  0.5712664E-03  0.1113116E+04  0.7818609E-02  0.9192502E-01
        1   -1    0    0  501    0  0.00000000000E+00  0.00000000000E+00  0.36742753087E+03  0.36742753090E+03  0.50400001928E-02 0. -1.
       -1   -1    0    0    0  501  0.00000000000E+00  0.00000000000E+00 -0.84304137007E+03  0.84304137009E+03  0.50400001928E-02 0.  1.
    10030    2    1    2    0    0  0.00000000000E+00  0.00000000000E+00 -0.47561383921E+03  0.12104689010E+04  0.11131156437E+04 0.  0.
        5    1    3    3  502    0 -0.26889757278E+03  0.25167159394E+03  0.21592600178E+03  0.42695506097E+03  0.46999998093E+01 0. -1.
       -5    1    3    3    0  502  0.26889757278E+03 -0.25167159394E+03 -0.69153984099E+03  0.78351384003E+03  0.46999998093E+01 0.  1.
</event>
<event>
 5   0  0.1028016E-02  0.1105062E+04  0.7818609E-02  0.9200272E-01
       -2   -1    0    0    0  501  0.00000000000E+00  0.00000000000E+00  0.14443778865E+03  0.14443778867E+03  0.25500000920E-02 0.  1.
        2   -1    0    0  501    0  0.00000000000E+00  0.00000000000E+00 -0.21136477079E+04  0.21136477079E+04  0.25500000920E-02 0. -1.
    10030    2    1    2    0    0  0.00000000000E+00  0.00000000000E+00 -0.19692099193E+04  0.22580854966E+04  0.11050621719E+04 0.  0.
        2    1    3    3  502    0 -0.46397940984E+03  0.28223140086E+03 -0.77662781306E+03  0.94767199833E+03  0.25500000920E-02 0. -1.
       -2    1    3    3    0  502  0.46397940984E+03 -0.28223140086E+03 -0.11925821062E+04  0.13104134983E+04  0.25500000920E-02 0.  1.
</event>
<event>
 5   0  0.1028016E-02  0.6978335E+03  0.7818609E-02  0.9720944E-01
        2   -1    0    0  501    0  0.00000000000E+00  0.00000000000E+00  0.13370249545E+04  0.13370249545E+04  0.25500000920E-02 0.  1.
       -2   -1    0    0    0  501  0.00000000000E+00  0.00000000000E+00 -0.91055059078E+02  0.91055059114E+02  0.25500000920E-02 0. -1.
    10030    2    1    2    0    0  0.00000000000E+00  0.00000000000E+00  0.12459698955E+04  0.14280800137E+04  0.69783346510E+03 0.  0.
        2    1    3    3  502    0 -0.22220344668E+03 -0.18277224265E+02  0.11722359952E+04  0.11932500396E+04  0.25500000920E-02 0.  1.
       -2    1    3    3    0  502  0.22220344668E+03  0.18277224265E+02  0.73733900263E+02  0.23482997402E+03  0.25500000920E-02 0. -1.
</event>
<event>
 5   0  0.5998641E-03  0.8858362E+03  0.7818609E-02  0.9443462E-01
       -1   -1    0    0    0  501  0.00000000000E+00  0.00000000000E+00  0.58190098960E+03  0.58190098962E+03  0.50400001928E-02 0. -1.
        1   -1    0    0  501    0  0.00000000000E+00  0.00000000000E+00 -0.33713026247E+03  0.33713026251E+03  0.50400001928E-02 0.  1.
    10030    2    1    2    0    0  0.00000000000E+00  0.00000000000E+00  0.24477072712E+03  0.91903125213E+03  0.88583617760E+03 0.  0.
        3    1    3    3  502    0  0.93729353183E+02 -0.31440736924E+03  0.43109114028E+03  0.54173496002E+03  0.10100000352E+00 0. -1.
       -3    1    3    3    0  502 -0.93729353183E+02  0.31440736924E+03 -0.18632041316E+03  0.37729629211E+03  0.10100000352E+00 0.  1.
</event>
<event>
 5   0  0.9925021E-03  0.1098501E+04  0.7818609E-02  0.9206654E-01
        2   -1    0    0  501    0  0.00000000000E+00  0.00000000000E+00  0.88338560583E+03  0.88338560584E+03  0.25500000920E-02 0.  1.
       -2   -1    0    0    0  501  0.00000000000E+00  0.00000000000E+00 -0.34150004759E+03  0.34150004760E+03  0.25500000920E-02 0. -1.
    10030    2    1    2    0    0  0.00000000000E+00  0.00000000000E+00  0.54188555824E+03  0.12248856534E+04  0.10985012088E+04 0.  0.
        4    1    3    3  502    0 -0.78881890384E+01 -0.49234518096E+03  0.54226630484E+03  0.73247550062E+03  0.12699999809E+01 0.  1.
       -4    1    3    3    0  502  0.78881890384E+01  0.49234518096E+03 -0.38074659959E+00  0.49241015282E+03  0.12699999809E+01 0. -1.
</event>
<event>
 5   0  0.5789905E-03  0.1104576E+04  0.7818609E-02  0.9200743E-01
        1   -1    0    0  501    0  0.00000000000E+00  0.00000000000E+00  0.53815358595E+03  0.53815358597E+03  0.50400001928E-02 0.  1.
       -1   -1    0    0    0  501  0.00000000000E+00  0.00000000000E+00 -0.56679371015E+03  0.56679371017E+03  0.50400001928E-02 0. -1.
    10030    2    1    2    0    0  0.00000000000E+00  0.00000000000E+00 -0.28640124204E+02  0.11049472961E+04  0.11045760592E+04 0.  0.
        1    1    3    3  502    0  0.55130999729E+03 -0.10941125702E+02  0.16668507237E+02  0.55167042743E+03  0.50400001928E-02 0.  1.
       -1    1    3    3    0  502 -0.55130999729E+03  0.10941125702E+02 -0.45308631440E+02  0.55327686871E+03  0.50400001928E-02 0. -1.
</event>
<event>
 5   0  0.1028016E-02  0.1105842E+04  0.7818609E-02  0.9199516E-01
        2   -1    0    0  501    0  0.00000000000E+00  0.00000000000E+00  0.26568351595E+04  0.26568351595E+04  0.25500000920E-02 0.  1.
       -2   -1    0    0    0  501  0.00000000000E+00  0.00000000000E+00 -0.11506987410E+03  0.11506987413E+03  0.25500000920E-02 0. -1.
    10030    2    1    2    0    0  0.00000000000E+00  0.00000000000E+00  0.25417652854E+04  0.27719050336E+04  0.11058420997E+04 0.  0.
        2    1    3    3  502    0  0.32317086228E+03  0.28482436235E+03  0.40200139735E+03  0.58921086810E+03  0.25500000920E-02 0. -1.
       -2    1    3    3    0  502 -0.32317086228E+03 -0.28482436235E+03  0.21397638880E+04  0.21826941655E+04  0.25500000920E-02 0.  1.
</event>
<event>
 5   0  0.5998641E-03  0.1195991E+04  0.7818609E-02  0.9116373E-01
       -1   -1    0    0    0  501  0.00000000000E+00  0.00000000000E+00  0.58093926633E+03  0.58093926635E+03  0.50400001928E-02 0. -1.
        1   -1    0    0  501    0  0.00000000000E+00  0.00000000000E+00 -0.61555211859E+03  0.61555211861E+03  0.50400001928E-02 0.  1.
    10030    2    1    2    0    0  0.00000000000E+00  0.00000000000E+00 -0.34612852264E+02  0.11964913850E+04  0.11959906290E+04 0.  0.
        3    1    3    3  502    0 -0.52883049985E+03  0.27089931230E+03  0.50177365573E+02  0.59629347908E+03  0.10100000352E+00 0.  1.
       -3    1    3    3    0  502  0.52883049985E+03 -0.27089931230E+03 -0.84790217838E+02  0.60019790588E+03  0.10100000352E+00 0. -1.
</event>
<event>
 5   0  0.3949750E-03  0.1098381E+04  0.7818609E-02  0.9206771E-01
       -3   -1    0    0    0  501  0.00000000000E+00  0.00000000000E+00  0.17260665302E+04  0.17260665332E+04  0.10100000352E+00 0.  1.
        3   -1    0    0  501    0  0.00000000000E+00  0.00000000000E+00 -0.17473856474E+03  0.17473859393E+03  0.10100000352E+00 0. -1.
    10030    2    1    2    0    0  0.00000000000E+00  0.00000000000E+00  0.15513279655E+04  0.19008051271E+04  0.10983813886E+04 0.  0.
        3    1    3    3  502    0 -0.35538858106E+03 -0.18043429681E+03  0.14295119710E+04  0.14840357355E+04  0.10100000352E+00 0.  1.
       -3    1    3    3    0  502  0.35538858106E+03  0.18043429681E+03  0.12181599450E+03  0.41676939155E+03  0.10100000352E+00 0. -1.
</event>
<event>
 5   0  0.1019384E-02  0.1086579E+04  0.7818609E-02  0.9218373E-01
        2   -1    0    0  501    0  0.00000000000E+00  0.00000000000E+00  0.71307432747E+03  0.71307432748E+03  0.25500000920E-02 0. -1.
       -2   -1    0    0    0  501  0.00000000000E+00  0.00000000000E+00 -0.41393073400E+03  0.41393073401E+03  0.25500000920E-02 0.  1.
    10030    2    1    2    0    0  0.00000000000E+00  0.00000000000E+00  0.29914359347E+03  0.11270050615E+04  0.10865788140E+04 0.  0.
        1    1    3    3  502    0 -0.22911731615E+02 -0.28150839922E+03 -0.33179803298E+03  0.43573140924E+03  0.50400001928E-02 0.  1.
       -1    1    3    3    0  502  0.22911731615E+02  0.28150839922E+03  0.63094162646E+03  0.69127365225E+03  0.50400001928E-02 0. -1.
</event>
<event>
 5   0  0.9692981E-03  0.1106656E+04  0.7818609E-02  0.9198729E-01
       -2   -1    0    0    0  501  0.00000000000E+00  0.00000000000E+00  0.25113062622E+03  0.25113062623E+03  0.25500000920E-02 0. -1.
        2   -1    0    0  501    0  0.00000000000E+00  0.00000000000E+00 -0.12191733023E+04  0.12191733023E+04  0.25500000920E-02 0.  1.
    10030    2    1    2    0    0  0.00000000000E+00  0.00000000000E+00 -0.96804267608E+03  0.14703039285E+04  0.11066557819E+04 0.  0.
        5    1    3    3  502    0 -0.51483641662E+03  0.15990412805E+03 -0.31848491619E+03  0.62616339552E+03  0.46999998093E+01 0. -1.
       -5    1    3    3    0  502  0.51483641662E+03 -0.15990412805E+03 -0.64955775988E+03  0.84414053301E+03  0.46999998093E+01 0.  1.
</event>
<event>
 5   0  0.5789905E-03  0.1312457E+04  0.7818609E-02  0.9019744E-01
        1   -1    0    0  501    0  0.00000000000E+00  0.00000000000E+00  0.13125433996E+04  0.13125433996E+04  0.50400001928E-02 0.  1.
       -1   -1    0    0    0  501  0.00000000000E+00  0.00000000000E+00 -0.32809279136E+03  0.32809279139E+03  0.50400001928E-02 0. -1.
    10030    2    1    2    0    0  0.00000000000E+00  0.00000000000E+00  0.98445060826E+03  0.16406361910E+04  0.13124572798E+04 0.  0.
        1    1    3    3  502    0 -0.11009826001E+03 -0.52574830344E+03  0.96345095356E+03  0.11030732729E+04  0.50400001928E-02 0.  1.
       -1    1    3    3    0  502  0.11009826001E+03  0.52574830344E+03  0.20999654702E+02  0.53756291813E+03  0.50400001928E-02 0. -1.
</event>
<event>
 5   0  0.5958706E-03  0.1061098E+04  0.7818609E-02  0.9243961E-01
       -1   -1    0    0    0  501  0.00000000000E+00  0.00000000000E+00  0.10780718840E+04  0.10780718840E+04  0.50400001928E-02 0. -1.
        1   -1    0    0  501    0  0.00000000000E+00  0.00000000000E+00 -0.26109762030E+03  0.26109762035E+03  0.50400001928E-02 0.  1.
    10030    2    1    2    0    0  0.00000000000E+00  0.00000000000E+00  0.81697426371E+03  0.13391695044E+04  0.10610975515E+04 0.  0.
        2    1    3    3  502    0 -0.34635240766E+03 -0.24667343645E+02  0.91475052647E+03  0.97843599373E+03  0.25500000920E-02 0. -1.
       -2    1    3    3    0  502  0.34635240766E+03  0.24667343645E+02 -0.97776262764E+02  0.36073351064E+03  0.25500000920E-02 0.  1.
</event>
<event>
 5   0  0.5854579E-03  0.1108300E+04  0.7818609E-02  0.9197140E-01
       -1   -1    0    0    0  501  0.00000000000E+00  0.00000000000E+00  0.21699694279E+03  0.21699694285E+03  0.50400001928E-02 0. -1.
        1   -1    0    0  501    0  0.00000000000E+00  0.00000000000E+00 -0.14151453648E+04  0.14151453648E+04  0.50400001928E-02 0.  1.
    10030    2    1    2    0    0  0.00000000000E+00  0.00000000000E+00 -0.11981484220E+04  0.16321423077E+04  0.11082999916E+04 0.  0.
        4    1    3    3  502    0  0.33374235516E+03  0.25971988463E+03 -0.71703243175E+02  0.42893046765E+03  0.12699999809E+01 0. -1.
       -4    1    3    3    0  502 -0.33374235516E+03 -0.25971988463E+03 -0.11264451789E+04  0.12032118400E+04  0.12699999809E+01 0.  1.
</event>
<event>
 5   0  0.1028016E-02  0.1124559E+04  0.7818609E-02  0.9181581E-01
       -2   -1    0    0    0  501  0.00000000000E+00  0.00000000000E+00  0.47641738075E+03  0.47641738076E+03  0.25500000920E-02 0. -1.
        2   -1    0    0  501    0  0.00000000000E+00  0.00000000000E+00 -0.66361559092E+03  0.66361559092E+03  0.25500000920E-02 0.  1.
    10030    2    1    2    0    0  0.00000000000E+00  0.00000000000E+00 -0.18719821016E+03  0.11400329717E+04  0.11245585830E+04 0.  0.
        2    1    3    3  502    0 -0.50899494509E+03  0.12812630240E+02 -0.33545689622E+03  0.60973055266E+03  0.25500000920E-02 0.  1.
       -2    1    3    3    0  502  0.50899494509E+03 -0.12812630240E+02  0.14825868606E+03  0.53030241902E+03  0.25500000920E-02 0. -1.
</event>
<event>
 5   0  0.1028016E-02  0.1216002E+04  0.7818609E-02  0.9098964E-01
        2   -1    0    0  501    0  0.00000000000E+00  0.00000000000E+00  0.48405682013E+03  0.48405682014E+03  0.25500000920E-02 0. -1.
       -2   -1    0    0    0  501  0.00000000000E+00  0.00000000000E+00 -0.76368155884E+03  0.76368155884E+03  0.25500000920E-02 0.  1.
    10030    2    1    2    0    0  0.00000000000E+00  0.00000000000E+00 -0.27962473871E+03  0.12477383790E+04  0.12160020838E+04 0.  0.
        2    1    3    3  502    0 -0.29125245793E+03  0.45375407814E+03  0.14849130625E+03  0.55925881818E+03  0.25500000920E-02 0. -1.
       -2    1    3    3    0  502  0.29125245793E+03 -0.45375407814E+03 -0.42811604495E+03  0.68847956079E+03  0.25500000920E-02 0.  1.
</event>
<event>
 5   0  0.9925021E-03  0.1090572E+04  0.7818609E-02  0.9214430E-01
       -2   -1    0    0    0  501  0.00000000000E+00  0.00000000000E+00  0.84490521451E+03  0.84490521452E+03  0.25500000920E-02 0. -1.
        2   -1    0    0  501    0  0.00000000000E+00  0.00000000000E+00 -0.35191733074E+03  0.35191733075E+03  0.25500000920E-02 0.  1.
    10030    2    1    2    0    0  0.00000000000E+00  0.00000000000E+00  0.49298788378E+03  0.11968225453E+04  0.10905719377E+04 0.  0.
        4    1    3    3  502    0  0.30775696761E+02  0.51025604152E+03  0.38194402919E+02  0.51260978993E+03  0.12699999809E+01 0.  1.
       -4    1    3    3    0  502 -0.30775696761E+02 -0.51025604152E+03  0.45479348086E+03  0.68421275533E+03  0.12699999809E+01 0. -1.
</event>
<event>
 5   0  0.9692981E-03  0.1092363E+04  0.7818609E-02  0.9212668E-01
        2   -1    0    0  501    0  0.00000000000E+00  0.00000000000E+00  0.12594142813E+04  0.12594142813E+04  0.25500000920E-02 0.  1.
       -2   -1    0    0    0  501  0.00000000000E+00  0.00000000000E+00 -0.23686723343E+03  0.23686723344E+03  0.25500000920E-02 0. -1.
    10030    2    1    2    0    0  0.00000000000E+00  0.00000000000E+00  0.10225470479E+04  0.14962815148E+04  0.10923625343E+04 0.  0.
        5    1    3    3  502    0 -0.30371544625E+03 -0.23149227853E+03 -0.23567449249E+02  0.38263463248E+03  0.46999998093E+01 0. -1.
       -5    1    3    3    0  502  0.30371544625E+03  0.23149227853E+03  0.10461144971E+04  0.11136468823E+04  0.46999998093E+01 0.  1.
</event>
<event>
 5   0  0.1028016E-02  0.1093566E+04  0.7818609E-02  0.9211486E-01
       -2   -1    0    0    0  501  0.00000000000E+00  0.00000000000E+00  0.33282112709E+03  0.33282112710E+03  0.25500000920E-02 0. -1.
        2   -1    0    0  501    0  0.00000000000E+00  0.00000000000E+00 -0.89829552270E+03  0.89829552270E+03  0.25500000920E-02 0.  1.
    10030    2    1    2    0    0  0.00000000000E+00  0.00000000000E+00 -0.56547439561E+03  0.12311166498E+04  0.10935661449E+04 0.  0.
        2    1    3    3  502    0  0.29576811644E+03  0.33619032289E+03  0.70530516232E+02  0.45329600222E+03  0.25500000920E-02 0. -1.
       -2    1    3    3    0  502 -0.29576811644E+03 -0.33619032289E+03 -0.63600491184E+03  0.77782064758E+03  0.25500000920E-02 0.  1.
</event>
<event>
 5   0  0.1019384E-02  0.1068697E+04  0.7818609E-02  0.9236250E-01
       -2   -1    0    0    0  501  0.00000000000E+00  0.00000000000E+00  0.42435326706E+03  0.42435326707E+03  0.25500000920E-02 0.  1.
        2   -1    0    0  501    0  0.00000000000E+00  0.00000000000E+00 -0.67285545257E+03  0.67285545258E+03  0.25500000920E-02 0. -1.
    10030    2    1    2    0    0  0.00000000000E+00  0.00000000000E+00 -0.24850218551E+03  0.10972087196E+04  0.10686971686E+04 0.  0.
        1    1    3    3  502    0 -0.32596522886E+03 -0.39520042414E+03 -0.28026473695E+03  0.58393923354E+03  0.50400001928E-02 0.  1.
       -1    1    3    3    0  502  0.32596522886E+03  0.39520042414E+03  0.31762551441E+02  0.51326948610E+03  0.50400001928E-02 0. -1.
</event>
<event>
 5   0  0.9925021E-03  0.1036594E+04  0.7818609E-02  0.9269295E-01
       -2   -1    0    0    0  501  0.00000000000E+00  0.00000000000E+00  0.19243156984E+03  0.19243156986E+03  0.25500000920E-02 0. -1.
        2   -1    0    0  501    0  0.00000000000E+00  0.00000000000E+00 -0.13959856681E+04  0.13959856681E+04  0.25500000920E-02 0.  1.
    10030    2    1    2    0    0  0.00000000000E+00  0.00000000000E+00 -0.12035540982E+04  0.15884172379E+04  0.10365938715E+04 0.  0.
        4    1    3    3  502    0  0.27856653731E+01 -0.51451213055E+03 -0.50608707289E+03  0.72170370005E+03  0.12699999809E+01 0. -1.
       -4    1    3    3    0  502 -0.27856653731E+01  0.51451213055E+03 -0.69746702533E+03  0.86671353788E+03  0.12699999809E+01 0.  1.
</event>
<event>
 5   0  0.9925021E-03  0.9444925E+03  0.7818609E-02  0.9371611E-01
        2   -1    0    0  501    0  0.00000000000E+00  0.00000000000E+00  0.50245798837E+03  0.50245798838E+03  0.25500000920E-02 0. -1.
       -2   -1    0    0    0  501  0.00000000000E+00  0.00000000000E+00 -0.44385104729E+03  0.44385104729E+03  0.25500000920E-02 0.  1.
    10030    2    1    2    0    0  0.00000000000E+00  0.00000000000E+00  0.58606941088E+02  0.94630903567E+03  0.94449246554E+03 0.  0.
        4    1    3    3  502    0  0.70029760433E+02  0.43730296008E+02  0.49516914487E+03  0.50200657472E+03  0.12699999809E+01 0. -1.
       -4    1    3    3    0  502 -0.70029760433E+02 -0.43730296008E+02 -0.43656220378E+03  0.44430246095E+03  0.12699999809E+01 0.  1.
</event>
<event>
 5   0  0.9692981E-03  0.1114665E+04  0.7818609E-02  0.9191015E-01
       -2   -1    0    0    0  501  0.00000000000E+00  0.00000000000E+00  0.42519536837E+03  0.42519536838E+03  0.25500000920E-02 0. -1.
        2   -1    0    0  501    0  0.00000000000E+00  0.00000000000E+00 -0.73053356461E+03  0.73053356462E+03  0.25500000920E-02 0.  1.
    10030    2    1    2    0    0  0.00000000000E+00  0.00000000000E+00 -0.30533819625E+03  0.11557289330E+04  0.11146649508E+04 0.  0.
        5    1    3    3  502    0 -0.16921731263E+03 -0.32481005133E+03  0.28287929322E+03  0.46279461197E+03  0.46999998093E+01 0. -1.
       -5    1    3    3    0  502  0.16921731263E+03  0.32481005133E+03 -0.58821748947E+03  0.69293432102E+03  0.46999998093E+01 0.  1.
</event>
<event>
 5   0  0.5958706E-03  0.1098635E+04  0.7818609E-02  0.9206523E-01
        1   -1    0    0  501    0  0.00000000000E+00  0.00000000000E+00  0.48703709616E+03  0.48703709619E+03  0.50400001928E-02 0. -1.
       -1   -1    0    0    0  501  0.00000000000E+00  0.00000000000E+00 -0.61956249604E+03  0.61956249606E+03  0.50400001928E-02 0.  1.
    10030    2    1    2    0    0  0.00000000000E+00  0.00000000000E+00 -0.13252539987E+03  0.11065995922E+04  0.10986353699E+04 0.  0.
        2    1    3    3  502    0 -0.20005985052E+03 -0.40362712843E+03  0.25035838457E+03  0.51538153181E+03  0.25500000920E-02 0. -1.
       -2    1    3    3    0  502  0.20005985052E+03  0.40362712843E+03 -0.38288378444E+03  0.59121806044E+03  0.25500000920E-02 0.  1.
</event>
<event>
 5   0  0.9692981E-03  0.1110709E+04  0.7818609E-02  0.9194816E-01
       -2   -1    0    0    0  501  0.00000000000E+00  0.00000000000E+00  0.30306844597E+03  0.30306844598E+03  0.25500000920E-02 0. -1.
        2   -1    0    0  501    0  0.00000000000E+00  0.00000000000E+00 -0.10176537714E+04  0.10176537714E+04  0.25500000920E-02 0.  1.
    10030    2    1    2    0    0  0.00000000000E+00  0.00000000000E+00 -0.71458532546E+03  0.13207222174E+04  0.11107092276E+04 0.  0.
        5    1    3    3  502    0  0.37592582588E+03 -0.14363154932E+03  0.97748271645E+02  0.41415825855E+03  0.46999998093E+01 0. -1.
       -5    1    3    3    0  502 -0.37592582588E+03  0.14363154932E+03 -0.81233359710E+03  0.90656395886E+03  0.46999998093E+01 0.  1.
</event>
<event>
 5   0  0.9719260E-03  0.1054729E+04  0.7818609E-02  0.9250475E-01
       -2   -1    0    0    0  501  0.00000000000E+00  0.00000000000E+00  0.26402229665E+03  0.26402229666E+03  0.25500000920E-02 0. -1.
        2   -1    0    0  501    0  0.00000000000E+00  0.00000000000E+00 -0.10533701072E+04  0.10533701072E+04  0.25500000920E-02 0.  1.
    10030    2    1    2    0    0  0.00000000000E+00  0.00000000000E+00 -0.78934781055E+03  0.13173924039E+04  0.10547287707E+04 0.  0.
        3    1    3    3  502    0  0.21994361437E+03  0.47904516895E+03 -0.41456915692E+03  0.67061692751E+03  0.10100000352E+00 0.  1.
       -3    1    3    3    0  502 -0.21994361437E+03 -0.47904516895E+03 -0.37477865364E+03  0.64677547636E+03  0.10100000352E+00 0. -1.
</event>
<event>
 5   0  0.9692981E-03  0.1120416E+04  0.7818609E-02  0.9185518E-01
        2   -1    0    0  501    0  0.00000000000E+00  0.00000000000E+00  0.16062528947E+04  0.16062528947E+04  0.25500000920E-02 0.  1.
       -2   -1    0    0    0  501  0.00000000000E+00  0.00000000000E+00 -0.19538211436E+03  0.19538211438E+03  0.25500000920E-02 0. -1.
    10030    2    1    2    0    0  0.00000000000E+00  0.00000000000E+00  0.14108707803E+04  0.18016350091E+04  0.11204161491E+04 0.  0.
        5    1    3    3  502    0 -0.51072358158E+02 -0.34941683492E+03  0.14047059728E+04  0.14484203362E+04  0.46999998093E+01 0.  1.
       -5    1    3    3    0  502  0.51072358158E+02  0.34941683492E+03  0.61648075477E+01  0.35321467289E+03  0.46999998093E+01 0. -1.
</event>
<event>
 5   0  0.5854579E-03  0.1148773E+04  0.7818609E-02  0.9158917E-01
       -1   -1    0    0    0  501  0.00000000000E+00  0.00000000000E+00  0.54941677322E+03  0.54941677324E+03  0.50400001928E-02 0.  1.
        1   -1    0    0  501    0  0.00000000000E+00  0.00000000000E+00 -0.60049052547E+03  0.60049052549E+03  0.50400001928E-02 0. -1.
    10030    2    1    2    0    0  0.00000000000E+00  0.00000000000E+00 -0.51073752246E+02  0.11499072987E+04  0.11487725047E+04 0.  0.
        4    1    3    3  502    0 -0.31729227010E+03  0.47878678642E+03 -0.22929986775E+02  0.57483786297E+03  0.12699999809E+01 0. -1.
       -4    1    3    3    0  502  0.31729227010E+03 -0.47878678642E+03 -0.28143765471E+02  0.57506943576E+03  0.12699999809E+01 0.  1.
</event>
<event>
 5   0  0.5712664E-03  0.1119835E+04  0.7818609E-02  0.9186072E-01
        1   -1    0    0  501    0  0.00000000000E+00  0.00000000000E+00  0.13369109123E+04  0.13369109124E+04  0.50400001928E-02 0.  1.
       -1   -1    0    0    0  501  0.00000000000E+00  0.00000000000E+00 -0.23450147253E+03  0.23450147259E+03  0.50400001928E-02 0. -1.
    10030    2    1    2    0    0  0.00000000000E+00  0.00000000000E+00  0.11024094398E+04  0.15714123849E+04  0.11198349479E+04 0.  0.
        5    1    3    3  502    0 -0.27605938607E+03 -0.19789133851E+03  0.11757955799E+04  0.12238819805E+04  0.46999998093E+01 0.  1.
       -5    1    3    3    0  502  0.27605938607E+03  0.19789133851E+03 -0.73386140034E+02  0.34753040449E+03  0.46999998093E+01 0. -1.
</event>
<event>
 5   0  0.5712664E-03  0.1095406E+04  0.7818609E-02  0.9209681E-01
       -1   -1    0    0    0  501  0.00000000000E+00  0.00000000000E+00  0.23564241141E+03  0.23564241147E+03  0.50400001928E-02 0. -1.
        1   -1    0    0  501    0  0.00000000000E+00  0.00000000000E+00 -0.12730248116E+04  0.12730248116E+04  0.50400001928E-02 0.  1.
    10030    2    1    2    0    0  0.00000000000E+00  0.00000000000E+00 -0.10373824002E+04  0.15086672231E+04  0.10954061100E+04 0.  0.
        5    1    3    3  502    0 -0.17529546729E+03  0.36970088936E+03 -0.17265012177E+02  0.40954538099E+03  0.46999998093E+01 0. -1.
       -5    1    3    3    0  502  0.17529546729E+03 -0.36970088936E+03 -0.10201173880E+04  0.10991218421E+04  0.46999998093E+01 0.  1.
</event>
<event>
 5   0  0.3949750E-03  0.1110462E+04  0.7818609E-02  0.9195055E-01
        3   -1    0    0  501    0  0.00000000000E+00  0.00000000000E+00  0.55131286947E+03  0.55131287872E+03  0.10100000352E+00 0. -1.
       -3   -1    0    0    0  501  0.00000000000E+00  0.00000000000E+00 -0.55917682658E+03  0.55917683570E+03  0.10100000352E+00 0.  1.
    10030    2    1    2    0    0  0.00000000000E+00  0.00000000000E+00 -0.78639571063E+01  0.11104897144E+04  0.11104618697E+04 0.  0.
        4    1    3    3  502    0 -0.15263605944E+03 -0.36908684903E+03 -0.38963182242E+03  0.55797619906E+03  0.12699999809E+01 0.  1.
       -4    1    3    3    0  502  0.15263605944E+03  0.36908684903E+03  0.38176786532E+03  0.55251351536E+03  0.12699999809E+01 0. -1.
</event>
<event>
 5   0  0.1019384E-02  0.1150357E+04  0.7818609E-02  0.9157454E-01
        2   -1    0    0  501    0  0.00000000000E+00  0.00000000000E+00  0.14662432745E+04  0.14662432745E+04  0.25500000920E-02 0.  1.
       -2   -1    0    0    0  501  0.00000000000E+00  0.00000000000E+00 -0.22563137643E+03  0.22563137645E+03  0.25500000920E-02 0. -1.
    10030    2    1    2    0    0  0.00000000000E+00  0.00000000000E+00  0.12406118980E+04  0.16918746509E+04  0.11503573153E+04 0.  0.
        1    1    3    3  502    0  0.11073307218E+03 -0.47237849746E+03  0.10746361259E+04  0.11790869608E+04  0.50400001928E-02 0.  1.
       -1    1    3    3    0  502 -0.11073307218E+03  0.47237849746E+03  0.16597577217E+03  0.51278769009E+03  0.50400001928E-02 0. -1.
</event>
<event>
 5   0  0.1019384E-02  0.1091321E+04  0.7818609E-02  0.9213692E-01
        2   -1    0    0  501    0  0.00000000000E+00  0.00000000000E+00  0.10659446075E+04  0.10659446075E+04  0.25500000920E-02 0.  1.
       -2   -1    0    0    0  501  0.00000000000E+00  0.00000000000E+00 -0.27932550591E+03  0.27932550592E+03  0.25500000920E-02 0. -1.
    10030    2    1    2    0    0  0.00000000000E+00  0.00000000000E+00  0.78661910155E+03  0.13452701134E+04  0.10913212483E+04 0.  0.
        1    1    3    3  502    0  0.11735957814E+03 -0.47146159129E+03  0.87122978932E+02  0.49359874000E+03  0.50400001928E-02 0. -1.
       -1    1    3    3    0  502 -0.11735957814E+03  0.47146159129E+03  0.69949612261E+03  0.85167137337E+03  0.50400001928E-02 0.  1.
</event>
<event>
 5   0  0.5854579E-03  0.1107879E+04  0.7818609E-02  0.9197547E-01
        1   -1    0    0  501    0  0.00000000000E+00  0.00000000000E+00  0.12468243405E+04  0.12468243405E+04  0.50400001928E-02 0. -1.
       -1   -1    0    0    0  501  0.00000000000E+00  0.00000000000E+00 -0.24610429252E+03  0.24610429257E+03  0.50400001928E-02 0.  1.
    10030    2    1    2    0    0  0.00000000000E+00  0.00000000000E+00  0.10007200480E+04  0.14929286331E+04  0.11078787339E+04 0.  0.
        4    1    3    3  502    0 -0.40911754224E+03 -0.25766232774E+03  0.86464947775E+03  0.99064997389E+03  0.12699999809E+01 0. -1.
       -4    1    3    3    0  502  0.40911754224E+03  0.25766232774E+03  0.13607057025E+03  0.50227865921E+03  0.12699999809E+01 0.  1.
</event>
<event>
 5   0  0.1028016E-02  0.1117963E+04  0.7818609E-02  0.9187859E-01
       -2   -1    0    0    0  501  0.00000000000E+00  0.00000000000E+00  0.35718453152E+03  0.35718453153E+03  0.25500000920E-02 0. -1.
        2   -1    0    0  501    0  0.00000000000E+00  0.00000000000E+00 -0.87478609369E+03  0.87478609369E+03  0.25500000920E-02 0.  1.
    10030    2    1    2    0    0  0.00000000000E+00  0.00000000000E+00 -0.51760156217E+03  0.12319706252E+04  0.11179625415E+04 0.  0.
        2    1    3    3  502    0 -0.40423558444E+03 -0.14560511728E+03 -0.65282981836E+03  0.78153312768E+03  0.25500000920E-02 0.  1.
       -2    1    3    3    0  502  0.40423558444E+03  0.14560511728E+03  0.13522825620E+03  0.45043749754E+03  0.25500000920E-02 0. -1.
</event>
<event>
 5   0  0.5712664E-03  0.1111847E+04  0.7818609E-02  0.9193722E-01
       -1   -1    0    0    0  501  0.00000000000E+00  0.00000000000E+00  0.36666203555E+03  0.36666203558E+03  0.50400001928E-02 0.  1.
        1   -1    0    0  501    0  0.00000000000E+00  0.00000000000E+00 -0.84287629495E+03  0.84287629496E+03  0.50400001928E-02 0. -1.
    10030    2    1    2    0    0  0.00000000000E+00  0.00000000000E+00 -0.47621425940E+03  0.12095383305E+04  0.11118466406E+04 0.  0.
        5    1    3    3  502    0  0.17918585407E+03 -0.22471818153E+03 -0.75575548908E+03  0.80857546381E+03  0.46999998093E+01 0. -1.
       -5    1    3    3    0  502 -0.17918585407E+03  0.22471818153E+03  0.27954122968E+03  0.40096286673E+03  0.46999998093E+01 0.  1.
</event>
<event>
 5   0  0.9692981E-03  0.1111051E+04  0.7818609E-02  0.9194488E-01
        2   -1    0    0  501    0  0.00000000000E+00  0.00000000000E+00  0.57605109378E+03  0.57605109378E+03  0.25500000920E-02 0. -1.
       -2   -1    0    0    0  501  0.00000000000E+00  0.00000000000E+00 -0.53573099879E+03  0.53573099879E+03  0.25500000920E-02 0.  1.
    10030    2    1    2    0    0  0.00000000000E+00  0.00000000000E+00  0.40320094990E+02  0.11117820926E+04  0.11110507240E+04 0.  0.
        5    1    3    3  502    0  0.51971122656E+03  0.19479447197E+03 -0.31295618101E+01  0.55504642101E+03  0.46999998093E+01 0.  1.
       -5    1    3    3    0  502 -0.51971122656E+03 -0.19479447197E+03  0.43449656800E+02  0.55673567157E+03  0.46999998093E+01 0. -1.
</event>
<event>
 5   0  0.9692981E-03  0.1083284E+04  0.7818609E-02  0.9221640E-01
       -2   -1    0    0    0  501  0.00000000000E+00  0.00000000000E+00  0.23893573334E+03  0.23893573335E+03  0.25500000920E-02 0.  1.
        2   -1    0    0  501    0  0.00000000000E+00  0.00000000000E+00 -0.12278441905E+04  0.12278441905E+04  0.25500000920E-02 0. -1.
    10030    2    1    2    0    0  0.00000000000E+00  0.00000000000E+00 -0.98890845715E+03  0.14667799238E+04  0.10832836232E+04 0.  0.
        5    1    3    3  502    0 -0.23493952923E+03 -0.53053363335E+02  0.16240601866E+03  0.29053235044E+03  0.46999998093E+01 0.  1.
       -5    1    3    3    0  502  0.23493952923E+03  0.53053363335E+02 -0.11513144758E+04  0.11762475734E+04  0.46999998093E+01 0. -1.
</event>
<event>
 5   0  0.5789905E-03  0.1128336E+04  0.7818609E-02  0.9178005E-01
        1   -1    0    0  501    0  0.00000000000E+00  0.00000000000E+00  0.11286613415E+04  0.11286613415E+04  0.50400001928E-02 0.  1.
       -1   -1    0    0    0  501  0.00000000000E+00  0.00000000000E+00 -0.28200281404E+03  0.28200281409E+03  0.50400001928E-02 0. -1.
    10030    2    1    2    0    0  0.00000000000E+00  0.00000000000E+00  0.84665852747E+03  0.14106641556E+04  0.11283362521E+04 0.  0.
        1    1    3    3  502    0 -0.32169776954E+03 -0.37990058610E+03  0.75521811304E+03  0.90452656596E+03  0.50400001928E-02 0.  1.
       -1    1    3    3    0  502  0.32169776954E+03  0.37990058610E+03  0.91440414432E+02  0.50613758965E+03  0.50400001928E-02 0. -1.
</event>
<event>
 5   0  0.5854579E-03  0.1127971E+04  0.7818609E-02  0.9178350E-01
       -1   -1    0    0    0  501  0.00000000000E+00  0.00000000000E+00  0.26520130913E+03  0.26520130918E+03  0.50400001928E-02 0.  1.
        1   -1    0    0  501    0  0.00000000000E+00  0.00000000000E+00 -0.11993892301E+04  0.11993892301E+04  0.50400001928E-02 0. -1.
    10030    2    1    2    0    0  0.00000000000E+00  0.00000000000E+00 -0.93418792095E+03  0.14645905393E+04  0.11279709110E+04 0.  0.
        4    1    3    3  502    0 -0.78078372271E+01 -0.46282837564E+03 -0.88543595603E+03  0.99913438173E+03  0.12699999809E+01 0. -1.
       -4    1    3    3    0  502  0.78078372271E+01  0.46282837564E+03 -0.48751964925E+02  0.46545615755E+03  0.12699999809E+01 0.  1.
</event>
<event>
 5   0  0.9719260E-03  0.1046120E+04  0.7818609E-02  0.9259359E-01
       -2   -1    0    0    0  501  0.00000000000E+00  0.00000000000E+00  0.30645252125E+03  0.30645252126E+03  0.25500000920E-02 0.  1.
        2   -1    0    0  501    0  0.00000000000E+00  0.00000000000E+00 -0.89277124689E+03  0.89277124690E+03  0.25500000920E-02 0. -1.
    10030    2    1    2    0    0  0.00000000000E+00  0.00000000000E+00 -0.58631872565E+03  0.11992237682E+04  0.10461204510E+04 0.  0.
        3    1    3    3  502    0 -0.45812943281E+03 -0.39385491725E+02 -0.57896298786E+03  0.73934561990E+03  0.10100000352E+00 0. -1.
       -3    1    3    3    0  502  0.45812943281E+03  0.39385491725E+02 -0.73557377901E+01  0.45987814825E+03  0.10100000352E+00 0.  1.
</event>
<event>
 5   0  0.1019384E-02  0.1106808E+04  0.7818609E-02  0.9198581E-01
       -2   -1    0    0    0  501  0.00000000000E+00  0.00000000000E+00  0.21200135220E+03  0.21200135221E+03  0.25500000920E-02 0. -1.
        2   -1    0    0  501    0  0.00000000000E+00  0.00000000000E+00 -0.14445953347E+04  0.14445953347E+04  0.25500000920E-02 0.  1.
    10030    2    1    2    0    0  0.00000000000E+00  0.00000000000E+00 -0.12325939825E+04  0.16565966869E+04  0.11068083201E+04 0.  0.
        1    1    3    3  502    0 -0.29215805632E+03 -0.27761732916E+03 -0.48665112399E+02  0.40595074149E+03  0.50400001928E-02 0. -1.
       -1    1    3    3    0  502  0.29215805632E+03  0.27761732916E+03 -0.11839288701E+04  0.12506459455E+04  0.50400001928E-02 0.  1.
</event>
<event>
 5   0  0.9692981E-03  0.1121112E+04  0.7818609E-02  0.9184856E-01
       -2   -1    0    0    0  501  0.00000000000E+00  0.00000000000E+00  0.27972309053E+03  0.27972309055E+03  0.25500000920E-02 0.  1.
        2   -1    0    0  501    0  0.00000000000E+00  0.00000000000E+00 -0.11233357635E+04  0.11233357635E+04  0.25500000920E-02 0. -1.
    10030    2    1    2    0    0  0.00000000000E+00  0.00000000000E+00 -0.84361267299E+03  0.14030588541E+04  0.11211118615E+04 0.  0.
        5    1    3    3  502    0  0.17379438034E+03  0.53074435347E+03 -0.36169830736E+03  0.66538846618E+03  0.46999998093E+01 0.  1.
       -5    1    3    3    0  502 -0.17379438034E+03 -0.53074435347E+03 -0.48191436563E+03  0.73767038789E+03  0.46999998093E+01 0. -1.
</event>
<event>
 5   0  0.9692981E-03  0.1061061E+04  0.7818609E-02  0.9243999E-01
        2   -1    0    0  501    0  0.00000000000E+00  0.00000000000E+00  0.13132975572E+04  0.13132975572E+04  0.25500000920E-02 0. -1.
       -2   -1    0    0    0  501  0.00000000000E+00  0.00000000000E+00 -0.21431729709E+03  0.21431729711E+03  0.25500000920E-02 0.  1.
    10030    2    1    2    0    0  0.00000000000E+00  0.00000000000E+00  0.10989802601E+04  0.15276148543E+04  0.10610605690E+04 0.  0.
        5    1    3    3  502    0  0.25999452322E+03 -0.33538627586E+03  0.91131665958E+02  0.43406010722E+03  0.46999998093E+01 0.  1.
       -5    1    3    3    0  502 -0.25999452322E+03  0.33538627586E+03  0.10078485942E+04  0.10935547471E+04  0.46999998093E+01 0. -1.
</event>
<event>
 5   0  0.9719260E-03  0.1092404E+04  0.7818609E-02  0.9212627E-01
       -2   -1    0    0    0  501  0.00000000000E+00  0.00000000000E+00  0.27930017665E+03  0.27930017666E+03  0.25500000920E-02 0. -1.
        2   -1    0    0  501    0  0.00000000000E+00  0.00000000000E+00 -0.10681585762E+04  0.10681585762E+04  0.25500000920E-02 0.  1.
    10030    2    1    2    0    0  0.00000000000E+00  0.00000000000E+00 -0.78885839955E+03  0.13474587529E+04  0.10924044654E+04 0.  0.
        3    1    3    3  502    0 -0.37063740027E+03 -0.39183754695E+03 -0.28811982577E+03  0.61149144710E+03  0.10100000352E+00 0. -1.
       -3    1    3    3    0  502  0.37063740027E+03  0.39183754695E+03 -0.50073857378E+03  0.73596730576E+03  0.10100000352E+00 0.  1.
</event>
<event>
 5   0  0.9925021E-03  0.1086777E+04  0.7818609E-02  0.9218176E-01
       -2   -1    0    0    0  501  0.00000000000E+00  0.00000000000E+00  0.12530793383E+03  0.12530793385E+03  0.25500000920E-02 0. -1.
        2   -1    0    0  501    0  0.00000000000E+00  0.00000000000E+00 -0.23563653768E+04  0.23563653768E+04  0.25500000920E-02 0.  1.
    10030    2    1    2    0    0  0.00000000000E+00  0.00000000000E+00 -0.22310574430E+04  0.24816733106E+04  0.10867773953E+04 0.  0.
        4    1    3    3  502    0 -0.10048873867E+03  0.53369012051E+03 -0.10730201994E+04  0.12026209264E+04  0.12699999809E+01 0. -1.
       -4    1    3    3    0  502  0.10048873867E+03 -0.53369012051E+03 -0.11580372435E+04  0.12790523842E+04  0.12699999809E+01 0.  1.
</event>
<event>
 5   0  0.5712664E-03  0.1087679E+04  0.7818609E-02  0.9217285E-01
        1   -1    0    0  501    0  0.00000000000E+00  0.00000000000E+00  0.52967271124E+03  0.52967271127E+03  0.50400001928E-02 0.  1.
       -1   -1    0    0    0  501  0.00000000000E+00  0.00000000000E+00 -0.55838524377E+03  0.55838524379E+03  0.50400001928E-02 0. -1.
    10030    2    1    2    0    0  0.00000000000E+00  0.00000000000E+00 -0.28712532528E+02  0.10880579551E+04  0.10876790446E+04 0.  0.
        5    1    3    3  502    0 -0.37560607683E+03 -0.36728031483E+03  0.12627927126E+03  0.54031777591E+03  0.46999998093E+01 0.  1.
       -5    1    3    3    0  502  0.37560607683E+03  0.36728031483E+03 -0.15499180379E+03  0.54774017915E+03  0.46999998093E+01 0. -1.
</event>
<event>
 5   0  0.9719260E-03  0.1091040E+04  0.7818609E-02  0.9213969E-01
        2   -1    0    0  501    0  0.00000000000E+00  0.00000000000E+00  0.35132735488E+03  0.35132735489E+03  0.25500000920E-02 0. -1.
       -2   -1    0    0    0  501  0.00000000000E+00  0.00000000000E+00 -0.84705025588E+03  0.84705025588E+03  0.25500000920E-02 0.  1.
    10030    2    1    2    0    0  0.00000000000E+00  0.00000000000E+00 -0.49572290100E+03  0.11983776108E+04  0.10910397350E+04 0.  0.
        3    1    3    3  502    0 -0.10581335216E+03  0.48769100286E+03 -0.58360949175E+01  0.49907218914E+03  0.10100000352E+00 0. -1.
       -3    1    3    3    0  502  0.10581335216E+03 -0.48769100286E+03 -0.48988680608E+03  0.69930542164E+03  0.10100000352E+00 0.  1.
</event>
<event>
 5   0  0.9925021E-03  0.1084099E+04  0.7818609E-02  0.9220830E-01
       -2   -1    0    0    0  501  0.00000000000E+00  0.00000000000E+00  0.11450241300E+04  0.11450241300E+04  0.25500000920E-02 0. -1.
        2   -1    0    0  501    0  0.00000000000E+00  0.00000000000E+00 -0.25660406851E+03  0.25660406853E+03  0.25500000920E-02 0.  1.
    10030    2    1    2    0    0  0.00000000000E+00  0.00000000000E+00  0.88842006152E+03  0.14016281986E+04  0.10840993503E+04 0.  0.
        4    1    3    3  502    0  0.14176252582E+03  0.39861812033E+02  0.11186642553E+04  0.11283159605E+04  0.12699999809E+01 0. -1.
       -4    1    3    3    0  502 -0.14176252582E+03 -0.39861812033E+02 -0.23024419378E+03  0.27331223803E+03  0.12699999809E+01 0.  1.
</event>
<event>
 5   0  0.1019384E-02  0.1083487E+04  0.7818609E-02  0.9221438E-01
        2   -1    0    0  501    0  0.00000000000E+00  0.00000000000E+00  0.18753235542E+04  0.18753235542E+04  0.25500000920E-02 0. -1.
       -2   -1    0    0    0  501  0.00000000000E+00  0.00000000000E+00 -0.15649874271E+03  0.15649874273E+03  0.25500000920E-02 0.  1.
    10030    2    1    2    0    0  0.00000000000E+00  0.00000000000E+00  0.17188248115E+04  0.20318222969E+04  0.10834865545E+04 0.  0.
        1    1    3    3  502    0  0.42362356267E+03  0.15993995607E+03  0.14171197533E+04  0.14877049800E+04  0.50400001928E-02 0. -1.
       -1    1    3    3    0  502 -0.42362356267E+03 -0.15993995607E+03  0.30170505823E+03  0.54411731693E+03  0.50400001928E-02 0.  1.
</event>
<event>
 5   0  0.5854579E-03  0.1037097E+04  0.7818609E-02  0.9268767E-01
       -1   -1    0    0    0  501  0.00000000000E+00  0.00000000000E+00  0.38265814994E+03  0.38265814997E+03  0.50400001928E-02 0.  1.
        1   -1    0    0  501    0  0.00000000000E+00  0.00000000000E+00 -0.70269715193E+03  0.70269715195E+03  0.50400001928E-02 0. -1.
    10030    2    1    2    0    0  0.00000000000E+00  0.00000000000E+00 -0.32003900199E+03  0.10853553019E+04  0.10370974731E+04 0.  0.
        4    1    3    3  502    0  0.30373825202E+03 -0.37986662060E+03 -0.34820789901E+03  0.59816881314E+03  0.12699999809E+01 0.  1.
       -4    1    3    3    0  502 -0.30373825202E+03  0.37986662060E+03  0.28168897013E+02  0.48718648878E+03  0.12699999809E+01 0. -1.
</event>
<event>
 5   0  0.9719260E-03  0.1163821E+04  0.7818609E-02  0.9145127E-01
        2   -1    0    0  501    0  0.00000000000E+00  0.00000000000E+00  0.15662873874E+04  0.15662873874E+04  0.25500000920E-02 0.  1.
       -2   -1    0    0    0  501  0.00000000000E+00  0.00000000000E+00 -0.21619254499E+03  0.21619254501E+03  0.25500000920E-02 0. -1.
    10030    2    1    2    0    0  0.00000000000E+00  0.00000000000E+00  0.13500948424E+04  0.17824799324E+04  0.11638207018E+04 0.  0.
        3    1    3    3  502    0 -0.16810691940E+03  0.51759212404E+03  0.99063424655E+03  0.11302733138E+04  0.10100000352E+00 0. -1.
       -3    1    3    3    0  502  0.16810691940E+03 -0.51759212404E+03  0.35946059588E+03  0.65220661865E+03  0.10100000352E+00 0.  1.
</event>
<event>
 5   0  0.9692981E-03  0.1055934E+04  0.7818609E-02  0.9249239E-01
        2   -1    0    0  501    0  0.00000000000E+00  0.00000000000E+00  0.45910004082E+03  0.45910004082E+03  0.25500000920E-02 0. -1.
       -2   -1    0    0    0  501  0.00000000000E+00  0.00000000000E+00 -0.60716415334E+03  0.60716415335E+03  0.25500000920E-02 0.  1.
    10030    2    1    2    0    0  0.00000000000E+00  0.00000000000E+00 -0.14806411252E+03  0.10662641942E+04  0.10559338759E+04 0.  0.
        5    1    3    3  502    0  0.42375530992E+03  0.31275024277E+03 -0.11107500457E+03  0.53827597352E+03  0.46999998093E+01 0.  1.
       -5    1    3    3    0  502 -0.42375530992E+03 -0.31275024277E+03 -0.36989107954E+02  0.52798822065E+03  0.46999998093E+01 0. -1.
</event>
<event>
 5   0  0.5789905E-03  0.1081500E+04  0.7818609E-02  0.9223413E-01
        1   -1    0    0  501    0  0.00000000000E+00  0.00000000000E+00  0.85363700279E+03  0.85363700281E+03  0.50400001928E-02 0. -1.
       -1   -1    0    0    0  501  0.00000000000E+00  0.00000000000E+00 -0.34254683492E+03  0.34254683496E+03  0.50400001928E-02 0.  1.
    10030    2    1    2    0    0  0.00000000000E+00  0.00000000000E+00  0.51109016787E+03  0.11961838378E+04  0.10815001683E+04 0.  0.
        1    1    3    3  502    0 -0.49014492278E+03  0.14232128340E+02  0.50767896665E+03  0.70582046727E+03  0.50400001928E-02 0. -1.
       -1    1    3    3    0  502  0.49014492278E+03 -0.14232128340E+02  0.34112012169E+01  0.49036337050E+03  0.50400001928E-02 0.  1.
</event>
<event>
 5   0  0.3949750E-03  0.1086419E+04  0.7818609E-02  0.9218530E-01
        3   -1    0    0  501    0  0.00000000000E+00  0.00000000000E+00  0.28214218045E+03  0.28214219853E+03  0.10100000352E+00 0. -1.
       -3   -1    0    0    0  501  0.00000000000E+00  0.00000000000E+00 -0.10458442474E+04  0.10458442522E+04  0.10100000352E+00 0.  1.
    10030    2    1    2    0    0  0.00000000000E+00  0.00000000000E+00 -0.76370206692E+03  0.13279864508E+04  0.10864194247E+04 0.  0.
        2    1    3    3  502    0 -0.78964400259E+02  0.46507221670E+03 -0.71109102407E+03  0.85333345638E+03  0.25500000920E-02 0.  1.
       -2    1    3    3    0  502  0.78964400259E+02 -0.46507221670E+03 -0.52611042852E+02  0.47465299440E+03  0.25500000920E-02 0. -1.
</event>
<event>
 5   0  0.5854579E-03  0.1106809E+04  0.7818609E-02  0.9198580E-01
        1   -1    0    0  501    0  0.00000000000E+00  0.00000000000E+00  0.63500493040E+03  0.63500493042E+03  0.50400001928E-02 0.  1.
       -1   -1    0    0    0  501  0.00000000000E+00  0.00000000000E+00 -0.48229041738E+03  0.48229041741E+03  0.50400001928E-02 0. -1.
    10030    2    1    2    0    0  0.00000000000E+00  0.00000000000E+00  0.15271451302E+03  0.11172953478E+04  0.11068094560E+04 0.  0.
        4    1    3    3  502    0 -0.34617874660E+03  0.40062629738E+03  0.23886070021E+03  0.58085902055E+03  0.12699999809E+01 0.  1.
       -4    1    3    3    0  502  0.34617874660E+03 -0.40062629738E+03 -0.86146187197E+02  0.53643632728E+03  0.12699999809E+01 0. -1.
</event>
<event>
 5   0  0.9925021E-03  0.1118109E+04  0.7818609E-02  0.9187719E-01
        2   -1    0    0  501    0  0.00000000000E+00  0.00000000000E+00  0.27310023874E+04  0.27310023874E+04  0.25500000920E-02 0.  1.
       -2   -1    0    0    0  501  0.00000000000E+00  0.00000000000E+00 -0.11444221008E+03  0.11444221011E+03  0.25500000920E-02 0. -1.
    10030    2    1    2    0    0  0.00000000000E+00  0.00000000000E+00  0.26165601773E+04  0.28454445975E+04  0.11181090269E+04 0.  0.
        4    1    3    3  502    0  0.20125607731E+03 -0.51456871194E+03  0.15250483565E+04  0.16220539665E+04  0.12699999809E+01 0.  1.
       -4    1    3    3    0  502 -0.20125607731E+03  0.51456871194E+03  0.10915118209E+04  0.12233906310E+04  0.12699999809E+01 0. -1.
</event>
<event>
 5   0  0.5998641E-03  0.1048897E+04  0.7818609E-02  0.9256483E-01
        1   -1    0    0  501    0  0.00000000000E+00  0.00000000000E+00  0.84300398468E+03  0.84300398470E+03  0.50400001928E-02 0. -1.
       -1   -1    0    0    0  501  0.00000000000E+00  0.00000000000E+00 -0.32626930354E+03  0.32626930358E+03  0.50400001928E-02 0.  1.
    10030    2    1    2    0    0  0.00000000000E+00  0.00000000000E+00  0.51673468114E+03  0.11692732883E+04  0.10488971789E+04 0.  0.
        3    1    3    3  502    0 -0.36274664700E+03  0.33955901905E+03  0.71296527902E+02  0.50196480197E+03  0.10100000352E+00 0.  1.
       -3    1    3    3    0  502  0.36274664700E+03 -0.33955901905E+03  0.44543815324E+03  0.66730848630E+03  0.10100000352E+00 0. -1.
</event>
<event>
 5   0  0.9692981E-03  0.1053631E+04  0.7818609E-02  0.9251603E-01
        2   -1    0    0  501    0  0.00000000000E+00  0.00000000000E+00  0.17178937046E+04  0.17178937046E+04  0.25500000920E-02 0.  1.
       -2   -1    0    0    0  501  0.00000000000E+00  0.00000000000E+00 -0.16155508802E+03  0.16155508804E+03  0.25500000920E-02 0. -1.
    10030    2    1    2    0    0  0.00000000000E+00  0.00000000000E+00  0.15563386165E+04  0.18794487926E+04  0.10536308057E+04 0.  0.
        5    1    3    3  502    0  0.32532570598E+03  0.35765523869E+03  0.11513096699E+04  0.12487153922E+04  0.46999998093E+01 0.  1.
       -5    1    3    3    0  502 -0.32532570598E+03 -0.35765523869E+03  0.40502894661E+03  0.63073340036E+03  0.46999998093E+01 0. -1.
</event>
<event>
 5   0  0.1028016E-02  0.1088602E+04  0.7818609E-02  0.9216372E-01
       -2   -1    0    0    0  501  0.00000000000E+00  0.00000000000E+00  0.26596487449E+03  0.26596487450E+03  0.25500000920E-02 0.  1.
        2   -1    0    0  501    0  0.00000000000E+00  0.00000000000E+00 -0.11139208501E+04  0.11139208501E+04  0.25500000920E-02 0. -1.
    10030    2    1    2    0    0  0.00000000000E+00  0.00000000000E+00 -0.84795597563E+03  0.13798857246E+04  0.10886024418E+04 0.  0.
        2    1    3    3  502    0 -0.19494824769E+03 -0.16278750952E+02  0.21986300195E+03  0.29429501634E+03  0.25500000920E-02 0.  1.
       -2    1    3    3    0  502  0.19494824769E+03  0.16278750952E+02 -0.10678189776E+04  0.10855907083E+04  0.25500000920E-02 0. -1.
</event>
<event>
 5   0  0.9692981E-03  0.1087946E+04  0.7818609E-02  0.9217021E-01
       -2   -1    0    0    0  501  0.00000000000E+00  0.00000000000E+00  0.42444275564E+03  0.42444275565E+03  0.25500000920E-02 0.  1.
        2   -1    0    0  501    0  0.00000000000E+00  0.00000000000E+00 -0.69716508936E+03  0.69716508936E+03  0.25500000920E-02 0. -1.
    10030    2    1    2    0    0  0.00000000000E+00  0.00000000000E+00 -0.27272233372E+03  0.11216078450E+04  0.10879460863E+04 0.  0.
        5    1    3    3  502    0  0.44762296622E+03 -0.41261571569E+02 -0.45213164792E+03  0.63758446831E+03  0.46999998093E+01 0. -1.
       -5    1    3    3    0  502 -0.44762296622E+03  0.41261571569E+02  0.17940931420E+03  0.48402337671E+03  0.46999998093E+01 0.  1.
</event>
<event>
 5   0  0.5998641E-03  0.7933506E+03  0.7818609E-02  0.9569692E-01
       -1   -1    0    0    0  501  0.00000000000E+00  0.00000000000E+00  0.10887301450E+03  0.10887301461E+03  0.50400001928E-02 0. -1.
        1   -1    0    0  501    0  0.00000000000E+00  0.00000000000E+00 -0.14452734492E+04  0.14452734492E+04  0.50400001928E-02 0.  1.
    10030    2    1    2    0    0  0.00000000000E+00  0.00000000000E+00 -0.13364004347E+04  0.15541464638E+04  0.79335055878E+03 0.  0.
        3    1    3    3  502    0 -0.38402096285E+03 -0.91225168410E+02 -0.74550209801E+03  0.84354461624E+03  0.10100000352E+00 0. -1.
       -3    1    3    3    0  502  0.38402096285E+03  0.91225168410E+02 -0.59089833665E+03  0.71060184754E+03  0.10100000352E+00 0.  1.
</event>
<event>
 5   0  0.5958706E-03  0.1091394E+04  0.7818609E-02  0.9213620E-01
        1   -1    0    0  501    0  0.00000000000E+00  0.00000000000E+00  0.47138340782E+03  0.47138340785E+03  0.50400001928E-02 0.  1.
       -1   -1    0    0    0  501  0.00000000000E+00  0.00000000000E+00 -0.63172670112E+03  0.63172670114E+03  0.50400001928E-02 0. -1.
    10030    2    1    2    0    0  0.00000000000E+00  0.00000000000E+00 -0.16034329330E+03  0.11031101090E+04  0.10913944937E+04 0.  0.
        2    1    3    3  502    0 -0.51164792765E+03 -0.18431993453E+03 -0.12568888536E+03  0.55817124258E+03  0.25500000920E-02 0.  1.
       -2    1    3    3    0  502  0.51164792765E+03  0.18431993453E+03 -0.34654407942E+02  0.54493886641E+03  0.25500000920E-02 0. -1.
</event>
<event>
 5   0  0.9719260E-03  0.1106355E+04  0.7818609E-02  0.9199020E-01
        2   -1    0    0  501    0  0.00000000000E+00  0.00000000000E+00  0.80024825260E+03  0.80024825260E+03  0.25500000920E-02 0.  1.
       -2   -1    0    0    0  501  0.00000000000E+00  0.00000000000E+00 -0.38238768078E+03  0.38238768079E+03  0.25500000920E-02 0. -1.
    10030    2    1    2    0    0  0.00000000000E+00  0.00000000000E+00  0.41786057182E+03  0.11826359334E+04  0.11063545062E+04 0.  0.
        3    1    3    3  502    0 -0.13483391913E+02  0.52317387178E+03  0.40048501641E+03  0.65899997006E+03  0.10100000352E+00 0.  1.
       -3    1    3    3    0  502  0.13483391913E+02 -0.52317387178E+03  0.17375555412E+02  0.52363596333E+03  0.10100000352E+00 0. -1.
</event>
<event>
 5   0  0.5958706E-03  0.1069277E+04  0.7818609E-02  0.9235664E-01
       -1   -1    0    0    0  501  0.00000000000E+00  0.00000000000E+00  0.15518107098E+03  0.15518107106E+03  0.50400001928E-02 0. -1.
        1   -1    0    0  501    0  0.00000000000E+00  0.00000000000E+00 -0.18419681522E+04  0.18419681522E+04  0.50400001928E-02 0.  1.
    10030    2    1    2    0    0  0.00000000000E+00  0.00000000000E+00 -0.16867870812E+04  0.19971492232E+04  0.10692774956E+04 0.  0.
        2    1    3    3  502    0 -0.81967963463E+02 -0.49455934645E+03 -0.49631799445E+03  0.70543550082E+03  0.25500000920E-02 0. -1.
       -2    1    3    3    0  502  0.81967963463E+02  0.49455934645E+03 -0.11904690867E+04  0.12917137224E+04  0.25500000920E-02 0.  1.
</event>
<event>
 5   0  0.9925021E-03  0.1119027E+04  0.7818609E-02  0.9186843E-01
       -2   -1    0    0    0  501  0.00000000000E+00  0.00000000000E+00  0.83456398145E+03  0.83456398145E+03  0.25500000920E-02 0. -1.
        2   -1    0    0  501    0  0.00000000000E+00  0.00000000000E+00 -0.37511236706E+03  0.37511236707E+03  0.25500000920E-02 0.  1.
    10030    2    1    2    0    0  0.00000000000E+00  0.00000000000E+00  0.45945161438E+03  0.12096763485E+04  0.11190268461E+04 0.  0.
        4    1    3    3  502    0  0.29014295061E+03  0.15043364074E+03 -0.26119970624E+03  0.41837795293E+03  0.12699999809E+01 0.  1.
       -4    1    3    3    0  502 -0.29014295061E+03 -0.15043364074E+03  0.72065132062E+03  0.79129839559E+03  0.12699999809E+01 0. -1.
</event>
<event>
 5   0  0.5854579E-03  0.1101845E+04  0.7818609E-02  0.9203396E-01
       -1   -1    0    0    0  501  0.00000000000E+00  0.00000000000E+00  0.41152497350E+03  0.41152497353E+03  0.50400001928E-02 0. -1.
        1   -1    0    0  501    0  0.00000000000E+00  0.00000000000E+00 -0.73753847942E+03  0.73753847944E+03  0.50400001928E-02 0.  1.
    10030    2    1    2    0    0  0.00000000000E+00  0.00000000000E+00 -0.32601350592E+03  0.11490634530E+04  0.11018448225E+04 0.  0.
        4    1    3    3  502    0  0.39131303277E+03  0.24484044108E+03  0.15061533101E+03  0.48555053501E+03  0.12699999809E+01 0. -1.
       -4    1    3    3    0  502 -0.39131303277E+03 -0.24484044108E+03 -0.47662883694E+03  0.66351291796E+03  0.12699999809E+01 0.  1.
</event>
<event>
 5   0  0.5789905E-03  0.1093826E+04  0.7818609E-02  0.9211231E-01
        1   -1    0    0  501    0  0.00000000000E+00  0.00000000000E+00  0.67618549297E+03  0.67618549299E+03  0.50400001928E-02 0.  1.
       -1   -1    0    0    0  501  0.00000000000E+00  0.00000000000E+00 -0.44235441711E+03  0.44235441714E+03  0.50400001928E-02 0. -1.
    10030    2    1    2    0    0  0.00000000000E+00  0.00000000000E+00  0.23383107586E+03  0.11185399101E+04  0.10938256527E+04 0.  0.
        1    1    3    3  502    0 -0.45208375168E+03 -0.42611501830E+02  0.42862768735E+03  0.62443346564E+03  0.50400001928E-02 0.  1.
       -1    1    3    3    0  502  0.45208375168E+03  0.42611501830E+02 -0.19479661150E+03  0.49410644450E+03  0.50400001928E-02 0. -1.
</event>
<event>
 5   0  0.5712664E-03  0.1099817E+04  0.7818609E-02  0.9205370E-01
        1   -1    0    0  501    0  0.00000000000E+00  0.00000000000E+00  0.54569879849E+03  0.54569879851E+03  0.50400001928E-02 0. -1.
       -1   -1    0    0    0  501  0.00000000000E+00  0.00000000000E+00 -0.55415096699E+03  0.55415096702E+03  0.50400001928E-02 0.  1.
    10030    2    1    2    0    0  0.00000000000E+00  0.00000000000E+00 -0.84521685060E+01  0.10998497655E+04  0.10998172883E+04 0.  0.
        5    1    3    3  502    0  0.12336067613E+03 -0.40711479815E+02  0.53011370251E+03  0.54581856747E+03  0.46999998093E+01 0. -1.
       -5    1    3    3    0  502 -0.12336067613E+03  0.40711479815E+02 -0.53856587102E+03  0.55403119806E+03  0.46999998093E+01 0.  1.
</event>
<event>
 5   0  0.5789905E-03  0.1106329E+04  0.7818609E-02  0.9199045E-01
       -1   -1    0    0    0  501  0.00000000000E+00  0.00000000000E+00  0.26924627451E+03  0.26924627456E+03  0.50400001928E-02 0. -1.
        1   -1    0    0  501    0  0.00000000000E+00  0.00000000000E+00 -0.11364720464E+04  0.11364720464E+04  0.50400001928E-02 0.  1.
    10030    2    1    2    0    0  0.00000000000E+00  0.00000000000E+00 -0.86722577192E+03  0.14057183210E+04  0.11063288203E+04 0.  0.
        1    1    3    3  502    0  0.68188584975E+02  0.41255086211E+03  0.26523505874E+02  0.41898853604E+03  0.50400001928E-02 0. -1.
       -1    1    3    3    0  502 -0.68188584975E+02 -0.41255086211E+03 -0.89374927780E+03  0.98672978497E+03  0.50400001928E-02 0.  1.
</event>
<event>
 5   0  0.1028016E-02  0.1103516E+04  0.7818609E-02  0.9201771E-01
       -2   -1    0    0    0  501  0.00000000000E+00  0.00000000000E+00  0.53670527787E+03  0.53670527787E+03  0.25500000920E-02 0. -1.
        2   -1    0    0  501    0  0.00000000000E+00  0.00000000000E+00 -0.56723330770E+03  0.56723330770E+03  0.25500000920E-02 0.  1.
    10030    2    1    2    0    0  0.00000000000E+00  0.00000000000E+00 -0.30528029831E+02  0.11039385856E+04  0.11035163978E+04 0.  0.
        2    1    3    3  502    0 -0.30555483870E+03  0.28925650609E+02  0.44342711698E+03  0.53928476782E+03  0.25500000920E-02 0. -1.
       -2    1    3    3    0  502  0.30555483870E+03 -0.28925650609E+02 -0.47395514681E+03  0.56465381776E+03  0.25500000920E-02 0.  1.
</event>
<event>
 5   0  0.5854579E-03  0.1113141E+04  0.7818609E-02  0.9192478E-01
        1   -1    0    0  501    0  0.00000000000E+00  0.00000000000E+00  0.94047852776E+03  0.94047852778E+03  0.50400001928E-02 0. -1.
       -1   -1    0    0    0  501  0.00000000000E+00  0.00000000000E+00 -0.32937552780E+03  0.32937552784E+03  0.50400001928E-02 0.  1.
    10030    2    1    2    0    0  0.00000000000E+00  0.00000000000E+00  0.61110299996E+03  0.12698540556E+04  0.11131408024E+04 0.  0.
        4    1    3    3  502    0  0.43020677082E+03  0.25366684259E+03  0.58578607200E+03  0.76978676771E+03  0.12699999809E+01 0. -1.
       -4    1    3    3    0  502 -0.43020677082E+03 -0.25366684259E+03  0.25316927964E+02  0.50006728791E+03  0.12699999809E+01 0.  1.
</event>
<event>
 5   0  0.9719260E-03  0.1120908E+04  0.7818609E-02  0.9185049E-01
        2   -1    0    0  501    0  0.00000000000E+00  0.00000000000E+00  0.85908728908E+03  0.85908728909E+03  0.25500000920E-02 0. -1.
       -2   -1    0    0    0  501  0.00000000000E+00  0.00000000000E+00 -0.36563088943E+03  0.36563088944E+03  0.25500000920E-02 0.  1.
    10030    2    1    2    0    0  0.00000000000E+00  0.00000000000E+00  0.49345639966E+03  0.12247181785E+04  0.11209082917E+04 0.  0.
        3    1    3    3  502    0 -0.37030660885E+03  0.24361830762E+03  0.62146709910E+03  0.76334672976E+03  0.10100000352E+00 0. -1.
       -3    1    3    3    0  502  0.37030660885E+03 -0.24361830762E+03 -0.12801069944E+03  0.46137144877E+03  0.10100000352E+00 0.  1.
</event>
<event>
 5   0  0.3949750E-03  0.5474991E+03  0.7818609E-02  0.1002074E+00
       -3   -1    0    0    0  501  0.00000000000E+00  0.00000000000E+00  0.32881421682E+03  0.32881423234E+03  0.10100000352E+00 0. -1.
        3   -1    0    0  501    0  0.00000000000E+00  0.00000000000E+00 -0.22790622124E+03  0.22790624362E+03  0.10100000352E+00 0.  1.
    10030    2    1    2    0    0  0.00000000000E+00  0.00000000000E+00  0.10090799558E+03  0.55672047596E+03  0.54749910025E+03 0.  0.
        4    1    3    3  502    0 -0.42379305815E+01 -0.26869156554E+03 -0.26178464523E+01  0.26874073653E+03  0.12699999809E+01 0.  1.
       -4    1    3    3    0  502  0.42379305815E+01  0.26869156554E+03  0.10352584204E+03  0.28797973943E+03  0.12699999809E+01 0. -1.
</event>
<event>
 5   0  0.9925021E-03  0.1132721E+04  0.7818609E-02  0.9173874E-01
        2   -1    0    0  501    0  0.00000000000E+00  0.00000000000E+00  0.74252740490E+03  0.74252740490E+03  0.25500000920E-02 0. -1.
       -2   -1    0    0    0  501  0.00000000000E+00  0.00000000000E+00 -0.43198970963E+03  0.43198970963E+03  0.25500000920E-02 0.  1.
    10030    2    1    2    0    0  0.00000000000E+00  0.00000000000E+00  0.31053769527E+03  0.11745171145E+04  0.11327209684E+04 0.  0.
        4    1    3    3  502    0  0.28852815213E+03 -0.11019382947E+03  0.64751895652E+03  0.71740754566E+03  0.12699999809E+01 0. -1.
       -4    1    3    3    0  502 -0.28852815213E+03  0.11019382947E+03 -0.33698126125E+03  0.45710956887E+03  0.12699999809E+01 0.  1.
</event>
<event>
 5   0  0.5789905E-03  0.1113910E+04  0.7818609E-02  0.9191739E-01
       -1   -1    0    0    0  501  0.00000000000E+00  0.00000000000E+00  0.38620471994E+03  0.38620471998E+03  0.50400001928E-02 0. -1.
        1   -1    0    0  501    0  0.00000000000E+00  0.00000000000E+00 -0.80319861974E+03  0.80319861975E+03  0.50400001928E-02 0.  1.
    10030    2    1    2    0    0  0.00000000000E+00  0.00000000000E+00 -0.41699389979E+03  0.11894033397E+04  0.11139104058E+04 0.  0.
        1    1    3    3  502    0 -0.11595964861E+03 -0.45826467247E+03 -0.52298452441E+03  0.70495812850E+03  0.50400001928E-02 0.  1.
       -1    1    3    3    0  502  0.11595964861E+03  0.45826467247E+03  0.10599062462E+03  0.48444521122E+03  0.50400001928E-02 0. -1.
</event>
<event>
 5   0  0.9692981E-03  0.1092780E+04  0.7818609E-02  0.9212258E-01
        2   -1    0    0  501    0  0.00000000000E+00  0.00000000000E+00  0.10516139653E+04  0.10516139653E+04  0.25500000920E-02 0. -1.
       -2   -1    0    0    0  501  0.00000000000E+00  0.00000000000E+00 -0.28388924022E+03  0.28388924023E+03  0.25500000920E-02 0.  1.
    10030    2    1    2    0    0  0.00000000000E+00  0.00000000000E+00  0.76772472507E+03  0.13355032055E+04  0.10927797392E+04 0.  0.
        5    1    3    3  502    0  0.15663359005E+03 -0.95414903248E+02  0.10128444676E+04  0.10293270087E+04  0.46999998093E+01 0. -1.
       -5    1    3    3    0  502 -0.15663359005E+03  0.95414903248E+02 -0.24511974256E+03  0.30617619680E+03  0.46999998093E+01 0.  1.
</event>
<event>
 5   0  0.3949750E-03  0.1102911E+04  0.7818609E-02  0.9202359E-01
        3   -1    0    0  501    0  0.00000000000E+00  0.00000000000E+00  0.21976993027E+03  0.21976995348E+03  0.10100000352E+00 0. -1.
       -3   -1    0    0    0  501  0.00000000000E+00  0.00000000000E+00 -0.13837347976E+04  0.13837348013E+04  0.10100000352E+00 0.  1.
    10030    2    1    2    0    0  0.00000000000E+00  0.00000000000E+00 -0.11639648673E+04  0.16035047548E+04  0.11029112776E+04 0.  0.
        2    1    3    3  502    0 -0.44158765736E+02  0.25519946634E+03 -0.12898111517E+04  0.13155567534E+04  0.25500000920E-02 0.  1.
       -2    1    3    3    0  502  0.44158765736E+02 -0.25519946634E+03  0.12584628438E+03  0.28794800140E+03  0.25500000920E-02 0. -1.
</event>
<event>
 5   0  0.1019384E-02  0.1111752E+04  0.7818609E-02  0.9193812E-01
       -2   -1    0    0    0  501  0.00000000000E+00  0.00000000000E+00  0.32345715266E+03  0.32345715267E+03  0.25500000920E-02 0. -1.
        2   -1    0    0  501    0  0.00000000000E+00  0.00000000000E+00 -0.95529921789E+03  0.95529921789E+03  0.25500000920E-02 0.  1.
    10030    2    1    2    0    0  0.00000000000E+00  0.00000000000E+00 -0.63184206523E+03  0.12787563706E+04  0.11117524274E+04 0.  0.
        1    1    3    3  502    0  0.31957624303E+03  0.25195725753E+03  0.11962544661E+03  0.42417176030E+03  0.50400001928E-02 0. -1.
       -1    1    3    3    0  502 -0.31957624303E+03 -0.25195725753E+03 -0.75146751184E+03  0.85458461027E+03  0.50400001928E-02 0.  1.
</event>
<event>
 5   0  0.9719260E-03  0.1254694E+04  0.7818609E-02  0.9066286E-01
        2   -1    0    0  501    0  0.00000000000E+00  0.00000000000E+00  0.23890158007E+04  0.23890158007E+04  0.25500000920E-02 0.  1.
       -2   -1    0    0    0  501  0.00000000000E+00  0.00000000000E+00 -0.16473903559E+03  0.16473903561E+03  0.25500000920E-02 0. -1.
    10030    2    1    2    0    0  0.00000000000E+00  0.00000000000E+00  0.22242767652E+04  0.25537548363E+04  0.12546938416E+04 0.  0.
        3    1    3    3  502    0  0.32752652000E+03 -0.37030964483E+03  0.32605338544E+03  0.59221083637E+03  0.10100000352E+00 0. -1.
       -3    1    3    3    0  502 -0.32752652000E+03  0.37030964483E+03  0.18982233797E+04  0.19615440000E+04  0.10100000352E+00 0.  1.
</event>
<event>
 5   0  0.5854579E-03  0.1107307E+04  0.7818609E-02  0.9198099E-01
        1   -1    0    0  501    0  0.00000000000E+00  0.00000000000E+00  0.82709128433E+03  0.82709128434E+03  0.50400001928E-02 0.  1.
       -1   -1    0    0    0  501  0.00000000000E+00  0.00000000000E+00 -0.37061494868E+03  0.37061494872E+03  0.50400001928E-02 0. -1.
    10030    2    1    2    0    0  0.00000000000E+00  0.00000000000E+00  0.45647633565E+03  0.11977062331E+04  0.11073073538E+04 0.  0.
        4    1    3    3  502    0  0.15241947143E+03 -0.10463910929E+03  0.79271433484E+03  0.81398935375E+03  0.12699999809E+01 0.  1.
       -4    1    3    3    0  502 -0.15241947143E+03  0.10463910929E+03 -0.33623799920E+03  0.38371687931E+03  0.12699999809E+01 0. -1.
</event>
<event>
 5   0  0.3949750E-03  0.1156699E+04  0.7818609E-02  0.9151625E-01
       -4   -1    0    0    0  501  0.00000000000E+00  0.00000000000E+00  0.51355991583E+03  0.51356148614E+03  0.12699999809E+01 0.  1.
        4   -1    0    0  501    0  0.00000000000E+00  0.00000000000E+00 -0.65130994055E+03  0.65131117875E+03  0.12699999809E+01 0. -1.
    10030    2    1    2    0    0  0.00000000000E+00  0.00000000000E+00 -0.13775002472E+03  0.11648726649E+04  0.11566992937E+04 0.  0.
        4    1    3    3  502    0 -0.43629850130E+03 -0.18358418842E+03 -0.40352895384E+03  0.62201026194E+03  0.12699999809E+01 0. -1.
       -4    1    3    3    0  502  0.43629850130E+03  0.18358418842E+03  0.26577892911E+03  0.54286240295E+03  0.12699999809E+01 0.  1.
</event>
<event>
 5   0  0.1019384E-02  0.1112192E+04  0.7818609E-02  0.9193390E-01
        2   -1    0    0  501    0  0.00000000000E+00  0.00000000000E+00  0.14300898483E+04  0.14300898483E+04  0.25500000920E-02 0.  1.
       -2   -1    0    0    0  501  0.00000000000E+00  0.00000000000E+00 -0.21623992366E+03  0.21623992368E+03  0.25500000920E-02 0. -1.
    10030    2    1    2    0    0  0.00000000000E+00  0.00000000000E+00  0.12138499246E+04  0.16463297720E+04  0.11121915656E+04 0.  0.
        1    1    3    3  502    0  0.12319278255E+03 -0.53269041481E+03  0.75720557238E+03  0.93396778241E+03  0.50400001928E-02 0. -1.
       -1    1    3    3    0  502 -0.12319278255E+03  0.53269041481E+03  0.45664435222E+03  0.71236198954E+03  0.50400001928E-02 0.  1.
</event>
<event>
 5   0  0.9719260E-03  0.1024880E+04  0.7818609E-02  0.9281670E-01
       -2   -1    0    0    0  501  0.00000000000E+00  0.00000000000E+00  0.81373266856E+03  0.81373266856E+03  0.25500000920E-02 0. -1.
        2   -1    0    0  501    0  0.00000000000E+00  0.00000000000E+00 -0.32270404016E+03  0.32270404017E+03  0.25500000920E-02 0.  1.
    10030    2    1    2    0    0  0.00000000000E+00  0.00000000000E+00  0.49102862840E+03  0.11364367087E+04  0.10248801291E+04 0.  0.
        3    1    3    3  502    0 -0.41281283817E+03  0.30210928355E+03  0.27897051452E+03  0.58267402271E+03  0.10100000352E+00 0. -1.
       -3    1    3    3    0  502  0.41281283817E+03 -0.30210928355E+03  0.21205811388E+03  0.55376268602E+03  0.10100000352E+00 0.  1.
</event>
<event>
 5   0  0.5712664E-03  0.1109339E+04  0.7818609E-02  0.9196137E-01
        1   -1    0    0  501    0  0.00000000000E+00  0.00000000000E+00  0.58300748184E+03  0.58300748186E+03  0.50400001928E-02 0.  1.
       -1   -1    0    0    0  501  0.00000000000E+00  0.00000000000E+00 -0.52770902030E+03  0.52770902033E+03  0.50400001928E-02 0. -1.
    10030    2    1    2    0    0  0.00000000000E+00  0.00000000000E+00  0.55298461535E+02  0.11107165022E+04  0.11093390953E+04 0.  0.
        5    1    3    3  502    0 -0.29540528890E+03  0.30968552009E+02  0.49664612400E+03  0.57870786966E+03  0.46999998093E+01 0.  1.
       -5    1    3    3    0  502  0.29540528890E+03 -0.30968552009E+02 -0.44134766246E+03  0.53200863253E+03  0.46999998093E+01 0. -1.
</event>
<event>
 5   0  0.9719260E-03  0.1132217E+04  0.7818609E-02  0.9174348E-01
        2   -1    0    0  501    0  0.00000000000E+00  0.00000000000E+00  0.33811694657E+04  0.33811694657E+04  0.25500000920E-02 0.  1.
       -2   -1    0    0    0  501  0.00000000000E+00  0.00000000000E+00 -0.94783455577E+02  0.94783455611E+02  0.25500000920E-02 0. -1.
    10030    2    1    2    0    0  0.00000000000E+00  0.00000000000E+00  0.32863860101E+04  0.34759529213E+04  0.11322171628E+04 0.  0.
        3    1    3    3  502    0  0.22400434735E+03 -0.28164929647E+03  0.30156534343E+03  0.46951670938E+03  0.10100000352E+00 0. -1.
       -3    1    3    3    0  502 -0.22400434735E+03  0.28164929647E+03  0.29848206667E+04  0.30064362119E+04  0.10100000352E+00 0.  1.
</event>
<event>
 5   0  0.5958706E-03  0.1219817E+04  0.7818609E-02  0.9095686E-01
       -1   -1    0    0    0  501  0.00000000000E+00  0.00000000000E+00  0.89806674290E+03  0.89806674292E+03  0.50400001928E-02 0. -1.
        1   -1    0    0  501    0  0.00000000000E+00  0.00000000000E+00 -0.41420992484E+03  0.41420992487E+03  0.50400001928E-02 0.  1.
    10030    2    1    2    0    0  0.00000000000E+00  0.00000000000E+00  0.48385681807E+03  0.13122766678E+04  0.12198166389E+04 0.  0.
        2    1    3    3  502    0  0.23616634312E+03  0.36449644596E+03 -0.21872932465E+03  0.48628666259E+03  0.25500000920E-02 0.  1.
       -2    1    3    3    0  502 -0.23616634312E+03 -0.36449644596E+03  0.70258614272E+03  0.82599000520E+03  0.25500000920E-02 0. -1.
</event>
<event>
 5   0  0.5854579E-03  0.6190089E+03  0.7818609E-02  0.9866735E-01
       -1   -1    0    0    0  501  0.00000000000E+00  0.00000000000E+00  0.10235230963E+03  0.10235230976E+03  0.50400001928E-02 0.  1.
        1   -1    0    0  501    0  0.00000000000E+00  0.00000000000E+00 -0.93591446621E+03  0.93591446623E+03  0.50400001928E-02 0. -1.
    10030    2    1    2    0    0  0.00000000000E+00  0.00000000000E+00 -0.83356215658E+03  0.10382667760E+04  0.61900890885E+03 0.  0.
        4    1    3    3  502    0 -0.69439139457E+02 -0.21753628799E+03 -0.66358515553E+02  0.23780011810E+03  0.12699999809E+01 0.  1.
       -4    1    3    3    0  502  0.69439139457E+02  0.21753628799E+03 -0.76720364102E+03  0.80046665788E+03  0.12699999809E+01 0. -1.
</event>
<event>
 5   0  0.9719260E-03  0.1102229E+04  0.7818609E-02  0.9203022E-01
       -2   -1    0    0    0  501  0.00000000000E+00  0.00000000000E+00  0.48133598482E+03  0.48133598483E+03  0.25500000920E-02 0.  1.
        2   -1    0    0  501    0  0.00000000000E+00  0.00000000000E+00 -0.63100882537E+03  0.63100882537E+03  0.25500000920E-02 0. -1.
    10030    2    1    2    0    0  0.00000000000E+00  0.00000000000E+00 -0.14967284055E+03  0.11123448102E+04  0.11022291130E+04 0.  0.
        3    1    3    3  502    0  0.49313017898E+03  0.22738722137E+03  0.20074146481E+02  0.54340160418E+03  0.10100000352E+00 0. -1.
       -3    1    3    3    0  502 -0.49313017898E+03 -0.22738722137E+03 -0.16974698703E+03  0.56894320602E+03  0.10100000352E+00 0.  1.
</event>
<event>
 5   0  0.5998641E-03  0.1065924E+04  0.7818609E-02  0.9239056E-01
        1   -1    0    0  501    0  0.00000000000E+00  0.00000000000E+00  0.71003339223E+03  0.71003339224E+03  0.50400001928E-02 0.  1.
       -1   -1    0    0    0  501  0.00000000000E+00  0.00000000000E+00 -0.40004958416E+03  0.40004958419E+03  0.50400001928E-02 0. -1.
    10030    2    1    2    0    0  0.00000000000E+00  0.00000000000E+00  0.30998380807E+03  0.11100829764E+04  0.10659241311E+04 0.  0.
        3    1    3    3  502    0  0.43644840786E+03 -0.71154939559E+02 -0.15481896454E+03  0.46852871858E+03  0.10100000352E+00 0. -1.
       -3    1    3    3    0  502 -0.43644840786E+03  0.71154939559E+02  0.46480277261E+03  0.64155425786E+03  0.10100000352E+00 0.  1.
</event>
<event>
 5   0  0.5789905E-03  0.1122124E+04  0.7818609E-02  0.9183893E-01
        1   -1    0    0  501    0  0.00000000000E+00  0.00000000000E+00  0.92399176070E+03  0.92399176072E+03  0.50400001928E-02 0.  1.
       -1   -1    0    0    0  501  0.00000000000E+00  0.00000000000E+00 -0.34068545091E+03  0.34068545095E+03  0.50400001928E-02 0. -1.
    10030    2    1    2    0    0  0.00000000000E+00  0.00000000000E+00  0.58330630979E+03  0.12646772117E+04  0.11221239676E+04 0.  0.
        1    1    3    3  502    0  0.16432068225E+03  0.40234992211E+03 -0.10825317554E+03  0.44789004954E+03  0.50400001928E-02 0. -1.
       -1    1    3    3    0  502 -0.16432068225E+03 -0.40234992211E+03  0.69155948533E+03  0.81678716213E+03  0.50400001928E-02 0.  1.
</event>
<event>
 5   0  0.5854579E-03  0.1099630E+04  0.7818609E-02  0.9205553E-01
       -1   -1    0    0    0  501  0.00000000000E+00  0.00000000000E+00  0.40143630088E+03  0.40143630091E+03  0.50400001928E-02 0. -1.
        1   -1    0    0  501    0  0.00000000000E+00  0.00000000000E+00 -0.75303706910E+03  0.75303706912E+03  0.50400001928E-02 0.  1.
    10030    2    1    2    0    0  0.00000000000E+00  0.00000000000E+00 -0.35160076822E+03  0.11544733700E+04  0.10996297840E+04 0.  0.
        4    1    3    3  502    0 -0.35903688284E+03  0.29433357898E+03  0.13343190938E+03  0.48305840878E+03  0.12699999809E+01 0.  1.
       -4    1    3    3    0  502  0.35903688284E+03 -0.29433357898E+03 -0.48503267760E+03  0.67141496125E+03  0.12699999809E+01 0. -1.
</event>
<event>
 5   0  0.1028016E-02  0.1096146E+04  0.7818609E-02  0.9208957E-01
        2   -1    0    0  501    0  0.00000000000E+00  0.00000000000E+00  0.22224637910E+04  0.22224637910E+04  0.25500000920E-02 0. -1.
       -2   -1    0    0    0  501  0.00000000000E+00  0.00000000000E+00 -0.13515802010E+03  0.13515802013E+03  0.25500000920E-02 0.  1.
    10030    2    1    2    0    0  0.00000000000E+00  0.00000000000E+00  0.20873057709E+04  0.23576218112E+04  0.10961456213E+04 0.  0.
        2    1    3    3  502    0 -0.15565687496E+02  0.50863621192E+03  0.14814441814E+04  0.15664066998E+04  0.25500000920E-02 0. -1.
       -2    1    3    3    0  502  0.15565687496E+02 -0.50863621192E+03  0.60586158954E+03  0.79121511133E+03  0.25500000920E-02 0.  1.
</event>
<event>
 5   0  0.1028016E-02  0.1116029E+04  0.7818609E-02  0.9189708E-01
       -2   -1    0    0    0  501  0.00000000000E+00  0.00000000000E+00  0.62013847422E+03  0.62013847423E+03  0.25500000920E-02 0.  1.
        2   -1    0    0  501    0  0.00000000000E+00  0.00000000000E+00 -0.50211406920E+03  0.50211406921E+03  0.25500000920E-02 0. -1.
    10030    2    1    2    0    0  0.00000000000E+00  0.00000000000E+00  0.11802440502E+03  0.11222525434E+04  0.11160291264E+04 0.  0.
        2    1    3    3  502    0  0.38565132517E+03 -0.37782403155E+03  0.20087443999E+03  0.57604555728E+03  0.25500000920E-02 0. -1.
       -2    1    3    3    0  502 -0.38565132517E+03  0.37782403155E+03 -0.82850034963E+02  0.54620698615E+03  0.25500000920E-02 0.  1.
</event>
<event>
 5   0  0.1028016E-02  0.1097263E+04  0.7818609E-02  0.9207863E-01
       -2   -1    0    0    0  501  0.00000000000E+00  0.00000000000E+00  0.22043870627E+03  0.22043870629E+03  0.25500000920E-02 0.  1.
        2   -1    0    0  501    0  0.00000000000E+00  0.00000000000E+00 -0.13654436941E+04  0.13654436941E+04  0.25500000920E-02 0. -1.
    10030    2    1    2    0    0  0.00000000000E+00  0.00000000000E+00 -0.11450049879E+04  0.15858824004E+04  0.10972632163E+04 0.  0.
        2    1    3    3  502    0  0.68417651832E+02  0.57368630796E+02 -0.13548723886E+04  0.13578112256E+04  0.25500000920E-02 0. -1.
       -2    1    3    3    0  502 -0.68417651832E+02 -0.57368630796E+02  0.20986740076E+03  0.22807117483E+03  0.25500000920E-02 0.  1.
</event>
<event>
 5   0  0.3949750E-03  0.1100243E+04  0.7818609E-02  0.9204955E-01
        4   -1    0    0  501    0  0.00000000000E+00  0.00000000000E+00  0.13517011880E+04  0.13517017846E+04  0.12699999809E+01 0. -1.
       -4   -1    0    0    0  501  0.00000000000E+00  0.00000000000E+00 -0.22388857339E+03  0.22389217537E+03  0.12699999809E+01 0.  1.
    10030    2    1    2    0    0  0.00000000000E+00  0.00000000000E+00  0.11278126146E+04  0.15755939600E+04  0.11002431700E+04 0.  0.
        1    1    3    3  502    0  0.33714446530E+03  0.25198551309E+03  0.10711617700E+04  0.11508912316E+04  0.50400001928E-02 0. -1.
       -1    1    3    3    0  502 -0.33714446530E+03 -0.25198551309E+03  0.56650844546E+02  0.42470272839E+03  0.50400001928E-02 0.  1.
</event>
<event>
 5   0  0.5854579E-03  0.1075061E+04  0.7818609E-02  0.9229845E-01
        1   -1    0    0  501    0  0.00000000000E+00  0.00000000000E+00  0.37855397628E+03  0.37855397631E+03  0.50400001928E-02 0.  1.
       -1   -1    0    0    0  501  0.00000000000E+00  0.00000000000E+00 -0.76327104518E+03  0.76327104520E+03  0.50400001928E-02 0. -1.
    10030    2    1    2    0    0  0.00000000000E+00  0.00000000000E+00 -0.38471706891E+03  0.11418250215E+04  0.10750614664E+04 0.  0.
        4    1    3    3  502    0 -0.24576198874E+03  0.46015956523E+03 -0.32998948959E+03  0.61728474525E+03  0.12699999809E+01 0.  1.
       -4    1    3    3    0  502  0.24576198874E+03 -0.46015956523E+03 -0.54727579318E+02  0.52454027626E+03  0.12699999809E+01 0. -1.
</event>
<event>
 5   0  0.5998641E-03  0.1085279E+04  0.7818609E-02  0.9219660E-01
        1   -1    0    0  501    0  0.00000000000E+00  0.00000000000E+00  0.11977842277E+04  0.11977842277E+04  0.50400001928E-02 0.  1.
       -1   -1    0    0    0  501  0.00000000000E+00  0.00000000000E+00 -0.24583531157E+03  0.24583531162E+03  0.50400001928E-02 0. -1.
    10030    2    1    2    0    0  0.00000000000E+00  0.00000000000E+00  0.95194891617E+03  0.14436195394E+04  0.10852790588E+04 0.  0.
        3    1    3    3  502    0  0.79244815880E+02  0.37741266160E+03  0.98377963176E+03  0.10566657144E+04  0.10100000352E+00 0.  1.
       -3    1    3    3    0  502 -0.79244815880E+02 -0.37741266160E+03 -0.31830715591E+02  0.38695382494E+03  0.10100000352E+00 0. -1.
</event>
<event>
 5   0  0.9692981E-03  0.1098252E+04  0.7818609E-02  0.9206897E-01
        2   -1    0    0  501    0  0.00000000000E+00  0.00000000000E+00  0.66916024960E+03  0.66916024960E+03  0.25500000920E-02 0.  1.
       -2   -1    0    0    0  501  0.00000000000E+00  0.00000000000E+00 -0.45062371799E+03  0.45062371800E+03  0.25500000920E-02 0. -1.
    10030    2    1    2    0    0  0.00000000000E+00  0.00000000000E+00  0.21853653161E+03  0.11197839676E+04  0.10982522108E+04 0.  0.
        5    1    3    3  502    0  0.81670769844E+02 -0.50368710027E+03  0.31609135984E+03  0.60025548509E+03  0.46999998093E+01 0.  1.
       -5    1    3    3    0  502 -0.81670769844E+02  0.50368710027E+03 -0.97554828234E+02  0.51952848250E+03  0.46999998093E+01 0. -1.
</event>
<event>
 5   0  0.5958706E-03  0.1113536E+04  0.7818609E-02  0.9192099E-01
        1   -1    0    0  501    0  0.00000000000E+00  0.00000000000E+00  0.23151804625E+03  0.23151804631E+03  0.50400001928E-02 0.  1.
       -1   -1    0    0    0  501  0.00000000000E+00  0.00000000000E+00 -0.13389471716E+04  0.13389471716E+04  0.50400001928E-02 0. -1.
    10030    2    1    2    0    0  0.00000000000E+00  0.00000000000E+00 -0.11074291253E+04  0.15704652179E+04  0.11135356901E+04 0.  0.
        2    1    3    3  502    0 -0.10785987586E+03 -0.49086175957E+03 -0.21578724545E+03  0.54693980943E+03  0.25500000920E-02 0.  1.
       -2    1    3    3    0  502  0.10785987586E+03  0.49086175957E+03 -0.89164187989E+03  0.10235254085E+04  0.25500000920E-02 0. -1.
</event>
<event>
 5   0  0.9719260E-03  0.1100273E+04  0.7818609E-02  0.9204926E-01
       -2   -1    0    0    0  501  0.00000000000E+00  0.00000000000E+00  0.42707745584E+03  0.42707745585E+03  0.25500000920E-02 0. -1.
        2   -1    0    0  501    0  0.00000000000E+00  0.00000000000E+00 -0.70865393426E+03  0.70865393426E+03  0.25500000920E-02 0.  1.
    10030    2    1    2    0    0  0.00000000000E+00  0.00000000000E+00 -0.28157647841E+03  0.11357313901E+04  0.11002729104E+04 0.  0.
        3    1    3    3  502    0 -0.47525387708E+03 -0.27709901003E+03 -0.14077906699E+03  0.56786342103E+03  0.10100000352E+00 0. -1.
       -3    1    3    3    0  502  0.47525387708E+03  0.27709901003E+03 -0.14079741143E+03  0.56786796908E+03  0.10100000352E+00 0.  1.
</event>
<event>
 5   0  0.5854579E-03  0.1140464E+04  0.7818609E-02  0.9166626E-01
        1   -1    0    0  501    0  0.00000000000E+00  0.00000000000E+00  0.54415847747E+03  0.54415847749E+03  0.50400001928E-02 0.  1.
       -1   -1    0    0    0  501  0.00000000000E+00  0.00000000000E+00 -0.59755502550E+03  0.59755502552E+03  0.50400001928E-02 0. -1.
    10030    2    1    2    0    0  0.00000000000E+00  0.00000000000E+00 -0.53396548028E+02  0.11417135030E+04  0.11404641738E+04 0.  0.
        4    1    3    3  502    0 -0.25310181695E+03  0.88224190039E+02 -0.53055766567E+03  0.59442164072E+03  0.12699999809E+01 0. -1.
       -4    1    3    3    0  502  0.25310181695E+03 -0.88224190039E+02  0.47716111764E+03  0.54729186230E+03  0.12699999809E+01 0.  1.
</event>
<event>
 5   0  0.5712664E-03  0.1175736E+04  0.7818609E-02  0.9134364E-01
       -1   -1    0    0    0  501  0.00000000000E+00  0.00000000000E+00  0.92267872781E+03  0.92267872782E+03  0.50400001928E-02 0.  1.
        1   -1    0    0  501    0  0.00000000000E+00  0.00000000000E+00 -0.37454932636E+03  0.37454932640E+03  0.50400001928E-02 0. -1.
    10030    2    1    2    0    0  0.00000000000E+00  0.00000000000E+00  0.54812940145E+03  0.12972280542E+04  0.11757358478E+04 0.  0.
        5    1    3    3  502    0  0.57736167748E+03 -0.10266408522E+03  0.22883901935E+03  0.62950441444E+03  0.46999998093E+01 0.  1.
       -5    1    3    3    0  502 -0.57736167748E+03  0.10266408522E+03  0.31929038210E+03  0.66772363978E+03  0.46999998093E+01 0. -1.
</event>
<event>
 5   0  0.5998641E-03  0.1100772E+04  0.7818609E-02  0.9204439E-01
       -1   -1    0    0    0  501  0.00000000000E+00  0.00000000000E+00  0.81059997659E+03  0.81059997660E+03  0.50400001928E-02 0.  1.
        1   -1    0    0  501    0  0.00000000000E+00  0.00000000000E+00 -0.37370457802E+03  0.37370457805E+03  0.50400001928E-02 0. -1.
    10030    2    1    2    0    0  0.00000000000E+00  0.00000000000E+00  0.43689539857E+03  0.11843045547E+04  0.11007723147E+04 0.  0.
        3    1    3    3  502    0 -0.53557718106E+03  0.11752586807E+03  0.16719144941E+03  0.57324361095E+03  0.10100000352E+00 0. -1.
       -3    1    3    3    0  502  0.53557718106E+03 -0.11752586807E+03  0.26970394916E+03  0.61106094371E+03  0.10100000352E+00 0.  1.
</event>
<event>
 5   0  0.5789905E-03  0.1084163E+04  0.7818609E-02  0.9220766E-01
       -1   -1    0    0    0  501  0.00000000000E+00  0.00000000000E+00  0.10035994967E+04  0.10035994967E+04  0.50400001928E-02 0. -1.
        1   -1    0    0  501    0  0.00000000000E+00  0.00000000000E+00 -0.29279869015E+03  0.29279869020E+03  0.50400001928E-02 0.  1.
    10030    2    1    2    0    0  0.00000000000E+00  0.00000000000E+00  0.71080080654E+03  0.12963981869E+04  0.10841634897E+04 0.  0.
        1    1    3    3  502    0 -0.19902535347E+03  0.98233122984E+02  0.94677758892E+03  0.97244467230E+03  0.50400001928E-02 0. -1.
       -1    1    3    3    0  502  0.19902535347E+03 -0.98233122984E+02 -0.23597678238E+03  0.32395351460E+03  0.50400001928E-02 0.  1.
</event>
<event>
 5   0  0.9925021E-03  0.1130486E+04  0.7818609E-02  0.9175977E-01
       -2   -1    0    0    0  501  0.00000000000E+00  0.00000000000E+00  0.15576650511E+03  0.15576650513E+03  0.25500000920E-02 0.  1.
        2   -1    0    0  501    0  0.00000000000E+00  0.00000000000E+00 -0.20511457169E+04  0.20511457169E+04  0.25500000920E-02 0. -1.
    10030    2    1    2    0    0  0.00000000000E+00  0.00000000000E+00 -0.18953792118E+04  0.22069122220E+04  0.11304862667E+04 0.  0.
        4    1    3    3  502    0 -0.13495611935E+03 -0.52376906512E+03 -0.62720497714E+03  0.82821185936E+03  0.12699999809E+01 0.  1.
       -4    1    3    3    0  502  0.13495611935E+03  0.52376906512E+03 -0.12681742346E+04  0.13787003627E+04  0.12699999809E+01 0. -1.
</event>
<event>
 5   0  0.1028016E-02  0.1112651E+04  0.7818609E-02  0.9192948E-01
        2   -1    0    0  501    0  0.00000000000E+00  0.00000000000E+00  0.49655169580E+03  0.49655169581E+03  0.25500000920E-02 0.  1.
       -2   -1    0    0    0  501  0.00000000000E+00  0.00000000000E+00 -0.62329525688E+03  0.62329525689E+03  0.25500000920E-02 0. -1.
    10030    2    1    2    0    0  0.00000000000E+00  0.00000000000E+00 -0.12674356108E+03  0.11198469527E+04  0.11126514581E+04 0.  0.
        2    1    3    3  502    0 -0.17672212863E+03 -0.47607996862E+03 -0.29203139783E+03  0.58580302543E+03  0.25500000920E-02 0. -1.
       -2    1    3    3    0  502  0.17672212863E+03  0.47607996862E+03  0.16528783675E+03  0.53404392727E+03  0.25500000920E-02 0.  1.
</event>
<event>
 5   0  0.5998641E-03  0.1100953E+04  0.7818609E-02  0.9204264E-01
       -1   -1    0    0    0  501  0.00000000000E+00  0.00000000000E+00  0.39372704440E+03  0.39372704443E+03  0.50400001928E-02 0. -1.
        1   -1    0    0  501    0  0.00000000000E+00  0.00000000000E+00 -0.76962994821E+03  0.76962994823E+03  0.50400001928E-02 0.  1.
    10030    2    1    2    0    0  0.00000000000E+00  0.00000000000E+00 -0.37590290381E+03  0.11633569927E+04  0.11009525418E+04 0.  0.
        3    1    3    3  502    0  0.39245637418E+03  0.12990199223E+03 -0.57204865859E+03  0.70578765306E+03  0.10100000352E+00 0.  1.
       -3    1    3    3    0  502 -0.39245637418E+03 -0.12990199223E+03  0.19614575478E+03  0.45756933960E+03  0.10100000352E+00 0. -1.
</event>
<event>
 5   0  0.9719260E-03  0.1089174E+04  0.7818609E-02  0.9215809E-01
        2   -1    0    0  501    0  0.00000000000E+00  0.00000000000E+00  0.87913929676E+03  0.87913929676E+03  0.25500000920E-02 0. -1.
       -2   -1    0    0    0  501  0.00000000000E+00  0.00000000000E+00 -0.33734669972E+03  0.33734669973E+03  0.25500000920E-02 0.  1.
    10030    2    1    2    0    0  0.00000000000E+00  0.00000000000E+00  0.54179259703E+03  0.12164859965E+04  0.10891735222E+04 0.  0.
        3    1    3    3  502    0 -0.97083851984E+02 -0.10635189307E+03  0.85749035958E+03  0.86949739876E+03  0.10100000352E+00 0. -1.
       -3    1    3    3    0  502  0.97083851984E+02  0.10635189307E+03 -0.31569776255E+03  0.34698859773E+03  0.10100000352E+00 0.  1.
</event>
<event>
 5   0  0.5789905E-03  0.1165063E+04  0.7818609E-02  0.9143999E-01
       -1   -1    0    0    0  501  0.00000000000E+00  0.00000000000E+00  0.26673374218E+03  0.26673374223E+03  0.50400001928E-02 0.  1.
        1   -1    0    0  501    0  0.00000000000E+00  0.00000000000E+00 -0.12722159254E+04  0.12722159254E+04  0.50400001928E-02 0. -1.
    10030    2    1    2    0    0  0.00000000000E+00  0.00000000000E+00 -0.10054821832E+04  0.15389496676E+04  0.11650629420E+04 0.  0.
        1    1    3    3  502    0 -0.54313940085E+03  0.14190977908E+03 -0.70824480829E+03  0.90374194473E+03  0.50400001928E-02 0. -1.
       -1    1    3    3    0  502  0.54313940085E+03 -0.14190977908E+03 -0.29723737490E+03  0.63520772289E+03  0.50400001928E-02 0.  1.
</event>
<event>
 5   0  0.5854579E-03  0.1216276E+04  0.7818609E-02  0.9098728E-01
        1   -1    0    0  501    0  0.00000000000E+00  0.00000000000E+00  0.10463532874E+04  0.10463532874E+04  0.50400001928E-02 0. -1.
       -1   -1    0    0    0  501  0.00000000000E+00  0.00000000000E+00 -0.35344853599E+03  0.35344853603E+03  0.50400001928E-02 0.  1.
    10030    2    1    2    0    0  0.00000000000E+00  0.00000000000E+00  0.69290475137E+03  0.13998018234E+04  0.12162763462E+04 0.  0.
        4    1    3    3  502    0 -0.40029961956E+03  0.37351451107E+03  0.41786546746E+02  0.54909070634E+03  0.12699999809E+01 0.  1.
       -4    1    3    3    0  502  0.40029961956E+03 -0.37351451107E+03  0.65111820462E+03  0.85071111706E+03  0.12699999809E+01 0. -1.
</event>
<event>
 5   0  0.5712664E-03  0.1088958E+04  0.7818609E-02  0.9216022E-01
       -1   -1    0    0    0  501  0.00000000000E+00  0.00000000000E+00  0.31608258455E+03  0.31608258459E+03  0.50400001928E-02 0.  1.
        1   -1    0    0  501    0  0.00000000000E+00  0.00000000000E+00 -0.93791037498E+03  0.93791037500E+03  0.50400001928E-02 0. -1.
    10030    2    1    2    0    0  0.00000000000E+00  0.00000000000E+00 -0.62182779044E+03  0.12539929596E+04  0.10889575482E+04 0.  0.
        5    1    3    3  502    0  0.13817708147E+03  0.28695295416E+03 -0.81942637072E+03  0.87915673845E+03  0.46999998093E+01 0. -1.
       -5    1    3    3    0  502 -0.13817708147E+03 -0.28695295416E+03  0.19759858028E+03  0.37483622113E+03  0.46999998093E+01 0.  1.
</event>
<event>
 5   0  0.9719260E-03  0.1225076E+04  0.7818609E-02  0.9091186E-01
        2   -1    0    0  501    0  0.00000000000E+00  0.00000000000E+00  0.61210828046E+03  0.61210828046E+03  0.25500000920E-02 0. -1.
       -2   -1    0    0    0  501  0.00000000000E+00  0.00000000000E+00 -0.61296833004E+03  0.61296833005E+03  0.25500000920E-02 0.  1.
    10030    2    1    2    0    0  0.00000000000E+00  0.00000000000E+00 -0.86004958460E+00  0.12250766105E+04  0.12250763086E+04 0.  0.
        3    1    3    3  502    0  0.11089506072E+03  0.44608873645E+03 -0.40528825404E+03  0.61282253087E+03  0.10100000352E+00 0.  1.
       -3    1    3    3    0  502 -0.11089506072E+03 -0.44608873645E+03  0.40442820446E+03  0.61225407964E+03  0.10100000352E+00 0. -1.
</event>
<event>
 5   0  0.5854579E-03  0.1102842E+04  0.7818609E-02  0.9202426E-01
        1   -1    0    0  501    0  0.00000000000E+00  0.00000000000E+00  0.59774751360E+03  0.59774751362E+03  0.50400001928E-02 0.  1.
       -1   -1    0    0    0  501  0.00000000000E+00  0.00000000000E+00 -0.50868528391E+03  0.50868528393E+03  0.50400001928E-02 0. -1.
    10030    2    1    2    0    0  0.00000000000E+00  0.00000000000E+00  0.89062229696E+02  0.11064327976E+04  0.11028424433E+04 0.  0.
        4    1    3    3  502    0 -0.23808753055E+03  0.47341460033E+03  0.19752904865E+03  0.56553195663E+03  0.12699999809E+01 0.  1.
       -4    1    3    3    0  502  0.23808753055E+03 -0.47341460033E+03 -0.10846681896E+03  0.54090084093E+03  0.12699999809E+01 0. -1.
</event>
<event>
 5   0  0.1019384E-02  0.1014773E+04  0.7818609E-02  0.9292489E-01
        2   -1    0    0  501    0  0.00000000000E+00  0.00000000000E+00  0.45674919376E+03  0.45674919377E+03  0.25500000920E-02 0. -1.
       -2   -1    0    0    0  501  0.00000000000E+00  0.00000000000E+00 -0.56363773018E+03  0.56363773019E+03  0.25500000920E-02 0.  1.
    10030    2    1    2    0    0  0.00000000000E+00  0.00000000000E+00 -0.10688853642E+03  0.10203869240E+04  0.10147730364E+04 0.  0.
        1    1    3    3  502    0  0.33292147262E+03 -0.36028811166E+03 -0.18376390710E+03  0.52384482808E+03  0.50400001928E-02 0.  1.
       -1    1    3    3    0  502 -0.33292147262E+03  0.36028811166E+03  0.76875370676E+02  0.49654209587E+03  0.50400001928E-02 0. -1.
</event>
<event>
 5   0  0.5854579E-03  0.1046352E+04  0.7818609E-02  0.9259118E-01
       -1   -1    0    0    0  501  0.00000000000E+00  0.00000000000E+00  0.30239506513E+03  0.30239506517E+03  0.50400001928E-02 0. -1.
        1   -1    0    0  501    0  0.00000000000E+00  0.00000000000E+00 -0.90515158585E+03  0.90515158586E+03  0.50400001928E-02 0.  1.
    10030    2    1    2    0    0  0.00000000000E+00  0.00000000000E+00 -0.60275652073E+03  0.12075466510E+04  0.10463524698E+04 0.  0.
        4    1    3    3  502    0  0.86372884406E+02  0.40886167446E+03  0.61889484241E+02  0.42244533985E+03  0.12699999809E+01 0. -1.
       -4    1    3    3    0  502 -0.86372884406E+02 -0.40886167446E+03 -0.66464600497E+03  0.78510131118E+03  0.12699999809E+01 0.  1.
</event>
<event>
 5   0  0.5712664E-03  0.9319507E+03  0.7818609E-02  0.9386500E-01
        1   -1    0    0  501    0  0.00000000000E+00  0.00000000000E+00  0.40021677275E+03  0.40021677278E+03  0.50400001928E-02 0.  1.
       -1   -1    0    0    0  501  0.00000000000E+00  0.00000000000E+00 -0.54253856810E+03  0.54253856812E+03  0.50400001928E-02 0. -1.
    10030    2    1    2    0    0  0.00000000000E+00  0.00000000000E+00 -0.14232179535E+03  0.94275534091E+03  0.93195071725E+03 0.  0.
        5    1    3    3  502    0  0.15134246943E+03  0.16516941444E+03  0.34214095649E+03  0.40898411048E+03  0.46999998093E+01 0.  1.
       -5    1    3    3    0  502 -0.15134246943E+03 -0.16516941444E+03 -0.48446275183E+03  0.53377123043E+03  0.46999998093E+01 0. -1.
</event>
<event>
 5   0  0.3949750E-03  0.9580407E+03  0.7818609E-02  0.9355801E-01
        3   -1    0    0  501    0  0.00000000000E+00  0.00000000000E+00  0.41351845509E+03  0.41351846742E+03  0.10100000352E+00 0. -1.
       -3   -1    0    0    0  501  0.00000000000E+00  0.00000000000E+00 -0.55489783463E+03  0.55489784382E+03  0.10100000352E+00 0.  1.
    10030    2    1    2    0    0  0.00000000000E+00  0.00000000000E+00 -0.14137937954E+03  0.96841631124E+03  0.95804072091E+03 0.  0.
        3    1    3    3  502    0  0.13930212252E+03 -0.26437714300E+03 -0.44912389948E+03  0.53945587620E+03  0.10100000352E+00 0.  1.
       -3    1    3    3    0  502 -0.13930212252E+03  0.26437714300E+03  0.30774451994E+03  0.42896043504E+03  0.10100000352E+00 0. -1.
</event>
<event>
 5   0  0.3949750E-03  0.1098713E+04  0.7818609E-02  0.9206447E-01
       -4   -1    0    0    0  501  0.00000000000E+00  0.00000000000E+00  0.20301421658E+03  0.20301818892E+03  0.12699999809E+01 0.  1.
        4   -1    0    0  501    0  0.00000000000E+00  0.00000000000E+00 -0.14865395766E+04  0.14865401191E+04  0.12699999809E+01 0. -1.
    10030    2    1    2    0    0  0.00000000000E+00  0.00000000000E+00 -0.12835253600E+04  0.16895583080E+04  0.10987128498E+04 0.  0.
        5    1    3    3  502    0 -0.82682576515E+02 -0.33046420143E+03 -0.13044779291E+04  0.13482313430E+04  0.46999998093E+01 0. -1.
       -5    1    3    3    0  502  0.82682576515E+02  0.33046420143E+03  0.20952569054E+02  0.34132696500E+03  0.46999998093E+01 0.  1.
</event>
<event>
 5   0  0.3949750E-03  0.1105061E+04  0.7818609E-02  0.9200273E-01
        3   -1    0    0  501    0  0.00000000000E+00  0.00000000000E+00  0.63133574844E+03  0.63133575652E+03  0.10100000352E+00 0.  1.
       -3   -1    0    0    0  501  0.00000000000E+00  0.00000000000E+00 -0.48356200980E+03  0.48356202034E+03  0.10100000352E+00 0. -1.
    10030    2    1    2    0    0  0.00000000000E+00  0.00000000000E+00  0.14777373864E+03  0.11148977769E+04  0.11050610730E+04 0.  0.
        5    1    3    3  502    0 -0.32441795564E+03 -0.34299008666E+03 -0.21568490070E+03  0.51906769874E+03  0.46999998093E+01 0. -1.
       -5    1    3    3    0  502  0.32441795564E+03  0.34299008666E+03  0.36345863934E+03  0.59583007812E+03  0.46999998093E+01 0.  1.
</event>
<event>
 5   0  0.5958706E-03  0.1133268E+04  0.7818609E-02  0.9173360E-01
        1   -1    0    0  501    0  0.00000000000E+00  0.00000000000E+00  0.96007625258E+03  0.96007625260E+03  0.50400001928E-02 0.  1.
       -1   -1    0    0    0  501  0.00000000000E+00  0.00000000000E+00 -0.33442569143E+03  0.33442569147E+03  0.50400001928E-02 0. -1.
    10030    2    1    2    0    0  0.00000000000E+00  0.00000000000E+00  0.62565056115E+03  0.12945019441E+04  0.11332681318E+04 0.  0.
        2    1    3    3  502    0  0.55877299785E+02  0.12521050578E+03  0.94084110377E+03  0.95077964110E+03  0.25500000920E-02 0.  1.
       -2    1    3    3    0  502 -0.55877299785E+02 -0.12521050578E+03 -0.31519054262E+03  0.34372230296E+03  0.25500000920E-02 0. -1.
</event>
<event>
 5   0  0.3949750E-03  0.1088624E+04  0.7818609E-02  0.9216352E-01
       -3   -1    0    0    0  501  0.00000000000E+00  0.00000000000E+00  0.69020894147E+03  0.69020894886E+03  0.10100000352E+00 0. -1.
        3   -1    0    0  501    0  0.00000000000E+00  0.00000000000E+00 -0.42925455589E+03  0.42925456777E+03  0.10100000352E+00 0.  1.
    10030    2    1    2    0    0  0.00000000000E+00  0.00000000000E+00  0.26095438559E+03  0.11194635166E+04  0.10886236143E+04 0.  0.
        3    1    3    3  502    0  0.54222804149E+03 -0.47089586756E+02  0.13750114584E+03  0.56136908845E+03  0.10100000352E+00 0. -1.
       -3    1    3    3    0  502 -0.54222804149E+03  0.47089586756E+02  0.12345323975E+03  0.55809442818E+03  0.10100000352E+00 0.  1.
</event>
<event>
 5   0  0.5712664E-03  0.1094304E+04  0.7818609E-02  0.9210761E-01
        1   -1    0    0  501    0  0.00000000000E+00  0.00000000000E+00  0.17775954746E+04  0.17775954746E+04  0.50400001928E-02 0. -1.
       -1   -1    0    0    0  501  0.00000000000E+00  0.00000000000E+00 -0.16841603094E+03  0.16841603101E+03  0.50400001928E-02 0.  1.
    10030    2    1    2    0    0  0.00000000000E+00  0.00000000000E+00  0.16091794437E+04  0.19460115057E+04  0.10943044814E+04 0.  0.
        5    1    3    3  502    0 -0.23634635319E+03  0.42758075750E+03  0.36657455689E+03  0.61080594186E+03  0.46999998093E+01 0.  1.
       -5    1    3    3    0  502  0.23634635319E+03 -0.42758075750E+03  0.12426048868E+04  0.13352055638E+04  0.46999998093E+01 0. -1.
</event>
<event>
 5   0  0.1028016E-02  0.1097264E+04  0.7818609E-02  0.9207862E-01
       -2   -1    0    0    0  501  0.00000000000E+00  0.00000000000E+00  0.51070725173E+03  0.51070725174E+03  0.25500000920E-02 0.  1.
        2   -1    0    0  501    0  0.00000000000E+00  0.00000000000E+00 -0.58937334003E+03  0.58937334004E+03  0.25500000920E-02 0. -1.
    10030    2    1    2    0    0  0.00000000000E+00  0.00000000000E+00 -0.78666088302E+02  0.11000805918E+04  0.10972643050E+04 0.  0.
        2    1    3    3  502    0  0.20309800826E+03  0.96903039318E+01 -0.55020399439E+03  0.58657236416E+03  0.25500000920E-02 0. -1.
       -2    1    3    3    0  502 -0.20309800826E+03 -0.96903039318E+01  0.47153790608E+03  0.51350822762E+03  0.25500000920E-02 0.  1.
</event>
<event>
 5   0  0.5854579E-03  0.7874676E+03  0.7818609E-02  0.9578337E-01
       -1   -1    0    0    0  501  0.00000000000E+00  0.00000000000E+00  0.11606567948E+03  0.11606567959E+03  0.50400001928E-02 0.  1.
        1   -1    0    0  501    0  0.00000000000E+00  0.00000000000E+00 -0.13356772890E+04  0.13356772890E+04  0.50400001928E-02 0. -1.
    10030    2    1    2    0    0  0.00000000000E+00  0.00000000000E+00 -0.12196116095E+04  0.14517429686E+04  0.78746756684E+03 0.  0.
        4    1    3    3  502    0 -0.28663066517E+03 -0.17765727726E+03 -0.98448591964E+03  0.10406408532E+04  0.12699999809E+01 0. -1.
       -4    1    3    3    0  502  0.28663066517E+03  0.17765727726E+03 -0.23512568985E+03  0.41110211543E+03  0.12699999809E+01 0.  1.
</event>
<event>
 5   0  0.5789905E-03  0.1105653E+04  0.7818609E-02  0.9199699E-01
       -1   -1    0    0    0  501  0.00000000000E+00  0.00000000000E+00  0.20590088301E+03  0.20590088307E+03  0.50400001928E-02 0.  1.
        1   -1    0    0  501    0  0.00000000000E+00  0.00000000000E+00 -0.14842926867E+04  0.14842926867E+04  0.50400001928E-02 0. -1.
    10030    2    1    2    0    0  0.00000000000E+00  0.00000000000E+00 -0.12783918036E+04  0.16901935697E+04  0.11056530647E+04 0.  0.
        1    1    3    3  502    0 -0.81877622575E+02  0.38999671651E+02 -0.14728432986E+04  0.14756328479E+04  0.50400001928E-02 0. -1.
       -1    1    3    3    0  502  0.81877622575E+02 -0.38999671651E+02  0.19445149494E+03  0.21456072189E+03  0.50400001928E-02 0.  1.
</event>
<event>
 5   0  0.5789905E-03  0.1108656E+04  0.7818609E-02  0.9196796E-01
        1   -1    0    0  501    0  0.00000000000E+00  0.00000000000E+00  0.42082631680E+03  0.42082631683E+03  0.50400001928E-02 0. -1.
       -1   -1    0    0    0  501  0.00000000000E+00  0.00000000000E+00 -0.73018075602E+03  0.73018075603E+03  0.50400001928E-02 0.  1.
    10030    2    1    2    0    0  0.00000000000E+00  0.00000000000E+00 -0.30935443921E+03  0.11510070729E+04  0.11086555429E+04 0.  0.
        1    1    3    3  502    0 -0.74440505408E+02 -0.33025319071E+02 -0.72393628335E+03  0.72850243851E+03  0.50400001928E-02 0.  1.
       -1    1    3    3    0  502  0.74440505408E+02  0.33025319071E+02  0.41458184413E+03  0.42250463436E+03  0.50400001928E-02 0. -1.
</event>
<event>
 5   0  0.3949750E-03  0.1081377E+04  0.7818609E-02  0.9223535E-01
       -3   -1    0    0    0  501  0.00000000000E+00  0.00000000000E+00  0.10823745938E+04  0.10823745985E+04  0.10100000352E+00 0. -1.
        3   -1    0    0  501    0  0.00000000000E+00  0.00000000000E+00 -0.27009531610E+03  0.27009533499E+03  0.10100000352E+00 0.  1.
    10030    2    1    2    0    0  0.00000000000E+00  0.00000000000E+00  0.81227927766E+03  0.13524699335E+04  0.10813774993E+04 0.  0.
        4    1    3    3  502    0  0.35859800859E+03  0.24196787515E+03  0.81179920744E+03  0.91986985518E+03  0.12699999809E+01 0. -1.
       -4    1    3    3    0  502 -0.35859800859E+03 -0.24196787515E+03  0.48007021872E+00  0.43260007829E+03  0.12699999809E+01 0.  1.
</event>
<event>
 5   0  0.9925021E-03  0.1101177E+04  0.7818609E-02  0.9204046E-01
       -2   -1    0    0    0  501  0.00000000000E+00  0.00000000000E+00  0.16795762369E+03  0.16795762371E+03  0.25500000920E-02 0.  1.
        2   -1    0    0  501    0  0.00000000000E+00  0.00000000000E+00 -0.18049045358E+04  0.18049045358E+04  0.25500000920E-02 0. -1.
    10030    2    1    2    0    0  0.00000000000E+00  0.00000000000E+00 -0.16369469121E+04  0.19728621595E+04  0.11011766014E+04 0.  0.
        4    1    3    3  502    0 -0.15653030010E+03 -0.75064928486E+02 -0.17545870610E+04  0.17631545156E+04  0.12699999809E+01 0. -1.
       -4    1    3    3    0  502  0.15653030010E+03  0.75064928486E+02  0.11764014897E+03  0.20970764384E+03  0.12699999809E+01 0.  1.
</event>
<event>
 5   0  0.5789905E-03  0.1064722E+04  0.7818609E-02  0.9240275E-01
        1   -1    0    0  501    0  0.00000000000E+00  0.00000000000E+00  0.67422315822E+03  0.67422315824E+03  0.50400001928E-02 0. -1.
       -1   -1    0    0    0  501  0.00000000000E+00  0.00000000000E+00 -0.42034767043E+03  0.42034767046E+03  0.50400001928E-02 0.  1.
    10030    2    1    2    0    0  0.00000000000E+00  0.00000000000E+00  0.25387548779E+03  0.10945708287E+04  0.10647218114E+04 0.  0.
        1    1    3    3  502    0  0.24370769749E+03  0.31905546377E+03 -0.23246041133E+03  0.46392636661E+03  0.50400001928E-02 0. -1.
       -1    1    3    3    0  502 -0.24370769749E+03 -0.31905546377E+03  0.48633589912E+03  0.63064446210E+03  0.50400001928E-02 0.  1.
</event>
<event>
 5   0  0.9925021E-03  0.1119595E+04  0.7818609E-02  0.9186301E-01
       -2   -1    0    0    0  501  0.00000000000E+00  0.00000000000E+00  0.74314567252E+03  0.74314567253E+03  0.25500000920E-02 0.  1.
        2   -1    0    0  501    0  0.00000000000E+00  0.00000000000E+00 -0.42168486380E+03  0.42168486381E+03  0.25500000920E-02 0. -1.
    10030    2    1    2    0    0  0.00000000000E+00  0.00000000000E+00  0.32146080872E+03  0.11648305363E+04  0.11195950727E+04 0.  0.
        4    1    3    3  502    0  0.82838521330E+02  0.40431121057E+03 -0.23275931809E+03  0.47382305629E+03  0.12699999809E+01 0. -1.
       -4    1    3    3    0  502 -0.82838521330E+02 -0.40431121057E+03  0.55422012682E+03  0.69100748005E+03  0.12699999809E+01 0.  1.
</event>
<event>
 5   0  0.9719260E-03  0.1231907E+04  0.7818609E-02  0.9085378E-01
       -2   -1    0    0    0  501  0.00000000000E+00  0.00000000000E+00  0.22898039558E+03  0.22898039559E+03  0.25500000920E-02 0. -1.
        2   -1    0    0  501    0  0.00000000000E+00  0.00000000000E+00 -0.16569056828E+04  0.16569056828E+04  0.25500000920E-02 0.  1.
    10030    2    1    2    0    0  0.00000000000E+00  0.00000000000E+00 -0.14279252872E+04  0.18858860784E+04  0.12319073321E+04 0.  0.
        3    1    3    3  502    0  0.22509659142E+03  0.46419435692E+03 -0.12291488786E+04  0.13330235753E+04  0.10100000352E+00 0.  1.
       -3    1    3    3    0  502 -0.22509659142E+03 -0.46419435692E+03 -0.19877640865E+03  0.55286250307E+03  0.10100000352E+00 0. -1.
</event>
<event>
 5   0  0.1019384E-02  0.1093352E+04  0.7818609E-02  0.9211696E-01
        2   -1    0    0  501    0  0.00000000000E+00  0.00000000000E+00  0.86288295289E+03  0.86288295289E+03  0.25500000920E-02 0. -1.
       -2   -1    0    0    0  501  0.00000000000E+00  0.00000000000E+00 -0.34634447204E+03  0.34634447205E+03  0.25500000920E-02 0.  1.
    10030    2    1    2    0    0  0.00000000000E+00  0.00000000000E+00  0.51653848085E+03  0.12092274249E+04  0.10933521679E+04 0.  0.
        1    1    3    3  502    0  0.30255668449E+03 -0.13841032258E+03  0.73801135979E+03  0.80954229780E+03  0.50400001928E-02 0. -1.
       -1    1    3    3    0  502 -0.30255668449E+03  0.13841032258E+03 -0.22147287894E+03  0.39968512714E+03  0.50400001928E-02 0.  1.
</event>
<event>
 5   0  0.9925021E-03  0.1077396E+04  0.7818609E-02  0.9227508E-01
        2   -1    0    0  501    0  0.00000000000E+00  0.00000000000E+00  0.76829967245E+03  0.76829967245E+03  0.25500000920E-02 0. -1.
       -2   -1    0    0    0  501  0.00000000000E+00  0.00000000000E+00 -0.37771121801E+03  0.37771121802E+03  0.25500000920E-02 0.  1.
    10030    2    1    2    0    0  0.00000000000E+00  0.00000000000E+00  0.39058845444E+03  0.11460108905E+04  0.10773957585E+04 0.  0.
        4    1    3    3  502    0 -0.37906182626E+03 -0.37871126749E+03  0.25436185631E+03  0.59313713347E+03  0.12699999809E+01 0. -1.
       -4    1    3    3    0  502  0.37906182626E+03  0.37871126749E+03  0.13622659813E+03  0.55287375701E+03  0.12699999809E+01 0.  1.
</event>
<event>
 5   0  0.5789905E-03  0.1122241E+04  0.7818609E-02  0.9183782E-01
        1   -1    0    0  501    0  0.00000000000E+00  0.00000000000E+00  0.14406728453E+04  0.14406728453E+04  0.50400001928E-02 0.  1.
       -1   -1    0    0    0  501  0.00000000000E+00  0.00000000000E+00 -0.21854797064E+03  0.21854797070E+03  0.50400001928E-02 0. -1.
    10030    2    1    2    0    0  0.00000000000E+00  0.00000000000E+00  0.12221248747E+04  0.16592208160E+04  0.11222408418E+04 0.  0.
        1    1    3    3  502    0  0.44549143871E+03  0.14973900073E+03  0.15783442561E+03  0.49577827326E+03  0.50400001928E-02 0. -1.
       -1    1    3    3    0  502 -0.44549143871E+03 -0.14973900073E+03  0.10642904491E+04  0.11634425428E+04  0.50400001928E-02 0.  1.
</event>
<event>
 5   0  0.9719260E-03  0.1067763E+04  0.7818609E-02  0.9237194E-01
       -2   -1    0    0    0  501  0.00000000000E+00  0.00000000000E+00  0.63773391342E+03  0.63773391343E+03  0.25500000920E-02 0.  1.
        2   -1    0    0  501    0  0.00000000000E+00  0.00000000000E+00 -0.44694113692E+03  0.44694113692E+03  0.25500000920E-02 0. -1.
    10030    2    1    2    0    0  0.00000000000E+00  0.00000000000E+00  0.19079277651E+03  0.10846750504E+04  0.10677631204E+04 0.  0.
        3    1    3    3  502    0  0.36432919596E+03 -0.27426307470E+03 -0.18662192524E+03  0.49273091070E+03  0.10100000352E+00 0. -1.
       -3    1    3    3    0  502 -0.36432919596E+03  0.27426307470E+03  0.37741470175E+03  0.59194413966E+03  0.10100000352E+00 0.  1.
</event>
<event>
 5   0  0.5789905E-03  0.1186342E+04  0.7818609E-02  0.9124896E-01
       -1   -1    0    0    0  501  0.00000000000E+00  0.00000000000E+00  0.29705510670E+03  0.29705510674E+03  0.50400001928E-02 0. -1.
        1   -1    0    0  501    0  0.00000000000E+00  0.00000000000E+00 -0.11844671921E+04  0.11844671921E+04  0.50400001928E-02 0.  1.
    10030    2    1    2    0    0  0.00000000000E+00  0.00000000000E+00 -0.88741208536E+03  0.14815222988E+04  0.11863423252E+04 0.  0.
        1    1    3    3  502    0 -0.58848885996E+03  0.72944879308E+02 -0.46188625332E+03  0.75165085296E+03  0.50400001928E-02 0. -1.
       -1    1    3    3    0  502  0.58848885996E+03 -0.72944879308E+02 -0.42552583203E+03  0.72987144585E+03  0.50400001928E-02 0.  1.
</event>
<event>
 5   0  0.9925021E-03  0.1085681E+04  0.7818609E-02  0.9219261E-01
       -2   -1    0    0    0  501  0.00000000000E+00  0.00000000000E+00  0.33235069573E+03  0.33235069574E+03  0.25500000920E-02 0. -1.
        2   -1    0    0  501    0  0.00000000000E+00  0.00000000000E+00 -0.88664154741E+03  0.88664154741E+03  0.25500000920E-02 0.  1.
    10030    2    1    2    0    0  0.00000000000E+00  0.00000000000E+00 -0.55429085167E+03  0.12189922432E+04  0.10856812334E+04 0.  0.
        4    1    3    3  502    0 -0.44398552393E+03  0.10871734090E+03  0.51607306463E+02  0.46000818759E+03  0.12699999809E+01 0. -1.
       -4    1    3    3    0  502  0.44398552393E+03 -0.10871734090E+03 -0.60589815814E+03  0.75898405556E+03  0.12699999809E+01 0.  1.
</event>
<event>
 5   0  0.1028016E-02  0.1072927E+04  0.7818609E-02  0.9231988E-01
       -2   -1    0    0    0  501  0.00000000000E+00  0.00000000000E+00  0.42929881884E+03  0.42929881884E+03  0.25500000920E-02 0. -1.
        2   -1    0    0  501    0  0.00000000000E+00  0.00000000000E+00 -0.67037973091E+03  0.67037973091E+03  0.25500000920E-02 0.  1.
    10030    2    1    2    0    0  0.00000000000E+00  0.00000000000E+00 -0.24108091207E+03  0.10996785498E+04  0.10729272606E+04 0.  0.
        2    1    3    3  502    0  0.28981122323E+03  0.39069899720E+03 -0.35235885521E+03  0.60066048178E+03  0.25500000920E-02 0.  1.
       -2    1    3    3    0  502 -0.28981122323E+03 -0.39069899720E+03  0.11127794315E+03  0.49901806797E+03  0.25500000920E-02 0. -1.
</event>
<event>
 5   0  0.1019384E-02  0.1093854E+04  0.7818609E-02  0.9211203E-01
        2   -1    0    0  501    0  0.00000000000E+00  0.00000000000E+00  0.44411246462E+03  0.44411246463E+03  0.25500000920E-02 0.  1.
       -2   -1    0    0    0  501  0.00000000000E+00  0.00000000000E+00 -0.67354420382E+03  0.67354420383E+03  0.25500000920E-02 0. -1.
    10030    2    1    2    0    0  0.00000000000E+00  0.00000000000E+00 -0.22943173920E+03  0.11176566685E+04  0.10938544261E+04 0.  0.
        1    1    3    3  502    0 -0.29666870484E+03 -0.38060409372E+03  0.14829074390E+03  0.50483852997E+03  0.50400001928E-02 0.  1.
       -1    1    3    3    0  502  0.29666870484E+03  0.38060409372E+03 -0.37772248310E+03  0.61281813848E+03  0.50400001928E-02 0. -1.
</event>
<event>
 5   0  0.9719260E-03  0.1173178E+04  0.7818609E-02  0.9136664E-01
       -2   -1    0    0    0  501  0.00000000000E+00  0.00000000000E+00  0.34774868674E+03  0.34774868675E+03  0.25500000920E-02 0.  1.
        2   -1    0    0  501    0  0.00000000000E+00  0.00000000000E+00 -0.98946851797E+03  0.98946851798E+03  0.25500000920E-02 0. -1.
    10030    2    1    2    0    0  0.00000000000E+00  0.00000000000E+00 -0.64171983123E+03  0.13372172047E+04  0.11731775274E+04 0.  0.
        3    1    3    3  502    0  0.28433092857E+03  0.26358911012E+03 -0.82259413917E+03  0.90938683953E+03  0.10100000352E+00 0. -1.
       -3    1    3    3    0  502 -0.28433092857E+03 -0.26358911012E+03  0.18087430794E+03  0.42783036520E+03  0.10100000352E+00 0.  1.
</event>
<event>
 5   0  0.3949750E-03  0.1095533E+04  0.7818609E-02  0.9209556E-01
       -3   -1    0    0    0  501  0.00000000000E+00  0.00000000000E+00  0.45205599208E+03  0.45205600337E+03  0.10100000352E+00 0. -1.
        3   -1    0    0  501    0  0.00000000000E+00  0.00000000000E+00 -0.66374160304E+03  0.66374161072E+03  0.10100000352E+00 0.  1.
    10030    2    1    2    0    0  0.00000000000E+00  0.00000000000E+00 -0.21168561096E+03  0.11157976141E+04  0.10955334398E+04 0.  0.
        4    1    3    3  502    0 -0.48438551218E+03  0.99943054659E+02 -0.34563091168E+03  0.60339065173E+03  0.12699999809E+01 0.  1.
       -4    1    3    3    0  502  0.48438551218E+03 -0.99943054659E+02  0.13394530072E+03  0.51240696236E+03  0.12699999809E+01 0. -1.
</event>
<event>
 5   0  0.1028016E-02  0.1055325E+04  0.7818609E-02  0.9249864E-01
       -2   -1    0    0    0  501  0.00000000000E+00  0.00000000000E+00  0.20150257989E+03  0.20150257991E+03  0.25500000920E-02 0. -1.
        2   -1    0    0  501    0  0.00000000000E+00  0.00000000000E+00 -0.13817567310E+04  0.13817567310E+04  0.25500000920E-02 0.  1.
    10030    2    1    2    0    0  0.00000000000E+00  0.00000000000E+00 -0.11802541511E+04  0.15832593109E+04  0.10553246820E+04 0.  0.
        2    1    3    3  502    0  0.25310294739E+02 -0.14137605952E+03  0.17161368777E+03  0.22378350936E+03  0.25500000920E-02 0. -1.
       -2    1    3    3    0  502 -0.25310294739E+02  0.14137605952E+03 -0.13518678389E+04  0.13594758016E+04  0.25500000920E-02 0.  1.
</event>
<event>
 5   0  0.5958706E-03  0.1109593E+04  0.7818609E-02  0.9195892E-01
       -1   -1    0    0    0  501  0.00000000000E+00  0.00000000000E+00  0.19128321548E+04  0.19128321548E+04  0.50400001928E-02 0.  1.
        1   -1    0    0  501    0  0.00000000000E+00  0.00000000000E+00 -0.16091285272E+03  0.16091285280E+03  0.50400001928E-02 0. -1.
    10030    2    1    2    0    0  0.00000000000E+00  0.00000000000E+00  0.17519193021E+04  0.20737450076E+04  0.11095932208E+04 0.  0.
        2    1    3    3  502    0  0.62264720441E+02 -0.52177907104E+03  0.12085492226E+04  0.13178473044E+04  0.25500000920E-02 0.  1.
       -2    1    3    3    0  502 -0.62264720441E+02  0.52177907104E+03  0.54337007956E+03  0.75589770323E+03  0.25500000920E-02 0. -1.
</event>
<event>
 5   0  0.5958706E-03  0.1040191E+04  0.7818609E-02  0.9265530E-01
       -1   -1    0    0    0  501  0.00000000000E+00  0.00000000000E+00  0.29728271919E+03  0.29728271923E+03  0.50400001928E-02 0.  1.
        1   -1    0    0  501    0  0.00000000000E+00  0.00000000000E+00 -0.90990590825E+03  0.90990590826E+03  0.50400001928E-02 0. -1.
    10030    2    1    2    0    0  0.00000000000E+00  0.00000000000E+00 -0.61262318906E+03  0.12071886275E+04  0.10401909491E+04 0.  0.
        2    1    3    3  502    0  0.40445911078E+03  0.28434058494E+03 -0.11895429484E+03  0.50851437030E+03  0.25500000920E-02 0.  1.
       -2    1    3    3    0  502 -0.40445911078E+03 -0.28434058494E+03 -0.49366889423E+03  0.69867425719E+03  0.25500000920E-02 0. -1.
</event>
<event>
 5   0  0.5854579E-03  0.1084885E+04  0.7818609E-02  0.9220051E-01
       -1   -1    0    0    0  501  0.00000000000E+00  0.00000000000E+00  0.62104814269E+03  0.62104814271E+03  0.50400001928E-02 0. -1.
        1   -1    0    0  501    0  0.00000000000E+00  0.00000000000E+00 -0.47378587616E+03  0.47378587619E+03  0.50400001928E-02 0.  1.
    10030    2    1    2    0    0  0.00000000000E+00  0.00000000000E+00  0.14726226653E+03  0.10948340189E+04  0.10848849496E+04 0.  0.
        4    1    3    3  502    0  0.23759235797E+03  0.27340197083E+03 -0.33385824214E+03  0.49260704924E+03  0.12699999809E+01 0.  1.
       -4    1    3    3    0  502 -0.23759235797E+03 -0.27340197083E+03  0.48112050867E+03  0.60222696965E+03  0.12699999809E+01 0. -1.
</event>
<event>
 5   0  0.5712664E-03  0.1076480E+04  0.7818609E-02  0.9228425E-01
        1   -1    0    0  501    0  0.00000000000E+00  0.00000000000E+00  0.74521209684E+03  0.74521209686E+03  0.50400001928E-02 0.  1.
       -1   -1    0    0    0  501  0.00000000000E+00  0.00000000000E+00 -0.38875113875E+03  0.38875113879E+03  0.50400001928E-02 0. -1.
    10030    2    1    2    0    0  0.00000000000E+00  0.00000000000E+00  0.35646095809E+03  0.11339632356E+04  0.10764795424E+04 0.  0.
        5    1    3    3  502    0 -0.14859255124E+03  0.22361512708E+03  0.66961235770E+03  0.72144734453E+03  0.46999998093E+01 0.  1.
       -5    1    3    3    0  502  0.14859255124E+03 -0.22361512708E+03 -0.31315139962E+03  0.41251589112E+03  0.46999998093E+01 0. -1.
</event>
<event>
 5   0  0.5712664E-03  0.1048216E+04  0.7818609E-02  0.9257188E-01
        1   -1    0    0  501    0  0.00000000000E+00  0.00000000000E+00  0.33639813492E+03  0.33639813495E+03  0.50400001928E-02 0.  1.
       -1   -1    0    0    0  501  0.00000000000E+00  0.00000000000E+00 -0.81656030840E+03  0.81656030842E+03  0.50400001928E-02 0. -1.
    10030    2    1    2    0    0  0.00000000000E+00  0.00000000000E+00 -0.48016217349E+03  0.11529584434E+04  0.10482163228E+04 0.  0.
        5    1    3    3  502    0 -0.39130087447E+03  0.31789128085E+03 -0.39755102331E+03  0.64205930173E+03  0.46999998093E+01 0. -1.
       -5    1    3    3    0  502  0.39130087447E+03 -0.31789128085E+03 -0.82611150171E+02  0.51089914164E+03  0.46999998093E+01 0.  1.
</event>
<event>
 5   0  0.9719260E-03  0.1094332E+04  0.7818609E-02  0.9210734E-01
       -2   -1    0    0    0  501  0.00000000000E+00  0.00000000000E+00  0.21483042807E+03  0.21483042808E+03  0.25500000920E-02 0. -1.
        2   -1    0    0  501    0  0.00000000000E+00  0.00000000000E+00 -0.13936125754E+04  0.13936125754E+04  0.25500000920E-02 0.  1.
    10030    2    1    2    0    0  0.00000000000E+00  0.00000000000E+00 -0.11787821473E+04  0.16084430034E+04  0.10943315515E+04 0.  0.
        3    1    3    3  502    0 -0.50856899441E+03  0.15486207983E+03 -0.77970364278E+03  0.94369617283E+03  0.10100000352E+00 0. -1.
       -3    1    3    3    0  502  0.50856899441E+03 -0.15486207983E+03 -0.39907850451E+03  0.66474683061E+03  0.10100000352E+00 0.  1.
</event>
<event>
 5   0  0.9719260E-03  0.5838507E+03  0.7818609E-02  0.9939489E-01
       -2   -1    0    0    0  501  0.00000000000E+00  0.00000000000E+00  0.67078431778E+02  0.67078431827E+02  0.25500000920E-02 0. -1.
        2   -1    0    0  501    0  0.00000000000E+00  0.00000000000E+00 -0.12704593824E+04  0.12704593824E+04  0.25500000920E-02 0.  1.
    10030    2    1    2    0    0  0.00000000000E+00  0.00000000000E+00 -0.12033809506E+04  0.13375378142E+04  0.58385074478E+03 0.  0.
        3    1    3    3  502    0 -0.28667308313E+03 -0.46605988339E+02 -0.53424183075E+03  0.60808545343E+03  0.10100000352E+00 0. -1.
       -3    1    3    3    0  502  0.28667308313E+03  0.46605988339E+02 -0.66913911988E+03  0.72945236081E+03  0.10100000352E+00 0.  1.
</event>
<event>
 5   0  0.5712664E-03  0.1143522E+04  0.7818609E-02  0.9163781E-01
       -1   -1    0    0    0  501  0.00000000000E+00  0.00000000000E+00  0.30041733780E+03  0.30041733784E+03  0.50400001928E-02 0.  1.
        1   -1    0    0  501    0  0.00000000000E+00  0.00000000000E+00 -0.10881884498E+04  0.10881884498E+04  0.50400001928E-02 0. -1.
    10030    2    1    2    0    0  0.00000000000E+00  0.00000000000E+00 -0.78777111198E+03  0.13886057876E+04  0.11435220630E+04 0.  0.
        5    1    3    3  502    0  0.12286555058E+03 -0.41287002355E+03 -0.85039852427E+03  0.95328764806E+03  0.46999998093E+01 0. -1.
       -5    1    3    3    0  502 -0.12286555058E+03  0.41287002355E+03  0.62627412292E+02  0.43531813957E+03  0.46999998093E+01 0.  1.
</event>
<event>
 5   0  0.1019384E-02  0.1069277E+04  0.7818609E-02  0.9235665E-01
       -2   -1    0    0    0  501  0.00000000000E+00  0.00000000000E+00  0.41381371679E+03  0.41381371680E+03  0.25500000920E-02 0.  1.
        2   -1    0    0  501    0  0.00000000000E+00  0.00000000000E+00 -0.69074121788E+03  0.69074121788E+03  0.25500000920E-02 0. -1.
    10030    2    1    2    0    0  0.00000000000E+00  0.00000000000E+00 -0.27692750109E+03  0.11045549347E+04  0.10692767476E+04 0.  0.
        1    1    3    3  502    0  0.16366893232E+03  0.30495134741E+03 -0.55940707797E+03  0.65781389663E+03  0.50400001928E-02 0. -1.
       -1    1    3    3    0  502 -0.16366893232E+03 -0.30495134741E+03  0.28247957688E+03  0.44674103805E+03  0.50400001928E-02 0.  1.
</event>
<event>
 5   0  0.5958706E-03  0.1146220E+04  0.7818609E-02  0.9161277E-01
        1   -1    0    0  501    0  0.00000000000E+00  0.00000000000E+00  0.32398136250E+03  0.32398136254E+03  0.50400001928E-02 0.  1.
       -1   -1    0    0    0  501  0.00000000000E+00  0.00000000000E+00 -0.10138093432E+04  0.10138093432E+04  0.50400001928E-02 0. -1.
    10030    2    1    2    0    0  0.00000000000E+00  0.00000000000E+00 -0.68982798065E+03  0.13377907057E+04  0.11462204541E+04 0.  0.
        2    1    3    3  502    0 -0.25298321794E+03  0.34120350340E+03  0.10414377839E+03  0.43733998888E+03  0.25500000920E-02 0. -1.
       -2    1    3    3    0  502  0.25298321794E+03 -0.34120350340E+03 -0.79397175904E+03  0.90045071684E+03  0.25500000920E-02 0.  1.
</event>
<event>
 5   0  0.9719260E-03  0.1138421E+04  0.7818609E-02  0.9168533E-01
        2   -1    0    0  501    0  0.00000000000E+00  0.00000000000E+00  0.81047635677E+03  0.81047635677E+03  0.25500000920E-02 0. -1.
       -2   -1    0    0    0  501  0.00000000000E+00  0.00000000000E+00 -0.39976564020E+03  0.39976564021E+03  0.25500000920E-02 0.  1.
    10030    2    1    2    0    0  0.00000000000E+00  0.00000000000E+00  0.41071071657E+03  0.12102419970E+04  0.11384210111E+04 0.  0.
        3    1    3    3  502    0  0.43908082520E+03 -0.24494848328E+03 -0.78329613766E+02  0.50884896493E+03  0.10100000352E+00 0.  1.
       -3    1    3    3    0  502 -0.43908082520E+03  0.24494848328E+03  0.48904033033E+03  0.70139303205E+03  0.10100000352E+00 0. -1.
</event>
<event>
 5   0  0.9925021E-03  0.1056928E+04  0.7818609E-02  0.9248221E-01
       -2   -1    0    0    0  501  0.00000000000E+00  0.00000000000E+00  0.46483168430E+03  0.46483168431E+03  0.25500000920E-02 0. -1.
        2   -1    0    0  501    0  0.00000000000E+00  0.00000000000E+00 -0.60080699754E+03  0.60080699754E+03  0.25500000920E-02 0.  1.
    10030    2    1    2    0    0  0.00000000000E+00  0.00000000000E+00 -0.13597531324E+03  0.10656386818E+04  0.10569278662E+04 0.  0.
        4    1    3    3  502    0 -0.12210886361E+03  0.12598161710E+02 -0.58623094644E+03  0.59894709592E+03  0.12699999809E+01 0.  1.
       -4    1    3    3    0  502  0.12210886361E+03 -0.12598161710E+02  0.45025563320E+03  0.46669158593E+03  0.12699999809E+01 0. -1.
</event>
<event>
 5   0  0.9692981E-03  0.1099337E+04  0.7818609E-02  0.9205838E-01
       -2   -1    0    0    0  501  0.00000000000E+00  0.00000000000E+00  0.62622620788E+03  0.62622620788E+03  0.25500000920E-02 0.  1.
        2   -1    0    0  501    0  0.00000000000E+00  0.00000000000E+00 -0.48247015057E+03  0.48247015057E+03  0.25500000920E-02 0. -1.
    10030    2    1    2    0    0  0.00000000000E+00  0.00000000000E+00  0.14375605731E+03  0.11086963585E+04  0.10993369871E+04 0.  0.
        5    1    3    3  502    0 -0.79382100632E+02  0.48507460338E+02  0.61820847311E+03  0.62518661041E+03  0.46999998093E+01 0.  1.
       -5    1    3    3    0  502  0.79382100632E+02 -0.48507460338E+02 -0.47445241579E+03  0.48350974805E+03  0.46999998093E+01 0. -1.
</event>
<event>
 5   0  0.5789905E-03  0.1106597E+04  0.7818609E-02  0.9198785E-01
        1   -1    0    0  501    0  0.00000000000E+00  0.00000000000E+00  0.10825518694E+04  0.10825518694E+04  0.50400001928E-02 0.  1.
       -1   -1    0    0    0  501  0.00000000000E+00  0.00000000000E+00 -0.28279425621E+03  0.28279425625E+03  0.50400001928E-02 0. -1.
    10030    2    1    2    0    0  0.00000000000E+00  0.00000000000E+00  0.79975761315E+03  0.13653461256E+04  0.11065973988E+04 0.  0.
        1    1    3    3  502    0  0.28337921982E+03 -0.44669172478E+03  0.19977796284E+03  0.56546309665E+03  0.50400001928E-02 0.  1.
       -1    1    3    3    0  502 -0.28337921982E+03  0.44669172478E+03  0.59997965031E+03  0.79988302896E+03  0.50400001928E-02 0. -1.
</event>
<event>
 5   0  0.3949750E-03  0.6712941E+03  0.7818609E-02  0.9767623E-01
       -3   -1    0    0    0  501  0.00000000000E+00  0.00000000000E+00  0.81777775682E+03  0.81777776306E+03  0.10100000352E+00 0. -1.
        3   -1    0    0  501    0  0.00000000000E+00  0.00000000000E+00 -0.13776228869E+03  0.13776232572E+03  0.10100000352E+00 0.  1.
    10030    2    1    2    0    0  0.00000000000E+00  0.00000000000E+00  0.68001546813E+03  0.95554008877E+03  0.67129414146E+03 0.  0.
        5    1    3    3  502    0 -0.15331201084E+03  0.87315330089E+02 -0.66376680291E+02  0.18856429466E+03  0.46999998093E+01 0.  1.
       -5    1    3    3    0  502  0.15331201084E+03 -0.87315330089E+02  0.74639214842E+03  0.76697579411E+03  0.46999998093E+01 0. -1.
</event>
<event>
 5   0  0.5789905E-03  0.8870884E+03  0.7818609E-02  0.9441867E-01
       -1   -1    0    0    0  501  0.00000000000E+00  0.00000000000E+00  0.70395435793E+03  0.70395435795E+03  0.50400001928E-02 0.  1.
        1   -1    0    0  501    0  0.00000000000E+00  0.00000000000E+00 -0.27946621021E+03  0.27946621026E+03  0.50400001928E-02 0. -1.
    10030    2    1    2    0    0  0.00000000000E+00  0.00000000000E+00  0.42448814771E+03  0.98342056820E+03  0.88708839831E+03 0.  0.
        1    1    3    3  502    0  0.13105413169E+02 -0.29379704431E+03 -0.15584074191E+03  0.33282847229E+03  0.50400001928E-02 0. -1.
       -1    1    3    3    0  502 -0.13105413169E+02  0.29379704431E+03  0.58032888963E+03  0.65059209591E+03  0.50400001928E-02 0.  1.
</event>
<event>
 5   0  0.5854579E-03  0.1068179E+04  0.7818609E-02  0.9236774E-01
        1   -1    0    0  501    0  0.00000000000E+00  0.00000000000E+00  0.13251558340E+04  0.13251558341E+04  0.50400001928E-02 0. -1.
       -1   -1    0    0    0  501  0.00000000000E+00  0.00000000000E+00 -0.21525885982E+03  0.21525885988E+03  0.50400001928E-02 0.  1.
    10030    2    1    2    0    0  0.00000000000E+00  0.00000000000E+00  0.11098969742E+04  0.15404146939E+04  0.10681788876E+04 0.  0.
        4    1    3    3  502    0 -0.30327274903E+02  0.89772019745E+02 -0.20303795895E+03  0.22406424258E+03  0.12699999809E+01 0.  1.
       -4    1    3    3    0  502  0.30327274903E+02 -0.89772019745E+02  0.13129349332E+04  0.13163504513E+04  0.12699999809E+01 0. -1.
</event>
<event>
 5   0  0.5998641E-03  0.1023982E+04  0.7818609E-02  0.9282626E-01
       -1   -1    0    0    0  501  0.00000000000E+00  0.00000000000E+00  0.35348837736E+03  0.35348837740E+03  0.50400001928E-02 0.  1.
        1   -1    0    0  501    0  0.00000000000E+00  0.00000000000E+00 -0.74156573422E+03  0.74156573424E+03  0.50400001928E-02 0. -1.
    10030    2    1    2    0    0  0.00000000000E+00  0.00000000000E+00 -0.38807735686E+03  0.10950541116E+04  0.10239821642E+04 0.  0.
        3    1    3    3  502    0  0.30240321135E+03 -0.32810083003E+03 -0.46253661955E+03  0.64268031830E+03  0.10100000352E+00 0. -1.
       -3    1    3    3    0  502 -0.30240321135E+03  0.32810083003E+03  0.74459262695E+02  0.45237379334E+03  0.10100000352E+00 0.  1.
</event>
<event>
 5   0  0.9719260E-03  0.1091179E+04  0.7818609E-02  0.9213832E-01
       -2   -1    0    0    0  501  0.00000000000E+00  0.00000000000E+00  0.20765972312E+03  0.20765972314E+03  0.25500000920E-02 0.  1.
        2   -1    0    0  501    0  0.00000000000E+00  0.00000000000E+00 -0.14334407816E+04  0.14334407816E+04  0.25500000920E-02 0. -1.
    10030    2    1    2    0    0  0.00000000000E+00  0.00000000000E+00 -0.12257810585E+04  0.16411005047E+04  0.10911790244E+04 0.  0.
        3    1    3    3  502    0  0.15037243134E+02  0.53025247373E+03 -0.42102910047E+03  0.67724391339E+03  0.10100000352E+00 0.  1.
       -3    1    3    3    0  502 -0.15037243134E+02 -0.53025247373E+03 -0.80475195802E+03  0.96385659136E+03  0.10100000352E+00 0. -1.
</event>
<event>
 5   0  0.5958706E-03  0.1098243E+04  0.7818609E-02  0.9206906E-01
       -1   -1    0    0    0  501  0.00000000000E+00  0.00000000000E+00  0.18591002081E+03  0.18591002088E+03  0.50400001928E-02 0.  1.
        1   -1    0    0  501    0  0.00000000000E+00  0.00000000000E+00 -0.16219376653E+04  0.16219376653E+04  0.50400001928E-02 0. -1.
    10030    2    1    2    0    0  0.00000000000E+00  0.00000000000E+00 -0.14360276445E+04  0.18078476862E+04  0.10982430791E+04 0.  0.
        2    1    3    3  502    0 -0.10826222590E+03  0.51961789860E+03 -0.94970874002E+03  0.10879660661E+04  0.25500000920E-02 0. -1.
       -2    1    3    3    0  502  0.10826222590E+03 -0.51961789860E+03 -0.48631890450E+03  0.71988162012E+03  0.25500000920E-02 0.  1.
</event>
<event>
 5   0  0.5854579E-03  0.1135328E+04  0.7818609E-02  0.9171427E-01
       -1   -1    0    0    0  501  0.00000000000E+00  0.00000000000E+00  0.10113527596E+04  0.10113527596E+04  0.50400001928E-02 0.  1.
        1   -1    0    0  501    0  0.00000000000E+00  0.00000000000E+00 -0.31862529811E+03  0.31862529815E+03  0.50400001928E-02 0. -1.
    10030    2    1    2    0    0  0.00000000000E+00  0.00000000000E+00  0.69272746148E+03  0.13299780577E+04  0.11353282777E+04 0.  0.
        4    1    3    3  502    0 -0.19666402940E+03 -0.19088642555E+03 -0.23598450288E+03  0.36166927768E+03  0.12699999809E+01 0. -1.
       -4    1    3    3    0  502  0.19666402940E+03  0.19088642555E+03  0.92871196436E+03  0.96830878007E+03  0.12699999809E+01 0.  1.
</event>
<event>
 5   0  0.5998641E-03  0.9598346E+03  0.7818609E-02  0.9353729E-01
       -1   -1    0    0    0  501  0.00000000000E+00  0.00000000000E+00  0.29520757556E+03  0.29520757560E+03  0.50400001928E-02 0. -1.
        1   -1    0    0  501    0  0.00000000000E+00  0.00000000000E+00 -0.78019881715E+03  0.78019881717E+03  0.50400001928E-02 0.  1.
    10030    2    1    2    0    0  0.00000000000E+00  0.00000000000E+00 -0.48499124159E+03  0.10754063928E+04  0.95983457178E+03 0.  0.
        3    1    3    3  502    0 -0.18941977567E+03  0.95355692756E+02  0.23986318839E+03  0.32016701720E+03  0.10100000352E+00 0. -1.
       -3    1    3    3    0  502  0.18941977567E+03 -0.95355692756E+02 -0.72485442998E+03  0.75523937557E+03  0.10100000352E+00 0.  1.
</event>
<event>
 5   0  0.5854579E-03  0.1103770E+04  0.7818609E-02  0.9201525E-01
        1   -1    0    0  501    0  0.00000000000E+00  0.00000000000E+00  0.39226469715E+03  0.39226469718E+03  0.50400001928E-02 0. -1.
       -1   -1    0    0    0  501  0.00000000000E+00  0.00000000000E+00 -0.77645846678E+03  0.77645846679E+03  0.50400001928E-02 0.  1.
    10030    2    1    2    0    0  0.00000000000E+00  0.00000000000E+00 -0.38419376963E+03  0.11687231640E+04  0.11037703481E+04 0.  0.
        4    1    3    3  502    0  0.11205088087E+03 -0.40139193843E+03  0.19100176577E+03  0.45842575796E+03  0.12699999809E+01 0. -1.
       -4    1    3    3    0  502 -0.11205088087E+03  0.40139193843E+03 -0.57519553540E+03  0.71029740601E+03  0.12699999809E+01 0.  1.
</event>
<event>
 5   0  0.1028016E-02  0.8817236E+03  0.7818609E-02  0.9448721E-01
       -2   -1    0    0    0  501  0.00000000000E+00  0.00000000000E+00  0.58919188219E+03  0.58919188220E+03  0.25500000920E-02 0. -1.
        2   -1    0    0  501    0  0.00000000000E+00  0.00000000000E+00 -0.32987410206E+03  0.32987410207E+03  0.25500000920E-02 0.  1.
    10030    2    1    2    0    0  0.00000000000E+00  0.00000000000E+00  0.25931778013E+03  0.91906598427E+03  0.88172363717E+03 0.  0.
        2    1    3    3  502    0  0.20659705154E+03 -0.23858646780E+03 -0.19119800641E+03  0.36900206230E+03  0.25500000920E-02 0.  1.
       -2    1    3    3    0  502 -0.20659705154E+03  0.23858646780E+03  0.45051578654E+03  0.55006392197E+03  0.25500000920E-02 0. -1.
</event>
<event>
 5   0  0.9692981E-03  0.1239111E+04  0.7818609E-02  0.9079295E-01
        2   -1    0    0  501    0  0.00000000000E+00  0.00000000000E+00  0.71834002251E+03  0.71834002252E+03  0.25500000920E-02 0. -1.
       -2   -1    0    0    0  501  0.00000000000E+00  0.00000000000E+00 -0.53435554003E+03  0.53435554003E+03  0.25500000920E-02 0.  1.
    10030    2    1    2    0    0  0.00000000000E+00  0.00000000000E+00  0.18398448249E+03  0.12526955626E+04  0.12391109243E+04 0.  0.
        5    1    3    3  502    0  0.57606453311E+03  0.21119960891E+03  0.51949433856E+01  0.61359978695E+03  0.46999998093E+01 0.  1.
       -5    1    3    3    0  502 -0.57606453311E+03 -0.21119960891E+03  0.17878953910E+03  0.63909577561E+03  0.46999998093E+01 0. -1.
</event>
<event>
 5   0  0.9719260E-03  0.1094560E+04  0.7818609E-02  0.9210511E-01
        2   -1    0    0  501    0  0.00000000000E+00  0.00000000000E+00  0.10644589509E+04  0.10644589509E+04  0.25500000920E-02 0.  1.
       -2   -1    0    0    0  501  0.00000000000E+00  0.00000000000E+00 -0.28137790940E+03  0.28137790941E+03  0.25500000920E-02 0. -1.
    10030    2    1    2    0    0  0.00000000000E+00  0.00000000000E+00  0.78308104150E+03  0.13458368603E+04  0.10945597001E+04 0.  0.
        3    1    3    3  502    0  0.30543543309E+03 -0.21043744451E+03 -0.10326063523E+03  0.38501622151E+03  0.10100000352E+00 0. -1.
       -3    1    3    3    0  502 -0.30543543309E+03  0.21043744451E+03  0.88634167673E+03  0.96082063880E+03  0.10100000352E+00 0.  1.
</event>
<event>
 5   0  0.9692981E-03  0.1100814E+04  0.7818609E-02  0.9204399E-01
       -2   -1    0    0    0  501  0.00000000000E+00  0.00000000000E+00  0.71309383684E+03  0.71309383684E+03  0.25500000920E-02 0. -1.
        2   -1    0    0  501    0  0.00000000000E+00  0.00000000000E+00 -0.42483579080E+03  0.42483579081E+03  0.25500000920E-02 0.  1.
    10030    2    1    2    0    0  0.00000000000E+00  0.00000000000E+00  0.28825804604E+03  0.11379296276E+04  0.11008138518E+04 0.  0.
        5    1    3    3  502    0  0.31185036237E+03  0.16226419201E+03  0.58189964467E+03  0.67985998778E+03  0.46999998093E+01 0. -1.
       -5    1    3    3    0  502 -0.31185036237E+03 -0.16226419201E+03 -0.29364159863E+03  0.45806963986E+03  0.46999998093E+01 0.  1.
</event>
<event>
 5   0  0.5854579E-03  0.1248984E+04  0.7818609E-02  0.9071029E-01
        1   -1    0    0  501    0  0.00000000000E+00  0.00000000000E+00  0.80269250409E+03  0.80269250410E+03  0.50400001928E-02 0.  1.
       -1   -1    0    0    0  501  0.00000000000E+00  0.00000000000E+00 -0.48585285686E+03  0.48585285689E+03  0.50400001928E-02 0. -1.
    10030    2    1    2    0    0  0.00000000000E+00  0.00000000000E+00  0.31683964723E+03  0.12885453610E+04  0.12489843014E+04 0.  0.
        4    1    3    3  502    0 -0.40973323529E+03  0.22355858434E+03 -0.26960587175E+03  0.53902569856E+03  0.12699999809E+01 0. -1.
       -4    1    3    3    0  502  0.40973323529E+03 -0.22355858434E+03  0.58644551897E+03  0.74951966242E+03  0.12699999809E+01 0.  1.
</event>
<event>
 5   0  0.5998641E-03  0.1087381E+04  0.7818609E-02  0.9217580E-01
        1   -1    0    0  501    0  0.00000000000E+00  0.00000000000E+00  0.50000294328E+03  0.50000294330E+03  0.50400001928E-02 0.  1.
       -1   -1    0    0    0  501  0.00000000000E+00  0.00000000000E+00 -0.59119484765E+03  0.59119484767E+03  0.50400001928E-02 0. -1.
    10030    2    1    2    0    0  0.00000000000E+00  0.00000000000E+00 -0.91191904372E+02  0.10911977910E+04  0.10873806397E+04 0.  0.
        3    1    3    3  502    0 -0.53948686986E+03 -0.45928095264E+02  0.40111820557E+01  0.54145320432E+03  0.10100000352E+00 0. -1.
       -3    1    3    3    0  502  0.53948686986E+03  0.45928095264E+02 -0.95203086428E+02  0.54974458665E+03  0.10100000352E+00 0.  1.
</event>
<event>
 5   0  0.5998641E-03  0.1247329E+04  0.7818609E-02  0.9072409E-01
       -1   -1    0    0    0  501  0.00000000000E+00  0.00000000000E+00  0.53952599978E+03  0.53952599980E+03  0.50400001928E-02 0.  1.
        1   -1    0    0  501    0  0.00000000000E+00  0.00000000000E+00 -0.72092442100E+03  0.72092442102E+03  0.50400001928E-02 0. -1.
    10030    2    1    2    0    0  0.00000000000E+00  0.00000000000E+00 -0.18139842123E+03  0.12604504208E+04  0.12473290970E+04 0.  0.
        3    1    3    3  502    0  0.40875357251E+03  0.46146002229E+03  0.48075756385E+01  0.61648029831E+03  0.10100000352E+00 0. -1.
       -3    1    3    3    0  502 -0.40875357251E+03 -0.46146002229E+03 -0.18620599687E+03  0.64397012251E+03  0.10100000352E+00 0.  1.
</event>
<event>
 5   0  0.5712664E-03  0.1097394E+04  0.7818609E-02  0.9207735E-01
        1   -1    0    0  501    0  0.00000000000E+00  0.00000000000E+00  0.15075784146E+04  0.15075784146E+04  0.50400001928E-02 0.  1.
       -1   -1    0    0    0  501  0.00000000000E+00  0.00000000000E+00 -0.19970345687E+03  0.19970345694E+03  0.50400001928E-02 0. -1.
    10030    2    1    2    0    0  0.00000000000E+00  0.00000000000E+00  0.13078749577E+04  0.17072818715E+04  0.10973944067E+04 0.  0.
        5    1    3    3  502    0 -0.37594089849E+02  0.13267369931E+03  0.14801482205E+04  0.14865653267E+04  0.46999998093E+01 0.  1.
       -5    1    3    3    0  502  0.37594089849E+02 -0.13267369931E+03 -0.17227326277E+03  0.22071654479E+03  0.46999998093E+01 0. -1.
</event>
<event>
 5   0  0.1028016E-02  0.6532819E+03  0.7818609E-02  0.9800640E-01
        2   -1    0    0  501    0  0.00000000000E+00  0.00000000000E+00  0.11301788009E+04  0.11301788009E+04  0.25500000920E-02 0.  1.
       -2   -1    0    0    0  501  0.00000000000E+00  0.00000000000E+00 -0.94404810256E+02  0.94404810291E+02  0.25500000920E-02 0. -1.
    10030    2    1    2    0    0  0.00000000000E+00  0.00000000000E+00  0.10357739906E+04  0.12245836112E+04  0.65328191549E+03 0.  0.
        2    1    3    3  502    0 -0.84098315678E+02 -0.11334165430E+03  0.10700741049E+04  0.10793412098E+04  0.25500000920E-02 0.  1.
       -2    1    3    3    0  502  0.84098315678E+02  0.11334165430E+03 -0.34300114265E+02  0.14524240133E+03  0.25500000920E-02 0. -1.
</event>
<event>
 5   0  0.9719260E-03  0.1115008E+04  0.7818609E-02  0.9190686E-01
        2   -1    0    0  501    0  0.00000000000E+00  0.00000000000E+00  0.19565577512E+04  0.19565577512E+04  0.25500000920E-02 0. -1.
       -2   -1    0    0    0  501  0.00000000000E+00  0.00000000000E+00 -0.15885589024E+03  0.15885589026E+03  0.25500000920E-02 0.  1.
    10030    2    1    2    0    0  0.00000000000E+00  0.00000000000E+00  0.17977018609E+04  0.21154136414E+04  0.11150080240E+04 0.  0.
        3    1    3    3  502    0 -0.16879700594E+03 -0.79265274886E+02  0.18956316297E+04  0.19047820607E+04  0.10100000352E+00 0. -1.
       -3    1    3    3    0  502  0.16879700594E+03  0.79265274886E+02 -0.97929768736E+02  0.21063158078E+03  0.10100000352E+00 0.  1.
</event>
<event>
 5   0  0.9719260E-03  0.1015817E+04  0.7818609E-02  0.9291365E-01
       -2   -1    0    0    0  501  0.00000000000E+00  0.00000000000E+00  0.65302578714E+03  0.65302578714E+03  0.25500000920E-02 0. -1.
        2   -1    0    0  501    0  0.00000000000E+00  0.00000000000E+00 -0.39503960197E+03  0.39503960198E+03  0.25500000920E-02 0.  1.
    10030    2    1    2    0    0  0.00000000000E+00  0.00000000000E+00  0.25798618517E+03  0.10480653891E+04  0.10158170052E+04 0.  0.
        3    1    3    3  502    0  0.40548365544E+03 -0.20951064884E+03 -0.10092509559E+03  0.46743725988E+03  0.10100000352E+00 0. -1.
       -3    1    3    3    0  502 -0.40548365544E+03  0.20951064884E+03  0.35891128075E+03  0.58062812924E+03  0.10100000352E+00 0.  1.
</event>
<event>
 5   0  0.5958706E-03  0.1120911E+04  0.7818609E-02  0.9185047E-01
        1   -1    0    0  501    0  0.00000000000E+00  0.00000000000E+00  0.71037109872E+03  0.71037109874E+03  0.50400001928E-02 0.  1.
       -1   -1    0    0    0  501  0.00000000000E+00  0.00000000000E+00 -0.44217787721E+03  0.44217787724E+03  0.50400001928E-02 0. -1.
    10030    2    1    2    0    0  0.00000000000E+00  0.00000000000E+00  0.26819322151E+03  0.11525489760E+04  0.11209110303E+04 0.  0.
        2    1    3    3  502    0  0.78979313362E+02  0.53906114737E+03  0.26928274002E+03  0.60773172258E+03  0.25500000920E-02 0.  1.
       -2    1    3    3    0  502 -0.78979313362E+02 -0.53906114737E+03 -0.10895185108E+01  0.54481725340E+03  0.25500000920E-02 0. -1.
</event>
<event>
 5   0  0.9925021E-03  0.1100050E+04  0.7818609E-02  0.9205143E-01
       -2   -1    0    0    0  501  0.00000000000E+00  0.00000000000E+00  0.61465816282E+03  0.61465816282E+03  0.25500000920E-02 0. -1.
        2   -1    0    0  501    0  0.00000000000E+00  0.00000000000E+00 -0.49218834980E+03  0.49218834981E+03  0.25500000920E-02 0.  1.
    10030    2    1    2    0    0  0.00000000000E+00  0.00000000000E+00  0.12246981302E+03  0.11068465126E+04  0.11000501568E+04 0.  0.
        4    1    3    3  502    0  0.24203640981E+03 -0.11581577099E+03 -0.42186798294E+03  0.49996912346E+03  0.12699999809E+01 0.  1.
       -4    1    3    3    0  502 -0.24203640981E+03  0.11581577099E+03  0.54433779596E+03  0.60687738917E+03  0.12699999809E+01 0. -1.
</event>
<event>
 5   0  0.9719260E-03  0.1099297E+04  0.7818609E-02  0.9205878E-01
        2   -1    0    0  501    0  0.00000000000E+00  0.00000000000E+00  0.10971251306E+04  0.10971251306E+04  0.25500000920E-02 0. -1.
       -2   -1    0    0    0  501  0.00000000000E+00  0.00000000000E+00 -0.27536816041E+03  0.27536816042E+03  0.25500000920E-02 0.  1.
    10030    2    1    2    0    0  0.00000000000E+00  0.00000000000E+00  0.82175697019E+03  0.13724932910E+04  0.10992967369E+04 0.  0.
        3    1    3    3  502    0  0.40388333761E+03 -0.29029298667E+02 -0.53175981284E+02  0.40840194143E+03  0.10100000352E+00 0.  1.
       -3    1    3    3    0  502 -0.40388333761E+03  0.29029298667E+02  0.87493295148E+03  0.96409134959E+03  0.10100000352E+00 0. -1.
</event>
<event>
 5   0  0.9719260E-03  0.9253413E+03  0.7818609E-02  0.9394446E-01
       -2   -1    0    0    0  501  0.00000000000E+00  0.00000000000E+00  0.20281001105E+03  0.20281001106E+03  0.25500000920E-02 0.  1.
        2   -1    0    0  501    0  0.00000000000E+00  0.00000000000E+00 -0.10554908737E+04  0.10554908737E+04  0.25500000920E-02 0. -1.
    10030    2    1    2    0    0  0.00000000000E+00  0.00000000000E+00 -0.85268086265E+03  0.12583008848E+04  0.92534126843E+03 0.  0.
        3    1    3    3  502    0  0.42658522887E+03 -0.17586663720E+03 -0.47265583099E+03  0.66053582517E+03  0.10100000352E+00 0. -1.
       -3    1    3    3    0  502 -0.42658522887E+03  0.17586663720E+03 -0.38002503166E+03  0.59776505959E+03  0.10100000352E+00 0.  1.
</event>
<event>
 5   0  0.3949750E-03  0.6829309E+03  0.7818609E-02  0.9746876E-01
       -3   -1    0    0    0  501  0.00000000000E+00  0.00000000000E+00  0.53246109192E+03  0.53246110150E+03  0.10100000352E+00 0. -1.
        3   -1    0    0  501    0  0.00000000000E+00  0.00000000000E+00 -0.21898058187E+03  0.21898060517E+03  0.10100000352E+00 0.  1.
    10030    2    1    2    0    0  0.00000000000E+00  0.00000000000E+00  0.31348051004E+03  0.75144170666E+03  0.68293089572E+03 0.  0.
        4    1    3    3  502    0  0.33022491860E+03  0.75002030189E+02  0.20499444468E+03  0.39585115466E+03  0.12699999809E+01 0. -1.
       -4    1    3    3    0  502 -0.33022491860E+03 -0.75002030189E+02  0.10848606536E+03  0.35559055200E+03  0.12699999809E+01 0.  1.
</event>
<event>
 5   0  0.9719260E-03  0.1103436E+04  0.7818609E-02  0.9201849E-01
       -2   -1    0    0    0  501  0.00000000000E+00  0.00000000000E+00  0.37590537554E+03  0.37590537554E+03  0.25500000920E-02 0. -1.
        2   -1    0    0  501    0  0.00000000000E+00  0.00000000000E+00 -0.80975966408E+03  0.80975966408E+03  0.25500000920E-02 0.  1.
    10030    2    1    2    0    0  0.00000000000E+00  0.00000000000E+00 -0.43385428854E+03  0.11856650396E+04  0.11034364696E+04 0.  0.
        3    1    3    3  502    0  0.31983836882E+03  0.24803603806E+03 -0.61980001161E+03  0.74025031100E+03  0.10100000352E+00 0.  1.
       -3    1    3    3    0  502 -0.31983836882E+03 -0.24803603806E+03  0.18594572307E+03  0.44541472862E+03  0.10100000352E+00 0. -1.
</event>
<event>
 5   0  0.9692981E-03  0.9974136E+03  0.7818609E-02  0.9311386E-01
        2   -1    0    0  501    0  0.00000000000E+00  0.00000000000E+00  0.59062461748E+03  0.59062461748E+03  0.25500000920E-02 0.  1.
       -2   -1    0    0    0  501  0.00000000000E+00  0.00000000000E+00 -0.42109398796E+03  0.42109398797E+03  0.25500000920E-02 0. -1.
    10030    2    1    2    0    0  0.00000000000E+00  0.00000000000E+00  0.16953062952E+03  0.10117186055E+04  0.99741360642E+03 0.  0.
        5    1    3    3  502    0 -0.38604016092E+03  0.28610020106E+03  0.22011844368E+03  0.52854001753E+03  0.46999998093E+01 0. -1.
       -5    1    3    3    0  502  0.38604016092E+03 -0.28610020106E+03 -0.50587814161E+02  0.48317858792E+03  0.46999998093E+01 0.  1.
</event>
<event>
 5   0  0.5998641E-03  0.1075603E+04  0.7818609E-02  0.9229302E-01
       -1   -1    0    0    0  501  0.00000000000E+00  0.00000000000E+00  0.26759931700E+03  0.26759931705E+03  0.50400001928E-02 0. -1.
        1   -1    0    0  501    0  0.00000000000E+00  0.00000000000E+00 -0.10808345937E+04  0.10808345937E+04  0.50400001928E-02 0.  1.
    10030    2    1    2    0    0  0.00000000000E+00  0.00000000000E+00 -0.81323527666E+03  0.13484339107E+04  0.10756032709E+04 0.  0.
        3    1    3    3  502    0 -0.42984258504E+03 -0.27436832414E+03 -0.19243737407E+03  0.54504566629E+03  0.10100000352E+00 0. -1.
       -3    1    3    3    0  502  0.42984258504E+03  0.27436832414E+03 -0.62079790259E+03  0.80338824442E+03  0.10100000352E+00 0.  1.
</event>
<event>
 5   0  0.3949750E-03  0.1100319E+04  0.7818609E-02  0.9204881E-01
        3   -1    0    0  501    0  0.00000000000E+00  0.00000000000E+00  0.22628419555E+03  0.22628421809E+03  0.10100000352E+00 0. -1.
       -3   -1    0    0    0  501  0.00000000000E+00  0.00000000000E+00 -0.13375908499E+04  0.13375908537E+04  0.10100000352E+00 0.  1.
    10030    2    1    2    0    0  0.00000000000E+00  0.00000000000E+00 -0.11113066543E+04  0.15638750718E+04  0.11003193901E+04 0.  0.
        4    1    3    3  502    0  0.32405182664E+03 -0.20073923004E+03  0.81684571422E+01  0.38127963677E+03  0.12699999809E+01 0. -1.
       -4    1    3    3    0  502 -0.32405182664E+03  0.20073923004E+03 -0.11194751115E+04  0.11825954350E+04  0.12699999809E+01 0.  1.
</event>
<event>
 5   0  0.5958706E-03  0.1084591E+04  0.7818609E-02  0.9220342E-01
       -1   -1    0    0    0  501  0.00000000000E+00  0.00000000000E+00  0.41057099524E+03  0.41057099527E+03  0.50400001928E-02 0.  1.
        1   -1    0    0  501    0  0.00000000000E+00  0.00000000000E+00 -0.71628159094E+03  0.71628159096E+03  0.50400001928E-02 0. -1.
    10030    2    1    2    0    0  0.00000000000E+00  0.00000000000E+00 -0.30571059570E+03  0.11268525862E+04  0.10845910671E+04 0.  0.
        2    1    3    3  502    0  0.25455051052E+03  0.44424380197E+03  0.32814323097E+02  0.51305486821E+03  0.25500000920E-02 0.  1.
       -2    1    3    3    0  502 -0.25455051052E+03 -0.44424380197E+03 -0.33852491880E+03  0.61379771802E+03  0.25500000920E-02 0. -1.
</event>
<event>
 5   0  0.5854579E-03  0.1045919E+04  0.7818609E-02  0.9259568E-01
       -1   -1    0    0    0  501  0.00000000000E+00  0.00000000000E+00  0.35888828785E+03  0.35888828788E+03  0.50400001928E-02 0.  1.
        1   -1    0    0  501    0  0.00000000000E+00  0.00000000000E+00 -0.76203788573E+03  0.76203788574E+03  0.50400001928E-02 0. -1.
    10030    2    1    2    0    0  0.00000000000E+00  0.00000000000E+00 -0.40314959788E+03  0.11209261736E+04  0.10459186816E+04 0.  0.
        4    1    3    3  502    0  0.20584809616E+01 -0.48567587434E+03 -0.40938674599E+03  0.63520422932E+03  0.12699999809E+01 0. -1.
       -4    1    3    3    0  502 -0.20584809616E+01  0.48567587434E+03  0.62371481115E+01  0.48572194430E+03  0.12699999809E+01 0.  1.
</event>
<event>
 5   0  0.9719260E-03  0.1020990E+04  0.7818609E-02  0.9285818E-01
        2   -1    0    0  501    0  0.00000000000E+00  0.00000000000E+00  0.11369123334E+04  0.11369123334E+04  0.25500000920E-02 0.  1.
       -2   -1    0    0    0  501  0.00000000000E+00  0.00000000000E+00 -0.22922188935E+03  0.22922188937E+03  0.25500000920E-02 0. -1.
    10030    2    1    2    0    0  0.00000000000E+00  0.00000000000E+00  0.90769044403E+03  0.13661342228E+04  0.10209900942E+04 0.  0.
        3    1    3    3  502    0 -0.14762244608E+03  0.23548824534E+03 -0.11911156969E+03  0.30238167358E+03  0.10100000352E+00 0. -1.
       -3    1    3    3    0  502  0.14762244608E+03 -0.23548824534E+03  0.10268020137E+04  0.10637525492E+04  0.10100000352E+00 0.  1.
</event>
<event>
 5   0  0.9719260E-03  0.1088083E+04  0.7818609E-02  0.9216886E-01
        2   -1    0    0  501    0  0.00000000000E+00  0.00000000000E+00  0.72036973786E+03  0.72036973786E+03  0.25500000920E-02 0.  1.
       -2   -1    0    0    0  501  0.00000000000E+00  0.00000000000E+00 -0.41087369656E+03  0.41087369657E+03  0.25500000920E-02 0. -1.
    10030    2    1    2    0    0  0.00000000000E+00  0.00000000000E+00  0.30949604130E+03  0.11312434344E+04  0.10880826753E+04 0.  0.
        3    1    3    3  502    0 -0.28782840286E+03  0.23135262434E+03  0.57010985913E+03  0.67926025053E+03  0.10100000352E+00 0.  1.
       -3    1    3    3    0  502  0.28782840286E+03 -0.23135262434E+03 -0.26061381783E+03  0.45198318390E+03  0.10100000352E+00 0. -1.
</event>
<event>
 5   0  0.1019384E-02  0.1125913E+04  0.7818609E-02  0.9180297E-01
       -2   -1    0    0    0  501  0.00000000000E+00  0.00000000000E+00  0.48752298520E+03  0.48752298521E+03  0.25500000920E-02 0. -1.
        2   -1    0    0  501    0  0.00000000000E+00  0.00000000000E+00 -0.65006119569E+03  0.65006119570E+03  0.25500000920E-02 0.  1.
    10030    2    1    2    0    0  0.00000000000E+00  0.00000000000E+00 -0.16253821049E+03  0.11375841809E+04  0.11259125627E+04 0.  0.
        1    1    3    3  502    0  0.71589807060E+02  0.30897191982E+03 -0.55120463921E+03  0.63593655503E+03  0.50400001928E-02 0.  1.
       -1    1    3    3    0  502 -0.71589807060E+02 -0.30897191982E+03  0.38866642872E+03  0.50164762588E+03  0.50400001928E-02 0. -1.
</event>
<event>
 5   0  0.5789905E-03  0.1068013E+04  0.7818609E-02  0.9236942E-01
       -1   -1    0    0    0  501  0.00000000000E+00  0.00000000000E+00  0.45081985435E+03  0.45081985438E+03  0.50400001928E-02 0. -1.
        1   -1    0    0  501    0  0.00000000000E+00  0.00000000000E+00 -0.63254253844E+03  0.63254253846E+03  0.50400001928E-02 0.  1.
    10030    2    1    2    0    0  0.00000000000E+00  0.00000000000E+00 -0.18172268409E+03  0.10833623928E+04  0.10680126124E+04 0.  0.
        1    1    3    3  502    0 -0.45403249151E+03 -0.49665221299E+02  0.18979293606E+03  0.49460438348E+03  0.50400001928E-02 0. -1.
       -1    1    3    3    0  502  0.45403249151E+03  0.49665221299E+02 -0.37151562015E+03  0.58875800936E+03  0.50400001928E-02 0.  1.
</event>
<event>
 5   0  0.1028016E-02  0.1088988E+04  0.7818609E-02  0.9215992E-01
        2   -1    0    0  501    0  0.00000000000E+00  0.00000000000E+00  0.60434814747E+03  0.60434814748E+03  0.25500000920E-02 0. -1.
       -2   -1    0    0    0  501  0.00000000000E+00  0.00000000000E+00 -0.49056760079E+03  0.49056760080E+03  0.25500000920E-02 0.  1.
    10030    2    1    2    0    0  0.00000000000E+00  0.00000000000E+00  0.11378054668E+03  0.10949157483E+04  0.10889878250E+04 0.  0.
        2    1    3    3  502    0  0.21889687190E+03 -0.22536578377E+03  0.50402225744E+03  0.59392256484E+03  0.25500000920E-02 0. -1.
       -2    1    3    3    0  502 -0.21889687190E+03  0.22536578377E+03 -0.39024171076E+03  0.50099318343E+03  0.25500000920E-02 0.  1.
</event>
<event>
 5   0  0.9719260E-03  0.1107227E+04  0.7818609E-02  0.9198176E-01
        2   -1    0    0  501    0  0.00000000000E+00  0.00000000000E+00  0.13898448792E+04  0.13898448792E+04  0.25500000920E-02 0.  1.
       -2   -1    0    0    0  501  0.00000000000E+00  0.00000000000E+00 -0.22051949131E+03  0.22051949132E+03  0.25500000920E-02 0. -1.
    10030    2    1    2    0    0  0.00000000000E+00  0.00000000000E+00  0.11693253879E+04  0.16103643706E+04  0.11072269610E+04 0.  0.
        3    1    3    3  502    0  0.59411194966E+02  0.40323016001E+03  0.39765230209E+02  0.40951866351E+03  0.10100000352E+00 0. -1.
       -3    1    3    3    0  502 -0.59411194966E+02 -0.40323016001E+03  0.11295601577E+04  0.12008457070E+04  0.10100000352E+00 0.  1.
</event>
<event>
 5   0  0.5789905E-03  0.1092368E+04  0.7818609E-02  0.9212662E-01
       -1   -1    0    0    0  501  0.00000000000E+00  0.00000000000E+00  0.42732876871E+03  0.42732876874E+03  0.50400001928E-02 0. -1.
        1   -1    0    0  501    0  0.00000000000E+00  0.00000000000E+00 -0.69809723633E+03  0.69809723635E+03  0.50400001928E-02 0.  1.
    10030    2    1    2    0    0  0.00000000000E+00  0.00000000000E+00 -0.27076846762E+03  0.11254260051E+04  0.10923681293E+04 0.  0.
        1    1    3    3  502    0  0.40430553820E+03  0.34586802820E+03 -0.26252619695E+03  0.59330233883E+03  0.50400001928E-02 0. -1.
       -1    1    3    3    0  502 -0.40430553820E+03 -0.34586802820E+03 -0.82422706714E+01  0.53212366626E+03  0.50400001928E-02 0.  1.
</event>
<event>
 5   0  0.9925021E-03  0.9596924E+03  0.7818609E-02  0.9353893E-01
       -2   -1    0    0    0  501  0.00000000000E+00  0.00000000000E+00  0.31731213191E+03  0.31731213192E+03  0.25500000920E-02 0.  1.
        2   -1    0    0  501    0  0.00000000000E+00  0.00000000000E+00 -0.72563363241E+03  0.72563363241E+03  0.25500000920E-02 0. -1.
    10030    2    1    2    0    0  0.00000000000E+00  0.00000000000E+00 -0.40832150050E+03  0.10429457643E+04  0.95969235673E+03 0.  0.
        4    1    3    3  502    0  0.25551524683E+03  0.40121051499E+03 -0.13549032548E+03  0.49458786873E+03  0.12699999809E+01 0. -1.
       -4    1    3    3    0  502 -0.25551524683E+03 -0.40121051499E+03 -0.27283117502E+03  0.54835789560E+03  0.12699999809E+01 0.  1.
</event>
<event>
 5   0  0.5712664E-03  0.1116403E+04  0.7818609E-02  0.9189351E-01
       -1   -1    0    0    0  501  0.00000000000E+00  0.00000000000E+00  0.31303088864E+03  0.31303088868E+03  0.50400001928E-02 0.  1.
        1   -1    0    0  501    0  0.00000000000E+00  0.00000000000E+00 -0.99539273325E+03  0.99539273326E+03  0.50400001928E-02 0. -1.
    10030    2    1    2    0    0  0.00000000000E+00  0.00000000000E+00 -0.68236184461E+03  0.13084236219E+04  0.11164025652E+04 0.  0.
        5    1    3    3  502    0  0.40271621166E+02  0.27670967943E+03  0.22500118583E+03  0.35893965201E+03  0.46999998093E+01 0.  1.
       -5    1    3    3    0  502 -0.40271621166E+02 -0.27670967943E+03 -0.90736303044E+03  0.94948396993E+03  0.46999998093E+01 0. -1.
</event>
<event>
 5   0  0.9692981E-03  0.1103856E+04  0.7818609E-02  0.9201442E-01
        2   -1    0    0  501    0  0.00000000000E+00  0.00000000000E+00  0.11112441755E+04  0.11112441755E+04  0.25500000920E-02 0. -1.
       -2   -1    0    0    0  501  0.00000000000E+00  0.00000000000E+00 -0.27412924080E+03  0.27412924081E+03  0.25500000920E-02 0.  1.
    10030    2    1    2    0    0  0.00000000000E+00  0.00000000000E+00  0.83711493466E+03  0.13853734163E+04  0.11038560090E+04 0.  0.
        5    1    3    3  502    0 -0.15434976290E+02  0.23474736513E+03  0.10451408339E+04  0.10713010859E+04  0.46999998093E+01 0. -1.
       -5    1    3    3    0  502  0.15434976290E+02 -0.23474736513E+03 -0.20802589928E+03  0.31407233035E+03  0.46999998093E+01 0.  1.
</event>
<event>
 5   0  0.9925021E-03  0.1108365E+04  0.7818609E-02  0.9197077E-01
       -2   -1    0    0    0  501  0.00000000000E+00  0.00000000000E+00  0.39258780819E+03  0.39258780820E+03  0.25500000920E-02 0. -1.
        2   -1    0    0  501    0  0.00000000000E+00  0.00000000000E+00 -0.78229118576E+03  0.78229118577E+03  0.25500000920E-02 0.  1.
    10030    2    1    2    0    0  0.00000000000E+00  0.00000000000E+00 -0.38970337757E+03  0.11748789940E+04  0.11083645285E+04 0.  0.
        4    1    3    3  502    0  0.19920230591E+03 -0.47147524503E+03 -0.42007829676E+03  0.66214639897E+03  0.12699999809E+01 0.  1.
       -4    1    3    3    0  502 -0.19920230591E+03  0.47147524503E+03  0.30374919193E+02  0.51273259500E+03  0.12699999809E+01 0. -1.
</event>
<event>
 5   0  0.9719260E-03  0.1085147E+04  0.7818609E-02  0.9219791E-01
       -2   -1    0    0    0  501  0.00000000000E+00  0.00000000000E+00  0.13635777902E+03  0.13635777904E+03  0.25500000920E-02 0. -1.
        2   -1    0    0  501    0  0.00000000000E+00  0.00000000000E+00 -0.21589234977E+04  0.21589234977E+04  0.25500000920E-02 0.  1.
    10030    2    1    2    0    0  0.00000000000E+00  0.00000000000E+00 -0.20225657187E+04  0.22952812768E+04  0.10851470191E+04 0.  0.
        3    1    3    3  502    0 -0.18488873308E+03 -0.18606595678E+03 -0.20158967692E+04  0.20328905967E+04  0.10100000352E+00 0.  1.
       -3    1    3    3    0  502  0.18488873308E+03  0.18606595678E+03 -0.66689494995E+01  0.26239068006E+03  0.10100000352E+00 0. -1.
</event>
<event>
 5   0  0.9719260E-03  0.1242231E+04  0.7818609E-02  0.9076674E-01
        2   -1    0    0  501    0  0.00000000000E+00  0.00000000000E+00  0.87594315307E+03  0.87594315307E+03  0.25500000920E-02 0. -1.
       -2   -1    0    0    0  501  0.00000000000E+00  0.00000000000E+00 -0.44042214446E+03  0.44042214446E+03  0.25500000920E-02 0.  1.
    10030    2    1    2    0    0  0.00000000000E+00  0.00000000000E+00  0.43552100861E+03  0.13163652975E+04  0.12422314791E+04 0.  0.
        3    1    3    3  502    0  0.65297445777E+02  0.57450784152E+03  0.45815034392E+03  0.73771591025E+03  0.10100000352E+00 0.  1.
       -3    1    3    3    0  502 -0.65297445777E+02 -0.57450784152E+03 -0.22629335314E+02  0.57864938729E+03  0.10100000352E+00 0. -1.
</event>
<event>
 5   0  0.9925021E-03  0.7554708E+03  0.7818609E-02  0.9626806E-01
       -2   -1    0    0    0  501  0.00000000000E+00  0.00000000000E+00  0.23149866937E+03  0.23149866938E+03  0.25500000920E-02 0. -1.
        2   -1    0    0  501    0  0.00000000000E+00  0.00000000000E+00 -0.61634922154E+03  0.61634922155E+03  0.25500000920E-02 0.  1.
    10030    2    1    2    0    0  0.00000000000E+00  0.00000000000E+00 -0.38485055217E+03  0.84784789093E+03  0.75547077948E+03 0.  0.
        4    1    3    3  502    0 -0.14318408653E+03  0.22424833127E+03 -0.49334096410E+03  0.56051397527E+03  0.12699999809E+01 0.  1.
       -4    1    3    3    0  502  0.14318408653E+03 -0.22424833127E+03  0.10849041192E+03  0.28733391567E+03  0.12699999809E+01 0. -1.
</event>
<event>
 5   0  0.9719260E-03  0.1102428E+04  0.7818609E-02  0.9202828E-01
        2   -1    0    0  501    0  0.00000000000E+00  0.00000000000E+00  0.77718073755E+03  0.77718073755E+03  0.25500000920E-02 0.  1.
       -2   -1    0    0    0  501  0.00000000000E+00  0.00000000000E+00 -0.39094762548E+03  0.39094762548E+03  0.25500000920E-02 0. -1.
    10030    2    1    2    0    0  0.00000000000E+00  0.00000000000E+00  0.38623311207E+03  0.11681283630E+04  0.11024281635E+04 0.  0.
        3    1    3    3  502    0  0.21496947010E+00  0.54232117318E+03  0.88625933207E+02  0.54951512020E+03  0.10100000352E+00 0.  1.
       -3    1    3    3    0  502 -0.21496947010E+00 -0.54232117318E+03  0.29760717887E+03  0.61861324283E+03  0.10100000352E+00 0. -1.
</event>
<event>
 5   0  0.3949750E-03  0.1088137E+04  0.7818609E-02  0.9216832E-01
        3   -1    0    0  501    0  0.00000000000E+00  0.00000000000E+00  0.94866610667E+03  0.94866611205E+03  0.10100000352E+00 0. -1.
       -3   -1    0    0    0  501  0.00000000000E+00  0.00000000000E+00 -0.31202800617E+03  0.31202802251E+03  0.10100000352E+00 0.  1.
    10030    2    1    2    0    0  0.00000000000E+00  0.00000000000E+00  0.63663810051E+03  0.12606941346E+04  0.10881367699E+04 0.  0.
        4    1    3    3  502    0  0.22795042440E+02  0.15715097277E+03 -0.28458022871E+03  0.32588887934E+03  0.12699999809E+01 0.  1.
       -4    1    3    3    0  502 -0.22795042440E+02 -0.15715097277E+03  0.92121832922E+03  0.93480525523E+03  0.12699999809E+01 0. -1.
</event>
<event>
 5   0  0.5712664E-03  0.1134369E+04  0.7818609E-02  0.9172326E-01
        1   -1    0    0  501    0  0.00000000000E+00  0.00000000000E+00  0.55198111017E+03  0.55198111019E+03  0.50400001928E-02 0. -1.
       -1   -1    0    0    0  501  0.00000000000E+00  0.00000000000E+00 -0.58280641839E+03  0.58280641842E+03  0.50400001928E-02 0.  1.
    10030    2    1    2    0    0  0.00000000000E+00  0.00000000000E+00 -0.30825308222E+02  0.11347875286E+04  0.11343687828E+04 0.  0.
        5    1    3    3  502    0 -0.12470459889E+03  0.40158149207E+03  0.36532883063E+03  0.55705132281E+03  0.46999998093E+01 0. -1.
       -5    1    3    3    0  502  0.12470459889E+03 -0.40158149207E+03 -0.39615413885E+03  0.57773620580E+03  0.46999998093E+01 0.  1.
</event>
<event>
 5   0  0.1019384E-02  0.1075017E+04  0.7818609E-02  0.9229890E-01
        2   -1    0    0  501    0  0.00000000000E+00  0.00000000000E+00  0.95188541909E+03  0.95188541910E+03  0.25500000920E-02 0.  1.
       -2   -1    0    0    0  501  0.00000000000E+00  0.00000000000E+00 -0.30351928130E+03  0.30351928131E+03  0.25500000920E-02 0. -1.
    10030    2    1    2    0    0  0.00000000000E+00  0.00000000000E+00  0.64836613779E+03  0.12554047004E+04  0.10750173548E+04 0.  0.
        1    1    3    3  502    0  0.45427734364E+03 -0.18640628425E+03  0.68863615252E+02  0.49584010052E+03  0.50400001928E-02 0.  1.
       -1    1    3    3    0  502 -0.45427734364E+03  0.18640628425E+03  0.57950252254E+03  0.75956459989E+03  0.50400001928E-02 0. -1.
</event>
<event>
 5   0  0.5789905E-03  0.7978536E+03  0.7818609E-02  0.9563129E-01
       -1   -1    0    0    0  501  0.00000000000E+00  0.00000000000E+00  0.45081885552E+03  0.45081885555E+03  0.50400001928E-02 0. -1.
        1   -1    0    0  501    0  0.00000000000E+00  0.00000000000E+00 -0.35300783731E+03  0.35300783735E+03  0.50400001928E-02 0.  1.
    10030    2    1    2    0    0  0.00000000000E+00  0.00000000000E+00  0.97811018209E+02  0.80382669290E+03  0.79785359367E+03 0.  0.
        1    1    3    3  502    0  0.85603919795E+02 -0.82978811677E+01  0.44136733470E+03  0.44966877820E+03  0.50400001928E-02 0. -1.
       -1    1    3    3    0  502 -0.85603919795E+02  0.82978811677E+01 -0.34355631650E+03  0.35415791470E+03  0.50400001928E-02 0.  1.
</event>
<event>
 5   0  0.9925021E-03  0.1100094E+04  0.7818609E-02  0.9205101E-01
       -2   -1    0    0    0  501  0.00000000000E+00  0.00000000000E+00  0.21772118524E+03  0.21772118525E+03  0.25500000920E-02 0.  1.
        2   -1    0    0  501    0  0.00000000000E+00  0.00000000000E+00 -0.13896282585E+04  0.13896282585E+04  0.25500000920E-02 0. -1.
    10030    2    1    2    0    0  0.00000000000E+00  0.00000000000E+00 -0.11719070733E+04  0.16073494438E+04  0.11000936533E+04 0.  0.
        4    1    3    3  502    0 -0.96061794214E+01  0.16406322048E+03  0.18100814283E+03  0.24448840395E+03  0.12699999809E+01 0.  1.
       -4    1    3    3    0  502  0.96061794214E+01 -0.16406322048E+03 -0.13529152161E+04  0.13628610398E+04  0.12699999809E+01 0. -1.
</event>
<event>
 5   0  0.9925021E-03  0.1099733E+04  0.7818609E-02  0.9205453E-01
        2   -1    0    0  501    0  0.00000000000E+00  0.00000000000E+00  0.78762241108E+03  0.78762241108E+03  0.25500000920E-02 0. -1.
       -2   -1    0    0    0  501  0.00000000000E+00  0.00000000000E+00 -0.38388052546E+03  0.38388052547E+03  0.25500000920E-02 0.  1.
    10030    2    1    2    0    0  0.00000000000E+00  0.00000000000E+00  0.40374188562E+03  0.11715029365E+04  0.10997325221E+04 0.  0.
        4    1    3    3  502    0  0.51651834262E+03  0.42071226537E+02  0.60536290216E+01  0.51826580602E+03  0.12699999809E+01 0.  1.
       -4    1    3    3    0  502 -0.51651834262E+03 -0.42071226537E+02  0.39768825660E+03  0.65323713053E+03  0.12699999809E+01 0. -1.
</event>
<event>
 5   0  0.5712664E-03  0.1073611E+04  0.7818609E-02  0.9231301E-01
        1   -1    0    0  501    0  0.00000000000E+00  0.00000000000E+00  0.17954092248E+04  0.17954092248E+04  0.50400001928E-02 0.  1.
       -1   -1    0    0    0  501  0.00000000000E+00  0.00000000000E+00 -0.16049823435E+03  0.16049823443E+03  0.50400001928E-02 0. -1.
    10030    2    1    2    0    0  0.00000000000E+00  0.00000000000E+00  0.16349109905E+04  0.19559074593E+04  0.10736107500E+04 0.  0.
        5    1    3    3  502    0 -0.31614816021E+03 -0.20971899119E+03  0.12563499466E+03  0.39967231122E+03  0.46999998093E+01 0. -1.
       -5    1    3    3    0  502  0.31614816021E+03  0.20971899119E+03  0.15092759958E+04  0.15562351481E+04  0.46999998093E+01 0.  1.
</event>
<event>
 5   0  0.9925021E-03  0.1184483E+04  0.7818609E-02  0.9126548E-01
       -2   -1    0    0    0  501  0.00000000000E+00  0.00000000000E+00  0.36923523618E+03  0.36923523619E+03  0.25500000920E-02 0. -1.
        2   -1    0    0  501    0  0.00000000000E+00  0.00000000000E+00 -0.94993615379E+03  0.94993615379E+03  0.25500000920E-02 0.  1.
    10030    2    1    2    0    0  0.00000000000E+00  0.00000000000E+00 -0.58070091760E+03  0.13191713900E+04  0.11844828409E+04 0.  0.
        4    1    3    3  502    0  0.31301895421E+03  0.49874652086E+03 -0.21974321600E+03  0.62850429723E+03  0.12699999809E+01 0. -1.
       -4    1    3    3    0  502 -0.31301895421E+03 -0.49874652086E+03 -0.36095770160E+03  0.69066709275E+03  0.12699999809E+01 0.  1.
</event>
<event>
 5   0  0.1019384E-02  0.1138490E+04  0.7818609E-02  0.9168468E-01
        2   -1    0    0  501    0  0.00000000000E+00  0.00000000000E+00  0.34541869313E+03  0.34541869314E+03  0.25500000920E-02 0. -1.
       -2   -1    0    0    0  501  0.00000000000E+00  0.00000000000E+00 -0.93810744129E+03  0.93810744130E+03  0.25500000920E-02 0.  1.
    10030    2    1    2    0    0  0.00000000000E+00  0.00000000000E+00 -0.59268874816E+03  0.12835261344E+04  0.11384899585E+04 0.  0.
        1    1    3    3  502    0 -0.28408840295E+03  0.17986317111E+03 -0.81418855999E+03  0.88088591330E+03  0.50400001928E-02 0.  1.
       -1    1    3    3    0  502  0.28408840295E+03 -0.17986317111E+03  0.22149981183E+03  0.40264022114E+03  0.50400001928E-02 0. -1.
</event>
<event>
 5   0  0.5854579E-03  0.1098552E+04  0.7818609E-02  0.9206604E-01
       -1   -1    0    0    0  501  0.00000000000E+00  0.00000000000E+00  0.81932190691E+03  0.81932190693E+03  0.50400001928E-02 0.  1.
        1   -1    0    0  501    0  0.00000000000E+00  0.00000000000E+00 -0.36823646089E+03  0.36823646093E+03  0.50400001928E-02 0. -1.
    10030    2    1    2    0    0  0.00000000000E+00  0.00000000000E+00  0.45108544602E+03  0.11875583679E+04  0.10985521369E+04 0.  0.
        4    1    3    3  502    0 -0.24196388116E+03  0.17392033461E+03  0.72434687599E+03  0.78324632922E+03  0.12699999809E+01 0.  1.
       -4    1    3    3    0  502  0.24196388116E+03 -0.17392033461E+03 -0.27326142997E+03  0.40431203864E+03  0.12699999809E+01 0. -1.
</event>
<event>
 5   0  0.5712664E-03  0.1135116E+04  0.7818609E-02  0.9171626E-01
        1   -1    0    0  501    0  0.00000000000E+00  0.00000000000E+00  0.21199580714E+04  0.21199580714E+04  0.50400001928E-02 0.  1.
       -1   -1    0    0    0  501  0.00000000000E+00  0.00000000000E+00 -0.15194734715E+03  0.15194734724E+03  0.50400001928E-02 0. -1.
    10030    2    1    2    0    0  0.00000000000E+00  0.00000000000E+00  0.19680107242E+04  0.22719054186E+04  0.11351158621E+04 0.  0.
        5    1    3    3  502    0 -0.26061376017E+03 -0.18886364161E+03  0.19195976121E+04  0.19463982351E+04  0.46999998093E+01 0.  1.
       -5    1    3    3    0  502  0.26061376017E+03  0.18886364161E+03  0.48413112108E+02  0.32550718353E+03  0.46999998093E+01 0. -1.
</event>
<event>
 5   0  0.5998641E-03  0.1255915E+04  0.7818609E-02  0.9065275E-01
       -1   -1    0    0    0  501  0.00000000000E+00  0.00000000000E+00  0.51790990980E+03  0.51790990983E+03  0.50400001928E-02 0.  1.
        1   -1    0    0  501    0  0.00000000000E+00  0.00000000000E+00 -0.76138824472E+03  0.76138824474E+03  0.50400001928E-02 0. -1.
    10030    2    1    2    0    0  0.00000000000E+00  0.00000000000E+00 -0.24347833492E+03  0.12792981546E+04  0.12559148334E+04 0.  0.
        3    1    3    3  502    0 -0.11565410548E+03 -0.61201776248E+03 -0.40320423182E+02  0.62415331485E+03  0.10100000352E+00 0.  1.
       -3    1    3    3    0  502  0.11565410548E+03  0.61201776248E+03 -0.20315791174E+03  0.65514483972E+03  0.10100000352E+00 0. -1.
</event>
<event>
 5   0  0.9925021E-03  0.1039239E+04  0.7818609E-02  0.9266525E-01
       -2   -1    0    0    0  501  0.00000000000E+00  0.00000000000E+00  0.24168923061E+03  0.24168923062E+03  0.25500000920E-02 0. -1.
        2   -1    0    0  501    0  0.00000000000E+00  0.00000000000E+00 -0.11171562351E+04  0.11171562351E+04  0.25500000920E-02 0.  1.
    10030    2    1    2    0    0  0.00000000000E+00  0.00000000000E+00 -0.87546700451E+03  0.13588454657E+04  0.10392393968E+04 0.  0.
        4    1    3    3  502    0  0.20353253384E+01 -0.70409030868E+02  0.23541574083E+03  0.24573106867E+03  0.12699999809E+01 0. -1.
       -4    1    3    3    0  502 -0.20353253384E+01  0.70409030868E+02 -0.11108827453E+04  0.11131143971E+04  0.12699999809E+01 0.  1.
</event>
<event>
 5   0  0.1019384E-02  0.1108378E+04  0.7818609E-02  0.9197065E-01
        2   -1    0    0  501    0  0.00000000000E+00  0.00000000000E+00  0.70295998138E+03  0.70295998138E+03  0.25500000920E-02 0. -1.
       -2   -1    0    0    0  501  0.00000000000E+00  0.00000000000E+00 -0.43690282280E+03  0.43690282281E+03  0.25500000920E-02 0.  1.
    10030    2    1    2    0    0  0.00000000000E+00  0.00000000000E+00  0.26605715858E+03  0.11398628042E+04  0.11083775533E+04 0.  0.
        1    1    3    3  502    0 -0.61206894532E+02 -0.23005230431E+03  0.64769944695E+03  0.69006153368E+03  0.50400001928E-02 0. -1.
       -1    1    3    3    0  502  0.61206894532E+02  0.23005230431E+03 -0.38164228837E+03  0.44980127051E+03  0.50400001928E-02 0.  1.
</event>
<event>
 5   0  0.1028016E-02  0.1040753E+04  0.7818609E-02  0.9264943E-01
        2   -1    0    0  501    0  0.00000000000E+00  0.00000000000E+00  0.20846536728E+03  0.20846536730E+03  0.25500000920E-02 0.  1.
       -2   -1    0    0    0  501  0.00000000000E+00  0.00000000000E+00 -0.12989771248E+04  0.12989771248E+04  0.25500000920E-02 0. -1.
    10030    2    1    2    0    0  0.00000000000E+00  0.00000000000E+00 -0.10905117575E+04  0.15074424921E+04  0.10407530801E+04 0.  0.
        2    1    3    3  502    0 -0.26710703659E+02 -0.18272445797E+03  0.15940969193E+03  0.24395314943E+03  0.25500000920E-02 0.  1.
       -2    1    3    3    0  502  0.26710703659E+02  0.18272445797E+03 -0.12499214495E+04  0.12634893427E+04  0.25500000920E-02 0. -1.
</event>
<event>
 5   0  0.9692981E-03  0.1140503E+04  0.7818609E-02  0.9166590E-01
       -2   -1    0    0    0  501  0.00000000000E+00  0.00000000000E+00  0.64530843175E+03  0.64530843175E+03  0.25500000920E-02 0. -1.
        2   -1    0    0  501    0  0.00000000000E+00  0.00000000000E+00 -0.50392433866E+03  0.50392433867E+03  0.25500000920E-02 0.  1.
    10030    2    1    2    0    0  0.00000000000E+00  0.00000000000E+00  0.14138409309E+03  0.11492327704E+04  0.11405027395E+04 0.  0.
        5    1    3    3  502    0  0.12457136529E+03 -0.45302770965E+03  0.39629453551E+03  0.61467355534E+03  0.46999998093E+01 0. -1.
       -5    1    3    3    0  502 -0.12457136529E+03  0.45302770965E+03 -0.25491044243E+03  0.53455921507E+03  0.46999998093E+01 0.  1.
</event>
<event>
 5   0  0.1028016E-02  0.1105179E+04  0.7818609E-02  0.9200159E-01
        2   -1    0    0  501    0  0.00000000000E+00  0.00000000000E+00  0.10710008457E+04  0.10710008457E+04  0.25500000920E-02 0. -1.
       -2   -1    0    0    0  501  0.00000000000E+00  0.00000000000E+00 -0.28511186575E+03  0.28511186576E+03  0.25500000920E-02 0.  1.
    10030    2    1    2    0    0  0.00000000000E+00  0.00000000000E+00  0.78588897997E+03  0.13561127115E+04  0.11051788079E+04 0.  0.
        2    1    3    3  502    0  0.28421779180E+03 -0.46651507696E+03  0.29073033820E+03  0.61882162192E+03  0.25500000920E-02 0.  1.
       -2    1    3    3    0  502 -0.28421779180E+03  0.46651507696E+03  0.49515864178E+03  0.73729108956E+03  0.25500000920E-02 0. -1.
</event>
<event>
 5   0  0.5998641E-03  0.9533290E+03  0.7818609E-02  0.9361268E-01
       -1   -1    0    0    0  501  0.00000000000E+00  0.00000000000E+00  0.39049782547E+03  0.39049782551E+03  0.50400001928E-02 0. -1.
        1   -1    0    0  501    0  0.00000000000E+00  0.00000000000E+00 -0.58184460584E+03  0.58184460586E+03  0.50400001928E-02 0.  1.
    10030    2    1    2    0    0  0.00000000000E+00  0.00000000000E+00 -0.19134678037E+03  0.97234243137E+03  0.95332901638E+03 0.  0.
        3    1    3    3  502    0 -0.14278400771E+03 -0.36946522993E+03  0.17478923215E+03  0.43294701161E+03  0.10100000352E+00 0. -1.
       -3    1    3    3    0  502  0.14278400771E+03  0.36946522993E+03 -0.36613601252E+03  0.53939541975E+03  0.10100000352E+00 0.  1.
</event>
<event>
 5   0  0.1019384E-02  0.5562586E+03  0.7818609E-02  0.1000056E+00
       -2   -1    0    0    0  501  0.00000000000E+00  0.00000000000E+00  0.61707041290E+02  0.61707041343E+02  0.25500000920E-02 0. -1.
        2   -1    0    0  501    0  0.00000000000E+00  0.00000000000E+00 -0.12535993287E+04  0.12535993287E+04  0.25500000920E-02 0.  1.
    10030    2    1    2    0    0  0.00000000000E+00  0.00000000000E+00 -0.11918922874E+04  0.13153063700E+04  0.55625859300E+03 0.  0.
        1    1    3    3  502    0  0.20174129262E+03  0.16449045718E+03 -0.36427670369E+03  0.44772109234E+03  0.50400001928E-02 0.  1.
       -1    1    3    3    0  502 -0.20174129262E+03 -0.16449045718E+03 -0.82761558368E+03  0.86758527767E+03  0.50400001928E-02 0. -1.
</event>
<event>
 5   0  0.5958706E-03  0.1183446E+04  0.7818609E-02  0.9127470E-01
       -1   -1    0    0    0  501  0.00000000000E+00  0.00000000000E+00  0.58443975683E+03  0.58443975685E+03  0.50400001928E-02 0. -1.
        1   -1    0    0  501    0  0.00000000000E+00  0.00000000000E+00 -0.59909742928E+03  0.59909742930E+03  0.50400001928E-02 0.  1.
    10030    2    1    2    0    0  0.00000000000E+00  0.00000000000E+00 -0.14657672447E+02  0.11835371861E+04  0.11834464177E+04 0.  0.
        2    1    3    3  502    0  0.43273244093E+03 -0.19212430121E+03 -0.36227470120E+03  0.59616446697E+03  0.25500000920E-02 0.  1.
       -2    1    3    3    0  502 -0.43273244093E+03  0.19212430121E+03  0.34761702875E+03  0.58737271917E+03  0.25500000920E-02 0. -1.
</event>
<event>
 5   0  0.5854579E-03  0.1150564E+04  0.7818609E-02  0.9157263E-01
        1   -1    0    0  501    0  0.00000000000E+00  0.00000000000E+00  0.13884007571E+04  0.13884007571E+04  0.50400001928E-02 0.  1.
       -1   -1    0    0    0  501  0.00000000000E+00  0.00000000000E+00 -0.23836747164E+03  0.23836747169E+03  0.50400001928E-02 0. -1.
    10030    2    1    2    0    0  0.00000000000E+00  0.00000000000E+00  0.11500332855E+04  0.16267682288E+04  0.11505643453E+04 0.  0.
        4    1    3    3  502    0  0.45198902503E+02  0.79186906353E+02  0.13781176028E+04  0.13811311477E+04  0.12699999809E+01 0.  1.
       -4    1    3    3    0  502 -0.45198902503E+02 -0.79186906353E+02 -0.22808431734E+03  0.24563708116E+03  0.12699999809E+01 0. -1.
</event>
<event>
 5   0  0.9719260E-03  0.1064690E+04  0.7818609E-02  0.9240307E-01
       -2   -1    0    0    0  501  0.00000000000E+00  0.00000000000E+00  0.19010672551E+03  0.19010672552E+03  0.25500000920E-02 0.  1.
        2   -1    0    0  501    0  0.00000000000E+00  0.00000000000E+00 -0.14906960711E+04  0.14906960711E+04  0.25500000920E-02 0. -1.
    10030    2    1    2    0    0  0.00000000000E+00  0.00000000000E+00 -0.13005893456E+04  0.16808027966E+04  0.10646902814E+04 0.  0.
        3    1    3    3  502    0  0.27210190910E+03 -0.17285321507E+03  0.18501573279E+02  0.32289317321E+03  0.10100000352E+00 0.  1.
       -3    1    3    3    0  502 -0.27210190910E+03  0.17285321507E+03 -0.13190909189E+04  0.13579096234E+04  0.10100000352E+00 0. -1.
</event>
<event>
 5   0  0.9692981E-03  0.1036079E+04  0.7818609E-02  0.9269835E-01
       -2   -1    0    0    0  501  0.00000000000E+00  0.00000000000E+00  0.18830678376E+03  0.18830678378E+03  0.25500000920E-02 0. -1.
        2   -1    0    0  501    0  0.00000000000E+00  0.00000000000E+00 -0.14251486104E+04  0.14251486104E+04  0.25500000920E-02 0.  1.
    10030    2    1    2    0    0  0.00000000000E+00  0.00000000000E+00 -0.12368418267E+04  0.16134553942E+04  0.10360794395E+04 0.  0.
        5    1    3    3  502    0 -0.47555494646E+03 -0.83828171698E+02 -0.91043868828E+03  0.10305825365E+04  0.46999998093E+01 0. -1.
       -5    1    3    3    0  502  0.47555494646E+03  0.83828171698E+02 -0.32640313839E+03  0.58287285768E+03  0.46999998093E+01 0.  1.
</event>
<event>
 5   0  0.3949750E-03  0.5856789E+03  0.7818609E-02  0.9935571E-01
       -3   -1    0    0    0  501  0.00000000000E+00  0.00000000000E+00  0.16533809127E+03  0.16533812212E+03  0.10100000352E+00 0. -1.
        3   -1    0    0  501    0  0.00000000000E+00  0.00000000000E+00 -0.51866411898E+03  0.51866412882E+03  0.10100000352E+00 0.  1.
    10030    2    1    2    0    0  0.00000000000E+00  0.00000000000E+00 -0.35332602772E+03  0.68400225093E+03  0.58567892008E+03 0.  0.
        4    1    3    3  502    0  0.52350223624E+02 -0.16283454406E+03  0.10093306604E+03  0.19860697715E+03  0.12699999809E+01 0. -1.
       -4    1    3    3    0  502 -0.52350223624E+02  0.16283454406E+03 -0.45425909376E+03  0.48539527378E+03  0.12699999809E+01 0.  1.
</event>
<event>
 5   0  0.5712664E-03  0.1103369E+04  0.7818609E-02  0.9201914E-01
       -1   -1    0    0    0  501  0.00000000000E+00  0.00000000000E+00  0.56628715849E+03  0.56628715851E+03  0.50400001928E-02 0.  1.
        1   -1    0    0  501    0  0.00000000000E+00  0.00000000000E+00 -0.53745838106E+03  0.53745838109E+03  0.50400001928E-02 0. -1.
    10030    2    1    2    0    0  0.00000000000E+00  0.00000000000E+00  0.28828777428E+02  0.11037455396E+04  0.11033689853E+04 0.  0.
        5    1    3    3  502    0 -0.36016176982E+03  0.28134996344E+03 -0.29465607954E+03  0.54380014489E+03  0.46999998093E+01 0. -1.
       -5    1    3    3    0  502  0.36016176982E+03 -0.28134996344E+03  0.32348485697E+03  0.55994539471E+03  0.46999998093E+01 0.  1.
</event>
<event>
 5   0  0.9692981E-03  0.1101290E+04  0.7818609E-02  0.9203935E-01
        2   -1    0    0  501    0  0.00000000000E+00  0.00000000000E+00  0.32007039867E+03  0.32007039868E+03  0.25500000920E-02 0. -1.
       -2   -1    0    0    0  501  0.00000000000E+00  0.00000000000E+00 -0.94732305826E+03  0.94732305827E+03  0.25500000920E-02 0.  1.
    10030    2    1    2    0    0  0.00000000000E+00  0.00000000000E+00 -0.62725265959E+03  0.12673934569E+04  0.11012902777E+04 0.  0.
        5    1    3    3  502    0  0.36073529456E+03  0.36760521711E+03 -0.89512225207E+02  0.52277918555E+03  0.46999998093E+01 0.  1.
       -5    1    3    3    0  502 -0.36073529456E+03 -0.36760521711E+03 -0.53774043438E+03  0.74461427139E+03  0.46999998093E+01 0. -1.
</event>
<event>
 5   0  0.1019384E-02  0.1112746E+04  0.7818609E-02  0.9192857E-01
       -2   -1    0    0    0  501  0.00000000000E+00  0.00000000000E+00  0.19187040569E+04  0.19187040569E+04  0.25500000920E-02 0. -1.
        2   -1    0    0  501    0  0.00000000000E+00  0.00000000000E+00 -0.16133337322E+03  0.16133337324E+03  0.25500000920E-02 0.  1.
    10030    2    1    2    0    0  0.00000000000E+00  0.00000000000E+00  0.17573706837E+04  0.20800374302E+04  0.11127461485E+04 0.  0.
        1    1    3    3  502    0  0.40085113696E+03  0.36424280927E+03  0.64078987359E+03  0.83902688885E+03  0.50400001928E-02 0. -1.
       -1    1    3    3    0  502 -0.40085113696E+03 -0.36424280927E+03  0.11165808101E+04  0.12410105413E+04  0.50400001928E-02 0.  1.
</event>
<event>
 5   0  0.5854579E-03  0.1082092E+04  0.7818609E-02  0.9222824E-01
        1   -1    0    0  501    0  0.00000000000E+00  0.00000000000E+00  0.25203455343E+03  0.25203455348E+03  0.50400001928E-02 0.  1.
       -1   -1    0    0    0  501  0.00000000000E+00  0.00000000000E+00 -0.11614716918E+04  0.11614716918E+04  0.50400001928E-02 0. -1.
    10030    2    1    2    0    0  0.00000000000E+00  0.00000000000E+00 -0.90943713832E+03  0.14135062453E+04  0.10820924160E+04 0.  0.
        4    1    3    3  502    0  0.51034282676E+03  0.15882071087E+03 -0.56444199202E+03  0.77734818085E+03  0.12699999809E+01 0.  1.
       -4    1    3    3    0  502 -0.51034282676E+03 -0.15882071087E+03 -0.34499514631E+03  0.63615806440E+03  0.12699999809E+01 0. -1.
</event>
<event>
 5   0  0.3949750E-03  0.1100778E+04  0.7818609E-02  0.9204434E-01
        3   -1    0    0  501    0  0.00000000000E+00  0.00000000000E+00  0.21035045847E+03  0.21035048272E+03  0.10100000352E+00 0. -1.
       -3   -1    0    0    0  501  0.00000000000E+00  0.00000000000E+00 -0.14401113723E+04  0.14401113759E+04  0.10100000352E+00 0.  1.
    10030    2    1    2    0    0  0.00000000000E+00  0.00000000000E+00 -0.12297609138E+04  0.16504618586E+04  0.11007781073E+04 0.  0.
        5    1    3    3  502    0  0.10692198362E+03 -0.22811058233E+03  0.11879400225E+03  0.27856929716E+03  0.46999998093E+01 0. -1.
       -5    1    3    3    0  502 -0.10692198362E+03  0.22811058233E+03 -0.13485549161E+04  0.13718925614E+04  0.46999998093E+01 0.  1.
</event>
<event>
 5   0  0.5712664E-03  0.1102415E+04  0.7818609E-02  0.9202841E-01
       -1   -1    0    0    0  501  0.00000000000E+00  0.00000000000E+00  0.10151931345E+04  0.10151931345E+04  0.50400001928E-02 0. -1.
        1   -1    0    0  501    0  0.00000000000E+00  0.00000000000E+00 -0.29928290510E+03  0.29928290514E+03  0.50400001928E-02 0.  1.
    10030    2    1    2    0    0  0.00000000000E+00  0.00000000000E+00  0.71591022936E+03  0.13144760396E+04  0.11024154399E+04 0.  0.
        5    1    3    3  502    0  0.37875605095E+03  0.11804677387E+03  0.81420488100E+03  0.90572780966E+03  0.46999998093E+01 0. -1.
       -5    1    3    3    0  502 -0.37875605095E+03 -0.11804677387E+03 -0.98294651635E+02  0.40874822995E+03  0.46999998093E+01 0.  1.
</event>
<event>
 5   0  0.9692981E-03  0.1101072E+04  0.7818609E-02  0.9204148E-01
        2   -1    0    0  501    0  0.00000000000E+00  0.00000000000E+00  0.10454654008E+04  0.10454654008E+04  0.25500000920E-02 0. -1.
       -2   -1    0    0    0  501  0.00000000000E+00  0.00000000000E+00 -0.28990895850E+03  0.28990895851E+03  0.25500000920E-02 0.  1.
    10030    2    1    2    0    0  0.00000000000E+00  0.00000000000E+00  0.75555644234E+03  0.13353743594E+04  0.11010718151E+04 0.  0.
        5    1    3    3  502    0 -0.44378079194E+03 -0.13557714528E+03  0.73703000025E+03  0.87095227475E+03  0.46999998093E+01 0. -1.
       -5    1    3    3    0  502  0.44378079194E+03  0.13557714528E+03  0.18526442083E+02  0.46442208461E+03  0.46999998093E+01 0.  1.
</event>
<event>
 5   0  0.1028016E-02  0.1095375E+04  0.7818609E-02  0.9209712E-01
        2   -1    0    0  501    0  0.00000000000E+00  0.00000000000E+00  0.10832102862E+04  0.10832102862E+04  0.25500000920E-02 0. -1.
       -2   -1    0    0    0  501  0.00000000000E+00  0.00000000000E+00 -0.27691903975E+03  0.27691903977E+03  0.25500000920E-02 0.  1.
    10030    2    1    2    0    0  0.00000000000E+00  0.00000000000E+00  0.80629124641E+03  0.13601293259E+04  0.10953749172E+04 0.  0.
        2    1    3    3  502    0  0.13563330398E+03  0.37536152101E+03 -0.62565316119E+02  0.40398896445E+03  0.25500000920E-02 0.  1.
       -2    1    3    3    0  502 -0.13563330398E+03 -0.37536152101E+03  0.86885656253E+03  0.95614036149E+03  0.25500000920E-02 0. -1.
</event>
<event>
 5   0  0.9719260E-03  0.1129949E+04  0.7818609E-02  0.9176483E-01
        2   -1    0    0  501    0  0.00000000000E+00  0.00000000000E+00  0.40945950969E+03  0.40945950970E+03  0.25500000920E-02 0. -1.
       -2   -1    0    0    0  501  0.00000000000E+00  0.00000000000E+00 -0.77955499952E+03  0.77955499953E+03  0.25500000920E-02 0.  1.
    10030    2    1    2    0    0  0.00000000000E+00  0.00000000000E+00 -0.37009548983E+03  0.11890145092E+04  0.11299490394E+04 0.  0.
        3    1    3    3  502    0  0.30641870634E+03  0.19897156108E+03  0.26842451635E+03  0.45335839784E+03  0.10100000352E+00 0. -1.
       -3    1    3    3    0  502 -0.30641870634E+03 -0.19897156108E+03 -0.63852000618E+03  0.73565611138E+03  0.10100000352E+00 0.  1.
</event>
<event>
 5   0  0.5789905E-03  0.1073570E+04  0.7818609E-02  0.9231342E-01
       -1   -1    0    0    0  501  0.00000000000E+00  0.00000000000E+00  0.58168610142E+03  0.58168610144E+03  0.50400001928E-02 0.  1.
        1   -1    0    0  501    0  0.00000000000E+00  0.00000000000E+00 -0.49535014548E+03  0.49535014550E+03  0.50400001928E-02 0. -1.
    10030    2    1    2    0    0  0.00000000000E+00  0.00000000000E+00  0.86335955940E+02  0.10770362469E+04  0.10735702958E+04 0.  0.
        1    1    3    3  502    0  0.51946750641E+03 -0.96209580649E+02 -0.52194261356E+02  0.53087382170E+03  0.50400001928E-02 0. -1.
       -1    1    3    3    0  502 -0.51946750641E+03  0.96209580649E+02  0.13853021730E+03  0.54616242525E+03  0.50400001928E-02 0.  1.
</event>
<event>
 5   0  0.9719260E-03  0.1080082E+04  0.7818609E-02  0.9224826E-01
       -2   -1    0    0    0  501  0.00000000000E+00  0.00000000000E+00  0.20431289498E+03  0.20431289500E+03  0.25500000920E-02 0. -1.
        2   -1    0    0  501    0  0.00000000000E+00  0.00000000000E+00 -0.14274396963E+04  0.14274396963E+04  0.25500000920E-02 0.  1.
    10030    2    1    2    0    0  0.00000000000E+00  0.00000000000E+00 -0.12231268013E+04  0.16317525913E+04  0.10800821020E+04 0.  0.
        3    1    3    3  502    0  0.11004056225E+03  0.38124031886E+03 -0.58137356592E+02  0.40103998367E+03  0.10100000352E+00 0. -1.
       -3    1    3    3    0  502 -0.11004056225E+03 -0.38124031886E+03 -0.11649894447E+04  0.12307126076E+04  0.10100000352E+00 0.  1.
</event>
<event>
 5   0  0.9692981E-03  0.1138156E+04  0.7818609E-02  0.9168780E-01
        2   -1    0    0  501    0  0.00000000000E+00  0.00000000000E+00  0.15522696425E+04  0.15522696425E+04  0.25500000920E-02 0. -1.
       -2   -1    0    0    0  501  0.00000000000E+00  0.00000000000E+00 -0.20862978073E+03  0.20862978075E+03  0.25500000920E-02 0.  1.
    10030    2    1    2    0    0  0.00000000000E+00  0.00000000000E+00  0.13436398618E+04  0.17608994233E+04  0.11381558332E+04 0.  0.
        5    1    3    3  502    0  0.17335817162E+03  0.64978416829E+02  0.15043431567E+04  0.15156997306E+04  0.46999998093E+01 0. -1.
       -5    1    3    3    0  502 -0.17335817162E+03 -0.64978416829E+02 -0.16070329486E+03  0.24519969269E+03  0.46999998093E+01 0.  1.
</event>
<event>
 5   0  0.5854579E-03  0.8514026E+03  0.7818609E-02  0.9488456E-01
        1   -1    0    0  501    0  0.00000000000E+00  0.00000000000E+00  0.18563489838E+03  0.18563489845E+03  0.50400001928E-02 0. -1.
       -1   -1    0    0    0  501  0.00000000000E+00  0.00000000000E+00 -0.97622579941E+03  0.97622579943E+03  0.50400001928E-02 0.  1.
    10030    2    1    2    0    0  0.00000000000E+00  0.00000000000E+00 -0.79059090103E+03  0.11618606979E+04  0.85140255372E+03 0.  0.
        4    1    3    3  502    0 -0.35252811384E+03  0.22939111559E+03 -0.30556448687E+03  0.51987269932E+03  0.12699999809E+01 0. -1.
       -4    1    3    3    0  502  0.35252811384E+03 -0.22939111559E+03 -0.48502641416E+03  0.64198799856E+03  0.12699999809E+01 0.  1.
</event>
<event>
 5   0  0.5958706E-03  0.1123717E+04  0.7818609E-02  0.9182379E-01
       -1   -1    0    0    0  501  0.00000000000E+00  0.00000000000E+00  0.75319101632E+03  0.75319101634E+03  0.50400001928E-02 0. -1.
        1   -1    0    0  501    0  0.00000000000E+00  0.00000000000E+00 -0.41913009131E+03  0.41913009134E+03  0.50400001928E-02 0.  1.
    10030    2    1    2    0    0  0.00000000000E+00  0.00000000000E+00  0.33406092502E+03  0.11723211077E+04  0.11237170809E+04 0.  0.
        2    1    3    3  502    0 -0.22942767657E+03  0.15945315339E+03  0.67558030248E+03  0.73107531213E+03  0.25500000920E-02 0. -1.
       -2    1    3    3    0  502  0.22942767657E+03 -0.15945315339E+03 -0.34151937746E+03  0.44124579555E+03  0.25500000920E-02 0.  1.
</event>
<event>
 5   0  0.9925021E-03  0.1080361E+04  0.7818609E-02  0.9224548E-01
        2   -1    0    0  501    0  0.00000000000E+00  0.00000000000E+00  0.50464859683E+03  0.50464859684E+03  0.25500000920E-02 0. -1.
       -2   -1    0    0    0  501  0.00000000000E+00  0.00000000000E+00 -0.57821371660E+03  0.57821371661E+03  0.25500000920E-02 0.  1.
    10030    2    1    2    0    0  0.00000000000E+00  0.00000000000E+00 -0.73565119765E+02  0.10828623134E+04  0.10803605708E+04 0.  0.
        4    1    3    3  502    0 -0.24328921719E+02  0.12311443056E+02 -0.57752201823E+03  0.57816672552E+03  0.12699999809E+01 0.  1.
       -4    1    3    3    0  502  0.24328921719E+02 -0.12311443056E+02  0.50395689846E+03  0.50469558792E+03  0.12699999809E+01 0. -1.
</event>
<event>
 5   0  0.9925021E-03  0.1094279E+04  0.7818609E-02  0.9210786E-01
       -2   -1    0    0    0  501  0.00000000000E+00  0.00000000000E+00  0.75103052911E+03  0.75103052911E+03  0.25500000920E-02 0.  1.
        2   -1    0    0  501    0  0.00000000000E+00  0.00000000000E+00 -0.39860082909E+03  0.39860082910E+03  0.25500000920E-02 0. -1.
    10030    2    1    2    0    0  0.00000000000E+00  0.00000000000E+00  0.35242970002E+03  0.11496313582E+04  0.10942785597E+04 0.  0.
        4    1    3    3  502    0  0.29771360297E+03  0.29655514980E+03  0.54434133085E+03  0.68766812027E+03  0.12699999809E+01 0.  1.
       -4    1    3    3    0  502 -0.29771360297E+03 -0.29655514980E+03 -0.19191163083E+03  0.46196323794E+03  0.12699999809E+01 0. -1.
</event>
<event>
 5   0  0.1028016E-02  0.1113200E+04  0.7818609E-02  0.9192421E-01
       -2   -1    0    0    0  501  0.00000000000E+00  0.00000000000E+00  0.11302902477E+04  0.11302902477E+04  0.25500000920E-02 0. -1.
        2   -1    0    0  501    0  0.00000000000E+00  0.00000000000E+00 -0.27409203644E+03  0.27409203645E+03  0.25500000920E-02 0.  1.
    10030    2    1    2    0    0  0.00000000000E+00  0.00000000000E+00  0.85619821124E+03  0.14043822841E+04  0.11131999924E+04 0.  0.
        2    1    3    3  502    0 -0.26997019087E+03 -0.27837046958E+03 -0.75629408477E+02  0.39508711663E+03  0.25500000920E-02 0.  1.
       -2    1    3    3    0  502  0.26997019087E+03  0.27837046958E+03  0.93182761972E+03  0.10092951675E+04  0.25500000920E-02 0. -1.
</event>
<event>
 5   0  0.1019384E-02  0.1093030E+04  0.7818609E-02  0.9212012E-01
       -2   -1    0    0    0  501  0.00000000000E+00  0.00000000000E+00  0.29334006948E+03  0.29334006949E+03  0.25500000920E-02 0.  1.
        2   -1    0    0  501    0  0.00000000000E+00  0.00000000000E+00 -0.10181984421E+04  0.10181984421E+04  0.25500000920E-02 0. -1.
    10030    2    1    2    0    0  0.00000000000E+00  0.00000000000E+00 -0.72485837260E+03  0.13115385116E+04  0.10930295545E+04 0.  0.
        1    1    3    3  502    0  0.81466176055E+01 -0.23401519099E+03  0.23009975126E+03  0.32829159683E+03  0.50400001928E-02 0.  1.
       -1    1    3    3    0  502 -0.81466176055E+01  0.23401519099E+03 -0.95495812386E+03  0.98324691474E+03  0.50400001928E-02 0. -1.
</event>
<event>
 5   0  0.9925021E-03  0.1091493E+04  0.7818609E-02  0.9213523E-01
        2   -1    0    0  501    0  0.00000000000E+00  0.00000000000E+00  0.23775376924E+03  0.23775376925E+03  0.25500000920E-02 0.  1.
       -2   -1    0    0    0  501  0.00000000000E+00  0.00000000000E+00 -0.12527217191E+04  0.12527217191E+04  0.25500000920E-02 0. -1.
    10030    2    1    2    0    0  0.00000000000E+00  0.00000000000E+00 -0.10149679498E+04  0.14904754883E+04  0.10914931251E+04 0.  0.
        4    1    3    3  502    0 -0.13033391276E+03 -0.25380530247E+03  0.12779753118E+03  0.31263058433E+03  0.12699999809E+01 0.  1.
       -4    1    3    3    0  502  0.13033391276E+03  0.25380530247E+03 -0.11427654810E+04  0.11778449040E+04  0.12699999809E+01 0. -1.
</event>
<event>
 5   0  0.9719260E-03  0.1105204E+04  0.7818609E-02  0.9200135E-01
        2   -1    0    0  501    0  0.00000000000E+00  0.00000000000E+00  0.20413861715E+04  0.20413861715E+04  0.25500000920E-02 0.  1.
       -2   -1    0    0    0  501  0.00000000000E+00  0.00000000000E+00 -0.14958902451E+03  0.14958902453E+03  0.25500000920E-02 0. -1.
    10030    2    1    2    0    0  0.00000000000E+00  0.00000000000E+00  0.18917971469E+04  0.21909751960E+04  0.11052039921E+04 0.  0.
        3    1    3    3  502    0 -0.33289495553E+03 -0.19244732292E+03  0.17326807316E+04  0.17748345138E+04  0.10100000352E+00 0.  1.
       -3    1    3    3    0  502  0.33289495553E+03  0.19244732292E+03  0.15911641529E+03  0.41614068214E+03  0.10100000352E+00 0. -1.
</event>
<event>
 5   0  0.3949750E-03  0.1092158E+04  0.7818609E-02  0.9212869E-01
       -3   -1    0    0    0  501  0.00000000000E+00  0.00000000000E+00  0.55986323931E+03  0.55986324842E+03  0.10100000352E+00 0.  1.
        3   -1    0    0  501    0  0.00000000000E+00  0.00000000000E+00 -0.53263419672E+03  0.53263420630E+03  0.10100000352E+00 0. -1.
    10030    2    1    2    0    0  0.00000000000E+00  0.00000000000E+00  0.27229042588E+02  0.10924974547E+04  0.10921580782E+04 0.  0.
        5    1    3    3  502    0 -0.33238809778E+03  0.20478748106E+03  0.39551904878E+03  0.55576718857E+03  0.46999998093E+01 0.  1.
       -5    1    3    3    0  502  0.33238809778E+03 -0.20478748106E+03 -0.36829000619E+03  0.53673026615E+03  0.46999998093E+01 0. -1.
</event>
<event>
 5   0  0.5789905E-03  0.1111177E+04  0.7818609E-02  0.9194366E-01
        1   -1    0    0  501    0  0.00000000000E+00  0.00000000000E+00  0.13306910827E+04  0.13306910827E+04  0.50400001928E-02 0.  1.
       -1   -1    0    0    0  501  0.00000000000E+00  0.00000000000E+00 -0.23196846283E+03  0.23196846288E+03  0.50400001928E-02 0. -1.
    10030    2    1    2    0    0  0.00000000000E+00  0.00000000000E+00  0.10987226199E+04  0.15626595456E+04  0.11111766106E+04 0.  0.
        1    1    3    3  502    0  0.33005122343E+03  0.27373065429E+03  0.52521308938E+02  0.43199626052E+03  0.50400001928E-02 0. -1.
       -1    1    3    3    0  502 -0.33005122343E+03 -0.27373065429E+03  0.10462013109E+04  0.11306632851E+04  0.50400001928E-02 0.  1.
</event>
<event>
 5   0  0.5789905E-03  0.1083834E+04  0.7818609E-02  0.9221093E-01
       -1   -1    0    0    0  501  0.00000000000E+00  0.00000000000E+00  0.63753033091E+03  0.63753033093E+03  0.50400001928E-02 0.  1.
        1   -1    0    0  501    0  0.00000000000E+00  0.00000000000E+00 -0.46064341701E+03  0.46064341703E+03  0.50400001928E-02 0. -1.
    10030    2    1    2    0    0  0.00000000000E+00  0.00000000000E+00  0.17688691390E+03  0.10981737480E+04  0.10838342126E+04 0.  0.
        1    1    3    3  502    0 -0.40063574783E+03  0.36152745144E+03  0.38157725638E+02  0.54098716495E+03  0.50400001928E-02 0. -1.
       -1    1    3    3    0  502  0.40063574783E+03 -0.36152745144E+03  0.13872918826E+03  0.55718658301E+03  0.50400001928E-02 0.  1.
</event>
<event>
 5   0  0.5854579E-03  0.1135004E+04  0.7818609E-02  0.9171731E-01
        1   -1    0    0  501    0  0.00000000000E+00  0.00000000000E+00  0.15621153681E+04  0.15621153681E+04  0.50400001928E-02 0.  1.
       -1   -1    0    0    0  501  0.00000000000E+00  0.00000000000E+00 -0.20616806529E+03  0.20616806536E+03  0.50400001928E-02 0. -1.
    10030    2    1    2    0    0  0.00000000000E+00  0.00000000000E+00  0.13559473028E+04  0.17682834335E+04  0.11350036181E+04 0.  0.
        4    1    3    3  502    0 -0.30884113852E+03  0.42534988604E+03  0.10112131156E+04  0.11396749328E+04  0.12699999809E+01 0.  1.
       -4    1    3    3    0  502  0.30884113852E+03 -0.42534988604E+03  0.34473418725E+03  0.62860850070E+03  0.12699999809E+01 0. -1.
</event>
<event>
 5   0  0.5789905E-03  0.1091608E+04  0.7818609E-02  0.9213410E-01
       -1   -1    0    0    0  501  0.00000000000E+00  0.00000000000E+00  0.21794738118E+03  0.21794738124E+03  0.50400001928E-02 0. -1.
        1   -1    0    0  501    0  0.00000000000E+00  0.00000000000E+00 -0.13668518953E+04  0.13668518954E+04  0.50400001928E-02 0.  1.
    10030    2    1    2    0    0  0.00000000000E+00  0.00000000000E+00 -0.11489045142E+04  0.15847992766E+04  0.10916076055E+04 0.  0.
        1    1    3    3  502    0  0.16671651667E+03 -0.43014673876E+02  0.17748802329E+03  0.24727850197E+03  0.50400001928E-02 0. -1.
       -1    1    3    3    0  502 -0.16671651667E+03  0.43014673876E+02 -0.13263925375E+04  0.13375207746E+04  0.50400001928E-02 0.  1.
</event>
<event>
 5   0  0.1019384E-02  0.1095115E+04  0.7818609E-02  0.9209966E-01
       -2   -1    0    0    0  501  0.00000000000E+00  0.00000000000E+00  0.44425595579E+03  0.44425595580E+03  0.25500000920E-02 0. -1.
        2   -1    0    0  501    0  0.00000000000E+00  0.00000000000E+00 -0.67487987799E+03  0.67487987799E+03  0.25500000920E-02 0.  1.
    10030    2    1    2    0    0  0.00000000000E+00  0.00000000000E+00 -0.23062392220E+03  0.11191358338E+04  0.10951153460E+04 0.  0.
        1    1    3    3  502    0 -0.25459681409E+03  0.48476243589E+03 -0.11765311178E+03  0.56005036535E+03  0.50400001928E-02 0.  1.
       -1    1    3    3    0  502  0.25459681409E+03 -0.48476243589E+03 -0.11297081042E+03  0.55908546844E+03  0.50400001928E-02 0. -1.
</event>
<event>
 5   0  0.9925021E-03  0.1102548E+04  0.7818609E-02  0.9202712E-01
        2   -1    0    0  501    0  0.00000000000E+00  0.00000000000E+00  0.30662387891E+03  0.30662387892E+03  0.25500000920E-02 0.  1.
       -2   -1    0    0    0  501  0.00000000000E+00  0.00000000000E+00 -0.99112709259E+03  0.99112709259E+03  0.25500000920E-02 0. -1.
    10030    2    1    2    0    0  0.00000000000E+00  0.00000000000E+00 -0.68450321368E+03  0.12977509715E+04  0.11025483819E+04 0.  0.
        4    1    3    3  502    0  0.29375299311E+03  0.56420740668E+01 -0.89128930039E+03  0.93846730570E+03  0.12699999809E+01 0. -1.
       -4    1    3    3    0  502 -0.29375299311E+03 -0.56420740668E+01  0.20678608671E+03  0.35928366581E+03  0.12699999809E+01 0.  1.
</event>
<event>
 5   0  0.1028016E-02  0.1133213E+04  0.7818609E-02  0.9173411E-01
        2   -1    0    0  501    0  0.00000000000E+00  0.00000000000E+00  0.86677636189E+03  0.86677636189E+03  0.25500000920E-02 0.  1.
       -2   -1    0    0    0  501  0.00000000000E+00  0.00000000000E+00 -0.37038753122E+03  0.37038753123E+03  0.25500000920E-02 0. -1.
    10030    2    1    2    0    0  0.00000000000E+00  0.00000000000E+00  0.49638883067E+03  0.12371638931E+04  0.11332134076E+04 0.  0.
        2    1    3    3  502    0 -0.25263020783E+03  0.46949662894E+03  0.45760774939E+03  0.70260512295E+03  0.25500000920E-02 0.  1.
       -2    1    3    3    0  502  0.25263020783E+03 -0.46949662894E+03  0.38781081274E+02  0.53455877017E+03  0.25500000920E-02 0. -1.
</event>
<event>
 5   0  0.5712664E-03  0.1080325E+04  0.7818609E-02  0.9224583E-01
       -1   -1    0    0    0  501  0.00000000000E+00  0.00000000000E+00  0.15223492036E+04  0.15223492036E+04  0.50400001928E-02 0. -1.
        1   -1    0    0  501    0  0.00000000000E+00  0.00000000000E+00 -0.19166151385E+03  0.19166151391E+03  0.50400001928E-02 0.  1.
    10030    2    1    2    0    0  0.00000000000E+00  0.00000000000E+00  0.13306876898E+04  0.17140107175E+04  0.10803254196E+04 0.  0.
        5    1    3    3  502    0 -0.39273112814E+03 -0.30384410283E+03  0.32805450061E+03  0.59514773226E+03  0.46999998093E+01 0.  1.
       -5    1    3    3    0  502  0.39273112814E+03  0.30384410283E+03  0.10026331891E+04  0.11188629853E+04  0.46999998093E+01 0. -1.
</event>
<event>
 5   0  0.5998641E-03  0.1120134E+04  0.7818609E-02  0.9185787E-01
        1   -1    0    0  501    0  0.00000000000E+00  0.00000000000E+00  0.37628164299E+03  0.37628164302E+03  0.50400001928E-02 0. -1.
       -1   -1    0    0    0  501  0.00000000000E+00  0.00000000000E+00 -0.83361827747E+03  0.83361827749E+03  0.50400001928E-02 0.  1.
    10030    2    1    2    0    0  0.00000000000E+00  0.00000000000E+00 -0.45733663449E+03  0.12098999205E+04  0.11201343760E+04 0.  0.
        3    1    3    3  502    0  0.35820040447E+03  0.44056394194E+02  0.23393703945E+03  0.43008725191E+03  0.10100000352E+00 0. -1.
       -3    1    3    3    0  502 -0.35820040447E+03 -0.44056394194E+02 -0.69127367393E+03  0.77981266860E+03  0.10100000352E+00 0.  1.
</event>
<event>
 5   0  0.1019384E-02  0.1108724E+04  0.7818609E-02  0.9196730E-01
       -2   -1    0    0    0  501  0.00000000000E+00  0.00000000000E+00  0.38255708034E+03  0.38255708035E+03  0.25500000920E-02 0.  1.
        2   -1    0    0  501    0  0.00000000000E+00  0.00000000000E+00 -0.80332432112E+03  0.80332432112E+03  0.25500000920E-02 0. -1.
    10030    2    1    2    0    0  0.00000000000E+00  0.00000000000E+00 -0.42076724077E+03  0.11858814015E+04  0.11087243244E+04 0.  0.
        1    1    3    3  502    0 -0.54034023832E+03 -0.11909923609E+03 -0.17387302019E+03  0.57998623119E+03  0.50400001928E-02 0.  1.
       -1    1    3    3    0  502  0.54034023832E+03  0.11909923609E+03 -0.24689422059E+03  0.60589517028E+03  0.50400001928E-02 0. -1.
</event>
<event>
 5   0  0.5854579E-03  0.1097361E+04  0.7818609E-02  0.9207768E-01
        1   -1    0    0  501    0  0.00000000000E+00  0.00000000000E+00  0.42455451530E+03  0.42455451533E+03  0.50400001928E-02 0. -1.
       -1   -1    0    0    0  501  0.00000000000E+00  0.00000000000E+00 -0.70909677533E+03  0.70909677535E+03  0.50400001928E-02 0.  1.
    10030    2    1    2    0    0  0.00000000000E+00  0.00000000000E+00 -0.28454226003E+03  0.11336512907E+04  0.10973609029E+04 0.  0.
        4    1    3    3  502    0  0.42901173873E+03 -0.18399011067E+02  0.21057810734E+03  0.47826179835E+03  0.12699999809E+01 0. -1.
       -4    1    3    3    0  502 -0.42901173873E+03  0.18399011067E+02 -0.49512036737E+03  0.65538949233E+03  0.12699999809E+01 0.  1.
</event>
<event>
 5   0  0.5789905E-03  0.1104252E+04  0.7818609E-02  0.9201058E-01
       -1   -1    0    0    0  501  0.00000000000E+00  0.00000000000E+00  0.47231220688E+03  0.47231220691E+03  0.50400001928E-02 0. -1.
        1   -1    0    0  501    0  0.00000000000E+00  0.00000000000E+00 -0.64542698839E+03  0.64542698841E+03  0.50400001928E-02 0.  1.
    10030    2    1    2    0    0  0.00000000000E+00  0.00000000000E+00 -0.17311478151E+03  0.11177391953E+04  0.11042518649E+04 0.  0.
        1    1    3    3  502    0  0.45824789452E+03 -0.29663259277E+03 -0.27144316580E+01  0.54588405004E+03  0.50400001928E-02 0.  1.
       -1    1    3    3    0  502 -0.45824789452E+03  0.29663259277E+03 -0.17040034985E+03  0.57185514527E+03  0.50400001928E-02 0. -1.
</event>
<event>
 5   0  0.5789905E-03  0.1110242E+04  0.7818609E-02  0.9195266E-01
       -1   -1    0    0    0  501  0.00000000000E+00  0.00000000000E+00  0.39262591935E+03  0.39262591938E+03  0.50400001928E-02 0.  1.
        1   -1    0    0  501    0  0.00000000000E+00  0.00000000000E+00 -0.78486811084E+03  0.78486811086E+03  0.50400001928E-02 0. -1.
    10030    2    1    2    0    0  0.00000000000E+00  0.00000000000E+00 -0.39224219149E+03  0.11774940302E+04  0.11102424305E+04 0.  0.
        1    1    3    3  502    0 -0.49058668834E+03 -0.25977715873E+03 -0.19579833601E+03  0.58863949866E+03  0.50400001928E-02 0. -1.
       -1    1    3    3    0  502  0.49058668834E+03  0.25977715873E+03 -0.19644385548E+03  0.58885453158E+03  0.50400001928E-02 0.  1.
</event>
<event>
 5   0  0.3949750E-03  0.1100122E+04  0.7818609E-02  0.9205073E-01
        3   -1    0    0  501    0  0.00000000000E+00  0.00000000000E+00  0.52908396190E+03  0.52908397154E+03  0.10100000352E+00 0. -1.
       -3   -1    0    0    0  501  0.00000000000E+00  0.00000000000E+00 -0.57186945585E+03  0.57186946476E+03  0.10100000352E+00 0.  1.
    10030    2    1    2    0    0  0.00000000000E+00  0.00000000000E+00 -0.42785493944E+02  0.11009534363E+04  0.11001217525E+04 0.  0.
        4    1    3    3  502    0  0.31694734298E+03 -0.15414912903E+03 -0.44402443485E+03  0.56690112351E+03  0.12699999809E+01 0.  1.
       -4    1    3    3    0  502 -0.31694734298E+03  0.15414912903E+03  0.40123894090E+03  0.53405231279E+03  0.12699999809E+01 0. -1.
</event>
<event>
 5   0  0.5712664E-03  0.1153964E+04  0.7818609E-02  0.9154134E-01
        1   -1    0    0  501    0  0.00000000000E+00  0.00000000000E+00  0.87139132459E+03  0.87139132461E+03  0.50400001928E-02 0.  1.
       -1   -1    0    0    0  501  0.00000000000E+00  0.00000000000E+00 -0.38204230650E+03  0.38204230654E+03  0.50400001928E-02 0. -1.
    10030    2    1    2    0    0  0.00000000000E+00  0.00000000000E+00  0.48934901809E+03  0.12534336311E+04  0.11539642136E+04 0.  0.
        5    1    3    3  502    0 -0.76238218118E+02 -0.56314500740E+03  0.13637181793E+03  0.58443470806E+03  0.46999998093E+01 0.  1.
       -5    1    3    3    0  502  0.76238218118E+02  0.56314500740E+03  0.35297720016E+03  0.66899892309E+03  0.46999998093E+01 0. -1.
</event>
<event>
 5   0  0.5998641E-03  0.1091770E+04  0.7818609E-02  0.9213251E-01
       -1   -1    0    0    0  501  0.00000000000E+00  0.00000000000E+00  0.20762504961E+03  0.20762504967E+03  0.50400001928E-02 0. -1.
        1   -1    0    0  501    0  0.00000000000E+00  0.00000000000E+00 -0.14352323427E+04  0.14352323427E+04  0.50400001928E-02 0.  1.
    10030    2    1    2    0    0  0.00000000000E+00  0.00000000000E+00 -0.12276072931E+04  0.16428573924E+04  0.10917695479E+04 0.  0.
        3    1    3    3  502    0  0.44156079839E+03  0.32016521139E+03 -0.57987209850E+03  0.79607371648E+03  0.10100000352E+00 0. -1.
       -3    1    3    3    0  502 -0.44156079839E+03 -0.32016521139E+03 -0.64773519462E+03  0.84678367592E+03  0.10100000352E+00 0.  1.
</event>
<event>
 5   0  0.9925021E-03  0.1075552E+04  0.7818609E-02  0.9229354E-01
        2   -1    0    0  501    0  0.00000000000E+00  0.00000000000E+00  0.49944184866E+03  0.49944184867E+03  0.25500000920E-02 0.  1.
       -2   -1    0    0    0  501  0.00000000000E+00  0.00000000000E+00 -0.57905245254E+03  0.57905245255E+03  0.25500000920E-02 0. -1.
    10030    2    1    2    0    0  0.00000000000E+00  0.00000000000E+00 -0.79610603878E+02  0.10784943012E+04  0.10755520022E+04 0.  0.
        4    1    3    3  502    0 -0.83983345330E+02 -0.45814965732E+03  0.22971821327E+03  0.51935188572E+03  0.12699999809E+01 0.  1.
       -4    1    3    3    0  502  0.83983345330E+02  0.45814965732E+03 -0.30932881715E+03  0.55914241550E+03  0.12699999809E+01 0. -1.
</event>
<event>
 5   0  0.1019384E-02  0.8750652E+03  0.7818609E-02  0.9457299E-01
       -2   -1    0    0    0  501  0.00000000000E+00  0.00000000000E+00  0.12149494438E+04  0.12149494438E+04  0.25500000920E-02 0.  1.
        2   -1    0    0  501    0  0.00000000000E+00  0.00000000000E+00 -0.15756602603E+03  0.15756602606E+03  0.25500000920E-02 0. -1.
    10030    2    1    2    0    0  0.00000000000E+00  0.00000000000E+00  0.10573834177E+04  0.13725154698E+04  0.87506515347E+03 0.  0.
        1    1    3    3  502    0  0.26458600415E+03  0.34464973949E+03  0.44801733618E+03  0.62410634515E+03  0.50400001928E-02 0. -1.
       -1    1    3    3    0  502 -0.26458600415E+03 -0.34464973949E+03  0.60936608157E+03  0.74840912469E+03  0.50400001928E-02 0.  1.
</event>
<event>
 5   0  0.5854579E-03  0.1077747E+04  0.7818609E-02  0.9227156E-01
        1   -1    0    0  501    0  0.00000000000E+00  0.00000000000E+00  0.71688512355E+03  0.71688512357E+03  0.50400001928E-02 0.  1.
       -1   -1    0    0    0  501  0.00000000000E+00  0.00000000000E+00 -0.40506456547E+03  0.40506456550E+03  0.50400001928E-02 0. -1.
    10030    2    1    2    0    0  0.00000000000E+00  0.00000000000E+00  0.31182055808E+03  0.11219496891E+04  0.10777472080E+04 0.  0.
        4    1    3    3  502    0 -0.41285315529E+03  0.32569912999E+03  0.27844736036E+03  0.59503125674E+03  0.12699999809E+01 0. -1.
       -4    1    3    3    0  502  0.41285315529E+03 -0.32569912999E+03  0.33373197720E+02  0.52691843233E+03  0.12699999809E+01 0.  1.
</event>
<event>
 5   0  0.9692981E-03  0.1126937E+04  0.7818609E-02  0.9179328E-01
        2   -1    0    0  501    0  0.00000000000E+00  0.00000000000E+00  0.11682441723E+04  0.11682441723E+04  0.25500000920E-02 0. -1.
       -2   -1    0    0    0  501  0.00000000000E+00  0.00000000000E+00 -0.27177244304E+03  0.27177244306E+03  0.25500000920E-02 0.  1.
    10030    2    1    2    0    0  0.00000000000E+00  0.00000000000E+00  0.89647172927E+03  0.14400166154E+04  0.11269366846E+04 0.  0.
        5    1    3    3  502    0  0.14764528653E+03  0.85199109151E+02 -0.23800726681E+03  0.29279270463E+03  0.46999998093E+01 0.  1.
       -5    1    3    3    0  502 -0.14764528653E+03 -0.85199109151E+02  0.11344789961E+04  0.11472239107E+04  0.46999998093E+01 0. -1.
</event>
<event>
 5   0  0.5854579E-03  0.1123868E+04  0.7818609E-02  0.9182236E-01
        1   -1    0    0  501    0  0.00000000000E+00  0.00000000000E+00  0.74445176370E+03  0.74445176372E+03  0.50400001928E-02 0. -1.
       -1   -1    0    0    0  501  0.00000000000E+00  0.00000000000E+00 -0.42416399754E+03  0.42416399757E+03  0.50400001928E-02 0.  1.
    10030    2    1    2    0    0  0.00000000000E+00  0.00000000000E+00  0.32028776616E+03  0.11686157613E+04  0.11238676721E+04 0.  0.
        4    1    3    3  502    0  0.12152788510E+03  0.31909496636E+03  0.62420650408E+03  0.71149560579E+03  0.12699999809E+01 0. -1.
       -4    1    3    3    0  502 -0.12152788510E+03 -0.31909496636E+03 -0.30391873793E+03  0.45712015551E+03  0.12699999809E+01 0.  1.
</event>
<event>
 5   0  0.5789905E-03  0.1101116E+04  0.7818609E-02  0.9204104E-01
       -1   -1    0    0    0  501  0.00000000000E+00  0.00000000000E+00  0.27332653459E+03  0.27332653463E+03  0.50400001928E-02 0.  1.
        1   -1    0    0  501    0  0.00000000000E+00  0.00000000000E+00 -0.11089825681E+04  0.11089825681E+04  0.50400001928E-02 0. -1.
    10030    2    1    2    0    0  0.00000000000E+00  0.00000000000E+00 -0.83565603351E+03  0.13823091027E+04  0.11011164558E+04 0.  0.
        1    1    3    3  502    0 -0.41585339733E+02 -0.13944958060E+03  0.24874751266E+03  0.28818544566E+03  0.50400001928E-02 0.  1.
       -1    1    3    3    0  502  0.41585339733E+02  0.13944958060E+03 -0.10844035462E+04  0.10941236571E+04  0.50400001928E-02 0. -1.
</event>
<event>
 5   0  0.5789905E-03  0.1128817E+04  0.7818609E-02  0.9177551E-01
       -1   -1    0    0    0  501  0.00000000000E+00  0.00000000000E+00  0.52170487723E+03  0.52170487725E+03  0.50400001928E-02 0.  1.
        1   -1    0    0  501    0  0.00000000000E+00  0.00000000000E+00 -0.61060751757E+03  0.61060751759E+03  0.50400001928E-02 0. -1.
    10030    2    1    2    0    0  0.00000000000E+00  0.00000000000E+00 -0.88902640347E+02  0.11323123948E+04  0.11288169382E+04 0.  0.
        1    1    3    3  502    0  0.27571776785E+03  0.15235004131E+03 -0.51422415474E+03  0.60304005169E+03  0.50400001928E-02 0. -1.
       -1    1    3    3    0  502 -0.27571776785E+03 -0.15235004131E+03  0.42532151440E+03  0.52927234315E+03  0.50400001928E-02 0.  1.
</event>
<event>
 5   0  0.5998641E-03  0.1129117E+04  0.7818609E-02  0.9177268E-01
        1   -1    0    0  501    0  0.00000000000E+00  0.00000000000E+00  0.85761959814E+03  0.85761959815E+03  0.50400001928E-02 0. -1.
       -1   -1    0    0    0  501  0.00000000000E+00  0.00000000000E+00 -0.37164038445E+03  0.37164038449E+03  0.50400001928E-02 0.  1.
    10030    2    1    2    0    0  0.00000000000E+00  0.00000000000E+00  0.48597921368E+03  0.12292599826E+04  0.11291166055E+04 0.  0.
        3    1    3    3  502    0  0.14149540164E+03  0.50482515152E+03  0.14995905756E+02  0.52449429900E+03  0.10100000352E+00 0.  1.
       -3    1    3    3    0  502 -0.14149540164E+03 -0.50482515152E+03  0.47098330793E+03  0.70476568364E+03  0.10100000352E+00 0. -1.
</event>
<event>
 5   0  0.9692981E-03  0.1078316E+04  0.7818609E-02  0.9226588E-01
        2   -1    0    0  501    0  0.00000000000E+00  0.00000000000E+00  0.84584744277E+03  0.84584744277E+03  0.25500000920E-02 0.  1.
       -2   -1    0    0    0  501  0.00000000000E+00  0.00000000000E+00 -0.34366854897E+03  0.34366854898E+03  0.25500000920E-02 0. -1.
    10030    2    1    2    0    0  0.00000000000E+00  0.00000000000E+00  0.50217889380E+03  0.11895159918E+04  0.10783156557E+04 0.  0.
        5    1    3    3  502    0  0.13636829159E+03 -0.12838856757E+03  0.80878293196E+03  0.83019988934E+03  0.46999998093E+01 0.  1.
       -5    1    3    3    0  502 -0.13636829159E+03  0.12838856757E+03 -0.30660403816E+03  0.35931610241E+03  0.46999998093E+01 0. -1.
</event>
<event>
 5   0  0.1019384E-02  0.1100653E+04  0.7818609E-02  0.9204556E-01
       -2   -1    0    0    0  501  0.00000000000E+00  0.00000000000E+00  0.29767994671E+03  0.29767994672E+03  0.25500000920E-02 0. -1.
        2   -1    0    0  501    0  0.00000000000E+00  0.00000000000E+00 -0.10173990153E+04  0.10173990153E+04  0.25500000920E-02 0.  1.
    10030    2    1    2    0    0  0.00000000000E+00  0.00000000000E+00 -0.71971906860E+03  0.13150789620E+04  0.11006530510E+04 0.  0.
        1    1    3    3  502    0  0.27212020079E+03  0.46635432730E+03 -0.48700244797E+03  0.72712251143E+03  0.50400001928E-02 0. -1.
       -1    1    3    3    0  502 -0.27212020079E+03 -0.46635432730E+03 -0.23271662063E+03  0.58795645061E+03  0.50400001928E-02 0.  1.
</event>
<event>
 5   0  0.5854579E-03  0.1018687E+04  0.7818609E-02  0.9288284E-01
        1   -1    0    0  501    0  0.00000000000E+00  0.00000000000E+00  0.58134009918E+03  0.58134009921E+03  0.50400001928E-02 0. -1.
       -1   -1    0    0    0  501  0.00000000000E+00  0.00000000000E+00 -0.44626319961E+03  0.44626319964E+03  0.50400001928E-02 0.  1.
    10030    2    1    2    0    0  0.00000000000E+00  0.00000000000E+00  0.13507689957E+03  0.10276032988E+04  0.10186867875E+04 0.  0.
        4    1    3    3  502    0  0.37776661553E+03 -0.26325451734E+03  0.28720241975E+03  0.54267614607E+03  0.12699999809E+01 0. -1.
       -4    1    3    3    0  502 -0.37776661553E+03  0.26325451734E+03 -0.15212552018E+03  0.48492715277E+03  0.12699999809E+01 0.  1.
</event>
<event>
 5   0  0.5998641E-03  0.1014737E+04  0.7818609E-02  0.9292528E-01
       -1   -1    0    0    0  501  0.00000000000E+00  0.00000000000E+00  0.52580516225E+03  0.52580516228E+03  0.50400001928E-02 0.  1.
        1   -1    0    0  501    0  0.00000000000E+00  0.00000000000E+00 -0.48957784595E+03  0.48957784598E+03  0.50400001928E-02 0. -1.
    10030    2    1    2    0    0  0.00000000000E+00  0.00000000000E+00  0.36227316299E+02  0.10153830083E+04  0.10147365348E+04 0.  0.
        3    1    3    3  502    0 -0.28151694769E+03 -0.28215791422E+03 -0.29602530377E+03  0.49648350533E+03  0.10100000352E+00 0. -1.
       -3    1    3    3    0  502  0.28151694769E+03  0.28215791422E+03  0.33225262007E+03  0.51889950292E+03  0.10100000352E+00 0.  1.
</event>
<event>
 5   0  0.9692981E-03  0.9393850E+03  0.7818609E-02  0.9377645E-01
       -2   -1    0    0    0  501  0.00000000000E+00  0.00000000000E+00  0.40864947928E+03  0.40864947928E+03  0.25500000920E-02 0. -1.
        2   -1    0    0  501    0  0.00000000000E+00  0.00000000000E+00 -0.53985402674E+03  0.53985402675E+03  0.25500000920E-02 0.  1.
    10030    2    1    2    0    0  0.00000000000E+00  0.00000000000E+00 -0.13120454746E+03  0.94850350603E+03  0.93938504761E+03 0.  0.
        5    1    3    3  502    0  0.20886640430E+03  0.35758126450E+03 -0.28933709059E+03  0.50520053202E+03  0.46999998093E+01 0.  1.
       -5    1    3    3    0  502 -0.20886640430E+03 -0.35758126450E+03  0.15813254313E+03  0.44330297400E+03  0.46999998093E+01 0. -1.
</event>
<event>
 5   0  0.5998641E-03  0.1105674E+04  0.7818609E-02  0.9199679E-01
       -1   -1    0    0    0  501  0.00000000000E+00  0.00000000000E+00  0.58256058720E+03  0.58256058722E+03  0.50400001928E-02 0. -1.
        1   -1    0    0  501    0  0.00000000000E+00  0.00000000000E+00 -0.52463021618E+03  0.52463021620E+03  0.50400001928E-02 0.  1.
    10030    2    1    2    0    0  0.00000000000E+00  0.00000000000E+00  0.57930371019E+02  0.11071908034E+04  0.11056742501E+04 0.  0.
        3    1    3    3  502    0 -0.45793988127E+03 -0.11876119466E+03 -0.25746161626E+03  0.53860899571E+03  0.10100000352E+00 0.  1.
       -3    1    3    3    0  502  0.45793988127E+03  0.11876119466E+03  0.31539198728E+03  0.56858180771E+03  0.10100000352E+00 0. -1.
</event>
<event>
 5   0  0.5789905E-03  0.1109907E+04  0.7818609E-02  0.9195589E-01
       -1   -1    0    0    0  501  0.00000000000E+00  0.00000000000E+00  0.43713635095E+03  0.43713635098E+03  0.50400001928E-02 0.  1.
        1   -1    0    0  501    0  0.00000000000E+00  0.00000000000E+00 -0.70452482384E+03  0.70452482386E+03  0.50400001928E-02 0. -1.
    10030    2    1    2    0    0  0.00000000000E+00  0.00000000000E+00 -0.26738847290E+03  0.11416611748E+04  0.11099070424E+04 0.  0.
        1    1    3    3  502    0  0.39522475790E+02  0.39977212384E+03 -0.52752367818E+03  0.66306938412E+03  0.50400001928E-02 0. -1.
       -1    1    3    3    0  502 -0.39522475790E+02 -0.39977212384E+03  0.26013520528E+03  0.47859179072E+03  0.50400001928E-02 0.  1.
</event>
<event>
 5   0  0.9925021E-03  0.1099230E+04  0.7818609E-02  0.9205943E-01
        2   -1    0    0  501    0  0.00000000000E+00  0.00000000000E+00  0.47634493445E+03  0.47634493446E+03  0.25500000920E-02 0. -1.
       -2   -1    0    0    0  501  0.00000000000E+00  0.00000000000E+00 -0.63415547825E+03  0.63415547825E+03  0.25500000920E-02 0.  1.
    10030    2    1    2    0    0  0.00000000000E+00  0.00000000000E+00 -0.15781054380E+03  0.11105004127E+04  0.10992301847E+04 0.  0.
        4    1    3    3  502    0 -0.44127789923E+02 -0.54719389687E+03 -0.10576193128E+03  0.55906674165E+03  0.12699999809E+01 0. -1.
       -4    1    3    3    0  502  0.44127789923E+02  0.54719389687E+03 -0.52048612522E+02  0.55143367106E+03  0.12699999809E+01 0.  1.
</event>
<event>
 5   0  0.1028016E-02  0.1075937E+04  0.7818609E-02  0.9228968E-01
        2   -1    0    0  501    0  0.00000000000E+00  0.00000000000E+00  0.25377153870E+03  0.25377153871E+03  0.25500000920E-02 0. -1.
       -2   -1    0    0    0  501  0.00000000000E+00  0.00000000000E+00 -0.11404359501E+04  0.11404359501E+04  0.25500000920E-02 0.  1.
    10030    2    1    2    0    0  0.00000000000E+00  0.00000000000E+00 -0.88666441144E+03  0.13942074888E+04  0.10759371466E+04 0.  0.
        2    1    3    3  502    0 -0.25387144777E+03  0.19666039840E+03  0.11594674608E+03  0.34142301068E+03  0.25500000920E-02 0. -1.
       -2    1    3    3    0  502  0.25387144777E+03 -0.19666039840E+03 -0.10026111575E+04  0.10527844782E+04  0.25500000920E-02 0.  1.
</event>
<event>
 5   0  0.5958706E-03  0.1138001E+04  0.7818609E-02  0.9168925E-01
       -1   -1    0    0    0  501  0.00000000000E+00  0.00000000000E+00  0.10388505698E+04  0.10388505698E+04  0.50400001928E-02 0.  1.
        1   -1    0    0  501    0  0.00000000000E+00  0.00000000000E+00 -0.31165380699E+03  0.31165380704E+03  0.50400001928E-02 0. -1.
    10030    2    1    2    0    0  0.00000000000E+00  0.00000000000E+00  0.72719676278E+03  0.13505043768E+04  0.11380012917E+04 0.  0.
        2    1    3    3  502    0  0.78897192145E+02  0.55690307007E+03  0.26153971479E+03  0.62029736321E+03  0.25500000920E-02 0.  1.
       -2    1    3    3    0  502 -0.78897192145E+02 -0.55690307007E+03  0.46565704799E+03  0.73020701361E+03  0.25500000920E-02 0. -1.
</event>
<event>
 5   0  0.1028016E-02  0.1099449E+04  0.7818609E-02  0.9205729E-01
        2   -1    0    0  501    0  0.00000000000E+00  0.00000000000E+00  0.36737903150E+03  0.36737903151E+03  0.25500000920E-02 0.  1.
       -2   -1    0    0    0  501  0.00000000000E+00  0.00000000000E+00 -0.82257587049E+03  0.82257587049E+03  0.25500000920E-02 0. -1.
    10030    2    1    2    0    0  0.00000000000E+00  0.00000000000E+00 -0.45519683899E+03  0.11899549020E+04  0.10994491833E+04 0.  0.
        2    1    3    3  502    0  0.43322276032E+03 -0.33802531489E+03 -0.24484955022E+03  0.60157657519E+03  0.25500000920E-02 0.  1.
       -2    1    3    3    0  502 -0.43322276032E+03  0.33802531489E+03 -0.21034728876E+03  0.58837832681E+03  0.25500000920E-02 0. -1.
</event>
<event>
 5   0  0.5958706E-03  0.9543921E+03  0.7818609E-02  0.9360032E-01
       -1   -1    0    0    0  501  0.00000000000E+00  0.00000000000E+00  0.29465168886E+03  0.29465168890E+03  0.50400001928E-02 0.  1.
        1   -1    0    0  501    0  0.00000000000E+00  0.00000000000E+00 -0.77283132732E+03  0.77283132734E+03  0.50400001928E-02 0. -1.
    10030    2    1    2    0    0  0.00000000000E+00  0.00000000000E+00 -0.47817963846E+03  0.10674830162E+04  0.95439207002E+03 0.  0.
        2    1    3    3  502    0  0.42805174421E+02  0.34575664376E+03  0.12564275257E+03  0.37035934029E+03  0.25500000920E-02 0.  1.
       -2    1    3    3    0  502 -0.42805174421E+02 -0.34575664376E+03 -0.60382239103E+03  0.69712367595E+03  0.25500000920E-02 0. -1.
</event>
<event>
 5   0  0.5712664E-03  0.1147447E+04  0.7818609E-02  0.9160142E-01
        1   -1    0    0  501    0  0.00000000000E+00  0.00000000000E+00  0.18033700185E+04  0.18033700185E+04  0.50400001928E-02 0. -1.
       -1   -1    0    0    0  501  0.00000000000E+00  0.00000000000E+00 -0.18252415316E+03  0.18252415323E+03  0.50400001928E-02 0.  1.
    10030    2    1    2    0    0  0.00000000000E+00  0.00000000000E+00  0.16208458653E+04  0.19858941717E+04  0.11474468799E+04 0.  0.
        5    1    3    3  502    0  0.40706947261E+03 -0.40073235047E+03  0.90272857724E+03  0.10682850492E+04  0.46999998093E+01 0. -1.
       -5    1    3    3    0  502 -0.40706947261E+03  0.40073235047E+03  0.71811728810E+03  0.91760912251E+03  0.46999998093E+01 0.  1.
</event>
<event>
 5   0  0.5789905E-03  0.1125280E+04  0.7818609E-02  0.9180897E-01
       -1   -1    0    0    0  501  0.00000000000E+00  0.00000000000E+00  0.33170844745E+03  0.33170844749E+03  0.50400001928E-02 0. -1.
        1   -1    0    0  501    0  0.00000000000E+00  0.00000000000E+00 -0.95434291849E+03  0.95434291850E+03  0.50400001928E-02 0.  1.
    10030    2    1    2    0    0  0.00000000000E+00  0.00000000000E+00 -0.62263447104E+03  0.12860513660E+04  0.11252797125E+04 0.  0.
        1    1    3    3  502    0  0.41271268842E+03 -0.35249649185E+03 -0.14188634983E+03  0.56099668114E+03  0.50400001928E-02 0. -1.
       -1    1    3    3    0  502 -0.41271268842E+03  0.35249649185E+03 -0.48074812121E+03  0.72505468485E+03  0.50400001928E-02 0.  1.
</event>
<event>
 5   0  0.1028016E-02  0.1108444E+04  0.7818609E-02  0.9197000E-01
        2   -1    0    0  501    0  0.00000000000E+00  0.00000000000E+00  0.26496318996E+03  0.26496318997E+03  0.25500000920E-02 0. -1.
       -2   -1    0    0    0  501  0.00000000000E+00  0.00000000000E+00 -0.11592634219E+04  0.11592634219E+04  0.25500000920E-02 0.  1.
    10030    2    1    2    0    0  0.00000000000E+00  0.00000000000E+00 -0.89430023192E+03  0.14242266119E+04  0.11084441967E+04 0.  0.
        2    1    3    3  502    0  0.55049512387E+03 -0.11350401024E+02 -0.36600436686E+03  0.66116027525E+03  0.25500000920E-02 0. -1.
       -2    1    3    3    0  502 -0.55049512387E+03  0.11350401024E+02 -0.52829586506E+03  0.76306633660E+03  0.25500000920E-02 0.  1.
</event>
<event>
 5   0  0.9925021E-03  0.1089379E+04  0.7818609E-02  0.9215606E-01
        2   -1    0    0  501    0  0.00000000000E+00  0.00000000000E+00  0.19029565083E+04  0.19029565083E+04  0.25500000920E-02 0.  1.
       -2   -1    0    0    0  501  0.00000000000E+00  0.00000000000E+00 -0.15590815521E+03  0.15590815523E+03  0.25500000920E-02 0. -1.
    10030    2    1    2    0    0  0.00000000000E+00  0.00000000000E+00  0.17470483531E+04  0.20588646636E+04  0.10893786094E+04 0.  0.
        4    1    3    3  502    0  0.22649192444E+03 -0.18580625934E+03  0.17413816208E+04  0.17658522362E+04  0.12699999809E+01 0.  1.
       -4    1    3    3    0  502 -0.22649192444E+03  0.18580625934E+03  0.56667323222E+01  0.29301242738E+03  0.12699999809E+01 0. -1.
</event>
<event>
 5   0  0.1019384E-02  0.1071578E+04  0.7818609E-02  0.9233345E-01
        2   -1    0    0  501    0  0.00000000000E+00  0.00000000000E+00  0.94686368825E+03  0.94686368826E+03  0.25500000920E-02 0.  1.
       -2   -1    0    0    0  501  0.00000000000E+00  0.00000000000E+00 -0.30317969845E+03  0.30317969846E+03  0.25500000920E-02 0. -1.
    10030    2    1    2    0    0  0.00000000000E+00  0.00000000000E+00  0.64368398980E+03  0.12500433867E+04  0.10715779906E+04 0.  0.
        1    1    3    3  502    0  0.35272125020E+02 -0.24910980532E+02  0.94483044777E+03  0.94581671312E+03  0.50400001928E-02 0.  1.
       -1    1    3    3    0  502 -0.35272125020E+02  0.24910980532E+02 -0.30114645797E+03  0.30422667360E+03  0.50400001928E-02 0. -1.
</event>
<event>
 5   0  0.1019384E-02  0.1088145E+04  0.7818609E-02  0.9216825E-01
        2   -1    0    0  501    0  0.00000000000E+00  0.00000000000E+00  0.11409404844E+04  0.11409404844E+04  0.25500000920E-02 0.  1.
       -2   -1    0    0    0  501  0.00000000000E+00  0.00000000000E+00 -0.25944794139E+03  0.25944794140E+03  0.25500000920E-02 0. -1.
    10030    2    1    2    0    0  0.00000000000E+00  0.00000000000E+00  0.88149254299E+03  0.14003884258E+04  0.10881445859E+04 0.  0.
        1    1    3    3  502    0 -0.87066039462E+02  0.52865556133E+03  0.56254826547E+03  0.77686404780E+03  0.50400001928E-02 0.  1.
       -1    1    3    3    0  502  0.87066039462E+02 -0.52865556133E+03  0.31894427752E+03  0.62352437799E+03  0.50400001928E-02 0. -1.
</event>
<event>
 5   0  0.3949750E-03  0.1078334E+04  0.7818609E-02  0.9226570E-01
       -4   -1    0    0    0  501  0.00000000000E+00  0.00000000000E+00  0.67307400870E+03  0.67307520686E+03  0.12699999809E+01 0.  1.
        4   -1    0    0  501    0  0.00000000000E+00  0.00000000000E+00 -0.43189802358E+03  0.43189989080E+03  0.12699999809E+01 0. -1.
    10030    2    1    2    0    0  0.00000000000E+00  0.00000000000E+00  0.24117598512E+03  0.11049750977E+04  0.10783339514E+04 0.  0.
        5    1    3    3  502    0  0.16708997142E+03  0.11220745214E+03 -0.39193844931E+03  0.44062161648E+03  0.46999998093E+01 0. -1.
       -5    1    3    3    0  502 -0.16708997142E+03 -0.11220745214E+03  0.63311443443E+03  0.66435348117E+03  0.46999998093E+01 0.  1.
</event>
<event>
 5   0  0.9692981E-03  0.1101685E+04  0.7818609E-02  0.9203552E-01
        2   -1    0    0  501    0  0.00000000000E+00  0.00000000000E+00  0.96117389997E+03  0.96117389997E+03  0.25500000920E-02 0.  1.
       -2   -1    0    0    0  501  0.00000000000E+00  0.00000000000E+00 -0.31568401240E+03  0.31568401241E+03  0.25500000920E-02 0. -1.
    10030    2    1    2    0    0  0.00000000000E+00  0.00000000000E+00  0.64548988757E+03  0.12768579124E+04  0.11016845889E+04 0.  0.
        5    1    3    3  502    0  0.54004108286E+03  0.95190656287E+02  0.38296315628E+03  0.66887106477E+03  0.46999998093E+01 0.  1.
       -5    1    3    3    0  502 -0.54004108286E+03 -0.95190656287E+02  0.26252673129E+03  0.60798684761E+03  0.46999998093E+01 0. -1.
</event>
<event>
 5   0  0.1019384E-02  0.1091347E+04  0.7818609E-02  0.9213667E-01
       -2   -1    0    0    0  501  0.00000000000E+00  0.00000000000E+00  0.86723490748E+03  0.86723490748E+03  0.25500000920E-02 0.  1.
        2   -1    0    0  501    0  0.00000000000E+00  0.00000000000E+00 -0.34334340845E+03  0.34334340846E+03  0.25500000920E-02 0. -1.
    10030    2    1    2    0    0  0.00000000000E+00  0.00000000000E+00  0.52389149902E+03  0.12105783159E+04  0.10913466710E+04 0.  0.
        1    1    3    3  502    0  0.30240809390E+03 -0.29547784320E+03 -0.12070848404E+03  0.43969119757E+03  0.50400001928E-02 0. -1.
       -1    1    3    3    0  502 -0.30240809390E+03  0.29547784320E+03  0.64459998306E+03  0.77088711837E+03  0.50400001928E-02 0.  1.
</event>
<event>
 5   0  0.9692981E-03  0.1073500E+04  0.7818609E-02  0.9231412E-01
       -2   -1    0    0    0  501  0.00000000000E+00  0.00000000000E+00  0.21145627049E+03  0.21145627051E+03  0.25500000920E-02 0. -1.
        2   -1    0    0  501    0  0.00000000000E+00  0.00000000000E+00 -0.13624595052E+04  0.13624595052E+04  0.25500000920E-02 0.  1.
    10030    2    1    2    0    0  0.00000000000E+00  0.00000000000E+00 -0.11510032348E+04  0.15739157758E+04  0.10735000805E+04 0.  0.
        5    1    3    3  502    0 -0.28811829345E+03  0.33596298705E+03 -0.10206795695E+04  0.11125161362E+04  0.46999998093E+01 0.  1.
       -5    1    3    3    0  502  0.28811829345E+03 -0.33596298705E+03 -0.13032366528E+03  0.46139963960E+03  0.46999998093E+01 0. -1.
</event>
<event>
 5   0  0.9925021E-03  0.1107225E+04  0.7818609E-02  0.9198178E-01
       -2   -1    0    0    0  501  0.00000000000E+00  0.00000000000E+00  0.11034242407E+03  0.11034242410E+03  0.25500000920E-02 0.  1.
        2   -1    0    0  501    0  0.00000000000E+00  0.00000000000E+00 -0.27775967058E+04  0.27775967058E+04  0.25500000920E-02 0. -1.
    10030    2    1    2    0    0  0.00000000000E+00  0.00000000000E+00 -0.26672542817E+04  0.28879391299E+04  0.11072249160E+04 0.  0.
        4    1    3    3  502    0  0.26726871283E+03 -0.37951086911E+03 -0.21205466726E+04  0.21707558287E+04  0.12699999809E+01 0. -1.
       -4    1    3    3    0  502 -0.26726871283E+03  0.37951086911E+03 -0.54670760914E+03  0.71718330113E+03  0.12699999809E+01 0.  1.
</event>
<event>
 5   0  0.5789905E-03  0.1147590E+04  0.7818609E-02  0.9160010E-01
       -1   -1    0    0    0  501  0.00000000000E+00  0.00000000000E+00  0.34670181535E+03  0.34670181538E+03  0.50400001928E-02 0.  1.
        1   -1    0    0  501    0  0.00000000000E+00  0.00000000000E+00 -0.94963686274E+03  0.94963686275E+03  0.50400001928E-02 0. -1.
    10030    2    1    2    0    0  0.00000000000E+00  0.00000000000E+00 -0.60293504739E+03  0.12963386781E+04  0.11475902130E+04 0.  0.
        1    1    3    3  502    0  0.25242559246E+03 -0.28881853276E+03 -0.78351939192E+03  0.87237461113E+03  0.50400001928E-02 0. -1.
       -1    1    3    3    0  502 -0.25242559246E+03  0.28881853276E+03  0.18058434453E+03  0.42396406700E+03  0.50400001928E-02 0.  1.
</event>
<event>
 5   0  0.9719260E-03  0.1116933E+04  0.7818609E-02  0.9188843E-01
       -2   -1    0    0    0  501  0.00000000000E+00  0.00000000000E+00  0.26916175181E+03  0.26916175182E+03  0.25500000920E-02 0.  1.
        2   -1    0    0  501    0  0.00000000000E+00  0.00000000000E+00 -0.11587268164E+04  0.11587268164E+04  0.25500000920E-02 0. -1.
    10030    2    1    2    0    0  0.00000000000E+00  0.00000000000E+00 -0.88956506456E+03  0.14278885682E+04  0.11169331937E+04 0.  0.
        3    1    3    3  502    0 -0.19660128843E+03 -0.33437339223E+03 -0.95841871181E+03  0.10339362018E+04  0.10100000352E+00 0.  1.
       -3    1    3    3    0  502  0.19660128843E+03  0.33437339223E+03  0.68853647250E+02  0.39395236639E+03  0.10100000352E+00 0. -1.
</event>
<event>
 5   0  0.1019384E-02  0.8557804E+03  0.7818609E-02  0.9482611E-01
        2   -1    0    0  501    0  0.00000000000E+00  0.00000000000E+00  0.18195381942E+04  0.18195381942E+04  0.25500000920E-02 0. -1.
       -2   -1    0    0    0  501  0.00000000000E+00  0.00000000000E+00 -0.10062444528E+03  0.10062444532E+03  0.25500000920E-02 0.  1.
    10030    2    1    2    0    0  0.00000000000E+00  0.00000000000E+00  0.17189137490E+04  0.19201626396E+04  0.85578039590E+03 0.  0.
        1    1    3    3  502    0  0.29873396209E+02  0.14251681561E+03  0.17622351046E+04  0.17682409413E+04  0.50400001928E-02 0. -1.
       -1    1    3    3    0  502 -0.29873396209E+02 -0.14251681561E+03 -0.43321355622E+02  0.15192169829E+03  0.50400001928E-02 0.  1.
</event>
<event>
 5   0  0.5854579E-03  0.1090361E+04  0.7818609E-02  0.9214638E-01
        1   -1    0    0  501    0  0.00000000000E+00  0.00000000000E+00  0.18742740706E+04  0.18742740706E+04  0.50400001928E-02 0.  1.
       -1   -1    0    0    0  501  0.00000000000E+00  0.00000000000E+00 -0.15857966268E+03  0.15857966276E+03  0.50400001928E-02 0. -1.
    10030    2    1    2    0    0  0.00000000000E+00  0.00000000000E+00  0.17156944079E+04  0.20328537333E+04  0.10903609494E+04 0.  0.
        4    1    3    3  502    0  0.10595643237E+03 -0.19460040482E+03 -0.70841742970E+02  0.23262899338E+03  0.12699999809E+01 0. -1.
       -4    1    3    3    0  502 -0.10595643237E+03  0.19460040482E+03  0.17865361509E+04  0.18002247400E+04  0.12699999809E+01 0.  1.
</event>
<event>
 5   0  0.9719260E-03  0.1101403E+04  0.7818609E-02  0.9203826E-01
        2   -1    0    0  501    0  0.00000000000E+00  0.00000000000E+00  0.10854148959E+04  0.10854148959E+04  0.25500000920E-02 0.  1.
       -2   -1    0    0    0  501  0.00000000000E+00  0.00000000000E+00 -0.27940642732E+03  0.27940642733E+03  0.25500000920E-02 0. -1.
    10030    2    1    2    0    0  0.00000000000E+00  0.00000000000E+00  0.80600846857E+03  0.13648213232E+04  0.11014025572E+04 0.  0.
        3    1    3    3  502    0 -0.53838569910E+03  0.54484027798E+02  0.27636517456E+03  0.60762273673E+03  0.10100000352E+00 0. -1.
       -3    1    3    3    0  502  0.53838569910E+03 -0.54484027798E+02  0.52964329401E+03  0.75719858649E+03  0.10100000352E+00 0.  1.
</event>
<event>
 5   0  0.1019384E-02  0.1077271E+04  0.7818609E-02  0.9227632E-01
        2   -1    0    0  501    0  0.00000000000E+00  0.00000000000E+00  0.28435642332E+04  0.28435642332E+04  0.25500000920E-02 0. -1.
       -2   -1    0    0    0  501  0.00000000000E+00  0.00000000000E+00 -0.10202981568E+03  0.10202981572E+03  0.25500000920E-02 0.  1.
    10030    2    1    2    0    0  0.00000000000E+00  0.00000000000E+00  0.27415344175E+04  0.29455940489E+04  0.10772712465E+04 0.  0.
        1    1    3    3  502    0  0.21258344879E+03 -0.48273521337E+03  0.10724474743E+04  0.11951437545E+04  0.50400001928E-02 0.  1.
       -1    1    3    3    0  502 -0.21258344879E+03  0.48273521337E+03  0.16690869433E+04  0.17504502944E+04  0.50400001928E-02 0. -1.
</event>
<event>
 5   0  0.5958706E-03  0.1097832E+04  0.7818609E-02  0.9207308E-01
        1   -1    0    0  501    0  0.00000000000E+00  0.00000000000E+00  0.61166189677E+03  0.61166189679E+03  0.50400001928E-02 0. -1.
       -1   -1    0    0    0  501  0.00000000000E+00  0.00000000000E+00 -0.49260659784E+03  0.49260659787E+03  0.50400001928E-02 0.  1.
    10030    2    1    2    0    0  0.00000000000E+00  0.00000000000E+00  0.11905529893E+03  0.11042684947E+04  0.10978318378E+04 0.  0.
        2    1    3    3  502    0  0.38809677627E+03 -0.14267244594E+03 -0.30360723778E+03  0.51298332275E+03  0.25500000920E-02 0.  1.
       -2    1    3    3    0  502 -0.38809677627E+03  0.14267244594E+03  0.42266253671E+03  0.59128517191E+03  0.25500000920E-02 0. -1.
</event>
<event>
 5   0  0.9692981E-03  0.1102701E+04  0.7818609E-02  0.9202564E-01
        2   -1    0    0  501    0  0.00000000000E+00  0.00000000000E+00  0.43059419190E+03  0.43059419191E+03  0.25500000920E-02 0. -1.
       -2   -1    0    0    0  501  0.00000000000E+00  0.00000000000E+00 -0.70597130095E+03  0.70597130096E+03  0.25500000920E-02 0.  1.
    10030    2    1    2    0    0  0.00000000000E+00  0.00000000000E+00 -0.27537710905E+03  0.11365654929E+04  0.11027005792E+04 0.  0.
        5    1    3    3  502    0 -0.73942710460E+02 -0.41230693440E+03 -0.50716716781E+03  0.65780328266E+03  0.46999998093E+01 0. -1.
       -5    1    3    3    0  502  0.73942710460E+02  0.41230693440E+03  0.23179005876E+03  0.47876221020E+03  0.46999998093E+01 0.  1.
</event>
<event>
 5   0  0.5789905E-03  0.1101327E+04  0.7818609E-02  0.9203899E-01
       -1   -1    0    0    0  501  0.00000000000E+00  0.00000000000E+00  0.27891216635E+03  0.27891216640E+03  0.50400001928E-02 0.  1.
        1   -1    0    0  501    0  0.00000000000E+00  0.00000000000E+00 -0.10871901619E+04  0.10871901619E+04  0.50400001928E-02 0. -1.
    10030    2    1    2    0    0  0.00000000000E+00  0.00000000000E+00 -0.80827799552E+03  0.13661023283E+04  0.11013274959E+04 0.  0.
        1    1    3    3  502    0  0.15700071908E+03  0.22947057876E+03 -0.99372681609E+03  0.10318909619E+04  0.50400001928E-02 0. -1.
       -1    1    3    3    0  502 -0.15700071908E+03 -0.22947057876E+03  0.18544882057E+03  0.33421136633E+03  0.50400001928E-02 0.  1.
</event>
<event>
 5   0  0.1019384E-02  0.1075706E+04  0.7818609E-02  0.9229199E-01
       -2   -1    0    0    0  501  0.00000000000E+00  0.00000000000E+00  0.16642769119E+03  0.16642769121E+03  0.25500000920E-02 0.  1.
        2   -1    0    0  501    0  0.00000000000E+00  0.00000000000E+00 -0.17382083348E+04  0.17382083348E+04  0.25500000920E-02 0. -1.
    10030    2    1    2    0    0  0.00000000000E+00  0.00000000000E+00 -0.15717806436E+04  0.19046360260E+04  0.10757062796E+04 0.  0.
        1    1    3    3  502    0 -0.93803614906E+02 -0.25175470924E+03  0.39111014546E+02  0.27149442586E+03  0.50400001928E-02 0.  1.
       -1    1    3    3    0  502  0.93803614906E+02  0.25175470924E+03 -0.16108916581E+04  0.16331416001E+04  0.50400001928E-02 0. -1.
</event>
<event>
 5   0  0.1028016E-02  0.1096467E+04  0.7818609E-02  0.9208642E-01
        2   -1    0    0  501    0  0.00000000000E+00  0.00000000000E+00  0.35093754823E+03  0.35093754824E+03  0.25500000920E-02 0. -1.
       -2   -1    0    0    0  501  0.00000000000E+00  0.00000000000E+00 -0.85644853599E+03  0.85644853599E+03  0.25500000920E-02 0.  1.
    10030    2    1    2    0    0  0.00000000000E+00  0.00000000000E+00 -0.50551098776E+03  0.12073860842E+04  0.10964669615E+04 0.  0.
        2    1    3    3  502    0  0.41205884473E+02  0.48527732463E+03 -0.52995051137E+03  0.71974964482E+03  0.25500000920E-02 0. -1.
       -2    1    3    3    0  502 -0.41205884473E+02 -0.48527732463E+03  0.24439523608E+02  0.48763643941E+03  0.25500000920E-02 0.  1.
</event>
<event>
 5   0  0.5712664E-03  0.1046312E+04  0.7818609E-02  0.9259160E-01
        1   -1    0    0  501    0  0.00000000000E+00  0.00000000000E+00  0.92367300341E+03  0.92367300343E+03  0.50400001928E-02 0.  1.
       -1   -1    0    0    0  501  0.00000000000E+00  0.00000000000E+00 -0.29630859889E+03  0.29630859894E+03  0.50400001928E-02 0. -1.
    10030    2    1    2    0    0  0.00000000000E+00  0.00000000000E+00  0.62736440452E+03  0.12199816024E+04  0.10463121016E+04 0.  0.
        5    1    3    3  502    0  0.49216129551E+03 -0.10576192218E+03  0.14771148986E+03  0.52464187711E+03  0.46999998093E+01 0. -1.
       -5    1    3    3    0  502 -0.49216129551E+03  0.10576192218E+03  0.47965291466E+03  0.69533972526E+03  0.46999998093E+01 0.  1.
</event>
<event>
 5   0  0.5998641E-03  0.1056890E+04  0.7818609E-02  0.9248259E-01
       -1   -1    0    0    0  501  0.00000000000E+00  0.00000000000E+00  0.18823268316E+03  0.18823268323E+03  0.50400001928E-02 0. -1.
        1   -1    0    0  501    0  0.00000000000E+00  0.00000000000E+00 -0.14835593572E+04  0.14835593572E+04  0.50400001928E-02 0.  1.
    10030    2    1    2    0    0  0.00000000000E+00  0.00000000000E+00 -0.12953266741E+04  0.16717920405E+04  0.10568904551E+04 0.  0.
        3    1    3    3  502    0 -0.16922330399E+03  0.47076502175E+03 -0.37830081558E+03  0.62719036153E+03  0.10100000352E+00 0. -1.
       -3    1    3    3    0  502  0.16922330399E+03 -0.47076502175E+03 -0.91702585847E+03  0.10446016789E+04  0.10100000352E+00 0.  1.
</event>
<event>
 5   0  0.9719260E-03  0.1116535E+04  0.7818609E-02  0.9189224E-01
       -2   -1    0    0    0  501  0.00000000000E+00  0.00000000000E+00  0.41483445231E+03  0.41483445232E+03  0.25500000920E-02 0.  1.
        2   -1    0    0  501    0  0.00000000000E+00  0.00000000000E+00 -0.75129433234E+03  0.75129433234E+03  0.25500000920E-02 0. -1.
    10030    2    1    2    0    0  0.00000000000E+00  0.00000000000E+00 -0.33645988003E+03  0.11661287847E+04  0.11165353069E+04 0.  0.
        3    1    3    3  502    0  0.11956745525E+03 -0.11666493771E+03 -0.72457768945E+03  0.74358585402E+03  0.10100000352E+00 0. -1.
       -3    1    3    3    0  502 -0.11956745525E+03  0.11666493771E+03  0.38811780942E+03  0.42254293065E+03  0.10100000352E+00 0.  1.
</event>
<event>
 5   0  0.9692981E-03  0.1102192E+04  0.7818609E-02  0.9203058E-01
        2   -1    0    0  501    0  0.00000000000E+00  0.00000000000E+00  0.52645001000E+03  0.52645001001E+03  0.25500000920E-02 0. -1.
       -2   -1    0    0    0  501  0.00000000000E+00  0.00000000000E+00 -0.57689603672E+03  0.57689603673E+03  0.25500000920E-02 0.  1.
    10030    2    1    2    0    0  0.00000000000E+00  0.00000000000E+00 -0.50446026719E+02  0.11033460467E+04  0.11021922234E+04 0.  0.
        5    1    3    3  502    0 -0.18038508052E+03  0.25722401443E+03  0.42800017246E+03  0.53095122987E+03  0.46999998093E+01 0. -1.
       -5    1    3    3    0  502  0.18038508052E+03 -0.25722401443E+03 -0.47844619918E+03  0.57239481687E+03  0.46999998093E+01 0.  1.
</event>
<event>
 5   0  0.5712664E-03  0.1201087E+04  0.7818609E-02  0.9111906E-01
        1   -1    0    0  501    0  0.00000000000E+00  0.00000000000E+00  0.91067631153E+03  0.91067631154E+03  0.50400001928E-02 0.  1.
       -1   -1    0    0    0  501  0.00000000000E+00  0.00000000000E+00 -0.39602711731E+03  0.39602711734E+03  0.50400001928E-02 0. -1.
    10030    2    1    2    0    0  0.00000000000E+00  0.00000000000E+00  0.51464919422E+03  0.13067034289E+04  0.12010870318E+04 0.  0.
        5    1    3    3  502    0 -0.21947007353E+03  0.44881631433E+03 -0.10518315642E+03  0.51057691250E+03  0.46999998093E+01 0. -1.
       -5    1    3    3    0  502  0.21947007353E+03 -0.44881631433E+03  0.61983235064E+03  0.79612651638E+03  0.46999998093E+01 0.  1.
</event>
<event>
 5   0  0.1019384E-02  0.1107024E+04  0.7818609E-02  0.9198373E-01
       -2   -1    0    0    0  501  0.00000000000E+00  0.00000000000E+00  0.35699795396E+03  0.35699795397E+03  0.25500000920E-02 0. -1.
        2   -1    0    0  501    0  0.00000000000E+00  0.00000000000E+00 -0.85819910345E+03  0.85819910345E+03  0.25500000920E-02 0.  1.
    10030    2    1    2    0    0  0.00000000000E+00  0.00000000000E+00 -0.50120114948E+03  0.12151970574E+04  0.11070236204E+04 0.  0.
        1    1    3    3  502    0  0.21230410439E+03 -0.24578176595E+03  0.24140824550E+03  0.40467227510E+03  0.50400001928E-02 0. -1.
       -1    1    3    3    0  502 -0.21230410439E+03  0.24578176595E+03 -0.74260939498E+03  0.81052478232E+03  0.50400001928E-02 0.  1.
</event>
<event>
 5   0  0.5854579E-03  0.1029736E+04  0.7818609E-02  0.9276519E-01
        1   -1    0    0  501    0  0.00000000000E+00  0.00000000000E+00  0.54590955466E+03  0.54590955469E+03  0.50400001928E-02 0.  1.
       -1   -1    0    0    0  501  0.00000000000E+00  0.00000000000E+00 -0.48559179738E+03  0.48559179741E+03  0.50400001928E-02 0. -1.
    10030    2    1    2    0    0  0.00000000000E+00  0.00000000000E+00  0.60317757280E+02  0.10315013521E+04  0.10297362806E+04 0.  0.
        4    1    3    3  502    0 -0.27683532367E+02  0.98298781251E+02 -0.47534317833E+03  0.48619109252E+03  0.12699999809E+01 0. -1.
       -4    1    3    3    0  502  0.27683532367E+02 -0.98298781251E+02  0.53566093561E+03  0.54531025958E+03  0.12699999809E+01 0.  1.
</event>
<event>
 5   0  0.9719260E-03  0.1128121E+04  0.7818609E-02  0.9178209E-01
       -2   -1    0    0    0  501  0.00000000000E+00  0.00000000000E+00  0.27969046376E+03  0.27969046377E+03  0.25500000920E-02 0. -1.
        2   -1    0    0  501    0  0.00000000000E+00  0.00000000000E+00 -0.11375580520E+04  0.11375580520E+04  0.25500000920E-02 0.  1.
    10030    2    1    2    0    0  0.00000000000E+00  0.00000000000E+00 -0.85786758827E+03  0.14172485158E+04  0.11281208076E+04 0.  0.
        3    1    3    3  502    0 -0.18281035797E+03 -0.27577894318E+03 -0.10028410513E+04  0.10560131802E+04  0.10100000352E+00 0.  1.
       -3    1    3    3    0  502  0.18281035797E+03  0.27577894318E+03  0.14497346301E+03  0.36123533557E+03  0.10100000352E+00 0. -1.
</event>
<event>
 5   0  0.9925021E-03  0.7847268E+03  0.7818609E-02  0.9582391E-01
        2   -1    0    0  501    0  0.00000000000E+00  0.00000000000E+00  0.17115950253E+04  0.17115950253E+04  0.25500000920E-02 0.  1.
       -2   -1    0    0    0  501  0.00000000000E+00  0.00000000000E+00 -0.89944770595E+02  0.89944770631E+02  0.25500000920E-02 0. -1.
    10030    2    1    2    0    0  0.00000000000E+00  0.00000000000E+00  0.16216502547E+04  0.18015397959E+04  0.78472675993E+03 0.  0.
        4    1    3    3  502    0 -0.29428392314E+03  0.90546792292E+01  0.14062288683E+04  0.14367206609E+04  0.12699999809E+01 0.  1.
       -4    1    3    3    0  502  0.29428392314E+03 -0.90546792292E+01  0.21542138639E+03  0.36481913498E+03  0.12699999809E+01 0. -1.
</event>
<event>
 5   0  0.1028016E-02  0.1134870E+04  0.7818609E-02  0.9171856E-01
        2   -1    0    0  501    0  0.00000000000E+00  0.00000000000E+00  0.43286981568E+03  0.43286981569E+03  0.25500000920E-02 0. -1.
       -2   -1    0    0    0  501  0.00000000000E+00  0.00000000000E+00 -0.74383252483E+03  0.74383252483E+03  0.25500000920E-02 0.  1.
    10030    2    1    2    0    0  0.00000000000E+00  0.00000000000E+00 -0.31096270915E+03  0.11767023405E+04  0.11348702973E+04 0.  0.
        2    1    3    3  502    0  0.84753755119E+02 -0.17478880585E+03  0.39732031092E+03  0.44226434983E+03  0.25500000920E-02 0. -1.
       -2    1    3    3    0  502 -0.84753755119E+02  0.17478880585E+03 -0.70828302006E+03  0.73443799069E+03  0.25500000920E-02 0.  1.
</event>
<event>
 5   0  0.1028016E-02  0.1016338E+04  0.7818609E-02  0.9290805E-01
        2   -1    0    0  501    0  0.00000000000E+00  0.00000000000E+00  0.80556923349E+03  0.80556923349E+03  0.25500000920E-02 0.  1.
       -2   -1    0    0    0  501  0.00000000000E+00  0.00000000000E+00 -0.32056289578E+03  0.32056289579E+03  0.25500000920E-02 0. -1.
    10030    2    1    2    0    0  0.00000000000E+00  0.00000000000E+00  0.48500633771E+03  0.11261321293E+04  0.10163377514E+04 0.  0.
        2    1    3    3  502    0 -0.22428931051E+03 -0.32175584224E+03  0.60052372831E+03  0.71725955211E+03  0.25500000920E-02 0.  1.
       -2    1    3    3    0  502  0.22428931051E+03  0.32175584224E+03 -0.11551739060E+03  0.40887257717E+03  0.25500000920E-02 0. -1.
</event>
<event>
 5   0  0.1019384E-02  0.1132454E+04  0.7818609E-02  0.9174125E-01
       -2   -1    0    0    0  501  0.00000000000E+00  0.00000000000E+00  0.40294411930E+03  0.40294411931E+03  0.25500000920E-02 0.  1.
        2   -1    0    0  501    0  0.00000000000E+00  0.00000000000E+00 -0.79567593469E+03  0.79567593469E+03  0.25500000920E-02 0. -1.
    10030    2    1    2    0    0  0.00000000000E+00  0.00000000000E+00 -0.39273181539E+03  0.11986200540E+04  0.11324538644E+04 0.  0.
        1    1    3    3  502    0 -0.13640164935E+03 -0.20568441220E+03  0.34301827883E+03  0.42257901866E+03  0.50400001928E-02 0.  1.
       -1    1    3    3    0  502  0.13640164935E+03  0.20568441220E+03 -0.73575009422E+03  0.77604103534E+03  0.50400001928E-02 0. -1.
</event>
<event>
 5   0  0.5712664E-03  0.1109066E+04  0.7818609E-02  0.9196400E-01
        1   -1    0    0  501    0  0.00000000000E+00  0.00000000000E+00  0.12577111897E+04  0.12577111897E+04  0.50400001928E-02 0.  1.
       -1   -1    0    0    0  501  0.00000000000E+00  0.00000000000E+00 -0.24449730287E+03  0.24449730293E+03  0.50400001928E-02 0. -1.
    10030    2    1    2    0    0  0.00000000000E+00  0.00000000000E+00  0.10132138868E+04  0.15022084926E+04  0.11090662626E+04 0.  0.
        5    1    3    3  502    0 -0.14331805638E+03  0.41220747195E+03  0.96996959066E+03  0.10636344118E+04  0.46999998093E+01 0.  1.
       -5    1    3    3    0  502  0.14331805638E+03 -0.41220747195E+03  0.43244296169E+02  0.43857408082E+03  0.46999998093E+01 0. -1.
</event>
<event>
 5   0  0.5789905E-03  0.1000637E+04  0.7818609E-02  0.9307846E-01
        1   -1    0    0  501    0  0.00000000000E+00  0.00000000000E+00  0.12974647277E+04  0.12974647277E+04  0.50400001928E-02 0.  1.
       -1   -1    0    0    0  501  0.00000000000E+00  0.00000000000E+00 -0.19292903884E+03  0.19292903890E+03  0.50400001928E-02 0. -1.
    10030    2    1    2    0    0  0.00000000000E+00  0.00000000000E+00  0.11045356889E+04  0.14903937666E+04  0.10006370429E+04 0.  0.
        1    1    3    3  502    0  0.36293362560E+03 -0.25655338654E+03  0.89444546136E+03  0.99878583295E+03  0.50400001928E-02 0.  1.
       -1    1    3    3    0  502 -0.36293362560E+03  0.25655338654E+03  0.21009022753E+03  0.49160793369E+03  0.50400001928E-02 0. -1.
</event>
<event>
 5   0  0.1019384E-02  0.1116408E+04  0.7818609E-02  0.9189345E-01
       -2   -1    0    0    0  501  0.00000000000E+00  0.00000000000E+00  0.13202409591E+03  0.13202409593E+03  0.25500000920E-02 0.  1.
        2   -1    0    0  501    0  0.00000000000E+00  0.00000000000E+00 -0.23601134100E+04  0.23601134100E+04  0.25500000920E-02 0. -1.
    10030    2    1    2    0    0  0.00000000000E+00  0.00000000000E+00 -0.22280893141E+04  0.24921375059E+04  0.11164082394E+04 0.  0.
        1    1    3    3  502    0  0.53829834845E+03  0.11750722653E+03 -0.91414912378E+03  0.10673526506E+04  0.50400001928E-02 0.  1.
       -1    1    3    3    0  502 -0.53829834845E+03 -0.11750722653E+03 -0.13139401903E+04  0.14247848553E+04  0.50400001928E-02 0. -1.
</event>
<event>
 5   0  0.5958706E-03  0.8872824E+03  0.7818609E-02  0.9441620E-01
       -1   -1    0    0    0  501  0.00000000000E+00  0.00000000000E+00  0.10513915099E+03  0.10513915111E+03  0.50400001928E-02 0. -1.
        1   -1    0    0  501    0  0.00000000000E+00  0.00000000000E+00 -0.18719717737E+04  0.18719717737E+04  0.50400001928E-02 0.  1.
    10030    2    1    2    0    0  0.00000000000E+00  0.00000000000E+00 -0.17668326227E+04  0.19771109248E+04  0.88728241971E+03 0.  0.
        2    1    3    3  502    0 -0.26214077784E+03 -0.21896551142E+02 -0.87387108889E+02  0.27718902064E+03  0.25500000920E-02 0. -1.
       -2    1    3    3    0  502  0.26214077784E+03  0.21896551142E+02 -0.16794455138E+04  0.16999219042E+04  0.25500000920E-02 0.  1.
</event>
<event>
 5   0  0.5998641E-03  0.1060458E+04  0.7818609E-02  0.9244613E-01
       -1   -1    0    0    0  501  0.00000000000E+00  0.00000000000E+00  0.38684593592E+03  0.38684593595E+03  0.50400001928E-02 0.  1.
        1   -1    0    0  501    0  0.00000000000E+00  0.00000000000E+00 -0.72675593004E+03  0.72675593005E+03  0.50400001928E-02 0. -1.
    10030    2    1    2    0    0  0.00000000000E+00  0.00000000000E+00 -0.33990999412E+03  0.11136018660E+04  0.10604575955E+04 0.  0.
        3    1    3    3  502    0  0.21366666126E+03 -0.14235583003E+03 -0.65712656580E+03  0.70550262804E+03  0.10100000352E+00 0. -1.
       -3    1    3    3    0  502 -0.21366666126E+03  0.14235583003E+03  0.31721657168E+03  0.40809923797E+03  0.10100000352E+00 0.  1.
</event>
<event>
 5   0  0.5854579E-03  0.1121104E+04  0.7818609E-02  0.9184863E-01
        1   -1    0    0  501    0  0.00000000000E+00  0.00000000000E+00  0.16582570168E+04  0.16582570168E+04  0.50400001928E-02 0.  1.
       -1   -1    0    0    0  501  0.00000000000E+00  0.00000000000E+00 -0.18948723792E+03  0.18948723799E+03  0.50400001928E-02 0. -1.
    10030    2    1    2    0    0  0.00000000000E+00  0.00000000000E+00  0.14687697789E+04  0.18477442548E+04  0.11211039951E+04 0.  0.
        4    1    3    3  502    0 -0.34426752583E+03 -0.44045098175E+03  0.66643539422E+03  0.86985915195E+03  0.12699999809E+01 0.  1.
       -4    1    3    3    0  502  0.34426752583E+03  0.44045098175E+03  0.80233438467E+03  0.97788510286E+03  0.12699999809E+01 0. -1.
</event>
<event>
 5   0  0.1019384E-02  0.9858759E+03  0.7818609E-02  0.9324173E-01
        2   -1    0    0  501    0  0.00000000000E+00  0.00000000000E+00  0.36935128973E+03  0.36935128974E+03  0.25500000920E-02 0. -1.
       -2   -1    0    0    0  501  0.00000000000E+00  0.00000000000E+00 -0.65787734227E+03  0.65787734227E+03  0.25500000920E-02 0.  1.
    10030    2    1    2    0    0  0.00000000000E+00  0.00000000000E+00 -0.28852605254E+03  0.10272286320E+04  0.98587594525E+03 0.  0.
        1    1    3    3  502    0  0.41105692264E+03 -0.18738991738E+03 -0.34978011845E+03  0.57133957160E+03  0.50400001928E-02 0.  1.
       -1    1    3    3    0  502 -0.41105692264E+03  0.18738991738E+03  0.61254065911E+02  0.45588906041E+03  0.50400001928E-02 0. -1.
</event>
<event>
 5   0  0.5958706E-03  0.1090535E+04  0.7818609E-02  0.9214467E-01
        1   -1    0    0  501    0  0.00000000000E+00  0.00000000000E+00  0.50131361036E+03  0.50131361038E+03  0.50400001928E-02 0. -1.
       -1   -1    0    0    0  501  0.00000000000E+00  0.00000000000E+00 -0.59307497899E+03  0.59307497902E+03  0.50400001928E-02 0.  1.
    10030    2    1    2    0    0  0.00000000000E+00  0.00000000000E+00 -0.91761368637E+02  0.10943885894E+04  0.10905348393E+04 0.  0.
        2    1    3    3  502    0 -0.19413784878E+03 -0.41511158211E+03  0.25064518358E+03  0.52233144458E+03  0.25500000920E-02 0. -1.
       -2    1    3    3    0  502  0.19413784878E+03  0.41511158211E+03 -0.34240655222E+03  0.57205714482E+03  0.25500000920E-02 0.  1.
</event>
<event>
 5   0  0.5998641E-03  0.1099468E+04  0.7818609E-02  0.9205710E-01
        1   -1    0    0  501    0  0.00000000000E+00  0.00000000000E+00  0.73018365562E+03  0.73018365563E+03  0.50400001928E-02 0. -1.
       -1   -1    0    0    0  501  0.00000000000E+00  0.00000000000E+00 -0.41387896024E+03  0.41387896027E+03  0.50400001928E-02 0.  1.
    10030    2    1    2    0    0  0.00000000000E+00  0.00000000000E+00  0.31630469538E+03  0.11440626159E+04  0.10994683301E+04 0.  0.
        3    1    3    3  502    0 -0.52962576077E+03  0.11801054011E+03  0.24992068986E+03  0.59740295904E+03  0.10100000352E+00 0. -1.
       -3    1    3    3    0  502  0.52962576077E+03 -0.11801054011E+03  0.66384005517E+02  0.54665965686E+03  0.10100000352E+00 0.  1.
</event>
<event>
 5   0  0.5712664E-03  0.8000980E+03  0.7818609E-02  0.9559875E-01
       -1   -1    0    0    0  501  0.00000000000E+00  0.00000000000E+00  0.19849589306E+03  0.19849589312E+03  0.50400001928E-02 0. -1.
        1   -1    0    0  501    0  0.00000000000E+00  0.00000000000E+00 -0.80625958827E+03  0.80625958829E+03  0.50400001928E-02 0.  1.
    10030    2    1    2    0    0  0.00000000000E+00  0.00000000000E+00 -0.60776369521E+03  0.10047554814E+04  0.80009803662E+03 0.  0.
        5    1    3    3  502    0  0.13280328791E+03 -0.21078869821E+03 -0.69690321250E+03  0.74011132011E+03  0.46999998093E+01 0.  1.
       -5    1    3    3    0  502 -0.13280328791E+03  0.21078869821E+03  0.89139517285E+02  0.26464416130E+03  0.46999998093E+01 0. -1.
</event>
<event>
 5   0  0.1019384E-02  0.1108310E+04  0.7818609E-02  0.9197130E-01
        2   -1    0    0  501    0  0.00000000000E+00  0.00000000000E+00  0.53078938796E+03  0.53078938797E+03  0.25500000920E-02 0. -1.
       -2   -1    0    0    0  501  0.00000000000E+00  0.00000000000E+00 -0.57854867237E+03  0.57854867237E+03  0.25500000920E-02 0.  1.
    10030    2    1    2    0    0  0.00000000000E+00  0.00000000000E+00 -0.47759284409E+02  0.11093380603E+04  0.11083095158E+04 0.  0.
        1    1    3    3  502    0  0.44550380294E+03 -0.32519076186E+03 -0.77453380358E+02  0.55697548975E+03  0.50400001928E-02 0.  1.
       -1    1    3    3    0  502 -0.44550380294E+03  0.32519076186E+03  0.29694095949E+02  0.55236257059E+03  0.50400001928E-02 0. -1.
</event>
<event>
 5   0  0.3949750E-03  0.7468274E+03  0.7818609E-02  0.9640341E-01
        3   -1    0    0  501    0  0.00000000000E+00  0.00000000000E+00  0.36475707365E+03  0.36475708764E+03  0.10100000352E+00 0.  1.
       -3   -1    0    0    0  501  0.00000000000E+00  0.00000000000E+00 -0.38227572976E+03  0.38227574311E+03  0.10100000352E+00 0. -1.
    10030    2    1    2    0    0  0.00000000000E+00  0.00000000000E+00 -0.17518656110E+02  0.74703283074E+03  0.74682738762E+03 0.  0.
        2    1    3    3  502    0  0.10191908166E+03  0.52505895963E+02  0.34671628507E+03  0.36518016191E+03  0.25500000920E-02 0.  1.
       -2    1    3    3    0  502 -0.10191908166E+03 -0.52505895963E+02 -0.36423494118E+03  0.38185266883E+03  0.25500000920E-02 0. -1.
</event>
<event>
 5   0  0.5998641E-03  0.1101210E+04  0.7818609E-02  0.9204013E-01
        1   -1    0    0  501    0  0.00000000000E+00  0.00000000000E+00  0.94215393683E+03  0.94215393684E+03  0.50400001928E-02 0. -1.
       -1   -1    0    0    0  501  0.00000000000E+00  0.00000000000E+00 -0.32177970759E+03  0.32177970763E+03  0.50400001928E-02 0.  1.
    10030    2    1    2    0    0  0.00000000000E+00  0.00000000000E+00  0.62037422923E+03  0.12639336445E+04  0.11012102766E+04 0.  0.
        3    1    3    3  502    0  0.49547666347E+03  0.78759026299E+02  0.49803408504E+02  0.50416316602E+03  0.10100000352E+00 0. -1.
       -3    1    3    3    0  502 -0.49547666347E+03 -0.78759026299E+02  0.57057082073E+03  0.75977047846E+03  0.10100000352E+00 0.  1.
</event>
<event>
 5   0  0.3949750E-03  0.1130045E+04  0.7818609E-02  0.9176393E-01
        3   -1    0    0  501    0  0.00000000000E+00  0.00000000000E+00  0.48230118487E+03  0.48230119545E+03  0.10100000352E+00 0. -1.
       -3   -1    0    0    0  501  0.00000000000E+00  0.00000000000E+00 -0.66193138216E+03  0.66193138987E+03  0.10100000352E+00 0.  1.
    10030    2    1    2    0    0  0.00000000000E+00  0.00000000000E+00 -0.17963019729E+03  0.11442325853E+04  0.11300447785E+04 0.  0.
        3    1    3    3  502    0  0.11821828793E+03 -0.33762640280E+03  0.35303526245E+03  0.50259432767E+03  0.10100000352E+00 0. -1.
       -3    1    3    3    0  502 -0.11821828793E+03  0.33762640280E+03 -0.53266545975E+03  0.64163825765E+03  0.10100000352E+00 0.  1.
</event>
<event>
 5   0  0.1028016E-02  0.1058671E+04  0.7818609E-02  0.9246437E-01
       -2   -1    0    0    0  501  0.00000000000E+00  0.00000000000E+00  0.79745706768E+03  0.79745706769E+03  0.25500000920E-02 0. -1.
        2   -1    0    0  501    0  0.00000000000E+00  0.00000000000E+00 -0.35136189677E+03  0.35136189678E+03  0.25500000920E-02 0.  1.
    10030    2    1    2    0    0  0.00000000000E+00  0.00000000000E+00  0.44609517091E+03  0.11488189645E+04  0.10586709175E+04 0.  0.
        2    1    3    3  502    0  0.22032990962E+03 -0.13427470084E+02  0.74512920356E+03  0.77713775872E+03  0.25500000920E-02 0. -1.
       -2    1    3    3    0  502 -0.22032990962E+03  0.13427470084E+02 -0.29903403265E+03  0.37168120575E+03  0.25500000920E-02 0.  1.
</event>
<event>
 5   0  0.5958706E-03  0.1049447E+04  0.7818609E-02  0.9255915E-01
        1   -1    0    0  501    0  0.00000000000E+00  0.00000000000E+00  0.79654245049E+03  0.79654245050E+03  0.50400001928E-02 0.  1.
       -1   -1    0    0    0  501  0.00000000000E+00  0.00000000000E+00 -0.34566219269E+03  0.34566219273E+03  0.50400001928E-02 0. -1.
    10030    2    1    2    0    0  0.00000000000E+00  0.00000000000E+00  0.45088025780E+03  0.11422046432E+04  0.10494467305E+04 0.  0.
        2    1    3    3  502    0 -0.33471802828E+03 -0.18522931945E+03  0.61633421876E+03  0.72540604385E+03  0.25500000920E-02 0.  1.
       -2    1    3    3    0  502  0.33471802828E+03  0.18522931945E+03 -0.16545396096E+03  0.41679859938E+03  0.25500000920E-02 0. -1.
</event>
<event>
 5   0  0.9692981E-03  0.1112376E+04  0.7818609E-02  0.9193213E-01
       -2   -1    0    0    0  501  0.00000000000E+00  0.00000000000E+00  0.24069722885E+03  0.24069722887E+03  0.25500000920E-02 0. -1.
        2   -1    0    0  501    0  0.00000000000E+00  0.00000000000E+00 -0.12852033879E+04  0.12852033879E+04  0.25500000920E-02 0.  1.
    10030    2    1    2    0    0  0.00000000000E+00  0.00000000000E+00 -0.10445061590E+04  0.15259006167E+04  0.11123756452E+04 0.  0.
        5    1    3    3  502    0 -0.17489366503E+03 -0.52611302248E+03 -0.58267389101E+03  0.80430943035E+03  0.46999998093E+01 0. -1.
       -5    1    3    3    0  502  0.17489366503E+03  0.52611302248E+03 -0.46183226799E+03  0.72159118637E+03  0.46999998093E+01 0.  1.
</event>
<event>
 5   0  0.9925021E-03  0.1120842E+04  0.7818609E-02  0.9185113E-01
        2   -1    0    0  501    0  0.00000000000E+00  0.00000000000E+00  0.48538524270E+03  0.48538524271E+03  0.25500000920E-02 0.  1.
       -2   -1    0    0    0  501  0.00000000000E+00  0.00000000000E+00 -0.64705667518E+03  0.64705667518E+03  0.25500000920E-02 0. -1.
    10030    2    1    2    0    0  0.00000000000E+00  0.00000000000E+00 -0.16167143248E+03  0.11324419179E+04  0.11208421144E+04 0.  0.
        4    1    3    3  502    0 -0.15863868023E+03 -0.12581542618E+03 -0.60880904828E+03  0.64159630805E+03  0.12699999809E+01 0. -1.
       -4    1    3    3    0  502  0.15863868023E+03  0.12581542618E+03  0.44713761581E+03  0.49084560984E+03  0.12699999809E+01 0.  1.
</event>
<event>
 5   0  0.9925021E-03  0.1165842E+04  0.7818609E-02  0.9143292E-01
       -2   -1    0    0    0  501  0.00000000000E+00  0.00000000000E+00  0.16271027739E+03  0.16271027741E+03  0.25500000920E-02 0.  1.
        2   -1    0    0  501    0  0.00000000000E+00  0.00000000000E+00 -0.20883550779E+04  0.20883550779E+04  0.25500000920E-02 0. -1.
    10030    2    1    2    0    0  0.00000000000E+00  0.00000000000E+00 -0.19256448005E+04  0.22510653553E+04  0.11658419002E+04 0.  0.
        4    1    3    3  502    0  0.37405036465E+03 -0.26779036617E+03 -0.27156242915E+03  0.53420325845E+03  0.12699999809E+01 0.  1.
       -4    1    3    3    0  502 -0.37405036465E+03  0.26779036617E+03 -0.16540823714E+04  0.17168620969E+04  0.12699999809E+01 0. -1.
</event>
<event>
 5   0  0.5712664E-03  0.1058469E+04  0.7818609E-02  0.9246644E-01
       -1   -1    0    0    0  501  0.00000000000E+00  0.00000000000E+00  0.27620976424E+03  0.27620976428E+03  0.50400001928E-02 0. -1.
        1   -1    0    0  501    0  0.00000000000E+00  0.00000000000E+00 -0.10140454898E+04  0.10140454899E+04  0.50400001928E-02 0.  1.
    10030    2    1    2    0    0  0.00000000000E+00  0.00000000000E+00 -0.73783572560E+03  0.12902552541E+04  0.10584692073E+04 0.  0.
        5    1    3    3  502    0 -0.48422062402E+02  0.36926516861E+03  0.89402818576E+02  0.38303578794E+03  0.46999998093E+01 0. -1.
       -5    1    3    3    0  502  0.48422062402E+02 -0.36926516861E+03 -0.82723854418E+03  0.90721946620E+03  0.46999998093E+01 0.  1.
</event>
<event>
 5   0  0.5712664E-03  0.1097227E+04  0.7818609E-02  0.9207899E-01
       -1   -1    0    0    0  501  0.00000000000E+00  0.00000000000E+00  0.14247062609E+04  0.14247062609E+04  0.50400001928E-02 0.  1.
        1   -1    0    0  501    0  0.00000000000E+00  0.00000000000E+00 -0.21125541101E+03  0.21125541107E+03  0.50400001928E-02 0. -1.
    10030    2    1    2    0    0  0.00000000000E+00  0.00000000000E+00  0.12134508499E+04  0.16359616720E+04  0.10972272450E+04 0.  0.
        5    1    3    3  502    0 -0.15359446889E+01 -0.14312505235E+02  0.14243946154E+04  0.14244751024E+04  0.46999998093E+01 0.  1.
       -5    1    3    3    0  502  0.15359446889E+01  0.14312505235E+02 -0.21094376549E+03  0.21148656962E+03  0.46999998093E+01 0. -1.
</event>
<event>
 5   0  0.5712664E-03  0.1109341E+04  0.7818609E-02  0.9196135E-01
        1   -1    0    0  501    0  0.00000000000E+00  0.00000000000E+00  0.33624640129E+03  0.33624640132E+03  0.50400001928E-02 0. -1.
       -1   -1    0    0    0  501  0.00000000000E+00  0.00000000000E+00 -0.91498163683E+03  0.91498163685E+03  0.50400001928E-02 0.  1.
    10030    2    1    2    0    0  0.00000000000E+00  0.00000000000E+00 -0.57873523555E+03  0.12512280382E+04  0.11093408541E+04 0.  0.
        5    1    3    3  502    0  0.35176114114E+03  0.42161784869E+03 -0.20098957159E+03  0.58473618722E+03  0.46999998093E+01 0. -1.
       -5    1    3    3    0  502 -0.35176114114E+03 -0.42161784869E+03 -0.37774566396E+03  0.66649185096E+03  0.46999998093E+01 0.  1.
</event>
<event>
 5   0  0.9925021E-03  0.1115213E+04  0.7818609E-02  0.9190490E-01
        2   -1    0    0  501    0  0.00000000000E+00  0.00000000000E+00  0.72992374167E+03  0.72992374167E+03  0.25500000920E-02 0.  1.
       -2   -1    0    0    0  501  0.00000000000E+00  0.00000000000E+00 -0.42596915368E+03  0.42596915369E+03  0.25500000920E-02 0. -1.
    10030    2    1    2    0    0  0.00000000000E+00  0.00000000000E+00  0.30395458799E+03  0.11558928954E+04  0.11152129814E+04 0.  0.
        4    1    3    3  502    0  0.39477060605E+03  0.90928989514E+02 -0.24515918074E+03  0.47351509938E+03  0.12699999809E+01 0.  1.
       -4    1    3    3    0  502 -0.39477060605E+03 -0.90928989514E+02  0.54911376873E+03  0.68237779598E+03  0.12699999809E+01 0. -1.
</event>
<event>
 5   0  0.9692981E-03  0.1119481E+04  0.7818609E-02  0.9186410E-01
        2   -1    0    0  501    0  0.00000000000E+00  0.00000000000E+00  0.18703098949E+04  0.18703098949E+04  0.25500000920E-02 0. -1.
       -2   -1    0    0    0  501  0.00000000000E+00  0.00000000000E+00 -0.16751730899E+03  0.16751730901E+03  0.25500000920E-02 0.  1.
    10030    2    1    2    0    0  0.00000000000E+00  0.00000000000E+00  0.17027925859E+04  0.20378272039E+04  0.11194807378E+04 0.  0.
        5    1    3    3  502    0  0.42215841914E+03 -0.36748624663E+03  0.84260608852E+03  0.10115685754E+04  0.46999998093E+01 0. -1.
       -5    1    3    3    0  502 -0.42215841914E+03  0.36748624663E+03  0.86018649735E+03  0.10262586285E+04  0.46999998093E+01 0.  1.
</event>
<event>
 5   0  0.5998641E-03  0.1096826E+04  0.7818609E-02  0.9208291E-01
        1   -1    0    0  501    0  0.00000000000E+00  0.00000000000E+00  0.14295096949E+04  0.14295096949E+04  0.50400001928E-02 0. -1.
       -1   -1    0    0    0  501  0.00000000000E+00  0.00000000000E+00 -0.21039162589E+03  0.21039162595E+03  0.50400001928E-02 0.  1.
    10030    2    1    2    0    0  0.00000000000E+00  0.00000000000E+00  0.12191180690E+04  0.16399013209E+04  0.10968260920E+04 0.  0.
        3    1    3    3  502    0  0.20481301351E+03  0.13510767275E+03  0.13428673328E+04  0.13650989478E+04  0.10100000352E+00 0. -1.
       -3    1    3    3    0  502 -0.20481301351E+03 -0.13510767275E+03 -0.12374926377E+03  0.27480237303E+03  0.10100000352E+00 0.  1.
</event>
<event>
 5   0  0.9925021E-03  0.1136139E+04  0.7818609E-02  0.9170667E-01
        2   -1    0    0  501    0  0.00000000000E+00  0.00000000000E+00  0.12239585147E+04  0.12239585147E+04  0.25500000920E-02 0.  1.
       -2   -1    0    0    0  501  0.00000000000E+00  0.00000000000E+00 -0.26365492190E+03  0.26365492192E+03  0.25500000920E-02 0. -1.
    10030    2    1    2    0    0  0.00000000000E+00  0.00000000000E+00  0.96030359279E+03  0.14876134366E+04  0.11361385243E+04 0.  0.
        4    1    3    3  502    0  0.41471052713E+03 -0.21395864126E+03  0.90430729239E+03  0.10176130962E+04  0.12699999809E+01 0. -1.
       -4    1    3    3    0  502 -0.41471052713E+03  0.21395864126E+03  0.55996300399E+02  0.47000034047E+03  0.12699999809E+01 0.  1.
</event>
<event>
 5   0  0.1019384E-02  0.1101536E+04  0.7818609E-02  0.9203696E-01
       -2   -1    0    0    0  501  0.00000000000E+00  0.00000000000E+00  0.33184445258E+03  0.33184445259E+03  0.25500000920E-02 0.  1.
        2   -1    0    0  501    0  0.00000000000E+00  0.00000000000E+00 -0.91411881824E+03  0.91411881825E+03  0.25500000920E-02 0. -1.
    10030    2    1    2    0    0  0.00000000000E+00  0.00000000000E+00 -0.58227436567E+03  0.12459632708E+04  0.11015357622E+04 0.  0.
        1    1    3    3  502    0  0.54827606166E+03  0.10677934336E+02 -0.34908515760E+03  0.65006238574E+03  0.50400001928E-02 0.  1.
       -1    1    3    3    0  502 -0.54827606166E+03 -0.10677934336E+02 -0.23318920806E+03  0.59590088509E+03  0.50400001928E-02 0. -1.
</event>
<event>
 5   0  0.3949750E-03  0.1367258E+04  0.7818609E-02  0.8977866E-01
       -3   -1    0    0    0  501  0.00000000000E+00  0.00000000000E+00  0.59791426956E+03  0.59791427810E+03  0.10100000352E+00 0.  1.
        3   -1    0    0  501    0  0.00000000000E+00  0.00000000000E+00 -0.78163166706E+03  0.78163167359E+03  0.10100000352E+00 0. -1.
    10030    2    1    2    0    0  0.00000000000E+00  0.00000000000E+00 -0.18371739750E+03  0.13795459517E+04  0.13672581873E+04 0.  0.
        3    1    3    3  502    0  0.42520034008E+03 -0.35491058041E+03 -0.49619936942E+03  0.74361997936E+03  0.10100000352E+00 0. -1.
       -3    1    3    3    0  502 -0.42520034008E+03  0.35491058041E+03  0.31248197192E+03  0.63592597232E+03  0.10100000352E+00 0.  1.
</event>
<event>
 5   0  0.5789905E-03  0.1117391E+04  0.7818609E-02  0.9188405E-01
       -1   -1    0    0    0  501  0.00000000000E+00  0.00000000000E+00  0.34254144372E+03  0.34254144375E+03  0.50400001928E-02 0. -1.
        1   -1    0    0  501    0  0.00000000000E+00  0.00000000000E+00 -0.91124951152E+03  0.91124951153E+03  0.50400001928E-02 0.  1.
    10030    2    1    2    0    0  0.00000000000E+00  0.00000000000E+00 -0.56870806780E+03  0.12537909553E+04  0.11173911102E+04 0.  0.
        1    1    3    3  502    0  0.16670970972E+02  0.50864813097E+03 -0.25693476659E+02  0.50956942332E+03  0.50400001928E-02 0. -1.
       -1    1    3    3    0  502 -0.16670970972E+02 -0.50864813097E+03 -0.54301459114E+03  0.74422153196E+03  0.50400001928E-02 0.  1.
</event>
<event>
 5   0  0.9719260E-03  0.1107471E+04  0.7818609E-02  0.9197941E-01
        2   -1    0    0  501    0  0.00000000000E+00  0.00000000000E+00  0.27828688152E+03  0.27828688153E+03  0.25500000920E-02 0. -1.
       -2   -1    0    0    0  501  0.00000000000E+00  0.00000000000E+00 -0.11018227466E+04  0.11018227466E+04  0.25500000920E-02 0.  1.
    10030    2    1    2    0    0  0.00000000000E+00  0.00000000000E+00 -0.82353586507E+03  0.13801096281E+04  0.11074706608E+04 0.  0.
        3    1    3    3  502    0 -0.42326850710E+03  0.26505795108E+03 -0.70983952774E+03  0.86791941554E+03  0.10100000352E+00 0.  1.
       -3    1    3    3    0  502  0.42326850710E+03 -0.26505795108E+03 -0.11369633733E+03  0.51219021258E+03  0.10100000352E+00 0. -1.
</event>
<event>
 5   0  0.5998641E-03  0.1343479E+04  0.7818609E-02  0.8995779E-01
       -1   -1    0    0    0  501  0.00000000000E+00  0.00000000000E+00  0.29181206556E+03  0.29181206561E+03  0.50400001928E-02 0.  1.
        1   -1    0    0  501    0  0.00000000000E+00  0.00000000000E+00 -0.15463171242E+04  0.15463171242E+04  0.50400001928E-02 0. -1.
    10030    2    1    2    0    0  0.00000000000E+00  0.00000000000E+00 -0.12545050587E+04  0.18381291898E+04  0.13434790569E+04 0.  0.
        3    1    3    3  502    0 -0.45478620049E+02  0.44317512582E+03 -0.13151133631E+04  0.13885228356E+04  0.10100000352E+00 0. -1.
       -3    1    3    3    0  502  0.45478620049E+02 -0.44317512582E+03  0.60608304394E+02  0.44960635426E+03  0.10100000352E+00 0.  1.
</event>
<event>
 5   0  0.5712664E-03  0.1073056E+04  0.7818609E-02  0.9231859E-01
        1   -1    0    0  501    0  0.00000000000E+00  0.00000000000E+00  0.41107532128E+03  0.41107532131E+03  0.50400001928E-02 0. -1.
       -1   -1    0    0    0  501  0.00000000000E+00  0.00000000000E+00 -0.70026669248E+03  0.70026669250E+03  0.50400001928E-02 0.  1.
    10030    2    1    2    0    0  0.00000000000E+00  0.00000000000E+00 -0.28919137120E+03  0.11113420138E+04  0.10730561134E+04 0.  0.
        5    1    3    3  502    0 -0.29564109897E+03  0.40270948387E+03 -0.34718069461E+03  0.60838730469E+03  0.46999998093E+01 0.  1.
       -5    1    3    3    0  502  0.29564109897E+03 -0.40270948387E+03  0.57989323413E+02  0.50295470912E+03  0.46999998093E+01 0. -1.
</event>
<event>
 5   0  0.3949750E-03  0.1043830E+04  0.7818609E-02  0.9261738E-01
        3   -1    0    0  501    0  0.00000000000E+00  0.00000000000E+00  0.15872234698E+03  0.15872237911E+03  0.10100000352E+00 0. -1.
       -3   -1    0    0    0  501  0.00000000000E+00  0.00000000000E+00 -0.17161728783E+04  0.17161728813E+04  0.10100000352E+00 0.  1.
    10030    2    1    2    0    0  0.00000000000E+00  0.00000000000E+00 -0.15574505314E+04  0.18748952604E+04  0.10438295263E+04 0.  0.
        3    1    3    3  502    0  0.16475722538E+03  0.17092515529E+03 -0.16135766055E+04  0.16309475234E+04  0.10100000352E+00 0.  1.
       -3    1    3    3    0  502 -0.16475722538E+03 -0.17092515529E+03  0.56126074105E+02  0.24394773707E+03  0.10100000352E+00 0. -1.
</event>
<event>
 5   0  0.5789905E-03  0.1101651E+04  0.7818609E-02  0.9203584E-01
        1   -1    0    0  501    0  0.00000000000E+00  0.00000000000E+00  0.11483962595E+04  0.11483962595E+04  0.50400001928E-02 0.  1.
       -1   -1    0    0    0  501  0.00000000000E+00  0.00000000000E+00 -0.26420209531E+03  0.26420209536E+03  0.50400001928E-02 0. -1.
    10030    2    1    2    0    0  0.00000000000E+00  0.00000000000E+00  0.88419416417E+03  0.14125983548E+04  0.11016509393E+04 0.  0.
        1    1    3    3  502    0  0.57011193472E+02 -0.48352605120E+03  0.77241420057E+03  0.91305608570E+03  0.50400001928E-02 0. -1.
       -1    1    3    3    0  502 -0.57011193472E+02  0.48352605120E+03  0.11177996360E+03  0.49954226914E+03  0.50400001928E-02 0.  1.
</event>
<event>
 5   0  0.5789905E-03  0.1111222E+04  0.7818609E-02  0.9194322E-01
       -1   -1    0    0    0  501  0.00000000000E+00  0.00000000000E+00  0.30205641825E+03  0.30205641829E+03  0.50400001928E-02 0.  1.
        1   -1    0    0  501    0  0.00000000000E+00  0.00000000000E+00 -0.10220068960E+04  0.10220068960E+04  0.50400001928E-02 0. -1.
    10030    2    1    2    0    0  0.00000000000E+00  0.00000000000E+00 -0.71995047776E+03  0.13240633143E+04  0.11112222864E+04 0.  0.
        1    1    3    3  502    0  0.21580742407E+03 -0.30816372018E+03  0.12719619053E+03  0.39713548523E+03  0.50400001928E-02 0.  1.
       -1    1    3    3    0  502 -0.21580742407E+03  0.30816372018E+03 -0.84714666829E+03  0.92692782909E+03  0.50400001928E-02 0. -1.
</event>
<event>
 5   0  0.3949750E-03  0.7230049E+03  0.7818609E-02  0.9678680E-01
        3   -1    0    0  501    0  0.00000000000E+00  0.00000000000E+00  0.92197901362E+02  0.92197956683E+02  0.10100000352E+00 0.  1.
       -3   -1    0    0    0  501  0.00000000000E+00  0.00000000000E+00 -0.14174288493E+04  0.14174288529E+04  0.10100000352E+00 0. -1.
    10030    2    1    2    0    0  0.00000000000E+00  0.00000000000E+00 -0.13252309480E+04  0.15096268096E+04  0.72300486779E+03 0.  0.
        3    1    3    3  502    0 -0.72290043074E+02 -0.29790554980E+03 -0.10626736308E+04  0.11060057968E+04  0.10100000352E+00 0. -1.
       -3    1    3    3    0  502  0.72290043074E+02  0.29790554980E+03 -0.26255731721E+03  0.40362101277E+03  0.10100000352E+00 0.  1.
</event>
<event>
 5   0  0.9719260E-03  0.1107876E+04  0.7818609E-02  0.9197549E-01
       -2   -1    0    0    0  501  0.00000000000E+00  0.00000000000E+00  0.29629510279E+03  0.29629510280E+03  0.25500000920E-02 0.  1.
        2   -1    0    0  501    0  0.00000000000E+00  0.00000000000E+00 -0.10356137503E+04  0.10356137503E+04  0.25500000920E-02 0. -1.
    10030    2    1    2    0    0  0.00000000000E+00  0.00000000000E+00 -0.73931864749E+03  0.13319088531E+04  0.11078759544E+04 0.  0.
        3    1    3    3  502    0 -0.34160965144E+03 -0.39748142200E+03 -0.15406754780E+03  0.54628330953E+03  0.10100000352E+00 0.  1.
       -3    1    3    3    0  502  0.34160965144E+03  0.39748142200E+03 -0.58525109969E+03  0.78562554355E+03  0.10100000352E+00 0. -1.
</event>
<event>
 5   0  0.3949750E-03  0.1102920E+04  0.7818609E-02  0.9202350E-01
       -3   -1    0    0    0  501  0.00000000000E+00  0.00000000000E+00  0.52205984187E+03  0.52205985164E+03  0.10100000352E+00 0. -1.
        3   -1    0    0  501    0  0.00000000000E+00  0.00000000000E+00 -0.58251628520E+03  0.58251629396E+03  0.10100000352E+00 0.  1.
    10030    2    1    2    0    0  0.00000000000E+00  0.00000000000E+00 -0.60456443335E+02  0.11045761456E+04  0.11029204322E+04 0.  0.
        5    1    3    3  502    0 -0.36502738211E+03 -0.24280537056E+03 -0.36522527445E+03  0.57062336857E+03  0.46999998093E+01 0.  1.
       -5    1    3    3    0  502  0.36502738211E+03  0.24280537056E+03  0.30476883112E+03  0.53395277702E+03  0.46999998093E+01 0. -1.
</event>
<event>
 5   0  0.5789905E-03  0.1075571E+04  0.7818609E-02  0.9229335E-01
       -1   -1    0    0    0  501  0.00000000000E+00  0.00000000000E+00  0.60467256575E+03  0.60467256577E+03  0.50400001928E-02 0.  1.
        1   -1    0    0  501    0  0.00000000000E+00  0.00000000000E+00 -0.47829699738E+03  0.47829699741E+03  0.50400001928E-02 0. -1.
    10030    2    1    2    0    0  0.00000000000E+00  0.00000000000E+00  0.12637556837E+03  0.10829695632E+04  0.10755706813E+04 0.  0.
        1    1    3    3  502    0  0.29841894946E+03  0.42399355342E+03  0.20695893280E+03  0.55826194804E+03  0.50400001928E-02 0.  1.
       -1    1    3    3    0  502 -0.29841894946E+03 -0.42399355342E+03 -0.80583364435E+02  0.52470761514E+03  0.50400001928E-02 0. -1.
</event>
<event>
 5   0  0.5958706E-03  0.1092890E+04  0.7818609E-02  0.9212150E-01
        1   -1    0    0  501    0  0.00000000000E+00  0.00000000000E+00  0.75102418903E+03  0.75102418905E+03  0.50400001928E-02 0.  1.
       -1   -1    0    0    0  501  0.00000000000E+00  0.00000000000E+00 -0.39759299616E+03  0.39759299619E+03  0.50400001928E-02 0. -1.
    10030    2    1    2    0    0  0.00000000000E+00  0.00000000000E+00  0.35343119287E+03  0.11486171852E+04  0.10928896697E+04 0.  0.
        2    1    3    3  502    0  0.28718145988E+03  0.45350346158E+03  0.69209046502E+02  0.54122866950E+03  0.25500000920E-02 0.  1.
       -2    1    3    3    0  502 -0.28718145988E+03 -0.45350346158E+03  0.28422214637E+03  0.60738851574E+03  0.25500000920E-02 0. -1.
</event>
<event>
 5   0  0.5998641E-03  0.1095277E+04  0.7818609E-02  0.9209808E-01
       -1   -1    0    0    0  501  0.00000000000E+00  0.00000000000E+00  0.28720682566E+03  0.28720682571E+03  0.50400001928E-02 0. -1.
        1   -1    0    0  501    0  0.00000000000E+00  0.00000000000E+00 -0.10442224307E+04  0.10442224307E+04  0.50400001928E-02 0.  1.
    10030    2    1    2    0    0  0.00000000000E+00  0.00000000000E+00 -0.75701560500E+03  0.13314292564E+04  0.10952767863E+04 0.  0.
        3    1    3    3  502    0 -0.48397385186E+03 -0.20340843587E+03 -0.18900472009E+03  0.55796816709E+03  0.10100000352E+00 0. -1.
       -3    1    3    3    0  502  0.48397385186E+03  0.20340843587E+03 -0.56801088491E+03  0.77346108929E+03  0.10100000352E+00 0.  1.
</event>
<event>
 5   0  0.9925021E-03  0.1130799E+04  0.7818609E-02  0.9175683E-01
        2   -1    0    0  501    0  0.00000000000E+00  0.00000000000E+00  0.14016450941E+04  0.14016450941E+04  0.25500000920E-02 0.  1.
       -2   -1    0    0    0  501  0.00000000000E+00  0.00000000000E+00 -0.22807225339E+03  0.22807225340E+03  0.25500000920E-02 0. -1.
    10030    2    1    2    0    0  0.00000000000E+00  0.00000000000E+00  0.11735728407E+04  0.16297173475E+04  0.11307985764E+04 0.  0.
        4    1    3    3  502    0 -0.44729022422E+03  0.17805541219E+02  0.89017787403E+02  0.45641139485E+03  0.12699999809E+01 0. -1.
       -4    1    3    3    0  502  0.44729022422E+03 -0.17805541219E+02  0.10845550533E+04  0.11733059527E+04  0.12699999809E+01 0.  1.
</event>
<event>
 5   0  0.9719260E-03  0.1101495E+04  0.7818609E-02  0.9203736E-01
        2   -1    0    0  501    0  0.00000000000E+00  0.00000000000E+00  0.10673049993E+04  0.10673049993E+04  0.25500000920E-02 0.  1.
       -2   -1    0    0    0  501  0.00000000000E+00  0.00000000000E+00 -0.28419508093E+03  0.28419508094E+03  0.25500000920E-02 0. -1.
    10030    2    1    2    0    0  0.00000000000E+00  0.00000000000E+00  0.78310991839E+03  0.13515000803E+04  0.11014950398E+04 0.  0.
        3    1    3    3  502    0  0.12410773638E+03 -0.14532887482E+03 -0.24220693622E+03  0.30852458936E+03  0.10100000352E+00 0. -1.
       -3    1    3    3    0  502 -0.12410773638E+03  0.14532887482E+03  0.10253168546E+04  0.10429754909E+04  0.10100000352E+00 0.  1.
</event>
<event>
 5   0  0.5854579E-03  0.1105853E+04  0.7818609E-02  0.9199506E-01
       -1   -1    0    0    0  501  0.00000000000E+00  0.00000000000E+00  0.25660807139E+03  0.25660807144E+03  0.50400001928E-02 0. -1.
        1   -1    0    0  501    0  0.00000000000E+00  0.00000000000E+00 -0.11914192889E+04  0.11914192889E+04  0.50400001928E-02 0.  1.
    10030    2    1    2    0    0  0.00000000000E+00  0.00000000000E+00 -0.93481121748E+03  0.14480273603E+04  0.11058531656E+04 0.  0.
        4    1    3    3  502    0 -0.16900651075E+03 -0.59809597134E+02 -0.11523038991E+04  0.11661673453E+04  0.12699999809E+01 0.  1.
       -4    1    3    3    0  502  0.16900651075E+03  0.59809597134E+02  0.21749268161E+03  0.28186001497E+03  0.12699999809E+01 0. -1.
</event>
<event>
 5   0  0.5958706E-03  0.1105586E+04  0.7818609E-02  0.9199764E-01
       -1   -1    0    0    0  501  0.00000000000E+00  0.00000000000E+00  0.17665215059E+03  0.17665215066E+03  0.50400001928E-02 0. -1.
        1   -1    0    0  501    0  0.00000000000E+00  0.00000000000E+00 -0.17298419722E+04  0.17298419722E+04  0.50400001928E-02 0.  1.
    10030    2    1    2    0    0  0.00000000000E+00  0.00000000000E+00 -0.15531898216E+04  0.19064941229E+04  0.11055863687E+04 0.  0.
        2    1    3    3  502    0 -0.17103754672E+03 -0.52156812415E+03 -0.66360724541E+03  0.86119784410E+03  0.25500000920E-02 0. -1.
       -2    1    3    3    0  502  0.17103754672E+03  0.52156812415E+03 -0.88958257621E+03  0.10452962788E+04  0.25500000920E-02 0.  1.
</event>
<event>
 5   0  0.5958706E-03  0.1070082E+04  0.7818609E-02  0.9234852E-01
       -1   -1    0    0    0  501  0.00000000000E+00  0.00000000000E+00  0.28685477744E+03  0.28685477748E+03  0.50400001928E-02 0. -1.
        1   -1    0    0  501    0  0.00000000000E+00  0.00000000000E+00 -0.99795794523E+03  0.99795794524E+03  0.50400001928E-02 0.  1.
    10030    2    1    2    0    0  0.00000000000E+00  0.00000000000E+00 -0.71110316779E+03  0.12848127227E+04  0.10700822479E+04 0.  0.
        2    1    3    3  502    0 -0.13143116562E+02  0.53152330689E+03 -0.28371959381E+03  0.60264962889E+03  0.25500000920E-02 0. -1.
       -2    1    3    3    0  502  0.13143116562E+02 -0.53152330689E+03 -0.42738357398E+03  0.68216309384E+03  0.25500000920E-02 0.  1.
</event>
<event>
 5   0  0.5789905E-03  0.6750754E+03  0.7818609E-02  0.9760832E-01
       -1   -1    0    0    0  501  0.00000000000E+00  0.00000000000E+00  0.21455615191E+03  0.21455615197E+03  0.50400001928E-02 0. -1.
        1   -1    0    0  501    0  0.00000000000E+00  0.00000000000E+00 -0.53101110853E+03  0.53101110855E+03  0.50400001928E-02 0.  1.
    10030    2    1    2    0    0  0.00000000000E+00  0.00000000000E+00 -0.31645495662E+03  0.74556726052E+03  0.67507540349E+03 0.  0.
        1    1    3    3  502    0  0.54827074625E+01  0.27219319624E+03  0.62138370414E+02  0.27924966117E+03  0.50400001928E-02 0. -1.
       -1    1    3    3    0  502 -0.54827074625E+01 -0.27219319624E+03 -0.37859332703E+03  0.46631759935E+03  0.50400001928E-02 0.  1.
</event>
<event>
 5   0  0.5712664E-03  0.1094024E+04  0.7818609E-02  0.9211036E-01
       -1   -1    0    0    0  501  0.00000000000E+00  0.00000000000E+00  0.33367664427E+03  0.33367664431E+03  0.50400001928E-02 0. -1.
        1   -1    0    0  501    0  0.00000000000E+00  0.00000000000E+00 -0.89674301087E+03  0.89674301088E+03  0.50400001928E-02 0.  1.
    10030    2    1    2    0    0  0.00000000000E+00  0.00000000000E+00 -0.56306636660E+03  0.12304196552E+04  0.10940241289E+04 0.  0.
        5    1    3    3  502    0 -0.50667017661E+03 -0.18257831334E+03 -0.17394832488E+03  0.56597669395E+03  0.46999998093E+01 0. -1.
       -5    1    3    3    0  502  0.50667017661E+03  0.18257831334E+03 -0.38911804171E+03  0.66444296125E+03  0.46999998093E+01 0.  1.
</event>
<event>
 5   0  0.5854579E-03  0.8372697E+03  0.7818609E-02  0.9507584E-01
       -1   -1    0    0    0  501  0.00000000000E+00  0.00000000000E+00  0.34273773662E+03  0.34273773665E+03  0.50400001928E-02 0. -1.
        1   -1    0    0  501    0  0.00000000000E+00  0.00000000000E+00 -0.51133891210E+03  0.51133891213E+03  0.50400001928E-02 0.  1.
    10030    2    1    2    0    0  0.00000000000E+00  0.00000000000E+00 -0.16860117549E+03  0.85407664878E+03  0.83726970901E+03 0.  0.
        4    1    3    3  502    0 -0.26043905070E+03 -0.23923186898E+03  0.14423490662E+03  0.38192369323E+03  0.12699999809E+01 0. -1.
       -4    1    3    3    0  502  0.26043905070E+03  0.23923186898E+03 -0.31283608211E+03  0.47215295555E+03  0.12699999809E+01 0.  1.
</event>
<event>
 5   0  0.9925021E-03  0.1101469E+04  0.7818609E-02  0.9203761E-01
        2   -1    0    0  501    0  0.00000000000E+00  0.00000000000E+00  0.74622041069E+03  0.74622041069E+03  0.25500000920E-02 0. -1.
       -2   -1    0    0    0  501  0.00000000000E+00  0.00000000000E+00 -0.40645992750E+03  0.40645992751E+03  0.25500000920E-02 0.  1.
    10030    2    1    2    0    0  0.00000000000E+00  0.00000000000E+00  0.33976048319E+03  0.11526803382E+04  0.11014693714E+04 0.  0.
        4    1    3    3  502    0  0.12427707641E+03  0.72010924588E+02  0.72627301267E+03  0.74034077749E+03  0.12699999809E+01 0. -1.
       -4    1    3    3    0  502 -0.12427707641E+03 -0.72010924588E+02 -0.38651252948E+03  0.41233956071E+03  0.12699999809E+01 0.  1.
</event>
<event>
 5   0  0.3949750E-03  0.9931253E+03  0.7818609E-02  0.9316117E-01
        3   -1    0    0  501    0  0.00000000000E+00  0.00000000000E+00  0.96247812907E+03  0.96247813437E+03  0.10100000352E+00 0.  1.
       -3   -1    0    0    0  501  0.00000000000E+00  0.00000000000E+00 -0.25618709174E+03  0.25618711165E+03  0.10100000352E+00 0. -1.
    10030    2    1    2    0    0  0.00000000000E+00  0.00000000000E+00  0.70629103732E+03  0.12186652460E+04  0.99312534579E+03 0.  0.
        4    1    3    3  502    0  0.49351816614E+03  0.49843922729E+02  0.32494145187E+03  0.59298664149E+03  0.12699999809E+01 0.  1.
       -4    1    3    3    0  502 -0.49351816614E+03 -0.49843922729E+02  0.38134958545E+03  0.62567860453E+03  0.12699999809E+01 0. -1.
</event>
<event>
 5   0  0.9925021E-03  0.1102094E+04  0.7818609E-02  0.9203153E-01
        2   -1    0    0  501    0  0.00000000000E+00  0.00000000000E+00  0.15722764760E+04  0.15722764760E+04  0.25500000920E-02 0.  1.
       -2   -1    0    0    0  501  0.00000000000E+00  0.00000000000E+00 -0.19312942039E+03  0.19312942041E+03  0.25500000920E-02 0. -1.
    10030    2    1    2    0    0  0.00000000000E+00  0.00000000000E+00  0.13791470557E+04  0.17654058965E+04  0.11020940877E+04 0.  0.
        4    1    3    3  502    0  0.22947840545E+03 -0.18252398444E+03 -0.57788559332E+02  0.29885861867E+03  0.12699999809E+01 0. -1.
       -4    1    3    3    0  502 -0.22947840545E+03  0.18252398444E+03  0.14369356150E+04  0.14665472778E+04  0.12699999809E+01 0.  1.
</event>
<event>
 5   0  0.5789905E-03  0.1045248E+04  0.7818609E-02  0.9260264E-01
       -1   -1    0    0    0  501  0.00000000000E+00  0.00000000000E+00  0.11690833123E+04  0.11690833123E+04  0.50400001928E-02 0.  1.
        1   -1    0    0  501    0  0.00000000000E+00  0.00000000000E+00 -0.23363257425E+03  0.23363257430E+03  0.50400001928E-02 0. -1.
    10030    2    1    2    0    0  0.00000000000E+00  0.00000000000E+00  0.93545073801E+03  0.14027158866E+04  0.10452481883E+04 0.  0.
        1    1    3    3  502    0  0.77815814391E+02  0.14960525359E+03 -0.19611905294E+03  0.25864979378E+03  0.50400001928E-02 0. -1.
       -1    1    3    3    0  502 -0.77815814391E+02 -0.14960525359E+03  0.11315697909E+04  0.11440660928E+04  0.50400001928E-02 0.  1.
</event>
<event>
 5   0  0.5854579E-03  0.1136162E+04  0.7818609E-02  0.9170645E-01
        1   -1    0    0  501    0  0.00000000000E+00  0.00000000000E+00  0.12659230812E+04  0.12659230812E+04  0.50400001928E-02 0. -1.
       -1   -1    0    0    0  501  0.00000000000E+00  0.00000000000E+00 -0.25492563381E+03  0.25492563386E+03  0.50400001928E-02 0.  1.
    10030    2    1    2    0    0  0.00000000000E+00  0.00000000000E+00  0.10109974474E+04  0.15208487151E+04  0.11361623896E+04 0.  0.
        4    1    3    3  502    0  0.34001220396E+02  0.46370375390E+02  0.12620157901E+04  0.12633256754E+04  0.12699999809E+01 0. -1.
       -4    1    3    3    0  502 -0.34001220396E+02 -0.46370375390E+02 -0.25101834271E+03  0.25752303970E+03  0.12699999809E+01 0.  1.
</event>
<event>
 5   0  0.9925021E-03  0.9996598E+03  0.7818609E-02  0.9308918E-01
        2   -1    0    0  501    0  0.00000000000E+00  0.00000000000E+00  0.10000871259E+04  0.10000871259E+04  0.25500000920E-02 0. -1.
       -2   -1    0    0    0  501  0.00000000000E+00  0.00000000000E+00 -0.24980816780E+03  0.24980816781E+03  0.25500000920E-02 0.  1.
    10030    2    1    2    0    0  0.00000000000E+00  0.00000000000E+00  0.75027895812E+03  0.12498952937E+04  0.99965980728E+03 0.  0.
        4    1    3    3  502    0  0.16653468266E+03 -0.47009800273E+03  0.33362606624E+03  0.60002824739E+03  0.12699999809E+01 0. -1.
       -4    1    3    3    0  502 -0.16653468266E+03  0.47009800273E+03  0.41665289188E+03  0.64986704633E+03  0.12699999809E+01 0.  1.
</event>
<event>
 5   0  0.9925021E-03  0.1250370E+04  0.7818609E-02  0.9069876E-01
       -2   -1    0    0    0  501  0.00000000000E+00  0.00000000000E+00  0.25112243453E+03  0.25112243454E+03  0.25500000920E-02 0.  1.
        2   -1    0    0  501    0  0.00000000000E+00  0.00000000000E+00 -0.15564361865E+04  0.15564361865E+04  0.25500000920E-02 0. -1.
    10030    2    1    2    0    0  0.00000000000E+00  0.00000000000E+00 -0.13053137520E+04  0.18075586210E+04  0.12503696163E+04 0.  0.
        4    1    3    3  502    0  0.87611898485E+02 -0.19516554252E+03  0.19656179788E+03  0.29052295440E+03  0.12699999809E+01 0.  1.
       -4    1    3    3    0  502 -0.87611898485E+02  0.19516554252E+03 -0.15018755498E+04  0.15170356666E+04  0.12699999809E+01 0. -1.
</event>
<event>
 5   0  0.9692981E-03  0.6910058E+03  0.7818609E-02  0.9732738E-01
        2   -1    0    0  501    0  0.00000000000E+00  0.00000000000E+00  0.39296237292E+03  0.39296237292E+03  0.25500000920E-02 0.  1.
       -2   -1    0    0    0  501  0.00000000000E+00  0.00000000000E+00 -0.30377532129E+03  0.30377532130E+03  0.25500000920E-02 0. -1.
    10030    2    1    2    0    0  0.00000000000E+00  0.00000000000E+00  0.89187051625E+02  0.69673769423E+03  0.69100584974E+03 0.  0.
        5    1    3    3  502    0 -0.30585312804E+03  0.15979274434E+03  0.28015611006E+02  0.34624676393E+03  0.46999998093E+01 0. -1.
       -5    1    3    3    0  502  0.30585312804E+03 -0.15979274434E+03  0.61171440619E+02  0.35049093030E+03  0.46999998093E+01 0.  1.
</event>
<event>
 5   0  0.1019384E-02  0.1104766E+04  0.7818609E-02  0.9200559E-01
       -2   -1    0    0    0  501  0.00000000000E+00  0.00000000000E+00  0.32104313638E+03  0.32104313639E+03  0.25500000920E-02 0.  1.
        2   -1    0    0  501    0  0.00000000000E+00  0.00000000000E+00 -0.95042306993E+03  0.95042306994E+03  0.25500000920E-02 0. -1.
    10030    2    1    2    0    0  0.00000000000E+00  0.00000000000E+00 -0.62937993355E+03  0.12714662063E+04  0.11047656824E+04 0.  0.
        1    1    3    3  502    0 -0.16024071066E+03 -0.14615975618E+03  0.26998937306E+03  0.34631491633E+03  0.50400001928E-02 0.  1.
       -1    1    3    3    0  502  0.16024071066E+03  0.14615975618E+03 -0.89936930662E+03  0.92515129000E+03  0.50400001928E-02 0. -1.
</event>
<event>
 5   0  0.5712664E-03  0.1091628E+04  0.7818609E-02  0.9213391E-01
        1   -1    0    0  501    0  0.00000000000E+00  0.00000000000E+00  0.14510396035E+04  0.14510396035E+04  0.50400001928E-02 0. -1.
       -1   -1    0    0    0  501  0.00000000000E+00  0.00000000000E+00 -0.20530988817E+03  0.20530988823E+03  0.50400001928E-02 0.  1.
    10030    2    1    2    0    0  0.00000000000E+00  0.00000000000E+00  0.12457297153E+04  0.16563494917E+04  0.10916277365E+04 0.  0.
        5    1    3    3  502    0 -0.93613932281E+02 -0.42992366796E+03  0.13285536019E+03  0.45964177935E+03  0.46999998093E+01 0.  1.
       -5    1    3    3    0  502  0.93613932281E+02  0.42992366796E+03  0.11128743551E+04  0.11967077124E+04  0.46999998093E+01 0. -1.
</event>
<event>
 5   0  0.9692981E-03  0.1123141E+04  0.7818609E-02  0.9182926E-01
        2   -1    0    0  501    0  0.00000000000E+00  0.00000000000E+00  0.11153006783E+04  0.11153006783E+04  0.25500000920E-02 0.  1.
       -2   -1    0    0    0  501  0.00000000000E+00  0.00000000000E+00 -0.28275888174E+03  0.28275888175E+03  0.25500000920E-02 0. -1.
    10030    2    1    2    0    0  0.00000000000E+00  0.00000000000E+00  0.83254179656E+03  0.13980595601E+04  0.11231405480E+04 0.  0.
        5    1    3    3  502    0 -0.15477253825E+03  0.20838735062E+03 -0.20357214230E+03  0.32991443378E+03  0.46999998093E+01 0. -1.
       -5    1    3    3    0  502  0.15477253825E+03 -0.20838735062E+03  0.10361139389E+04  0.10681451263E+04  0.46999998093E+01 0.  1.
</event>
<event>
 5   0  0.3949750E-03  0.1097630E+04  0.7818609E-02  0.9207505E-01
       -4   -1    0    0    0  501  0.00000000000E+00  0.00000000000E+00  0.74555160930E+03  0.74555269098E+03  0.12699999809E+01 0.  1.
        4   -1    0    0  501    0  0.00000000000E+00  0.00000000000E+00 -0.40399116468E+03  0.40399316088E+03  0.12699999809E+01 0. -1.
    10030    2    1    2    0    0  0.00000000000E+00  0.00000000000E+00  0.34156044462E+03  0.11495458519E+04  0.10976302329E+04 0.  0.
        4    1    3    3  502    0  0.49301054462E+02 -0.54488064018E+03  0.12548034238E+03  0.56131313474E+03  0.12699999809E+01 0. -1.
       -4    1    3    3    0  502 -0.49301054462E+02  0.54488064018E+03  0.21608010224E+03  0.58823271712E+03  0.12699999809E+01 0.  1.
</event>
<event>
 5   0  0.9692981E-03  0.1065116E+04  0.7818609E-02  0.9239875E-01
        2   -1    0    0  501    0  0.00000000000E+00  0.00000000000E+00  0.67341016690E+03  0.67341016690E+03  0.25500000920E-02 0. -1.
       -2   -1    0    0    0  501  0.00000000000E+00  0.00000000000E+00 -0.42116711911E+03  0.42116711911E+03  0.25500000920E-02 0.  1.
    10030    2    1    2    0    0  0.00000000000E+00  0.00000000000E+00  0.25224304779E+03  0.10945772860E+04  0.10651163692E+04 0.  0.
        5    1    3    3  502    0 -0.37399672059E+03 -0.94755845353E+02 -0.25110650100E+03  0.46035723311E+03  0.46999998093E+01 0.  1.
       -5    1    3    3    0  502  0.37399672059E+03  0.94755845353E+02  0.50334954879E+03  0.63422005290E+03  0.46999998093E+01 0. -1.
</event>
<event>
 5   0  0.5998641E-03  0.1117219E+04  0.7818609E-02  0.9188570E-01
       -1   -1    0    0    0  501  0.00000000000E+00  0.00000000000E+00  0.43644753152E+03  0.43644753155E+03  0.50400001928E-02 0.  1.
        1   -1    0    0  501    0  0.00000000000E+00  0.00000000000E+00 -0.71496460034E+03  0.71496460036E+03  0.50400001928E-02 0. -1.
    10030    2    1    2    0    0  0.00000000000E+00  0.00000000000E+00 -0.27851706882E+03  0.11514121319E+04  0.11172189310E+04 0.  0.
        3    1    3    3  502    0  0.10804503439E+03  0.95235685193E+02  0.41698307456E+03  0.44115582265E+03  0.10100000352E+00 0.  1.
       -3    1    3    3    0  502 -0.10804503439E+03 -0.95235685193E+02 -0.69550014338E+03  0.71025630925E+03  0.10100000352E+00 0. -1.
</event>
<event>
 5   0  0.5958706E-03  0.1109610E+04  0.7818609E-02  0.9195875E-01
       -1   -1    0    0    0  501  0.00000000000E+00  0.00000000000E+00  0.21461949424E+03  0.21461949430E+03  0.50400001928E-02 0.  1.
        1   -1    0    0  501    0  0.00000000000E+00  0.00000000000E+00 -0.14342072352E+04  0.14342072352E+04  0.50400001928E-02 0. -1.
    10030    2    1    2    0    0  0.00000000000E+00  0.00000000000E+00 -0.12195877410E+04  0.16488267295E+04  0.11096104389E+04 0.  0.
        2    1    3    3  502    0  0.26165096950E+03 -0.13271700925E+03  0.89919918714E+02  0.30685603493E+03  0.25500000920E-02 0.  1.
       -2    1    3    3    0  502 -0.26165096950E+03  0.13271700925E+03 -0.13095076597E+04  0.13419706946E+04  0.25500000920E-02 0. -1.
</event>
<event>
 5   0  0.5998641E-03  0.1062566E+04  0.7818609E-02  0.9242466E-01
       -1   -1    0    0    0  501  0.00000000000E+00  0.00000000000E+00  0.16428637714E+03  0.16428637722E+03  0.50400001928E-02 0. -1.
        1   -1    0    0  501    0  0.00000000000E+00  0.00000000000E+00 -0.17181076523E+04  0.17181076523E+04  0.50400001928E-02 0.  1.
    10030    2    1    2    0    0  0.00000000000E+00  0.00000000000E+00 -0.15538212751E+04  0.18823940295E+04  0.10625661049E+04 0.  0.
        3    1    3    3  502    0  0.13127955314E+03 -0.48304145181E+03 -0.10923185674E+04  0.12015503435E+04  0.10100000352E+00 0.  1.
       -3    1    3    3    0  502 -0.13127955314E+03  0.48304145181E+03 -0.46150270778E+03  0.68084368597E+03  0.10100000352E+00 0. -1.
</event>
<event>
 5   0  0.5998641E-03  0.8573036E+03  0.7818609E-02  0.9480586E-01
       -1   -1    0    0    0  501  0.00000000000E+00  0.00000000000E+00  0.11885179766E+03  0.11885179776E+03  0.50400001928E-02 0. -1.
        1   -1    0    0  501    0  0.00000000000E+00  0.00000000000E+00 -0.15459788512E+04  0.15459788512E+04  0.50400001928E-02 0.  1.
    10030    2    1    2    0    0  0.00000000000E+00  0.00000000000E+00 -0.14271270535E+04  0.16648306490E+04  0.85730360013E+03 0.  0.
        3    1    3    3  502    0  0.21022469339E+02 -0.42707646263E+03 -0.65510807758E+03  0.78230611186E+03  0.10100000352E+00 0. -1.
       -3    1    3    3    0  502 -0.21022469339E+02  0.42707646263E+03 -0.77201897595E+03  0.88252453709E+03  0.10100000352E+00 0.  1.
</event>
<event>
 5   0  0.1028016E-02  0.1095522E+04  0.7818609E-02  0.9209568E-01
       -2   -1    0    0    0  501  0.00000000000E+00  0.00000000000E+00  0.67308168408E+03  0.67308168408E+03  0.25500000920E-02 0. -1.
        2   -1    0    0  501    0  0.00000000000E+00  0.00000000000E+00 -0.44577334614E+03  0.44577334615E+03  0.25500000920E-02 0.  1.
    10030    2    1    2    0    0  0.00000000000E+00  0.00000000000E+00  0.22730833794E+03  0.11188550302E+04  0.10955215645E+04 0.  0.
        2    1    3    3  502    0  0.27110558559E+03  0.46246144492E+03  0.22862652402E+03  0.58278547859E+03  0.25500000920E-02 0. -1.
       -2    1    3    3    0  502 -0.27110558559E+03 -0.46246144492E+03 -0.13181860743E+01  0.53606955164E+03  0.25500000920E-02 0.  1.
</event>
<event>
 5   0  0.5998641E-03  0.1020447E+04  0.7818609E-02  0.9286399E-01
       -1   -1    0    0    0  501  0.00000000000E+00  0.00000000000E+00  0.54158766882E+03  0.54158766884E+03  0.50400001928E-02 0. -1.
        1   -1    0    0  501    0  0.00000000000E+00  0.00000000000E+00 -0.48067548526E+03  0.48067548528E+03  0.50400001928E-02 0.  1.
    10030    2    1    2    0    0  0.00000000000E+00  0.00000000000E+00  0.60912183564E+02  0.10222631541E+04  0.10204467954E+04 0.  0.
        3    1    3    3  502    0 -0.98781903948E+02  0.49984913183E+03  0.57353206694E+02  0.51273425832E+03  0.10100000352E+00 0.  1.
       -3    1    3    3    0  502  0.98781903948E+02 -0.49984913183E+03  0.35589768701E+01  0.50952889580E+03  0.10100000352E+00 0. -1.
</event>
<event>
 5   0  0.5958706E-03  0.1085636E+04  0.7818609E-02  0.9219306E-01
        1   -1    0    0  501    0  0.00000000000E+00  0.00000000000E+00  0.72826747274E+03  0.72826747276E+03  0.50400001928E-02 0. -1.
       -1   -1    0    0    0  501  0.00000000000E+00  0.00000000000E+00 -0.40459245131E+03  0.40459245135E+03  0.50400001928E-02 0.  1.
    10030    2    1    2    0    0  0.00000000000E+00  0.00000000000E+00  0.32367502143E+03  0.11328599241E+04  0.10856362596E+04 0.  0.
        2    1    3    3  502    0 -0.33077251340E+01  0.52698657868E+03  0.26079477435E+02  0.52764186178E+03  0.25500000920E-02 0.  1.
       -2    1    3    3    0  502  0.33077251340E+01 -0.52698657868E+03  0.29759554399E+03  0.60521806233E+03  0.25500000920E-02 0. -1.
</event>
<event>
 5   0  0.5789905E-03  0.1066812E+04  0.7818609E-02  0.9238156E-01
        1   -1    0    0  501    0  0.00000000000E+00  0.00000000000E+00  0.86741183090E+03  0.86741183091E+03  0.50400001928E-02 0.  1.
       -1   -1    0    0    0  501  0.00000000000E+00  0.00000000000E+00 -0.32801272604E+03  0.32801272607E+03  0.50400001928E-02 0. -1.
    10030    2    1    2    0    0  0.00000000000E+00  0.00000000000E+00  0.53939910486E+03  0.11954245570E+04  0.10668122970E+04 0.  0.
        1    1    3    3  502    0  0.49029184898E+03  0.20104938231E+03  0.33799997422E+03  0.62853077403E+03  0.50400001928E-02 0. -1.
       -1    1    3    3    0  502 -0.49029184898E+03 -0.20104938231E+03  0.20139913064E+03  0.56689378296E+03  0.50400001928E-02 0.  1.
</event>
<event>
 5   0  0.1019384E-02  0.1087858E+04  0.7818609E-02  0.9217108E-01
       -2   -1    0    0    0  501  0.00000000000E+00  0.00000000000E+00  0.17068786972E+03  0.17068786974E+03  0.25500000920E-02 0.  1.
        2   -1    0    0  501    0  0.00000000000E+00  0.00000000000E+00 -0.17333312745E+04  0.17333312745E+04  0.25500000920E-02 0. -1.
    10030    2    1    2    0    0  0.00000000000E+00  0.00000000000E+00 -0.15626434047E+04  0.19040191442E+04  0.10878577532E+04 0.  0.
        1    1    3    3  502    0  0.91497679890E+02 -0.43808601628E+03 -0.24025080522E+03  0.50794845459E+03  0.50400001928E-02 0.  1.
       -1    1    3    3    0  502 -0.91497679890E+02  0.43808601628E+03 -0.13223925995E+04  0.13960706896E+04  0.50400001928E-02 0. -1.
</event>
<event>
 5   0  0.1028016E-02  0.1092413E+04  0.7818609E-02  0.9212618E-01
       -2   -1    0    0    0  501  0.00000000000E+00  0.00000000000E+00  0.13374942913E+04  0.13374942913E+04  0.25500000920E-02 0.  1.
        2   -1    0    0  501    0  0.00000000000E+00  0.00000000000E+00 -0.22306007166E+03  0.22306007167E+03  0.25500000920E-02 0. -1.
    10030    2    1    2    0    0  0.00000000000E+00  0.00000000000E+00  0.11144342197E+04  0.15605543630E+04  0.10924130583E+04 0.  0.
        2    1    3    3  502    0 -0.99573387500E+02 -0.33446407619E+03  0.11574762583E+04  0.12089385288E+04  0.25500000920E-02 0.  1.
       -2    1    3    3    0  502  0.99573387500E+02  0.33446407619E+03 -0.43042038686E+02  0.35161583420E+03  0.25500000920E-02 0. -1.
</event>
<event>
 5   0  0.5998641E-03  0.1108821E+04  0.7818609E-02  0.9196637E-01
        1   -1    0    0  501    0  0.00000000000E+00  0.00000000000E+00  0.81707950359E+03  0.81707950361E+03  0.50400001928E-02 0. -1.
       -1   -1    0    0    0  501  0.00000000000E+00  0.00000000000E+00 -0.37618256147E+03  0.37618256150E+03  0.50400001928E-02 0.  1.
    10030    2    1    2    0    0  0.00000000000E+00  0.00000000000E+00  0.44089694212E+03  0.11932620651E+04  0.11088211048E+04 0.  0.
        3    1    3    3  502    0 -0.12208585812E+03 -0.40473149855E+03  0.60645407140E+03  0.73925577007E+03  0.10100000352E+00 0. -1.
       -3    1    3    3    0  502  0.12208585812E+03  0.40473149855E+03 -0.16555712927E+03  0.45400629503E+03  0.10100000352E+00 0.  1.
</event>
<event>
 5   0  0.1019384E-02  0.1043595E+04  0.7818609E-02  0.9261982E-01
        2   -1    0    0  501    0  0.00000000000E+00  0.00000000000E+00  0.90012150861E+03  0.90012150862E+03  0.25500000920E-02 0.  1.
       -2   -1    0    0    0  501  0.00000000000E+00  0.00000000000E+00 -0.30248432604E+03  0.30248432605E+03  0.25500000920E-02 0. -1.
    10030    2    1    2    0    0  0.00000000000E+00  0.00000000000E+00  0.59763718257E+03  0.12026058347E+04  0.10435950324E+04 0.  0.
        1    1    3    3  502    0 -0.96965696446E+02  0.25875496828E+03 -0.21124748735E+03  0.34782464093E+03  0.50400001928E-02 0. -1.
       -1    1    3    3    0  502  0.96965696446E+02 -0.25875496828E+03  0.80888466993E+03  0.85478119374E+03  0.50400001928E-02 0.  1.
</event>
<event>
 5   0  0.5789905E-03  0.1122028E+04  0.7818609E-02  0.9183984E-01
       -1   -1    0    0    0  501  0.00000000000E+00  0.00000000000E+00  0.59605909642E+03  0.59605909644E+03  0.50400001928E-02 0. -1.
        1   -1    0    0  501    0  0.00000000000E+00  0.00000000000E+00 -0.52802967921E+03  0.52802967923E+03  0.50400001928E-02 0.  1.
    10030    2    1    2    0    0  0.00000000000E+00  0.00000000000E+00  0.68029417212E+02  0.11240887757E+04  0.11220283303E+04 0.  0.
        1    1    3    3  502    0  0.44136521725E+03  0.26342036025E+03  0.25924604318E+03  0.57567530095E+03  0.50400001928E-02 0. -1.
       -1    1    3    3    0  502 -0.44136521725E+03 -0.26342036025E+03 -0.19121662597E+03  0.54841347473E+03  0.50400001928E-02 0.  1.
</event>
<event>
 5   0  0.5998641E-03  0.1118866E+04  0.7818609E-02  0.9186996E-01
        1   -1    0    0  501    0  0.00000000000E+00  0.00000000000E+00  0.91248898589E+03  0.91248898590E+03  0.50400001928E-02 0.  1.
       -1   -1    0    0    0  501  0.00000000000E+00  0.00000000000E+00 -0.34297975027E+03  0.34297975031E+03  0.50400001928E-02 0. -1.
    10030    2    1    2    0    0  0.00000000000E+00  0.00000000000E+00  0.56950923561E+03  0.12554687362E+04  0.11188659339E+04 0.  0.
        3    1    3    3  502    0  0.34893501288E+03  0.43293377124E+03  0.35372385582E+03  0.65902038654E+03  0.10100000352E+00 0.  1.
       -3    1    3    3    0  502 -0.34893501288E+03 -0.43293377124E+03  0.21578537980E+03  0.59644834967E+03  0.10100000352E+00 0. -1.
</event>
<event>
 5   0  0.9925021E-03  0.1101014E+04  0.7818609E-02  0.9204204E-01
       -2   -1    0    0    0  501  0.00000000000E+00  0.00000000000E+00  0.51453080121E+03  0.51453080122E+03  0.25500000920E-02 0. -1.
        2   -1    0    0  501    0  0.00000000000E+00  0.00000000000E+00 -0.58899888005E+03  0.58899888005E+03  0.25500000920E-02 0.  1.
    10030    2    1    2    0    0  0.00000000000E+00  0.00000000000E+00 -0.74468078839E+02  0.11035296813E+04  0.11010141973E+04 0.  0.
        4    1    3    3  502    0  0.33316019780E+03  0.36741328354E+03 -0.27666937414E+03  0.56792234839E+03  0.12699999809E+01 0.  1.
       -4    1    3    3    0  502 -0.33316019780E+03 -0.36741328354E+03  0.20220129530E+03  0.53560733288E+03  0.12699999809E+01 0. -1.
</event>
<event>
 5   0  0.9692981E-03  0.1158752E+04  0.7818609E-02  0.9149748E-01
        2   -1    0    0  501    0  0.00000000000E+00  0.00000000000E+00  0.11862622974E+04  0.11862622974E+04  0.25500000920E-02 0. -1.
       -2   -1    0    0    0  501  0.00000000000E+00  0.00000000000E+00 -0.28296972507E+03  0.28296972509E+03  0.25500000920E-02 0.  1.
    10030    2    1    2    0    0  0.00000000000E+00  0.00000000000E+00  0.90329257235E+03  0.14692320225E+04  0.11587515975E+04 0.  0.
        5    1    3    3  502    0  0.26802438331E+03  0.47893241899E+03  0.21633798486E+03  0.58994707025E+03  0.46999998093E+01 0.  1.
       -5    1    3    3    0  502 -0.26802438331E+03 -0.47893241899E+03  0.68695458749E+03  0.87928495226E+03  0.46999998093E+01 0. -1.
</event>
<event>
 5   0  0.5712664E-03  0.6677837E+03  0.7818609E-02  0.9773970E-01
        1   -1    0    0  501    0  0.00000000000E+00  0.00000000000E+00  0.53081415494E+03  0.53081415497E+03  0.50400001928E-02 0.  1.
       -1   -1    0    0    0  501  0.00000000000E+00  0.00000000000E+00 -0.21002408098E+03  0.21002408104E+03  0.50400001928E-02 0. -1.
    10030    2    1    2    0    0  0.00000000000E+00  0.00000000000E+00  0.32079007396E+03  0.74083823600E+03  0.66778366285E+03 0.  0.
        5    1    3    3  502    0  0.30493098382E+03  0.31554015325E+02  0.30708380917E+03  0.43393676571E+03  0.46999998093E+01 0. -1.
       -5    1    3    3    0  502 -0.30493098382E+03 -0.31554015325E+02  0.13706264793E+02  0.30690147030E+03  0.46999998093E+01 0.  1.
</event>
<event>
 5   0  0.1019384E-02  0.1101704E+04  0.7818609E-02  0.9203533E-01
        2   -1    0    0  501    0  0.00000000000E+00  0.00000000000E+00  0.65795254755E+03  0.65795254756E+03  0.25500000920E-02 0. -1.
       -2   -1    0    0    0  501  0.00000000000E+00  0.00000000000E+00 -0.46118472139E+03  0.46118472140E+03  0.25500000920E-02 0.  1.
    10030    2    1    2    0    0  0.00000000000E+00  0.00000000000E+00  0.19676782616E+03  0.11191372690E+04  0.11017035215E+04 0.  0.
        1    1    3    3  502    0 -0.27436117832E+03 -0.31793009065E+02  0.58253139624E+03  0.64469192583E+03  0.50400001928E-02 0. -1.
       -1    1    3    3    0  502  0.27436117832E+03  0.31793009065E+02 -0.38576357008E+03  0.47444534313E+03  0.50400001928E-02 0.  1.
</event>
<event>
 5   0  0.9692981E-03  0.1094633E+04  0.7818609E-02  0.9210438E-01
        2   -1    0    0  501    0  0.00000000000E+00  0.00000000000E+00  0.54073728266E+03  0.54073728266E+03  0.25500000920E-02 0. -1.
       -2   -1    0    0    0  501  0.00000000000E+00  0.00000000000E+00 -0.55397607232E+03  0.55397607232E+03  0.25500000920E-02 0.  1.
    10030    2    1    2    0    0  0.00000000000E+00  0.00000000000E+00 -0.13238789662E+02  0.10947133550E+04  0.10946333012E+04 0.  0.
        5    1    3    3  502    0  0.50613451701E+03  0.80538708137E+02 -0.19866154363E+03  0.54967911706E+03  0.46999998093E+01 0.  1.
       -5    1    3    3    0  502 -0.50613451701E+03 -0.80538708137E+02  0.18542275397E+03  0.54503423792E+03  0.46999998093E+01 0. -1.
</event>
<event>
 5   0  0.9925021E-03  0.1114599E+04  0.7818609E-02  0.9191078E-01
        2   -1    0    0  501    0  0.00000000000E+00  0.00000000000E+00  0.14467015527E+04  0.14467015527E+04  0.25500000920E-02 0. -1.
       -2   -1    0    0    0  501  0.00000000000E+00  0.00000000000E+00 -0.21468346626E+03  0.21468346628E+03  0.25500000920E-02 0.  1.
    10030    2    1    2    0    0  0.00000000000E+00  0.00000000000E+00  0.12320180865E+04  0.16613850190E+04  0.11145993074E+04 0.  0.
        4    1    3    3  502    0  0.99317670194E+02 -0.53151851554E+03  0.41489094838E+03  0.68155120418E+03  0.12699999809E+01 0.  1.
       -4    1    3    3    0  502 -0.99317670194E+02  0.53151851554E+03  0.81712713810E+03  0.97983381483E+03  0.12699999809E+01 0. -1.
</event>
<event>
 5   0  0.5998641E-03  0.1109457E+04  0.7818609E-02  0.9196023E-01
        1   -1    0    0  501    0  0.00000000000E+00  0.00000000000E+00  0.11299940673E+04  0.11299940673E+04  0.50400001928E-02 0.  1.
       -1   -1    0    0    0  501  0.00000000000E+00  0.00000000000E+00 -0.27232319214E+03  0.27232319219E+03  0.50400001928E-02 0. -1.
    10030    2    1    2    0    0  0.00000000000E+00  0.00000000000E+00  0.85767087511E+03  0.14023172594E+04  0.11094567888E+04 0.  0.
        3    1    3    3  502    0 -0.46071047722E+03  0.26698767039E+03  0.23226098199E+03  0.58093178077E+03  0.10100000352E+00 0.  1.
       -3    1    3    3    0  502  0.46071047722E+03 -0.26698767039E+03  0.62540989312E+03  0.82138547867E+03  0.10100000352E+00 0. -1.
</event>
<event>
 5   0  0.5998641E-03  0.1082870E+04  0.7818609E-02  0.9222051E-01
       -1   -1    0    0    0  501  0.00000000000E+00  0.00000000000E+00  0.35475021898E+03  0.35475021902E+03  0.50400001928E-02 0. -1.
        1   -1    0    0  501    0  0.00000000000E+00  0.00000000000E+00 -0.82636067392E+03  0.82636067393E+03  0.50400001928E-02 0.  1.
    10030    2    1    2    0    0  0.00000000000E+00  0.00000000000E+00 -0.47161045494E+03  0.11811108929E+04  0.10828695767E+04 0.  0.
        3    1    3    3  502    0  0.96664939177E+02  0.52663898469E+03 -0.14814684761E+03  0.55555398416E+03  0.10100000352E+00 0. -1.
       -3    1    3    3    0  502 -0.96664939177E+02 -0.52663898469E+03 -0.32346360733E+03  0.62555690879E+03  0.10100000352E+00 0.  1.
</event>
<event>
 5   0  0.9719260E-03  0.1113278E+04  0.7818609E-02  0.9192346E-01
        2   -1    0    0  501    0  0.00000000000E+00  0.00000000000E+00  0.14118633576E+04  0.14118633576E+04  0.25500000920E-02 0.  1.
       -2   -1    0    0    0  501  0.00000000000E+00  0.00000000000E+00 -0.21945974524E+03  0.21945974525E+03  0.25500000920E-02 0. -1.
    10030    2    1    2    0    0  0.00000000000E+00  0.00000000000E+00  0.11924036124E+04  0.16313231029E+04  0.11132783529E+04 0.  0.
        3    1    3    3  502    0  0.53309614741E+03 -0.63244442468E+02  0.81183883794E+03  0.97327985230E+03  0.10100000352E+00 0.  1.
       -3    1    3    3    0  502 -0.53309614741E+03  0.63244442468E+02  0.38056477445E+03  0.65804325059E+03  0.10100000352E+00 0. -1.
</event>
<event>
 5   0  0.9925021E-03  0.1097748E+04  0.7818609E-02  0.9207390E-01
        2   -1    0    0  501    0  0.00000000000E+00  0.00000000000E+00  0.22980698938E+04  0.22980698938E+04  0.25500000920E-02 0. -1.
       -2   -1    0    0    0  501  0.00000000000E+00  0.00000000000E+00 -0.13109376021E+03  0.13109376024E+03  0.25500000920E-02 0.  1.
    10030    2    1    2    0    0  0.00000000000E+00  0.00000000000E+00  0.21669761336E+04  0.24291636540E+04  0.10977479194E+04 0.  0.
        4    1    3    3  502    0 -0.18998484620E+03  0.50027506325E+03  0.13535263082E+04  0.14554739642E+04  0.12699999809E+01 0. -1.
       -4    1    3    3    0  502  0.18998484620E+03 -0.50027506325E+03  0.81344982538E+03  0.97368968980E+03  0.12699999809E+01 0.  1.
</event>
<event>
 5   0  0.5958706E-03  0.1112382E+04  0.7818609E-02  0.9193207E-01
        1   -1    0    0  501    0  0.00000000000E+00  0.00000000000E+00  0.41972299971E+03  0.41972299974E+03  0.50400001928E-02 0.  1.
       -1   -1    0    0    0  501  0.00000000000E+00  0.00000000000E+00 -0.73702955567E+03  0.73702955569E+03  0.50400001928E-02 0. -1.
    10030    2    1    2    0    0  0.00000000000E+00  0.00000000000E+00 -0.31730655596E+03  0.11567525554E+04  0.11123816899E+04 0.  0.
        2    1    3    3  502    0 -0.28988163911E+03 -0.16770392058E+03 -0.62042953283E+03  0.70504522896E+03  0.25500000920E-02 0. -1.
       -2    1    3    3    0  502  0.28988163911E+03  0.16770392058E+03  0.30312297687E+03  0.45170732647E+03  0.25500000920E-02 0.  1.
</event>
<event>
 5   0  0.5789905E-03  0.1109136E+04  0.7818609E-02  0.9196333E-01
       -1   -1    0    0    0  501  0.00000000000E+00  0.00000000000E+00  0.47408488583E+03  0.47408488586E+03  0.50400001928E-02 0. -1.
        1   -1    0    0  501    0  0.00000000000E+00  0.00000000000E+00 -0.64871380016E+03  0.64871380018E+03  0.50400001928E-02 0.  1.
    10030    2    1    2    0    0  0.00000000000E+00  0.00000000000E+00 -0.17462891433E+03  0.11227986860E+04  0.11091355335E+04 0.  0.
        1    1    3    3  502    0  0.46260216849E+01  0.14664715548E+03  0.45408077876E+03  0.47719612525E+03  0.50400001928E-02 0. -1.
       -1    1    3    3    0  502 -0.46260216849E+01 -0.14664715548E+03 -0.62870969309E+03  0.64560256079E+03  0.50400001928E-02 0.  1.
</event>
<event>
 5   0  0.5958706E-03  0.1102942E+04  0.7818609E-02  0.9202329E-01
       -1   -1    0    0    0  501  0.00000000000E+00  0.00000000000E+00  0.55984530883E+03  0.55984530886E+03  0.50400001928E-02 0. -1.
        1   -1    0    0  501    0  0.00000000000E+00  0.00000000000E+00 -0.54322238076E+03  0.54322238078E+03  0.50400001928E-02 0.  1.
    10030    2    1    2    0    0  0.00000000000E+00  0.00000000000E+00  0.16622928075E+02  0.11030676896E+04  0.11029424310E+04 0.  0.
        2    1    3    3  502    0 -0.39961085895E+03 -0.34272459152E+03 -0.15593726153E+03  0.54905866149E+03  0.25500000920E-02 0. -1.
       -2    1    3    3    0  502  0.39961085895E+03  0.34272459152E+03  0.17256018960E+03  0.55400902814E+03  0.25500000920E-02 0.  1.
</event>
<event>
 5   0  0.3949750E-03  0.6692362E+03  0.7818609E-02  0.9771339E-01
       -3   -1    0    0    0  501  0.00000000000E+00  0.00000000000E+00  0.85552399510E+03  0.85552400106E+03  0.10100000352E+00 0. -1.
        3   -1    0    0  501    0  0.00000000000E+00  0.00000000000E+00 -0.13087797313E+03  0.13087801210E+03  0.10100000352E+00 0.  1.
    10030    2    1    2    0    0  0.00000000000E+00  0.00000000000E+00  0.72464602197E+03  0.98640201316E+03  0.66923618732E+03 0.  0.
        4    1    3    3  502    0  0.85841546727E+01 -0.33450477913E+03  0.36125940446E+03  0.49241964337E+03  0.12699999809E+01 0. -1.
       -4    1    3    3    0  502 -0.85841546727E+01  0.33450477913E+03  0.36338661751E+03  0.49398236979E+03  0.12699999809E+01 0.  1.
</event>
<event>
 5   0  0.9925021E-03  0.1064052E+04  0.7818609E-02  0.9240956E-01
       -2   -1    0    0    0  501  0.00000000000E+00  0.00000000000E+00  0.46775639819E+03  0.46775639820E+03  0.25500000920E-02 0. -1.
        2   -1    0    0  501    0  0.00000000000E+00  0.00000000000E+00 -0.60512577464E+03  0.60512577465E+03  0.25500000920E-02 0.  1.
    10030    2    1    2    0    0  0.00000000000E+00  0.00000000000E+00 -0.13736937645E+03  0.10728821728E+04  0.10640516018E+04 0.  0.
        4    1    3    3  502    0  0.24936839279E+03 -0.43430808455E+03  0.11236530920E+03  0.51325985937E+03  0.12699999809E+01 0. -1.
       -4    1    3    3    0  502 -0.24936839279E+03  0.43430808455E+03 -0.24973468565E+03  0.55962231348E+03  0.12699999809E+01 0.  1.
</event>
<event>
 5   0  0.9925021E-03  0.1118252E+04  0.7818609E-02  0.9187583E-01
       -2   -1    0    0    0  501  0.00000000000E+00  0.00000000000E+00  0.45159838867E+03  0.45159838867E+03  0.25500000920E-02 0.  1.
        2   -1    0    0  501    0  0.00000000000E+00  0.00000000000E+00 -0.69225647899E+03  0.69225647900E+03  0.25500000920E-02 0. -1.
    10030    2    1    2    0    0  0.00000000000E+00  0.00000000000E+00 -0.24065809033E+03  0.11438548677E+04  0.11182520476E+04 0.  0.
        4    1    3    3  502    0 -0.49927899485E+03 -0.25167504899E+03 -0.12101718643E+03  0.57207221336E+03  0.12699999809E+01 0. -1.
       -4    1    3    3    0  502  0.49927899485E+03  0.25167504899E+03 -0.11964090390E+03  0.57178265431E+03  0.12699999809E+01 0.  1.
</event>
<event>
 5   0  0.9692981E-03  0.1114645E+04  0.7818609E-02  0.9191034E-01
        2   -1    0    0  501    0  0.00000000000E+00  0.00000000000E+00  0.84252151213E+03  0.84252151214E+03  0.25500000920E-02 0. -1.
       -2   -1    0    0    0  501  0.00000000000E+00  0.00000000000E+00 -0.36866526687E+03  0.36866526688E+03  0.25500000920E-02 0.  1.
    10030    2    1    2    0    0  0.00000000000E+00  0.00000000000E+00  0.47385624527E+03  0.12111867790E+04  0.11146450881E+04 0.  0.
        5    1    3    3  502    0  0.20851500022E+02 -0.61651708296E+02  0.83835646392E+03  0.84089200780E+03  0.46999998093E+01 0. -1.
       -5    1    3    3    0  502 -0.20851500022E+02  0.61651708296E+02 -0.36450021866E+03  0.37029477121E+03  0.46999998093E+01 0.  1.
</event>
<event>
 5   0  0.3949750E-03  0.1072081E+04  0.7818609E-02  0.9232839E-01
       -3   -1    0    0    0  501  0.00000000000E+00  0.00000000000E+00  0.40041510152E+03  0.40041511425E+03  0.10100000352E+00 0. -1.
        3   -1    0    0  501    0  0.00000000000E+00  0.00000000000E+00 -0.71760357890E+03  0.71760358601E+03  0.10100000352E+00 0.  1.
    10030    2    1    2    0    0  0.00000000000E+00  0.00000000000E+00 -0.31718847738E+03  0.11180187003E+04  0.10720808197E+04 0.  0.
        3    1    3    3  502    0 -0.44476304931E+03 -0.28498175707E+03 -0.63525849712E+02  0.53203788933E+03  0.10100000352E+00 0. -1.
       -3    1    3    3    0  502  0.44476304931E+03  0.28498175707E+03 -0.25366262767E+03  0.58598081093E+03  0.10100000352E+00 0.  1.
</event>
<event>
 5   0  0.5998641E-03  0.1085875E+04  0.7818609E-02  0.9219070E-01
       -1   -1    0    0    0  501  0.00000000000E+00  0.00000000000E+00  0.30065794270E+03  0.30065794274E+03  0.50400001928E-02 0. -1.
        1   -1    0    0  501    0  0.00000000000E+00  0.00000000000E+00 -0.98045309681E+03  0.98045309683E+03  0.50400001928E-02 0.  1.
    10030    2    1    2    0    0  0.00000000000E+00  0.00000000000E+00 -0.67979515411E+03  0.12811110396E+04  0.10858747829E+04 0.  0.
        3    1    3    3  502    0 -0.42309771331E+03  0.27325765096E+03 -0.10071709961E+03  0.51363933180E+03  0.10100000352E+00 0. -1.
       -3    1    3    3    0  502  0.42309771331E+03 -0.27325765096E+03 -0.57907805450E+03  0.76747170777E+03  0.10100000352E+00 0.  1.
</event>
<event>
 5   0  0.5958706E-03  0.1071075E+04  0.7818609E-02  0.9233852E-01
        1   -1    0    0  501    0  0.00000000000E+00  0.00000000000E+00  0.17203807717E+04  0.17203807717E+04  0.50400001928E-02 0.  1.
       -1   -1    0    0    0  501  0.00000000000E+00  0.00000000000E+00 -0.16670738304E+03  0.16670738312E+03  0.50400001928E-02 0. -1.
    10030    2    1    2    0    0  0.00000000000E+00  0.00000000000E+00  0.15536733887E+04  0.18870881548E+04  0.10710745565E+04 0.  0.
        2    1    3    3  502    0  0.47616405089E+03 -0.11881292052E+03  0.11545151026E+04  0.12544934577E+04  0.25500000920E-02 0.  1.
       -2    1    3    3    0  502 -0.47616405089E+03  0.11881292052E+03  0.39915828611E+03  0.63259469711E+03  0.25500000920E-02 0. -1.
</event>
<event>
 5   0  0.1019384E-02  0.1104524E+04  0.7818609E-02  0.9200794E-01
       -2   -1    0    0    0  501  0.00000000000E+00  0.00000000000E+00  0.90671251673E+03  0.90671251673E+03  0.25500000920E-02 0.  1.
        2   -1    0    0  501    0  0.00000000000E+00  0.00000000000E+00 -0.33637274947E+03  0.33637274948E+03  0.25500000920E-02 0. -1.
    10030    2    1    2    0    0  0.00000000000E+00  0.00000000000E+00  0.57033976725E+03  0.12430852662E+04  0.11045241188E+04 0.  0.
        1    1    3    3  502    0 -0.54290287558E+03 -0.10045278189E+03  0.29936520152E+03  0.62805558481E+03  0.50400001928E-02 0. -1.
       -1    1    3    3    0  502  0.54290287558E+03  0.10045278189E+03  0.27097456573E+03  0.61502968140E+03  0.50400001928E-02 0.  1.
</event>
<event>
 5   0  0.5958706E-03  0.1074345E+04  0.7818609E-02  0.9230564E-01
       -1   -1    0    0    0  501  0.00000000000E+00  0.00000000000E+00  0.47945221935E+03  0.47945221937E+03  0.50400001928E-02 0. -1.
        1   -1    0    0  501    0  0.00000000000E+00  0.00000000000E+00 -0.60184165498E+03  0.60184165500E+03  0.50400001928E-02 0.  1.
    10030    2    1    2    0    0  0.00000000000E+00  0.00000000000E+00 -0.12238943563E+03  0.10812938744E+04  0.10743450418E+04 0.  0.
        2    1    3    3  502    0 -0.50065467168E+03  0.17966786968E+03  0.14247918765E+02  0.53210773990E+03  0.25500000920E-02 0.  1.
       -2    1    3    3    0  502  0.50065467168E+03 -0.17966786968E+03 -0.13663735440E+03  0.54918613447E+03  0.25500000920E-02 0. -1.
</event>
<event>
 5   0  0.9925021E-03  0.1092410E+04  0.7818609E-02  0.9212621E-01
       -2   -1    0    0    0  501  0.00000000000E+00  0.00000000000E+00  0.37577992459E+03  0.37577992460E+03  0.25500000920E-02 0. -1.
        2   -1    0    0  501    0  0.00000000000E+00  0.00000000000E+00 -0.79392248533E+03  0.79392248533E+03  0.25500000920E-02 0.  1.
    10030    2    1    2    0    0  0.00000000000E+00  0.00000000000E+00 -0.41814256074E+03  0.11697024099E+04  0.10924104205E+04 0.  0.
        4    1    3    3  502    0  0.39957773474E+03  0.16644378940E+03 -0.56576664509E+03  0.71236185378E+03  0.12699999809E+01 0.  1.
       -4    1    3    3    0  502 -0.39957773474E+03 -0.16644378940E+03  0.14762408435E+03  0.45734055616E+03  0.12699999809E+01 0. -1.
</event>
<event>
 5   0  0.5712664E-03  0.1108325E+04  0.7818609E-02  0.9197115E-01
       -1   -1    0    0    0  501  0.00000000000E+00  0.00000000000E+00  0.12117669295E+04  0.12117669295E+04  0.50400001928E-02 0.  1.
        1   -1    0    0  501    0  0.00000000000E+00  0.00000000000E+00 -0.25342855128E+03  0.25342855133E+03  0.50400001928E-02 0. -1.
    10030    2    1    2    0    0  0.00000000000E+00  0.00000000000E+00  0.95833837819E+03  0.14651954808E+04  0.11083254711E+04 0.  0.
        5    1    3    3  502    0  0.42767313400E+02  0.29056862557E+03 -0.14204679126E+03  0.32627986479E+03  0.46999998093E+01 0. -1.
       -5    1    3    3    0  502 -0.42767313400E+02 -0.29056862557E+03  0.11003851695E+04  0.11389156160E+04  0.46999998093E+01 0.  1.
</event>
<event>
 5   0  0.1028016E-02  0.1104530E+04  0.7818609E-02  0.9200788E-01
        2   -1    0    0  501    0  0.00000000000E+00  0.00000000000E+00  0.20286637682E+04  0.20286637682E+04  0.25500000920E-02 0. -1.
       -2   -1    0    0    0  501  0.00000000000E+00  0.00000000000E+00 -0.15034349760E+03  0.15034349762E+03  0.25500000920E-02 0.  1.
    10030    2    1    2    0    0  0.00000000000E+00  0.00000000000E+00  0.18783202706E+04  0.21790072658E+04  0.11045295947E+04 0.  0.
        2    1    3    3  502    0  0.36321955506E+03  0.96181528733E+02  0.17376343663E+04  0.17777942858E+04  0.25500000920E-02 0. -1.
       -2    1    3    3    0  502 -0.36321955506E+03 -0.96181528733E+02  0.14068590427E+03  0.40121297999E+03  0.25500000920E-02 0.  1.
</event>
<event>
 5   0  0.5854579E-03  0.1074579E+04  0.7818609E-02  0.9230329E-01
       -1   -1    0    0    0  501  0.00000000000E+00  0.00000000000E+00  0.87516519213E+03  0.87516519215E+03  0.50400001928E-02 0.  1.
        1   -1    0    0  501    0  0.00000000000E+00  0.00000000000E+00 -0.32985767029E+03  0.32985767033E+03  0.50400001928E-02 0. -1.
    10030    2    1    2    0    0  0.00000000000E+00  0.00000000000E+00  0.54530752184E+03  0.12050228625E+04  0.10745788969E+04 0.  0.
        4    1    3    3  502    0  0.49124529647E+03 -0.18859091682E+03  0.15089187549E+03  0.54741067418E+03  0.12699999809E+01 0. -1.
       -4    1    3    3    0  502 -0.49124529647E+03  0.18859091682E+03  0.39441564635E+03  0.65761218830E+03  0.12699999809E+01 0.  1.
</event>
<event>
 5   0  0.9925021E-03  0.1108457E+04  0.7818609E-02  0.9196988E-01
       -2   -1    0    0    0  501  0.00000000000E+00  0.00000000000E+00  0.13267300679E+04  0.13267300679E+04  0.25500000920E-02 0.  1.
        2   -1    0    0  501    0  0.00000000000E+00  0.00000000000E+00 -0.23152349134E+03  0.23152349135E+03  0.25500000920E-02 0. -1.
    10030    2    1    2    0    0  0.00000000000E+00  0.00000000000E+00  0.10952065766E+04  0.15582535592E+04  0.11084569047E+04 0.  0.
        4    1    3    3  502    0  0.89562165888E+02 -0.10692527827E+03 -0.20644504429E+03  0.24914968574E+03  0.12699999809E+01 0. -1.
       -4    1    3    3    0  502 -0.89562165888E+02  0.10692527827E+03  0.13016516208E+04  0.13091038735E+04  0.12699999809E+01 0.  1.
</event>
<event>
 5   0  0.5998641E-03  0.1105084E+04  0.7818609E-02  0.9200251E-01
       -1   -1    0    0    0  501  0.00000000000E+00  0.00000000000E+00  0.11543794559E+04  0.11543794559E+04  0.50400001928E-02 0. -1.
        1   -1    0    0  501    0  0.00000000000E+00  0.00000000000E+00 -0.26447334150E+03  0.26447334155E+03  0.50400001928E-02 0.  1.
    10030    2    1    2    0    0  0.00000000000E+00  0.00000000000E+00  0.88990611439E+03  0.14188527975E+04  0.11050838739E+04 0.  0.
        3    1    3    3  502    0 -0.14363902212E+03 -0.24675297579E+03  0.10523268040E+04  0.10903719147E+04  0.10100000352E+00 0. -1.
       -3    1    3    3    0  502  0.14363902212E+03  0.24675297579E+03 -0.16242068960E+03  0.32848088277E+03  0.10100000352E+00 0.  1.
</event>
<event>
 5   0  0.9692981E-03  0.1082409E+04  0.7818609E-02  0.9222509E-01
        2   -1    0    0  501    0  0.00000000000E+00  0.00000000000E+00  0.88949569058E+03  0.88949569059E+03  0.25500000920E-02 0. -1.
       -2   -1    0    0    0  501  0.00000000000E+00  0.00000000000E+00 -0.32929025417E+03  0.32929025418E+03  0.25500000920E-02 0.  1.
    10030    2    1    2    0    0  0.00000000000E+00  0.00000000000E+00  0.56020543641E+03  0.12187859448E+04  0.10824089099E+04 0.  0.
        5    1    3    3  502    0  0.13806551815E+03  0.23872267576E+03 -0.24421596316E+03  0.36839398731E+03  0.46999998093E+01 0.  1.
       -5    1    3    3    0  502 -0.13806551815E+03 -0.23872267576E+03  0.80442139958E+03  0.85039195746E+03  0.46999998093E+01 0. -1.
</event>
<event>
 5   0  0.9692981E-03  0.1047111E+04  0.7818609E-02  0.9258332E-01
        2   -1    0    0  501    0  0.00000000000E+00  0.00000000000E+00  0.20446860236E+04  0.20446860236E+04  0.25500000920E-02 0.  1.
       -2   -1    0    0    0  501  0.00000000000E+00  0.00000000000E+00 -0.13405990636E+03  0.13405990638E+03  0.25500000920E-02 0. -1.
    10030    2    1    2    0    0  0.00000000000E+00  0.00000000000E+00  0.19106261172E+04  0.21787459300E+04  0.10471111056E+04 0.  0.
        5    1    3    3  502    0 -0.40844852510E+02 -0.33752601055E+03  0.12694513486E+03  0.36294526728E+03  0.46999998093E+01 0. -1.
       -5    1    3    3    0  502  0.40844852510E+02  0.33752601055E+03  0.17836809824E+04  0.18158006627E+04  0.46999998093E+01 0.  1.
</event>
<event>
 5   0  0.1019384E-02  0.1112206E+04  0.7818609E-02  0.9193376E-01
       -2   -1    0    0    0  501  0.00000000000E+00  0.00000000000E+00  0.36041645595E+03  0.36041645596E+03  0.25500000920E-02 0. -1.
        2   -1    0    0  501    0  0.00000000000E+00  0.00000000000E+00 -0.85803612861E+03  0.85803612861E+03  0.25500000920E-02 0.  1.
    10030    2    1    2    0    0  0.00000000000E+00  0.00000000000E+00 -0.49761967266E+03  0.12184525846E+04  0.11122056295E+04 0.  0.
        1    1    3    3  502    0 -0.99020719167E+02  0.12014441110E+03  0.33605299038E+03  0.37036656803E+03  0.50400001928E-02 0. -1.
       -1    1    3    3    0  502  0.99020719167E+02 -0.12014441110E+03 -0.83367266304E+03  0.84808601655E+03  0.50400001928E-02 0.  1.
</event>
<event>
 5   0  0.5958706E-03  0.1095427E+04  0.7818609E-02  0.9209660E-01
        1   -1    0    0  501    0  0.00000000000E+00  0.00000000000E+00  0.13067688057E+04  0.13067688057E+04  0.50400001928E-02 0.  1.
       -1   -1    0    0    0  501  0.00000000000E+00  0.00000000000E+00 -0.22956649534E+03  0.22956649540E+03  0.50400001928E-02 0. -1.
    10030    2    1    2    0    0  0.00000000000E+00  0.00000000000E+00  0.10772023103E+04  0.15363353011E+04  0.10954274691E+04 0.  0.
        2    1    3    3  502    0 -0.20372963823E+03  0.37773663171E+03  0.10158621305E+04  0.11027994362E+04  0.25500000920E-02 0.  1.
       -2    1    3    3    0  502  0.20372963823E+03 -0.37773663171E+03  0.61340179856E+02  0.43353586484E+03  0.25500000920E-02 0. -1.
</event>
<event>
 5   0  0.5998641E-03  0.1089938E+04  0.7818609E-02  0.9215054E-01
       -1   -1    0    0    0  501  0.00000000000E+00  0.00000000000E+00  0.19544399073E+03  0.19544399079E+03  0.50400001928E-02 0.  1.
        1   -1    0    0  501    0  0.00000000000E+00  0.00000000000E+00 -0.15195728872E+04  0.15195728872E+04  0.50400001928E-02 0. -1.
    10030    2    1    2    0    0  0.00000000000E+00  0.00000000000E+00 -0.13241288964E+04  0.17150168780E+04  0.10899383273E+04 0.  0.
        3    1    3    3  502    0  0.21859947996E+03  0.43306387976E+03 -0.10527909702E+04  0.11591802680E+04  0.10100000352E+00 0. -1.
       -3    1    3    3    0  502 -0.21859947996E+03 -0.43306387976E+03 -0.27133792629E+03  0.55583661001E+03  0.10100000352E+00 0.  1.
</event>
<event>
 5   0  0.5789905E-03  0.1091971E+04  0.7818609E-02  0.9213053E-01
        1   -1    0    0  501    0  0.00000000000E+00  0.00000000000E+00  0.83864946107E+03  0.83864946109E+03  0.50400001928E-02 0. -1.
       -1   -1    0    0    0  501  0.00000000000E+00  0.00000000000E+00 -0.35545251862E+03  0.35545251865E+03  0.50400001928E-02 0.  1.
    10030    2    1    2    0    0  0.00000000000E+00  0.00000000000E+00  0.48319694246E+03  0.11941019797E+04  0.10919708113E+04 0.  0.
        1    1    3    3  502    0 -0.34828980572E+03 -0.39860430050E+03  0.95257923887E+02  0.53783384910E+03  0.50400001928E-02 0.  1.
       -1    1    3    3    0  502  0.34828980572E+03  0.39860430050E+03  0.38793901857E+03  0.65626813065E+03  0.50400001928E-02 0. -1.
</event>
<event>
 5   0  0.9925021E-03  0.1099001E+04  0.7818609E-02  0.9206166E-01
       -2   -1    0    0    0  501  0.00000000000E+00  0.00000000000E+00  0.33782909694E+03  0.33782909695E+03  0.25500000920E-02 0. -1.
        2   -1    0    0  501    0  0.00000000000E+00  0.00000000000E+00 -0.89379696151E+03  0.89379696152E+03  0.25500000920E-02 0.  1.
    10030    2    1    2    0    0  0.00000000000E+00  0.00000000000E+00 -0.55596786457E+03  0.12316260585E+04  0.10990006740E+04 0.  0.
        4    1    3    3  502    0  0.41494728284E+03  0.82627537575E+02  0.11495793935E+03  0.43843528396E+03  0.12699999809E+01 0. -1.
       -4    1    3    3    0  502 -0.41494728284E+03 -0.82627537575E+02 -0.67092580392E+03  0.79319077451E+03  0.12699999809E+01 0.  1.
</event>
<event>
 5   0  0.5712664E-03  0.1122301E+04  0.7818609E-02  0.9183724E-01
        1   -1    0    0  501    0  0.00000000000E+00  0.00000000000E+00  0.66443509942E+03  0.66443509944E+03  0.50400001928E-02 0.  1.
       -1   -1    0    0    0  501  0.00000000000E+00  0.00000000000E+00 -0.47392131187E+03  0.47392131190E+03  0.50400001928E-02 0. -1.
    10030    2    1    2    0    0  0.00000000000E+00  0.00000000000E+00  0.19051378755E+03  0.11383564113E+04  0.11223011254E+04 0.  0.
        5    1    3    3  502    0  0.21768401546E+03  0.15507308645E+03 -0.40519157215E+03  0.48542382807E+03  0.46999998093E+01 0. -1.
       -5    1    3    3    0  502 -0.21768401546E+03 -0.15507308645E+03  0.59570535970E+03  0.65293258327E+03  0.46999998093E+01 0.  1.
</event>
<event>
 5   0  0.5854579E-03  0.1076079E+04  0.7818609E-02  0.9228826E-01
       -1   -1    0    0    0  501  0.00000000000E+00  0.00000000000E+00  0.14622832151E+03  0.14622832160E+03  0.50400001928E-02 0.  1.
        1   -1    0    0  501    0  0.00000000000E+00  0.00000000000E+00 -0.19796873795E+04  0.19796873795E+04  0.50400001928E-02 0. -1.
    10030    2    1    2    0    0  0.00000000000E+00  0.00000000000E+00 -0.18334590580E+04  0.21259157011E+04  0.10760787382E+04 0.  0.
        4    1    3    3  502    0  0.45563369487E+03  0.13010658424E+03 -0.41321946247E+03  0.62871434231E+03  0.12699999809E+01 0.  1.
       -4    1    3    3    0  502 -0.45563369487E+03 -0.13010658424E+03 -0.14202395955E+04  0.14972013588E+04  0.12699999809E+01 0. -1.
</event>
<event>
 5   0  0.5958706E-03  0.1118495E+04  0.7818609E-02  0.9187351E-01
        1   -1    0    0  501    0  0.00000000000E+00  0.00000000000E+00  0.11373414222E+04  0.11373414222E+04  0.50400001928E-02 0. -1.
       -1   -1    0    0    0  501  0.00000000000E+00  0.00000000000E+00 -0.27499024005E+03  0.27499024010E+03  0.50400001928E-02 0.  1.
    10030    2    1    2    0    0  0.00000000000E+00  0.00000000000E+00  0.86235118215E+03  0.14123316623E+04  0.11184950438E+04 0.  0.
        2    1    3    3  502    0  0.11512841324E+03 -0.42312119772E+03 -0.70978312327E+01  0.43856182997E+03  0.25500000920E-02 0.  1.
       -2    1    3    3    0  502 -0.11512841324E+03  0.42312119772E+03  0.86944901339E+03  0.97376983234E+03  0.25500000920E-02 0. -1.
</event>
<event>
 5   0  0.9719260E-03  0.1099625E+04  0.7818609E-02  0.9205557E-01
       -2   -1    0    0    0  501  0.00000000000E+00  0.00000000000E+00  0.20644051505E+03  0.20644051507E+03  0.25500000920E-02 0. -1.
        2   -1    0    0  501    0  0.00000000000E+00  0.00000000000E+00 -0.14643148194E+04  0.14643148194E+04  0.25500000920E-02 0.  1.
    10030    2    1    2    0    0  0.00000000000E+00  0.00000000000E+00 -0.12578743043E+04  0.16707553345E+04  0.10996252189E+04 0.  0.
        3    1    3    3  502    0 -0.22131928293E+03 -0.49371435280E+03 -0.48039581817E+03  0.72354422082E+03  0.10100000352E+00 0. -1.
       -3    1    3    3    0  502  0.22131928293E+03  0.49371435280E+03 -0.77747848616E+03  0.94721111364E+03  0.10100000352E+00 0.  1.
</event>
<event>
 5   0  0.9925021E-03  0.1085173E+04  0.7818609E-02  0.9219765E-01
       -2   -1    0    0    0  501  0.00000000000E+00  0.00000000000E+00  0.43735769221E+03  0.43735769222E+03  0.25500000920E-02 0. -1.
        2   -1    0    0  501    0  0.00000000000E+00  0.00000000000E+00 -0.67313372212E+03  0.67313372212E+03  0.25500000920E-02 0.  1.
    10030    2    1    2    0    0  0.00000000000E+00  0.00000000000E+00 -0.23577602990E+03  0.11104914143E+04  0.10851731867E+04 0.  0.
        4    1    3    3  502    0 -0.27094611814E+03 -0.38126643576E+03 -0.39929978190E+03  0.61499416477E+03  0.12699999809E+01 0.  1.
       -4    1    3    3    0  502  0.27094611814E+03  0.38126643576E+03  0.16352375200E+03  0.49549724958E+03  0.12699999809E+01 0. -1.
</event>
<event>
 5   0  0.1019384E-02  0.1068740E+04  0.7818609E-02  0.9236207E-01
       -2   -1    0    0    0  501  0.00000000000E+00  0.00000000000E+00  0.34667094271E+03  0.34667094271E+03  0.25500000920E-02 0.  1.
        2   -1    0    0  501    0  0.00000000000E+00  0.00000000000E+00 -0.82369579519E+03  0.82369579519E+03  0.25500000920E-02 0. -1.
    10030    2    1    2    0    0  0.00000000000E+00  0.00000000000E+00 -0.47702485249E+03  0.11703667379E+04  0.10687401889E+04 0.  0.
        1    1    3    3  502    0 -0.35025558207E+03  0.18312527524E+03  0.15532062401E+03  0.42466261369E+03  0.50400001928E-02 0.  1.
       -1    1    3    3    0  502  0.35025558207E+03 -0.18312527524E+03 -0.63234547650E+03  0.74570412422E+03  0.50400001928E-02 0. -1.
</event>
<event>
 5   0  0.9719260E-03  0.1138318E+04  0.7818609E-02  0.9168629E-01
        2   -1    0    0  501    0  0.00000000000E+00  0.00000000000E+00  0.14915645973E+04  0.14915645973E+04  0.25500000920E-02 0.  1.
       -2   -1    0    0    0  501  0.00000000000E+00  0.00000000000E+00 -0.21718251936E+03  0.21718251937E+03  0.25500000920E-02 0. -1.
    10030    2    1    2    0    0  0.00000000000E+00  0.00000000000E+00  0.12743820779E+04  0.17087471166E+04  0.11383176306E+04 0.  0.
        3    1    3    3  502    0  0.36360825295E+02  0.20130628748E+03 -0.16009167237E+03  0.25976082221E+03  0.10100000352E+00 0. -1.
       -3    1    3    3    0  502 -0.36360825295E+02 -0.20130628748E+03  0.14344737503E+04  0.14489862944E+04  0.10100000352E+00 0.  1.
</event>
<event>
 5   0  0.5712664E-03  0.1119132E+04  0.7818609E-02  0.9186743E-01
       -1   -1    0    0    0  501  0.00000000000E+00  0.00000000000E+00  0.15797503650E+04  0.15797503650E+04  0.50400001928E-02 0. -1.
        1   -1    0    0  501    0  0.00000000000E+00  0.00000000000E+00 -0.19820464709E+03  0.19820464715E+03  0.50400001928E-02 0.  1.
    10030    2    1    2    0    0  0.00000000000E+00  0.00000000000E+00  0.13815457179E+04  0.17779550122E+04  0.11191315627E+04 0.  0.
        5    1    3    3  502    0 -0.31164140463E+03  0.43932900928E+03  0.45003793935E+03  0.70191636277E+03  0.46999998093E+01 0.  1.
       -5    1    3    3    0  502  0.31164140463E+03 -0.43932900928E+03  0.93150777860E+03  0.10760386494E+04  0.46999998093E+01 0. -1.
</event>
<event>
 5   0  0.5854579E-03  0.1053554E+04  0.7818609E-02  0.9251682E-01
        1   -1    0    0  501    0  0.00000000000E+00  0.00000000000E+00  0.67368171438E+03  0.67368171440E+03  0.50400001928E-02 0. -1.
       -1   -1    0    0    0  501  0.00000000000E+00  0.00000000000E+00 -0.41190686018E+03  0.41190686021E+03  0.50400001928E-02 0.  1.
    10030    2    1    2    0    0  0.00000000000E+00  0.00000000000E+00  0.26177485420E+03  0.10855885746E+04  0.10535542127E+04 0.  0.
        4    1    3    3  502    0 -0.78832916430E+02  0.46061729769E+03  0.38140449758E+03  0.60320305646E+03  0.12699999809E+01 0. -1.
       -4    1    3    3    0  502  0.78832916430E+02 -0.46061729769E+03 -0.11962964338E+03  0.48238551815E+03  0.12699999809E+01 0.  1.
</event>
<event>
 5   0  0.5998641E-03  0.1108621E+04  0.7818609E-02  0.9196830E-01
        1   -1    0    0  501    0  0.00000000000E+00  0.00000000000E+00  0.16708834468E+03  0.16708834475E+03  0.50400001928E-02 0. -1.
       -1   -1    0    0    0  501  0.00000000000E+00  0.00000000000E+00 -0.18389086057E+04  0.18389086057E+04  0.50400001928E-02 0.  1.
    10030    2    1    2    0    0  0.00000000000E+00  0.00000000000E+00 -0.16718202610E+04  0.20059969504E+04  0.11086211166E+04 0.  0.
        3    1    3    3  502    0  0.31394249879E+03 -0.24582684143E+03 -0.13916656062E+03  0.42232460301E+03  0.10100000352E+00 0. -1.
       -3    1    3    3    0  502 -0.31394249879E+03  0.24582684143E+03 -0.15326537004E+04  0.15836723474E+04  0.10100000352E+00 0.  1.
</event>
<event>
 5   0  0.5789905E-03  0.1103888E+04  0.7818609E-02  0.9201411E-01
       -1   -1    0    0    0  501  0.00000000000E+00  0.00000000000E+00  0.33503886912E+03  0.33503886916E+03  0.50400001928E-02 0. -1.
        1   -1    0    0  501    0  0.00000000000E+00  0.00000000000E+00 -0.90927428707E+03  0.90927428708E+03  0.50400001928E-02 0.  1.
    10030    2    1    2    0    0  0.00000000000E+00  0.00000000000E+00 -0.57423541795E+03  0.12443131562E+04  0.11038880901E+04 0.  0.
        1    1    3    3  502    0  0.29307004144E+03  0.42900980825E+03 -0.49710193859E+03  0.71906175127E+03  0.50400001928E-02 0.  1.
       -1    1    3    3    0  502 -0.29307004144E+03 -0.42900980825E+03 -0.77133479361E+02  0.52525140497E+03  0.50400001928E-02 0. -1.
</event>
<event>
 5   0  0.9925021E-03  0.1042296E+04  0.7818609E-02  0.9263334E-01
        2   -1    0    0  501    0  0.00000000000E+00  0.00000000000E+00  0.58047962226E+03  0.58047962226E+03  0.25500000920E-02 0. -1.
       -2   -1    0    0    0  501  0.00000000000E+00  0.00000000000E+00 -0.46788060401E+03  0.46788060402E+03  0.25500000920E-02 0.  1.
    10030    2    1    2    0    0  0.00000000000E+00  0.00000000000E+00  0.11259901825E+03  0.10483602263E+04  0.10422958434E+04 0.  0.
        4    1    3    3  502    0 -0.26382640792E+02  0.43667906418E+03 -0.22856004851E+03  0.49358480275E+03  0.12699999809E+01 0.  1.
       -4    1    3    3    0  502  0.26382640792E+02 -0.43667906418E+03  0.34115906675E+03  0.55477542354E+03  0.12699999809E+01 0. -1.
</event>
<event>
 5   0  0.1019384E-02  0.1107129E+04  0.7818609E-02  0.9198271E-01
        2   -1    0    0  501    0  0.00000000000E+00  0.00000000000E+00  0.12136054266E+04  0.12136054266E+04  0.25500000920E-02 0.  1.
       -2   -1    0    0    0  501  0.00000000000E+00  0.00000000000E+00 -0.25249849580E+03  0.25249849581E+03  0.25500000920E-02 0. -1.
    10030    2    1    2    0    0  0.00000000000E+00  0.00000000000E+00  0.96110693082E+03  0.14661039224E+04  0.11071287996E+04 0.  0.
        1    1    3    3  502    0  0.43738203488E+03  0.32607646611E+03  0.60481089700E+03  0.81450913276E+03  0.50400001928E-02 0. -1.
       -1    1    3    3    0  502 -0.43738203488E+03 -0.32607646611E+03  0.35629603381E+03  0.65159478967E+03  0.50400001928E-02 0.  1.
</event>
<event>
 5   0  0.1028016E-02  0.1087106E+04  0.7818609E-02  0.9217851E-01
        2   -1    0    0  501    0  0.00000000000E+00  0.00000000000E+00  0.47048765768E+03  0.47048765769E+03  0.25500000920E-02 0. -1.
       -2   -1    0    0    0  501  0.00000000000E+00  0.00000000000E+00 -0.62796501559E+03  0.62796501559E+03  0.25500000920E-02 0.  1.
    10030    2    1    2    0    0  0.00000000000E+00  0.00000000000E+00 -0.15747735791E+03  0.10984526733E+04  0.10871058629E+04 0.  0.
        2    1    3    3  502    0  0.15699500712E+03  0.46608751778E+03 -0.31259503933E+03  0.58275266204E+03  0.25500000920E-02 0. -1.
       -2    1    3    3    0  502 -0.15699500712E+03 -0.46608751778E+03  0.15511768142E+03  0.51570001124E+03  0.25500000920E-02 0.  1.
</event>
<event>
 5   0  0.5789905E-03  0.1121491E+04  0.7818609E-02  0.9184494E-01
       -1   -1    0    0    0  501  0.00000000000E+00  0.00000000000E+00  0.40931578626E+03  0.40931578629E+03  0.50400001928E-02 0.  1.
        1   -1    0    0  501    0  0.00000000000E+00  0.00000000000E+00 -0.76819846107E+03  0.76819846109E+03  0.50400001928E-02 0. -1.
    10030    2    1    2    0    0  0.00000000000E+00  0.00000000000E+00 -0.35888267481E+03  0.11775142474E+04  0.11214914304E+04 0.  0.
        1    1    3    3  502    0  0.53423204767E+00  0.27033987485E+03  0.33637548728E+03  0.43154652334E+03  0.50400001928E-02 0.  1.
       -1    1    3    3    0  502 -0.53423204767E+00 -0.27033987485E+03 -0.69525816209E+03  0.74596772404E+03  0.50400001928E-02 0. -1.
</event>
<event>
 5   0  0.9719260E-03  0.1109283E+04  0.7818609E-02  0.9196191E-01
        2   -1    0    0  501    0  0.00000000000E+00  0.00000000000E+00  0.86650335384E+03  0.86650335385E+03  0.25500000920E-02 0. -1.
       -2   -1    0    0    0  501  0.00000000000E+00  0.00000000000E+00 -0.35502141072E+03  0.35502141073E+03  0.25500000920E-02 0.  1.
    10030    2    1    2    0    0  0.00000000000E+00  0.00000000000E+00  0.51148194312E+03  0.12215247646E+04  0.11092830894E+04 0.  0.
        3    1    3    3  502    0 -0.73038886513E+02  0.20211546815E+02  0.86077522935E+03  0.86410484967E+03  0.10100000352E+00 0. -1.
       -3    1    3    3    0  502  0.73038886513E+02 -0.20211546815E+02 -0.34929328622E+03  0.35741991490E+03  0.10100000352E+00 0.  1.
</event>
<event>
 5   0  0.9692981E-03  0.1058713E+04  0.7818609E-02  0.9246395E-01
       -2   -1    0    0    0  501  0.00000000000E+00  0.00000000000E+00  0.36774452245E+03  0.36774452246E+03  0.25500000920E-02 0. -1.
        2   -1    0    0  501    0  0.00000000000E+00  0.00000000000E+00 -0.76199157168E+03  0.76199157169E+03  0.25500000920E-02 0.  1.
    10030    2    1    2    0    0  0.00000000000E+00  0.00000000000E+00 -0.39424704923E+03  0.11297360941E+04  0.10587128537E+04 0.  0.
        5    1    3    3  502    0 -0.47477244760E+03 -0.12119098669E+03  0.16559995090E+02  0.49029833336E+03  0.46999998093E+01 0. -1.
       -5    1    3    3    0  502  0.47477244760E+03  0.12119098669E+03 -0.41080704432E+03  0.63943776079E+03  0.46999998093E+01 0.  1.
</event>
<event>
 5   0  0.1019384E-02  0.1050319E+04  0.7818609E-02  0.9255015E-01
       -2   -1    0    0    0  501  0.00000000000E+00  0.00000000000E+00  0.43980554958E+03  0.43980554959E+03  0.25500000920E-02 0. -1.
        2   -1    0    0  501    0  0.00000000000E+00  0.00000000000E+00 -0.62707794325E+03  0.62707794325E+03  0.25500000920E-02 0.  1.
    10030    2    1    2    0    0  0.00000000000E+00  0.00000000000E+00 -0.18727239367E+03  0.10668834928E+04  0.10503187316E+04 0.  0.
        1    1    3    3  502    0  0.37677454023E+03  0.25140713351E+03  0.17631396767E+03  0.48605680344E+03  0.50400001928E-02 0. -1.
       -1    1    3    3    0  502 -0.37677454023E+03 -0.25140713351E+03 -0.36358636134E+03  0.58082668940E+03  0.50400001928E-02 0.  1.
</event>
<event>
 5   0  0.5789905E-03  0.1065709E+04  0.7818609E-02  0.9239274E-01
       -1   -1    0    0    0  501  0.00000000000E+00  0.00000000000E+00  0.44111095419E+03  0.44111095422E+03  0.50400001928E-02 0. -1.
        1   -1    0    0  501    0  0.00000000000E+00  0.00000000000E+00 -0.64367959581E+03  0.64367959583E+03  0.50400001928E-02 0.  1.
    10030    2    1    2    0    0  0.00000000000E+00  0.00000000000E+00 -0.20256864162E+03  0.10847905500E+04  0.10657093801E+04 0.  0.
        1    1    3    3  502    0 -0.48969825843E+03  0.11472051039E+02  0.11222862204E+03  0.50252488087E+03  0.50400001928E-02 0. -1.
       -1    1    3    3    0  502  0.48969825843E+03 -0.11472051039E+02 -0.31479726366E+03  0.58226566917E+03  0.50400001928E-02 0.  1.
</event>
<event>
 5   0  0.5854579E-03  0.1087846E+04  0.7818609E-02  0.9217119E-01
       -1   -1    0    0    0  501  0.00000000000E+00  0.00000000000E+00  0.47974857762E+03  0.47974857765E+03  0.50400001928E-02 0. -1.
        1   -1    0    0  501    0  0.00000000000E+00  0.00000000000E+00 -0.61668216173E+03  0.61668216176E+03  0.50400001928E-02 0.  1.
    10030    2    1    2    0    0  0.00000000000E+00  0.00000000000E+00 -0.13693358411E+03  0.10964307394E+04  0.10878462942E+04 0.  0.
        4    1    3    3  502    0 -0.39304902164E+03  0.17791136017E+03  0.26537318395E+03  0.50652198881E+03  0.12699999809E+01 0. -1.
       -4    1    3    3    0  502  0.39304902164E+03 -0.17791136017E+03 -0.40230676806E+03  0.58990875059E+03  0.12699999809E+01 0.  1.
</event>
<event>
 5   0  0.5998641E-03  0.1016588E+04  0.7818609E-02  0.9290536E-01
       -1   -1    0    0    0  501  0.00000000000E+00  0.00000000000E+00  0.40108815737E+03  0.40108815740E+03  0.50400001928E-02 0.  1.
        1   -1    0    0  501    0  0.00000000000E+00  0.00000000000E+00 -0.64415443584E+03  0.64415443586E+03  0.50400001928E-02 0. -1.
    10030    2    1    2    0    0  0.00000000000E+00  0.00000000000E+00 -0.24306627847E+03  0.10452425933E+04  0.10165878531E+04 0.  0.
        3    1    3    3  502    0  0.32245799847E+03 -0.17776468812E+03  0.23874819586E+03  0.43883955650E+03  0.10100000352E+00 0.  1.
       -3    1    3    3    0  502 -0.32245799847E+03  0.17776468812E+03 -0.48181447433E+03  0.60640303677E+03  0.10100000352E+00 0. -1.
</event>
<event>
 5   0  0.9925021E-03  0.1132881E+04  0.7818609E-02  0.9173724E-01
       -2   -1    0    0    0  501  0.00000000000E+00  0.00000000000E+00  0.37676112393E+03  0.37676112394E+03  0.25500000920E-02 0.  1.
        2   -1    0    0  501    0  0.00000000000E+00  0.00000000000E+00 -0.85161310631E+03  0.85161310632E+03  0.25500000920E-02 0. -1.
    10030    2    1    2    0    0  0.00000000000E+00  0.00000000000E+00 -0.47485198238E+03  0.12283742303E+04  0.11328807724E+04 0.  0.
        4    1    3    3  502    0  0.16791887891E+03  0.50740075958E+03 -0.44085967608E+03  0.69282836807E+03  0.12699999809E+01 0. -1.
       -4    1    3    3    0  502 -0.16791887891E+03 -0.50740075958E+03 -0.33992306300E+02  0.53554586218E+03  0.12699999809E+01 0.  1.
</event>
<event>
 5   0  0.9692981E-03  0.1125007E+04  0.7818609E-02  0.9181155E-01
        2   -1    0    0  501    0  0.00000000000E+00  0.00000000000E+00  0.12165137651E+04  0.12165137651E+04  0.25500000920E-02 0. -1.
       -2   -1    0    0    0  501  0.00000000000E+00  0.00000000000E+00 -0.26009600979E+03  0.26009600981E+03  0.25500000920E-02 0.  1.
    10030    2    1    2    0    0  0.00000000000E+00  0.00000000000E+00  0.95641775530E+03  0.14766097749E+04  0.11250073354E+04 0.  0.
        5    1    3    3  502    0 -0.29561260171E+03  0.58944702220E+02 -0.14510910202E+03  0.33457440084E+03  0.46999998093E+01 0.  1.
       -5    1    3    3    0  502  0.29561260171E+03 -0.58944702220E+02  0.11015268573E+04  0.11420353741E+04  0.46999998093E+01 0. -1.
</event>
<event>
 5   0  0.1028016E-02  0.1064643E+04  0.7818609E-02  0.9240355E-01
       -2   -1    0    0    0  501  0.00000000000E+00  0.00000000000E+00  0.41641959616E+03  0.41641959617E+03  0.25500000920E-02 0. -1.
        2   -1    0    0  501    0  0.00000000000E+00  0.00000000000E+00 -0.68048282798E+03  0.68048282799E+03  0.25500000920E-02 0.  1.
    10030    2    1    2    0    0  0.00000000000E+00  0.00000000000E+00 -0.26406323182E+03  0.10969024242E+04  0.10646433852E+04 0.  0.
        2    1    3    3  502    0 -0.31046707329E+03 -0.27281567925E+03 -0.47767884999E+03  0.63166073344E+03  0.25500000920E-02 0. -1.
       -2    1    3    3    0  502  0.31046707329E+03  0.27281567925E+03  0.21361561817E+03  0.46524169071E+03  0.25500000920E-02 0.  1.
</event>
<event>
 5   0  0.9719260E-03  0.1078504E+04  0.7818609E-02  0.9226401E-01
        2   -1    0    0  501    0  0.00000000000E+00  0.00000000000E+00  0.24351747158E+03  0.24351747160E+03  0.25500000920E-02 0. -1.
       -2   -1    0    0    0  501  0.00000000000E+00  0.00000000000E+00 -0.11941341997E+04  0.11941341997E+04  0.25500000920E-02 0.  1.
    10030    2    1    2    0    0  0.00000000000E+00  0.00000000000E+00 -0.95061672810E+03  0.14376516713E+04  0.10785036691E+04 0.  0.
        3    1    3    3  502    0  0.10786629359E+03  0.16589222745E+03  0.19337333343E+03  0.27667422125E+03  0.10100000352E+00 0. -1.
       -3    1    3    3    0  502 -0.10786629359E+03 -0.16589222745E+03 -0.11439900615E+04  0.11609774500E+04  0.10100000352E+00 0.  1.
</event>
<event>
 5   0  0.1028016E-02  0.1112143E+04  0.7818609E-02  0.9193437E-01
       -2   -1    0    0    0  501  0.00000000000E+00  0.00000000000E+00  0.26527620888E+03  0.26527620889E+03  0.25500000920E-02 0. -1.
        2   -1    0    0  501    0  0.00000000000E+00  0.00000000000E+00 -0.11656355888E+04  0.11656355888E+04  0.25500000920E-02 0.  1.
    10030    2    1    2    0    0  0.00000000000E+00  0.00000000000E+00 -0.90035937988E+03  0.14309117977E+04  0.11121427785E+04 0.  0.
        2    1    3    3  502    0 -0.47332122592E+03  0.20142371151E+03 -0.17842766518E+03  0.54446388877E+03  0.25500000920E-02 0. -1.
       -2    1    3    3    0  502  0.47332122592E+03 -0.20142371151E+03 -0.72193171470E+03  0.88644790888E+03  0.25500000920E-02 0.  1.
</event>
<event>
 5   0  0.9719260E-03  0.1129783E+04  0.7818609E-02  0.9176640E-01
       -2   -1    0    0    0  501  0.00000000000E+00  0.00000000000E+00  0.23716710833E+03  0.23716710835E+03  0.25500000920E-02 0.  1.
        2   -1    0    0  501    0  0.00000000000E+00  0.00000000000E+00 -0.13454752413E+04  0.13454752413E+04  0.25500000920E-02 0. -1.
    10030    2    1    2    0    0  0.00000000000E+00  0.00000000000E+00 -0.11083081330E+04  0.15826423497E+04  0.11297831161E+04 0.  0.
        3    1    3    3  502    0  0.53724881193E+02  0.52324340173E+03 -0.84271445551E+03  0.99339704249E+03  0.10100000352E+00 0. -1.
       -3    1    3    3    0  502 -0.53724881193E+02 -0.52324340173E+03 -0.26559367747E+03  0.58924530717E+03  0.10100000352E+00 0.  1.
</event>
<event>
 5   0  0.9719260E-03  0.1107746E+04  0.7818609E-02  0.9197674E-01
       -2   -1    0    0    0  501  0.00000000000E+00  0.00000000000E+00  0.18210531008E+03  0.18210531010E+03  0.25500000920E-02 0.  1.
        2   -1    0    0  501    0  0.00000000000E+00  0.00000000000E+00 -0.16846050655E+04  0.16846050655E+04  0.25500000920E-02 0. -1.
    10030    2    1    2    0    0  0.00000000000E+00  0.00000000000E+00 -0.15024997554E+04  0.18667103756E+04  0.11077464111E+04 0.  0.
        3    1    3    3  502    0  0.50769821561E+03  0.20551536568E+03 -0.61247890279E+03  0.82165957684E+03  0.10100000352E+00 0. -1.
       -3    1    3    3    0  502 -0.50769821561E+03 -0.20551536568E+03 -0.89002085262E+03  0.10450507987E+04  0.10100000352E+00 0.  1.
</event>
<event>
 5   0  0.9925021E-03  0.1119131E+04  0.7818609E-02  0.9186744E-01
       -2   -1    0    0    0  501  0.00000000000E+00  0.00000000000E+00  0.30053196286E+03  0.30053196287E+03  0.25500000920E-02 0.  1.
        2   -1    0    0  501    0  0.00000000000E+00  0.00000000000E+00 -0.10418642616E+04  0.10418642616E+04  0.25500000920E-02 0. -1.
    10030    2    1    2    0    0  0.00000000000E+00  0.00000000000E+00 -0.74133229877E+03  0.13423962245E+04  0.11191309335E+04 0.  0.
        4    1    3    3  502    0 -0.14764937864E+03 -0.53049886397E+03 -0.48990933311E+03  0.73704962605E+03  0.12699999809E+01 0. -1.
       -4    1    3    3    0  502  0.14764937864E+03  0.53049886397E+03 -0.25142296565E+03  0.60534659844E+03  0.12699999809E+01 0.  1.
</event>
<event>
 5   0  0.5998641E-03  0.1079469E+04  0.7818609E-02  0.9225437E-01
       -1   -1    0    0    0  501  0.00000000000E+00  0.00000000000E+00  0.62667488047E+03  0.62667488049E+03  0.50400001928E-02 0.  1.
        1   -1    0    0  501    0  0.00000000000E+00  0.00000000000E+00 -0.46485602854E+03  0.46485602857E+03  0.50400001928E-02 0. -1.
    10030    2    1    2    0    0  0.00000000000E+00  0.00000000000E+00  0.16181885192E+03  0.10915309091E+04  0.10794694922E+04 0.  0.
        3    1    3    3  502    0 -0.30196851262E+03 -0.22174186853E+03  0.47378531973E+03  0.60400908790E+03  0.10100000352E+00 0.  1.
       -3    1    3    3    0  502  0.30196851262E+03  0.22174186853E+03 -0.31196646780E+03  0.48752182116E+03  0.10100000352E+00 0. -1.
</event>
<event>
 5   0  0.5958706E-03  0.1089047E+04  0.7818609E-02  0.9215934E-01
       -1   -1    0    0    0  501  0.00000000000E+00  0.00000000000E+00  0.23444401973E+03  0.23444401979E+03  0.50400001928E-02 0. -1.
        1   -1    0    0  501    0  0.00000000000E+00  0.00000000000E+00 -0.12647183494E+04  0.12647183494E+04  0.50400001928E-02 0.  1.
    10030    2    1    2    0    0  0.00000000000E+00  0.00000000000E+00 -0.10302743296E+04  0.14991623692E+04  0.10890466541E+04 0.  0.
        2    1    3    3  502    0  0.41267158266E+03  0.31994082047E+03 -0.72770969106E+03  0.89566810717E+03  0.25500000920E-02 0. -1.
       -2    1    3    3    0  502 -0.41267158266E+03 -0.31994082047E+03 -0.30256463857E+03  0.60349426199E+03  0.25500000920E-02 0.  1.
</event>
<event>
 5   0  0.5958706E-03  0.7409496E+03  0.7818609E-02  0.9649657E-01
        1   -1    0    0  501    0  0.00000000000E+00  0.00000000000E+00  0.22394318325E+03  0.22394318331E+03  0.50400001928E-02 0.  1.
       -1   -1    0    0    0  501  0.00000000000E+00  0.00000000000E+00 -0.61288566920E+03  0.61288566922E+03  0.50400001928E-02 0. -1.
    10030    2    1    2    0    0  0.00000000000E+00  0.00000000000E+00 -0.38894248595E+03  0.83682885253E+03  0.74094957389E+03 0.  0.
        2    1    3    3  502    0  0.32720286340E+02 -0.30847599359E+02  0.22084939775E+03  0.22538111726E+03  0.25500000920E-02 0.  1.
       -2    1    3    3    0  502 -0.32720286340E+02  0.30847599359E+02 -0.60979188371E+03  0.61144773527E+03  0.25500000920E-02 0. -1.
</event>
<event>
 5   0  0.5998641E-03  0.1168809E+04  0.7818609E-02  0.9140605E-01
        1   -1    0    0  501    0  0.00000000000E+00  0.00000000000E+00  0.14041475808E+04  0.14041475808E+04  0.50400001928E-02 0. -1.
       -1   -1    0    0    0  501  0.00000000000E+00  0.00000000000E+00 -0.24322833697E+03  0.24322833703E+03  0.50400001928E-02 0.  1.
    10030    2    1    2    0    0  0.00000000000E+00  0.00000000000E+00  0.11609192438E+04  0.16473759178E+04  0.11688087628E+04 0.  0.
        3    1    3    3  502    0  0.48661622982E+03  0.24914273895E+03  0.28934445852E+03  0.61853672920E+03  0.10100000352E+00 0.  1.
       -3    1    3    3    0  502 -0.48661622982E+03 -0.24914273895E+03  0.87157478529E+03  0.10288391886E+04  0.10100000352E+00 0. -1.
</event>
<event>
 5   0  0.1019384E-02  0.1124534E+04  0.7818609E-02  0.9181604E-01
       -2   -1    0    0    0  501  0.00000000000E+00  0.00000000000E+00  0.42223716048E+03  0.42223716049E+03  0.25500000920E-02 0. -1.
        2   -1    0    0  501    0  0.00000000000E+00  0.00000000000E+00 -0.74873646616E+03  0.74873646616E+03  0.25500000920E-02 0.  1.
    10030    2    1    2    0    0  0.00000000000E+00  0.00000000000E+00 -0.32649930568E+03  0.11709736267E+04  0.11245343204E+04 0.  0.
        1    1    3    3  502    0 -0.24527521431E+03 -0.22400936997E+02  0.36307666381E+03  0.43873271654E+03  0.50400001928E-02 0. -1.
       -1    1    3    3    0  502  0.24527521431E+03  0.22400936997E+02 -0.68957596948E+03  0.73224091011E+03  0.50400001928E-02 0.  1.
</event>
<event>
 5   0  0.5998641E-03  0.1095743E+04  0.7818609E-02  0.9209351E-01
        1   -1    0    0  501    0  0.00000000000E+00  0.00000000000E+00  0.68253634781E+03  0.68253634783E+03  0.50400001928E-02 0.  1.
       -1   -1    0    0    0  501  0.00000000000E+00  0.00000000000E+00 -0.43977642458E+03  0.43977642461E+03  0.50400001928E-02 0. -1.
    10030    2    1    2    0    0  0.00000000000E+00  0.00000000000E+00  0.24275992323E+03  0.11223127724E+04  0.10957433910E+04 0.  0.
        3    1    3    3  502    0  0.30194558106E+01 -0.44804384007E+03 -0.20156033033E+03  0.49130334489E+03  0.10100000352E+00 0. -1.
       -3    1    3    3    0  502 -0.30194558106E+01  0.44804384007E+03  0.44432025356E+03  0.63100942755E+03  0.10100000352E+00 0.  1.
</event>
<event>
 5   0  0.9719260E-03  0.1084308E+04  0.7818609E-02  0.9220623E-01
        2   -1    0    0  501    0  0.00000000000E+00  0.00000000000E+00  0.16456513445E+04  0.16456513445E+04  0.25500000920E-02 0. -1.
       -2   -1    0    0    0  501  0.00000000000E+00  0.00000000000E+00 -0.17861068042E+03  0.17861068044E+03  0.25500000920E-02 0.  1.
    10030    2    1    2    0    0  0.00000000000E+00  0.00000000000E+00  0.14670406641E+04  0.18242620250E+04  0.10843079017E+04 0.  0.
        3    1    3    3  502    0  0.39513892097E+03 -0.15239198948E+03  0.16404439347E+03  0.45416809504E+03  0.10100000352E+00 0.  1.
       -3    1    3    3    0  502 -0.39513892097E+03  0.15239198948E+03  0.13029962707E+04  0.13700939299E+04  0.10100000352E+00 0. -1.
</event>
<event>
 5   0  0.5789905E-03  0.1088129E+04  0.7818609E-02  0.9216840E-01
        1   -1    0    0  501    0  0.00000000000E+00  0.00000000000E+00  0.85801727920E+03  0.85801727921E+03  0.50400001928E-02 0. -1.
       -1   -1    0    0    0  501  0.00000000000E+00  0.00000000000E+00 -0.34498847758E+03  0.34498847762E+03  0.50400001928E-02 0.  1.
    10030    2    1    2    0    0  0.00000000000E+00  0.00000000000E+00  0.51302880162E+03  0.12030057568E+04  0.10881288066E+04 0.  0.
        1    1    3    3  502    0  0.14640631655E+03  0.83318308619E+02 -0.31543057204E+03  0.35759361834E+03  0.50400001928E-02 0.  1.
       -1    1    3    3    0  502 -0.14640631655E+03 -0.83318308619E+02  0.82845937366E+03  0.84541213849E+03  0.50400001928E-02 0. -1.
</event>
<event>
 5   0  0.9925021E-03  0.1062066E+04  0.7818609E-02  0.9242975E-01
       -2   -1    0    0    0  501  0.00000000000E+00  0.00000000000E+00  0.15065646855E+04  0.15065646855E+04  0.25500000920E-02 0.  1.
        2   -1    0    0  501    0  0.00000000000E+00  0.00000000000E+00 -0.18717818096E+03  0.18717818098E+03  0.25500000920E-02 0. -1.
    10030    2    1    2    0    0  0.00000000000E+00  0.00000000000E+00  0.13193865045E+04  0.16937428665E+04  0.10620659817E+04 0.  0.
        4    1    3    3  502    0  0.12513914574E+03  0.97548957516E+02  0.14678756800E+04  0.14764268454E+04  0.12699999809E+01 0.  1.
       -4    1    3    3    0  502 -0.12513914574E+03 -0.97548957516E+02 -0.14848917545E+03  0.21731602112E+03  0.12699999809E+01 0. -1.
</event>
<event>
 5   0  0.9925021E-03  0.1100155E+04  0.7818609E-02  0.9205041E-01
       -2   -1    0    0    0  501  0.00000000000E+00  0.00000000000E+00  0.35337475200E+03  0.35337475201E+03  0.25500000920E-02 0. -1.
        2   -1    0    0  501    0  0.00000000000E+00  0.00000000000E+00 -0.85627319819E+03  0.85627319820E+03  0.25500000920E-02 0.  1.
    10030    2    1    2    0    0  0.00000000000E+00  0.00000000000E+00 -0.50289844619E+03  0.12096479502E+04  0.11001551328E+04 0.  0.
        4    1    3    3  502    0 -0.47213723847E+03 -0.87195431816E+01  0.58753453153E+02  0.47586046646E+03  0.12699999809E+01 0. -1.
       -4    1    3    3    0  502  0.47213723847E+03  0.87195431816E+01 -0.56165189934E+03  0.73378748375E+03  0.12699999809E+01 0.  1.
</event>
<event>
 5   0  0.5712664E-03  0.1053824E+04  0.7818609E-02  0.9251405E-01
       -1   -1    0    0    0  501  0.00000000000E+00  0.00000000000E+00  0.43797801388E+03  0.43797801391E+03  0.50400001928E-02 0.  1.
        1   -1    0    0  501    0  0.00000000000E+00  0.00000000000E+00 -0.63390476840E+03  0.63390476842E+03  0.50400001928E-02 0. -1.
    10030    2    1    2    0    0  0.00000000000E+00  0.00000000000E+00 -0.19592675452E+03  0.10718827823E+04  0.10538241817E+04 0.  0.
        5    1    3    3  502    0 -0.35281890495E+03 -0.38880700200E+03 -0.52907605026E+02  0.52770576002E+03  0.46999998093E+01 0.  1.
       -5    1    3    3    0  502  0.35281890495E+03  0.38880700200E+03 -0.14301914950E+03  0.54417702231E+03  0.46999998093E+01 0. -1.
</event>
<event>
 5   0  0.5998641E-03  0.1276712E+04  0.7818609E-02  0.9048240E-01
       -1   -1    0    0    0  501  0.00000000000E+00  0.00000000000E+00  0.45371879000E+03  0.45371879003E+03  0.50400001928E-02 0. -1.
        1   -1    0    0  501    0  0.00000000000E+00  0.00000000000E+00 -0.89812950527E+03  0.89812950528E+03  0.50400001928E-02 0.  1.
    10030    2    1    2    0    0  0.00000000000E+00  0.00000000000E+00 -0.44441071527E+03  0.13518482953E+04  0.12767117645E+04 0.  0.
        3    1    3    3  502    0  0.35893864288E+03  0.20255008568E+03 -0.73837214776E+03  0.84561038626E+03  0.10100000352E+00 0.  1.
       -3    1    3    3    0  502 -0.35893864288E+03 -0.20255008568E+03  0.29396143249E+03  0.50623790905E+03  0.10100000352E+00 0. -1.
</event>
<event>
 5   0  0.5958706E-03  0.1108378E+04  0.7818609E-02  0.9197064E-01
        1   -1    0    0  501    0  0.00000000000E+00  0.00000000000E+00  0.91615885812E+03  0.91615885813E+03  0.50400001928E-02 0. -1.
       -1   -1    0    0    0  501  0.00000000000E+00  0.00000000000E+00 -0.33523166958E+03  0.33523166962E+03  0.50400001928E-02 0.  1.
    10030    2    1    2    0    0  0.00000000000E+00  0.00000000000E+00  0.58092718854E+03  0.12513905277E+04  0.11083780287E+04 0.  0.
        2    1    3    3  502    0  0.13578154810E+03  0.29148728622E+03 -0.21913245106E+03  0.38912786837E+03  0.25500000920E-02 0.  1.
       -2    1    3    3    0  502 -0.13578154810E+03 -0.29148728622E+03  0.80005963960E+03  0.86226265938E+03  0.25500000920E-02 0. -1.
</event>
<event>
 5   0  0.9925021E-03  0.1101577E+04  0.7818609E-02  0.9203656E-01
       -2   -1    0    0    0  501  0.00000000000E+00  0.00000000000E+00  0.75819691774E+03  0.75819691774E+03  0.25500000920E-02 0. -1.
        2   -1    0    0  501    0  0.00000000000E+00  0.00000000000E+00 -0.40011772685E+03  0.40011772686E+03  0.25500000920E-02 0.  1.
    10030    2    1    2    0    0  0.00000000000E+00  0.00000000000E+00  0.35807919089E+03  0.11583146446E+04  0.11015771008E+04 0.  0.
        4    1    3    3  502    0  0.18676395482E+03 -0.51400386874E+03  0.24787638833E+03  0.60043739781E+03  0.12699999809E+01 0. -1.
       -4    1    3    3    0  502 -0.18676395482E+03  0.51400386874E+03  0.11020280256E+03  0.55787724679E+03  0.12699999809E+01 0.  1.
</event>
<event>
 5   0  0.5998641E-03  0.1088840E+04  0.7818609E-02  0.9216138E-01
        1   -1    0    0  501    0  0.00000000000E+00  0.00000000000E+00  0.13345249569E+04  0.13345249569E+04  0.50400001928E-02 0. -1.
       -1   -1    0    0    0  501  0.00000000000E+00  0.00000000000E+00 -0.22209630038E+03  0.22209630044E+03  0.50400001928E-02 0.  1.
    10030    2    1    2    0    0  0.00000000000E+00  0.00000000000E+00  0.11124286565E+04  0.15566212573E+04  0.10888398518E+04 0.  0.
        3    1    3    3  502    0 -0.35794618446E+03  0.16204708844E+02 -0.29761942228E+02  0.35954672432E+03  0.10100000352E+00 0.  1.
       -3    1    3    3    0  502  0.35794618446E+03 -0.16204708844E+02  0.11421905987E+04  0.11970745330E+04  0.10100000352E+00 0. -1.
</event>
<event>
 5   0  0.1028016E-02  0.1069992E+04  0.7818609E-02  0.9234944E-01
       -2   -1    0    0    0  501  0.00000000000E+00  0.00000000000E+00  0.42225103465E+03  0.42225103466E+03  0.25500000920E-02 0.  1.
        2   -1    0    0  501    0  0.00000000000E+00  0.00000000000E+00 -0.67784471278E+03  0.67784471279E+03  0.25500000920E-02 0. -1.
    10030    2    1    2    0    0  0.00000000000E+00  0.00000000000E+00 -0.25559367813E+03  0.11000957474E+04  0.10699918342E+04 0.  0.
        2    1    3    3  502    0 -0.28427783465E+03  0.29714706834E+02 -0.59276362202E+03  0.65807717075E+03  0.25500000920E-02 0. -1.
       -2    1    3    3    0  502  0.28427783465E+03 -0.29714706834E+02  0.33716994388E+03  0.44201857669E+03  0.25500000920E-02 0.  1.
</event>
<event>
 5   0  0.9925021E-03  0.1165546E+04  0.7818609E-02  0.9143560E-01
       -2   -1    0    0    0  501  0.00000000000E+00  0.00000000000E+00  0.26852855374E+03  0.26852855376E+03  0.25500000920E-02 0.  1.
        2   -1    0    0  501    0  0.00000000000E+00  0.00000000000E+00 -0.12647615420E+04  0.12647615420E+04  0.25500000920E-02 0. -1.
    10030    2    1    2    0    0  0.00000000000E+00  0.00000000000E+00 -0.99623298825E+03  0.15332900958E+04  0.11655463744E+04 0.  0.
        4    1    3    3  502    0  0.36525711358E+03  0.24213425594E+03 -0.10034874949E+04  0.10950025216E+04  0.12699999809E+01 0. -1.
       -4    1    3    3    0  502 -0.36525711358E+03 -0.24213425594E+03  0.72545066408E+01  0.43828757419E+03  0.12699999809E+01 0.  1.
</event>
<event>
 5   0  0.5712664E-03  0.1065306E+04  0.7818609E-02  0.9239682E-01
       -1   -1    0    0    0  501  0.00000000000E+00  0.00000000000E+00  0.13439579877E+04  0.13439579877E+04  0.50400001928E-02 0.  1.
        1   -1    0    0  501    0  0.00000000000E+00  0.00000000000E+00 -0.21110732293E+03  0.21110732299E+03  0.50400001928E-02 0. -1.
    10030    2    1    2    0    0  0.00000000000E+00  0.00000000000E+00  0.11328506648E+04  0.15550653107E+04  0.10653062902E+04 0.  0.
        5    1    3    3  502    0  0.48861343261E+03  0.14668315272E+03  0.78990433558E+03  0.94033503773E+03  0.46999998093E+01 0.  1.
       -5    1    3    3    0  502 -0.48861343261E+03 -0.14668315272E+03  0.34294632920E+03  0.61473027299E+03  0.46999998093E+01 0. -1.
</event>
<event>
 5   0  0.3949750E-03  0.1075272E+04  0.7818609E-02  0.9229634E-01
        4   -1    0    0  501    0  0.00000000000E+00  0.00000000000E+00  0.38396353192E+03  0.38396563224E+03  0.12699999809E+01 0. -1.
       -4   -1    0    0    0  501  0.00000000000E+00  0.00000000000E+00 -0.75280805170E+03  0.75280912296E+03  0.12699999809E+01 0.  1.
    10030    2    1    2    0    0  0.00000000000E+00  0.00000000000E+00 -0.36884451978E+03  0.11367747552E+04  0.10752723210E+04 0.  0.
        2    1    3    3  502    0  0.51416593271E+03 -0.15384739894E+03 -0.21813694509E+03  0.57932663959E+03  0.25500000920E-02 0.  1.
       -2    1    3    3    0  502 -0.51416593271E+03  0.15384739894E+03 -0.15070757469E+03  0.55744811561E+03  0.25500000920E-02 0. -1.
</event>
<event>
 5   0  0.1028016E-02  0.1173426E+04  0.7818609E-02  0.9136440E-01
        2   -1    0    0  501    0  0.00000000000E+00  0.00000000000E+00  0.48097023151E+03  0.48097023152E+03  0.25500000920E-02 0.  1.
       -2   -1    0    0    0  501  0.00000000000E+00  0.00000000000E+00 -0.71570382586E+03  0.71570382587E+03  0.25500000920E-02 0. -1.
    10030    2    1    2    0    0  0.00000000000E+00  0.00000000000E+00 -0.23473359435E+03  0.11966740574E+04  0.11734261542E+04 0.  0.
        2    1    3    3  502    0  0.72353703648E+02 -0.56382673109E+03 -0.26549108715E+03  0.62739234813E+03  0.25500000920E-02 0. -1.
       -2    1    3    3    0  502 -0.72353703648E+02  0.56382673109E+03  0.30757492800E+02  0.56928170926E+03  0.25500000920E-02 0.  1.
</event>
<event>
 5   0  0.9719260E-03  0.1036132E+04  0.7818609E-02  0.9269780E-01
       -2   -1    0    0    0  501  0.00000000000E+00  0.00000000000E+00  0.21329194874E+03  0.21329194876E+03  0.25500000920E-02 0. -1.
        2   -1    0    0  501    0  0.00000000000E+00  0.00000000000E+00 -0.12583328266E+04  0.12583328266E+04  0.25500000920E-02 0.  1.
    10030    2    1    2    0    0  0.00000000000E+00  0.00000000000E+00 -0.10450408778E+04  0.14716247753E+04  0.10361317691E+04 0.  0.
        3    1    3    3  502    0  0.18760076840E+03  0.46273763807E+03 -0.71866719815E+03  0.87510154947E+03  0.10100000352E+00 0.  1.
       -3    1    3    3    0  502 -0.18760076840E+03 -0.46273763807E+03 -0.32637367966E+03  0.59652322584E+03  0.10100000352E+00 0. -1.
</event>
<event>
 5   0  0.9692981E-03  0.1142755E+04  0.7818609E-02  0.9164493E-01
        2   -1    0    0  501    0  0.00000000000E+00  0.00000000000E+00  0.81955443549E+03  0.81955443550E+03  0.25500000920E-02 0. -1.
       -2   -1    0    0    0  501  0.00000000000E+00  0.00000000000E+00 -0.39835343602E+03  0.39835343603E+03  0.25500000920E-02 0.  1.
    10030    2    1    2    0    0  0.00000000000E+00  0.00000000000E+00  0.42120099947E+03  0.12179078715E+04  0.11427551363E+04 0.  0.
        5    1    3    3  502    0  0.25860558536E+03 -0.32989821800E+03  0.62438698937E+03  0.75205776741E+03  0.46999998093E+01 0. -1.
       -5    1    3    3    0  502 -0.25860558536E+03  0.32989821800E+03 -0.20318598990E+03  0.46585010412E+03  0.46999998093E+01 0.  1.
</event>
<event>
 5   0  0.5958706E-03  0.1066136E+04  0.7818609E-02  0.9238841E-01
       -1   -1    0    0    0  501  0.00000000000E+00  0.00000000000E+00  0.25265617676E+03  0.25265617681E+03  0.50400001928E-02 0.  1.
        1   -1    0    0  501    0  0.00000000000E+00  0.00000000000E+00 -0.11246964351E+04  0.11246964351E+04  0.50400001928E-02 0. -1.
    10030    2    1    2    0    0  0.00000000000E+00  0.00000000000E+00 -0.87204025833E+03  0.13773526119E+04  0.10661360164E+04 0.  0.
        2    1    3    3  502    0 -0.38241277036E+03 -0.33780198090E+03 -0.63537580254E+03  0.81489392911E+03  0.25500000920E-02 0.  1.
       -2    1    3    3    0  502  0.38241277036E+03  0.33780198090E+03 -0.23666445579E+03  0.56245868281E+03  0.25500000920E-02 0. -1.
</event>
<event>
 5   0  0.1028016E-02  0.1135105E+04  0.7818609E-02  0.9171636E-01
        2   -1    0    0  501    0  0.00000000000E+00  0.00000000000E+00  0.18870733598E+03  0.18870733600E+03  0.25500000920E-02 0. -1.
       -2   -1    0    0    0  501  0.00000000000E+00  0.00000000000E+00 -0.17069605603E+04  0.17069605603E+04  0.25500000920E-02 0.  1.
    10030    2    1    2    0    0  0.00000000000E+00  0.00000000000E+00 -0.15182532244E+04  0.18956678963E+04  0.11351052462E+04 0.  0.
        2    1    3    3  502    0 -0.54935099523E+03 -0.14035489661E+03 -0.71721011047E+03  0.91426273878E+03  0.25500000920E-02 0. -1.
       -2    1    3    3    0  502  0.54935099523E+03  0.14035489661E+03 -0.80104311390E+03  0.98140515756E+03  0.25500000920E-02 0.  1.
</event>
<event>
 5   0  0.3949750E-03  0.1101348E+04  0.7818609E-02  0.9203879E-01
        4   -1    0    0  501    0  0.00000000000E+00  0.00000000000E+00  0.38656300849E+03  0.38656509469E+03  0.12699999809E+01 0.  1.
       -4   -1    0    0    0  501  0.00000000000E+00  0.00000000000E+00 -0.78445139107E+03  0.78445241912E+03  0.12699999809E+01 0. -1.
    10030    2    1    2    0    0  0.00000000000E+00  0.00000000000E+00 -0.39788838259E+03  0.11710175138E+04  0.11013477437E+04 0.  0.
        1    1    3    3  502    0 -0.14055354533E+03 -0.34765984915E+03 -0.62771442204E+03  0.73119632485E+03  0.50400001928E-02 0. -1.
       -1    1    3    3    0  502  0.14055354533E+03  0.34765984915E+03  0.22982603946E+03  0.43982118895E+03  0.50400001928E-02 0.  1.
</event>
<event>
 5   0  0.9692981E-03  0.1078105E+04  0.7818609E-02  0.9226799E-01
        2   -1    0    0  501    0  0.00000000000E+00  0.00000000000E+00  0.21588180252E+04  0.21588180252E+04  0.25500000920E-02 0. -1.
       -2   -1    0    0    0  501  0.00000000000E+00  0.00000000000E+00 -0.13460026624E+03  0.13460026626E+03  0.25500000920E-02 0.  1.
    10030    2    1    2    0    0  0.00000000000E+00  0.00000000000E+00  0.20242177590E+04  0.22934182915E+04  0.10781047834E+04 0.  0.
        5    1    3    3  502    0 -0.49870021857E+01 -0.40631292827E+03  0.17655353675E+04  0.18116987304E+04  0.46999998093E+01 0. -1.
       -5    1    3    3    0  502  0.49870021857E+01  0.40631292827E+03  0.25868239149E+03  0.48171956109E+03  0.46999998093E+01 0.  1.
</event>
<event>
 5   0  0.5854579E-03  0.8656585E+03  0.7818609E-02  0.9469558E-01
        1   -1    0    0  501    0  0.00000000000E+00  0.00000000000E+00  0.10884717429E+04  0.10884717429E+04  0.50400001928E-02 0. -1.
       -1   -1    0    0    0  501  0.00000000000E+00  0.00000000000E+00 -0.17211392804E+03  0.17211392811E+03  0.50400001928E-02 0.  1.
    10030    2    1    2    0    0  0.00000000000E+00  0.00000000000E+00  0.91635781484E+03  0.12605856710E+04  0.86565847140E+03 0.  0.
        4    1    3    3  502    0  0.35828444773E+02  0.27316379743E+03 -0.27938599306E+02  0.27691933105E+03  0.12699999809E+01 0.  1.
       -4    1    3    3    0  502 -0.35828444773E+02 -0.27316379743E+03  0.94429641414E+03  0.98366633995E+03  0.12699999809E+01 0. -1.
</event>
<event>
 5   0  0.5958706E-03  0.1102679E+04  0.7818609E-02  0.9202585E-01
       -1   -1    0    0    0  501  0.00000000000E+00  0.00000000000E+00  0.23885535049E+03  0.23885535055E+03  0.50400001928E-02 0. -1.
        1   -1    0    0  501    0  0.00000000000E+00  0.00000000000E+00 -0.12726332304E+04  0.12726332304E+04  0.50400001928E-02 0.  1.
    10030    2    1    2    0    0  0.00000000000E+00  0.00000000000E+00 -0.10337778799E+04  0.15114885810E+04  0.11026790219E+04 0.  0.
        2    1    3    3  502    0  0.39913994051E+03  0.34232395548E+03 -0.74410520527E+03  0.91114814335E+03  0.25500000920E-02 0.  1.
       -2    1    3    3    0  502 -0.39913994051E+03 -0.34232395548E+03 -0.28967267466E+03  0.60034043764E+03  0.25500000920E-02 0. -1.
</event>
<event>
 5   0  0.5789905E-03  0.8234374E+03  0.7818609E-02  0.9526699E-01
        1   -1    0    0  501    0  0.00000000000E+00  0.00000000000E+00  0.66490703577E+03  0.66490703579E+03  0.50400001928E-02 0.  1.
       -1   -1    0    0    0  501  0.00000000000E+00  0.00000000000E+00 -0.25494136521E+03  0.25494136526E+03  0.50400001928E-02 0. -1.
    10030    2    1    2    0    0  0.00000000000E+00  0.00000000000E+00  0.40996567056E+03  0.91984840104E+03  0.82343744745E+03 0.  0.
        1    1    3    3  502    0  0.30960182243E+03  0.27092985861E+03  0.22285724329E+03  0.46789061505E+03  0.50400001928E-02 0.  1.
       -1    1    3    3    0  502 -0.30960182243E+03 -0.27092985861E+03  0.18710842727E+03  0.45195778599E+03  0.50400001928E-02 0. -1.
</event>
<event>
 5   0  0.9692981E-03  0.1120383E+04  0.7818609E-02  0.9185550E-01
        2   -1    0    0  501    0  0.00000000000E+00  0.00000000000E+00  0.48692658497E+03  0.48692658497E+03  0.25500000920E-02 0.  1.
       -2   -1    0    0    0  501  0.00000000000E+00  0.00000000000E+00 -0.64448032138E+03  0.64448032138E+03  0.25500000920E-02 0. -1.
    10030    2    1    2    0    0  0.00000000000E+00  0.00000000000E+00 -0.15755373641E+03  0.11314069064E+04  0.11203831523E+04 0.  0.
        5    1    3    3  502    0  0.45236113547E+03 -0.38094317891E+02  0.25264545460E+03  0.51955133497E+03  0.46999998093E+01 0.  1.
       -5    1    3    3    0  502 -0.45236113547E+03  0.38094317891E+02 -0.41019919101E+03  0.61185557139E+03  0.46999998093E+01 0. -1.
</event>
<event>
 5   0  0.5712664E-03  0.1054121E+04  0.7818609E-02  0.9251100E-01
        1   -1    0    0  501    0  0.00000000000E+00  0.00000000000E+00  0.62355634554E+03  0.62355634556E+03  0.50400001928E-02 0. -1.
       -1   -1    0    0    0  501  0.00000000000E+00  0.00000000000E+00 -0.44549750773E+03  0.44549750776E+03  0.50400001928E-02 0.  1.
    10030    2    1    2    0    0  0.00000000000E+00  0.00000000000E+00  0.17805883781E+03  0.10690538533E+04  0.10541210517E+04 0.  0.
        5    1    3    3  502    0  0.16728114518E+03  0.27520132393E+03 -0.33407596613E+03  0.46405559082E+03  0.46999998093E+01 0.  1.
       -5    1    3    3    0  502 -0.16728114518E+03 -0.27520132393E+03  0.51213480394E+03  0.60499826250E+03  0.46999998093E+01 0. -1.
</event>
<event>
 5   0  0.5998641E-03  0.1099672E+04  0.7818609E-02  0.9205512E-01
       -1   -1    0    0    0  501  0.00000000000E+00  0.00000000000E+00  0.10132836985E+04  0.10132836985E+04  0.50400001928E-02 0.  1.
        1   -1    0    0  501    0  0.00000000000E+00  0.00000000000E+00 -0.29835628994E+03  0.29835628999E+03  0.50400001928E-02 0. -1.
    10030    2    1    2    0    0  0.00000000000E+00  0.00000000000E+00  0.71492740858E+03  0.13116399885E+04  0.10996718874E+04 0.  0.
        3    1    3    3  502    0  0.33505103948E+03  0.27565682147E+03  0.76031451115E+03  0.87539936506E+03  0.10100000352E+00 0.  1.
       -3    1    3    3    0  502 -0.33505103948E+03 -0.27565682147E+03 -0.45387102570E+02  0.43624062346E+03  0.10100000352E+00 0. -1.
</event>
<event>
 5   0  0.1019384E-02  0.1108115E+04  0.7818609E-02  0.9197318E-01
       -2   -1    0    0    0  501  0.00000000000E+00  0.00000000000E+00  0.54197069901E+03  0.54197069902E+03  0.25500000920E-02 0.  1.
        2   -1    0    0  501    0  0.00000000000E+00  0.00000000000E+00 -0.56641413976E+03  0.56641413977E+03  0.25500000920E-02 0. -1.
    10030    2    1    2    0    0  0.00000000000E+00  0.00000000000E+00 -0.24443440750E+02  0.11083848388E+04  0.11081152779E+04 0.  0.
        1    1    3    3  502    0  0.51918149455E+02  0.32426454734E+03  0.43413438463E+03  0.54434883563E+03  0.50400001928E-02 0.  1.
       -1    1    3    3    0  502 -0.51918149455E+02 -0.32426454734E+03 -0.45857782538E+03  0.56403600316E+03  0.50400001928E-02 0. -1.
</event>
<event>
 5   0  0.5789905E-03  0.1100316E+04  0.7818609E-02  0.9204884E-01
        1   -1    0    0  501    0  0.00000000000E+00  0.00000000000E+00  0.45649042441E+03  0.45649042444E+03  0.50400001928E-02 0.  1.
       -1   -1    0    0    0  501  0.00000000000E+00  0.00000000000E+00 -0.66304523048E+03  0.66304523050E+03  0.50400001928E-02 0. -1.
    10030    2    1    2    0    0  0.00000000000E+00  0.00000000000E+00 -0.20655480608E+03  0.11195356549E+04  0.11003159522E+04 0.  0.
        1    1    3    3  502    0 -0.10075717418E+03 -0.27887393625E+03 -0.57478450340E+03  0.64676108869E+03  0.50400001928E-02 0. -1.
       -1    1    3    3    0  502  0.10075717418E+03  0.27887393625E+03  0.36822969732E+03  0.47277456625E+03  0.50400001928E-02 0.  1.
</event>
<event>
 5   0  0.9719260E-03  0.1085441E+04  0.7818609E-02  0.9219499E-01
        2   -1    0    0  501    0  0.00000000000E+00  0.00000000000E+00  0.18065850787E+04  0.18065850787E+04  0.25500000920E-02 0.  1.
       -2   -1    0    0    0  501  0.00000000000E+00  0.00000000000E+00 -0.16304008455E+03  0.16304008457E+03  0.25500000920E-02 0. -1.
    10030    2    1    2    0    0  0.00000000000E+00  0.00000000000E+00  0.16435449942E+04  0.19696251633E+04  0.10854414475E+04 0.  0.
        3    1    3    3  502    0  0.38371516936E+03  0.27996682769E+03  0.12981726892E+04  0.13823426120E+04  0.10100000352E+00 0.  1.
       -3    1    3    3    0  502 -0.38371516936E+03 -0.27996682769E+03  0.34537230501E+03  0.58728255131E+03  0.10100000352E+00 0. -1.
</event>
<event>
 5   0  0.5789905E-03  0.1063700E+04  0.7818609E-02  0.9241312E-01
       -1   -1    0    0    0  501  0.00000000000E+00  0.00000000000E+00  0.48422530779E+03  0.48422530782E+03  0.50400001928E-02 0.  1.
        1   -1    0    0  501    0  0.00000000000E+00  0.00000000000E+00 -0.58415915839E+03  0.58415915841E+03  0.50400001928E-02 0. -1.
    10030    2    1    2    0    0  0.00000000000E+00  0.00000000000E+00 -0.99933850596E+02  0.10683844662E+04  0.10637004245E+04 0.  0.
        1    1    3    3  502    0  0.10907615605E+02 -0.11760347081E+03  0.47088685869E+03  0.48547295098E+03  0.50400001928E-02 0.  1.
       -1    1    3    3    0  502 -0.10907615605E+02  0.11760347081E+03 -0.57082070929E+03  0.58291151524E+03  0.50400001928E-02 0. -1.
</event>
<event>
 5   0  0.5854579E-03  0.1100575E+04  0.7818609E-02  0.9204631E-01
       -1   -1    0    0    0  501  0.00000000000E+00  0.00000000000E+00  0.23042768705E+03  0.23042768710E+03  0.50400001928E-02 0. -1.
        1   -1    0    0  501    0  0.00000000000E+00  0.00000000000E+00 -0.13141498612E+04  0.13141498612E+04  0.50400001928E-02 0.  1.
    10030    2    1    2    0    0  0.00000000000E+00  0.00000000000E+00 -0.10837221742E+04  0.15445775483E+04  0.11005753277E+04 0.  0.
        4    1    3    3  502    0 -0.31129586948E+03 -0.25383676800E+03 -0.10697376378E+04  0.11426628767E+04  0.12699999809E+01 0.  1.
       -4    1    3    3    0  502  0.31129586948E+03  0.25383676800E+03 -0.13984536399E+02  0.40191467167E+03  0.12699999809E+01 0. -1.
</event>
<event>
 5   0  0.1019384E-02  0.1107777E+04  0.7818609E-02  0.9197645E-01
       -2   -1    0    0    0  501  0.00000000000E+00  0.00000000000E+00  0.59618045613E+03  0.59618045613E+03  0.25500000920E-02 0.  1.
        2   -1    0    0  501    0  0.00000000000E+00  0.00000000000E+00 -0.51459640679E+03  0.51459640680E+03  0.25500000920E-02 0. -1.
    10030    2    1    2    0    0  0.00000000000E+00  0.00000000000E+00  0.81584049334E+02  0.11107768629E+04  0.11077767294E+04 0.  0.
        1    1    3    3  502    0  0.10801001678E+03 -0.52283967352E+03 -0.10713661121E+03  0.54452340760E+03  0.50400001928E-02 0. -1.
       -1    1    3    3    0  502 -0.10801001678E+03  0.52283967352E+03  0.18872066054E+03  0.56625345533E+03  0.50400001928E-02 0.  1.
</event>
<event>
 5   0  0.5789905E-03  0.1089701E+04  0.7818609E-02  0.9215289E-01
        1   -1    0    0  501    0  0.00000000000E+00  0.00000000000E+00  0.10370638387E+04  0.10370638387E+04  0.50400001928E-02 0.  1.
       -1   -1    0    0    0  501  0.00000000000E+00  0.00000000000E+00 -0.28625226497E+03  0.28625226502E+03  0.50400001928E-02 0. -1.
    10030    2    1    2    0    0  0.00000000000E+00  0.00000000000E+00  0.75081157368E+03  0.13233161037E+04  0.10897006429E+04 0.  0.
        1    1    3    3  502    0  0.10664827336E+03 -0.28252579609E+03  0.92613599781E+03  0.97412656576E+03  0.50400001928E-02 0.  1.
       -1    1    3    3    0  502 -0.10664827336E+03  0.28252579609E+03 -0.17532442413E+03  0.34918953791E+03  0.50400001928E-02 0. -1.
</event>
<event>
 5   0  0.5789905E-03  0.1094323E+04  0.7818609E-02  0.9210743E-01
       -1   -1    0    0    0  501  0.00000000000E+00  0.00000000000E+00  0.17841163291E+03  0.17841163298E+03  0.50400001928E-02 0. -1.
        1   -1    0    0  501    0  0.00000000000E+00  0.00000000000E+00 -0.16780606354E+04  0.16780606354E+04  0.50400001928E-02 0.  1.
    10030    2    1    2    0    0  0.00000000000E+00  0.00000000000E+00 -0.14996490025E+04  0.18564722684E+04  0.10943226913E+04 0.  0.
        1    1    3    3  502    0 -0.21361151535E+03  0.38720806952E+03 -0.12964567163E+04  0.13698029004E+04  0.50400001928E-02 0.  1.
       -1    1    3    3    0  502  0.21361151535E+03 -0.38720806952E+03 -0.20319228623E+03  0.48666936805E+03  0.50400001928E-02 0. -1.
</event>
<event>
 5   0  0.9719260E-03  0.1094758E+04  0.7818609E-02  0.9210316E-01
       -2   -1    0    0    0  501  0.00000000000E+00  0.00000000000E+00  0.49028904610E+03  0.49028904611E+03  0.25500000920E-02 0.  1.
        2   -1    0    0  501    0  0.00000000000E+00  0.00000000000E+00 -0.61111643402E+03  0.61111643402E+03  0.25500000920E-02 0. -1.
    10030    2    1    2    0    0  0.00000000000E+00  0.00000000000E+00 -0.12082738792E+03  0.11014054801E+04  0.10947578609E+04 0.  0.
        3    1    3    3  502    0  0.16528697075E+03 -0.46535145563E+03 -0.29796591093E+03  0.57676290990E+03  0.10100000352E+00 0. -1.
       -3    1    3    3    0  502 -0.16528697075E+03  0.46535145563E+03  0.17713852301E+03  0.52464257023E+03  0.10100000352E+00 0.  1.
</event>
<event>
 5   0  0.9692981E-03  0.1102612E+04  0.7818609E-02  0.9202649E-01
       -2   -1    0    0    0  501  0.00000000000E+00  0.00000000000E+00  0.13783564397E+03  0.13783564399E+03  0.25500000920E-02 0.  1.
        2   -1    0    0  501    0  0.00000000000E+00  0.00000000000E+00 -0.22050792865E+04  0.22050792865E+04  0.25500000920E-02 0. -1.
    10030    2    1    2    0    0  0.00000000000E+00  0.00000000000E+00 -0.20672436426E+04  0.23429149305E+04  0.11026123952E+04 0.  0.
        5    1    3    3  502    0  0.21126812734E+03 -0.43782717019E+02  0.44353040322E+02  0.22031892820E+03  0.46999998093E+01 0.  1.
       -5    1    3    3    0  502 -0.21126812734E+03  0.43782717019E+02 -0.21115966829E+04  0.21225960023E+04  0.46999998093E+01 0. -1.
</event>
<event>
 5   0  0.1028016E-02  0.1153359E+04  0.7818609E-02  0.9154690E-01
        2   -1    0    0  501    0  0.00000000000E+00  0.00000000000E+00  0.76888218578E+03  0.76888218578E+03  0.25500000920E-02 0.  1.
       -2   -1    0    0    0  501  0.00000000000E+00  0.00000000000E+00 -0.43252296570E+03  0.43252296571E+03  0.25500000920E-02 0. -1.
    10030    2    1    2    0    0  0.00000000000E+00  0.00000000000E+00  0.33635922008E+03  0.12014051515E+04  0.11533589264E+04 0.  0.
        2    1    3    3  502    0 -0.33652385179E+03 -0.23628296675E+03 -0.25299191069E+03  0.48278654712E+03  0.25500000920E-02 0. -1.
       -2    1    3    3    0  502  0.33652385179E+03  0.23628296675E+03  0.58935113077E+03  0.71861860437E+03  0.25500000920E-02 0.  1.
</event>
<event>
 5   0  0.1028016E-02  0.7984016E+03  0.7818609E-02  0.9562334E-01
       -2   -1    0    0    0  501  0.00000000000E+00  0.00000000000E+00  0.63970647844E+02  0.63970647894E+02  0.25500000920E-02 0.  1.
        2   -1    0    0  501    0  0.00000000000E+00  0.00000000000E+00 -0.24911622626E+04  0.24911622626E+04  0.25500000920E-02 0. -1.
    10030    2    1    2    0    0  0.00000000000E+00  0.00000000000E+00 -0.24271916148E+04  0.25551329105E+04  0.79840156285E+03 0.  0.
        2    1    3    3  502    0 -0.85180298446E+02  0.33301693175E+02  0.29989750296E+02  0.96250044888E+02  0.25500000920E-02 0.  1.
       -2    1    3    3    0  502  0.85180298446E+02 -0.33301693175E+02 -0.24571813651E+04  0.24588828656E+04  0.25500000920E-02 0. -1.
</event>
<event>
 5   0  0.9719260E-03  0.1061726E+04  0.7818609E-02  0.9243321E-01
        2   -1    0    0  501    0  0.00000000000E+00  0.00000000000E+00  0.31165970280E+03  0.31165970281E+03  0.25500000920E-02 0. -1.
       -2   -1    0    0    0  501  0.00000000000E+00  0.00000000000E+00 -0.90424094670E+03  0.90424094671E+03  0.25500000920E-02 0.  1.
    10030    2    1    2    0    0  0.00000000000E+00  0.00000000000E+00 -0.59258124391E+03  0.12159006495E+04  0.10617258869E+04 0.  0.
        3    1    3    3  502    0  0.33621706961E+03  0.58082360850E+02  0.16945995882E+03  0.38096215873E+03  0.10100000352E+00 0. -1.
       -3    1    3    3    0  502 -0.33621706961E+03 -0.58082360850E+02 -0.76204120273E+03  0.83493849079E+03  0.10100000352E+00 0.  1.
</event>
<event>
 5   0  0.5958706E-03  0.1086491E+04  0.7818609E-02  0.9218459E-01
       -1   -1    0    0    0  501  0.00000000000E+00  0.00000000000E+00  0.80392751833E+03  0.80392751835E+03  0.50400001928E-02 0.  1.
        1   -1    0    0  501    0  0.00000000000E+00  0.00000000000E+00 -0.36709262401E+03  0.36709262404E+03  0.50400001928E-02 0. -1.
    10030    2    1    2    0    0  0.00000000000E+00  0.00000000000E+00  0.43683489433E+03  0.11710201424E+04  0.10864913479E+04 0.  0.
        2    1    3    3  502    0  0.21161529083E+01  0.33601996003E+03  0.67847760911E+03  0.75712994771E+03  0.25500000920E-02 0.  1.
       -2    1    3    3    0  502 -0.21161529083E+01 -0.33601996003E+03 -0.24164271478E+03  0.41389019469E+03  0.25500000920E-02 0. -1.
</event>
<event>
 5   0  0.1019384E-02  0.1323124E+04  0.7818609E-02  0.9011426E-01
       -2   -1    0    0    0  501  0.00000000000E+00  0.00000000000E+00  0.13080261461E+04  0.13080261461E+04  0.25500000920E-02 0.  1.
        2   -1    0    0  501    0  0.00000000000E+00  0.00000000000E+00 -0.33459926711E+03  0.33459926712E+03  0.25500000920E-02 0. -1.
    10030    2    1    2    0    0  0.00000000000E+00  0.00000000000E+00  0.97342687900E+03  0.16426254132E+04  0.13231244686E+04 0.  0.
        1    1    3    3  502    0  0.20964195554E+03 -0.20560905287E+03 -0.24926193296E+03  0.38517053806E+03  0.50400001928E-02 0. -1.
       -1    1    3    3    0  502 -0.20964195554E+03  0.20560905287E+03  0.12226888120E+04  0.12574548752E+04  0.50400001928E-02 0.  1.
</event>
<event>
 5   0  0.5789905E-03  0.1090269E+04  0.7818609E-02  0.9214729E-01
       -1   -1    0    0    0  501  0.00000000000E+00  0.00000000000E+00  0.28532378746E+03  0.28532378750E+03  0.50400001928E-02 0. -1.
        1   -1    0    0  501    0  0.00000000000E+00  0.00000000000E+00 -0.10415241888E+04  0.10415241889E+04  0.50400001928E-02 0.  1.
    10030    2    1    2    0    0  0.00000000000E+00  0.00000000000E+00 -0.75620040139E+03  0.13268479764E+04  0.10902690059E+04 0.  0.
        1    1    3    3  502    0 -0.39724929763E+03 -0.34490686483E+03 -0.55193785076E+03  0.76249796131E+03  0.50400001928E-02 0.  1.
       -1    1    3    3    0  502  0.39724929763E+03  0.34490686483E+03 -0.20426255063E+03  0.56435001505E+03  0.50400001928E-02 0. -1.
</event>
<event>
 5   0  0.5998641E-03  0.1073684E+04  0.7818609E-02  0.9231228E-01
        1   -1    0    0  501    0  0.00000000000E+00  0.00000000000E+00  0.22070749743E+03  0.22070749749E+03  0.50400001928E-02 0.  1.
       -1   -1    0    0    0  501  0.00000000000E+00  0.00000000000E+00 -0.13057968235E+04  0.13057968235E+04  0.50400001928E-02 0. -1.
    10030    2    1    2    0    0  0.00000000000E+00  0.00000000000E+00 -0.10850893261E+04  0.15265043210E+04  0.10736836576E+04 0.  0.
        3    1    3    3  502    0  0.25791803071E+03 -0.56978057141E+02  0.12193051465E+03  0.29092141579E+03  0.10100000352E+00 0.  1.
       -3    1    3    3    0  502 -0.25791803071E+03  0.56978057141E+02 -0.12070198408E+04  0.12355829053E+04  0.10100000352E+00 0. -1.
</event>
<event>
 5   0  0.5854579E-03  0.1100820E+04  0.7818609E-02  0.9204393E-01
       -1   -1    0    0    0  501  0.00000000000E+00  0.00000000000E+00  0.24039679527E+03  0.24039679532E+03  0.50400001928E-02 0.  1.
        1   -1    0    0  501    0  0.00000000000E+00  0.00000000000E+00 -0.12602137884E+04  0.12602137884E+04  0.50400001928E-02 0. -1.
    10030    2    1    2    0    0  0.00000000000E+00  0.00000000000E+00 -0.10198169931E+04  0.15006105837E+04  0.11008203416E+04 0.  0.
        4    1    3    3  502    0 -0.16632920974E+03  0.36832371917E+03 -0.10192727316E+04  0.10964699186E+04  0.12699999809E+01 0. -1.
       -4    1    3    3    0  502  0.16632920974E+03 -0.36832371917E+03 -0.54426157108E+00  0.40414066516E+03  0.12699999809E+01 0.  1.
</event>
<event>
 5   0  0.9925021E-03  0.1057910E+04  0.7818609E-02  0.9247215E-01
       -2   -1    0    0    0  501  0.00000000000E+00  0.00000000000E+00  0.86275411618E+03  0.86275411618E+03  0.25500000920E-02 0.  1.
        2   -1    0    0  501    0  0.00000000000E+00  0.00000000000E+00 -0.32430252117E+03  0.32430252118E+03  0.25500000920E-02 0. -1.
    10030    2    1    2    0    0  0.00000000000E+00  0.00000000000E+00  0.53845159501E+03  0.11870566374E+04  0.10579098923E+04 0.  0.
        4    1    3    3  502    0 -0.25162771587E+03  0.26994268435E+03  0.69444150611E+03  0.78640713281E+03  0.12699999809E+01 0.  1.
       -4    1    3    3    0  502  0.25162771587E+03 -0.26994268435E+03 -0.15598991110E+03  0.40064950455E+03  0.12699999809E+01 0. -1.
</event>
<event>
 5   0  0.5998641E-03  0.1113118E+04  0.7818609E-02  0.9192500E-01
        1   -1    0    0  501    0  0.00000000000E+00  0.00000000000E+00  0.75349142603E+03  0.75349142605E+03  0.50400001928E-02 0. -1.
       -1   -1    0    0    0  501  0.00000000000E+00  0.00000000000E+00 -0.41109674693E+03  0.41109674696E+03  0.50400001928E-02 0.  1.
    10030    2    1    2    0    0  0.00000000000E+00  0.00000000000E+00  0.34239467910E+03  0.11645881730E+04  0.11131179167E+04 0.  0.
        3    1    3    3  502    0 -0.18043265439E+03  0.48067404998E+03  0.39596698330E+03  0.64837747274E+03  0.10100000352E+00 0. -1.
       -3    1    3    3    0  502  0.18043265439E+03 -0.48067404998E+03 -0.53572304191E+02  0.51621070027E+03  0.10100000352E+00 0.  1.
</event>
<event>
 5   0  0.9692981E-03  0.1110740E+04  0.7818609E-02  0.9194787E-01
        2   -1    0    0  501    0  0.00000000000E+00  0.00000000000E+00  0.60209238844E+03  0.60209238844E+03  0.25500000920E-02 0.  1.
       -2   -1    0    0    0  501  0.00000000000E+00  0.00000000000E+00 -0.51227308110E+03  0.51227308111E+03  0.25500000920E-02 0. -1.
    10030    2    1    2    0    0  0.00000000000E+00  0.00000000000E+00  0.89819307337E+02  0.11143654695E+04  0.11107397948E+04 0.  0.
        5    1    3    3  502    0 -0.26768783090E+03 -0.21468277700E+03  0.48299064193E+03  0.59249263265E+03  0.46999998093E+01 0.  1.
       -5    1    3    3    0  502  0.26768783090E+03  0.21468277700E+03 -0.39317133459E+03  0.52187283690E+03  0.46999998093E+01 0. -1.
</event>
<event>
 5   0  0.5998641E-03  0.1109585E+04  0.7818609E-02  0.9195900E-01
        1   -1    0    0  501    0  0.00000000000E+00  0.00000000000E+00  0.20645353257E+04  0.20645353257E+04  0.50400001928E-02 0.  1.
       -1   -1    0    0    0  501  0.00000000000E+00  0.00000000000E+00 -0.14908657881E+03  0.14908657889E+03  0.50400001928E-02 0. -1.
    10030    2    1    2    0    0  0.00000000000E+00  0.00000000000E+00  0.19154487469E+04  0.22136219046E+04  0.11095846225E+04 0.  0.
        3    1    3    3  502    0  0.59123663891E+02 -0.14037253614E+03 -0.10655641183E+03  0.18588796529E+03  0.10100000352E+00 0. -1.
       -3    1    3    3    0  502 -0.59123663891E+02  0.14037253614E+03  0.20220051587E+04  0.20277339393E+04  0.10100000352E+00 0.  1.
</event>
<event>
 5   0  0.1019384E-02  0.1084302E+04  0.7818609E-02  0.9220628E-01
        2   -1    0    0  501    0  0.00000000000E+00  0.00000000000E+00  0.84293697057E+03  0.84293697057E+03  0.25500000920E-02 0.  1.
       -2   -1    0    0    0  501  0.00000000000E+00  0.00000000000E+00 -0.34869495014E+03  0.34869495015E+03  0.25500000920E-02 0. -1.
    10030    2    1    2    0    0  0.00000000000E+00  0.00000000000E+00  0.49424202043E+03  0.11916319207E+04  0.10843022917E+04 0.  0.
        1    1    3    3  502    0  0.46194346615E+03  0.52364611034E+02 -0.59403307019E+02  0.46868173777E+03  0.50400001928E-02 0. -1.
       -1    1    3    3    0  502 -0.46194346615E+03 -0.52364611034E+02  0.55364532745E+03  0.72295018296E+03  0.50400001928E-02 0.  1.
</event>
<event>
 5   0  0.5998641E-03  0.1218815E+04  0.7818609E-02  0.9096545E-01
        1   -1    0    0  501    0  0.00000000000E+00  0.00000000000E+00  0.12645124026E+04  0.12645124027E+04  0.50400001928E-02 0. -1.
       -1   -1    0    0    0  501  0.00000000000E+00  0.00000000000E+00 -0.29369235048E+03  0.29369235052E+03  0.50400001928E-02 0.  1.
    10030    2    1    2    0    0  0.00000000000E+00  0.00000000000E+00  0.97082005216E+03  0.15582047532E+04  0.12188151948E+04 0.  0.
        3    1    3    3  502    0 -0.23975415942E+03  0.53706943239E+03  0.28144888663E+03  0.65202693054E+03  0.10100000352E+00 0.  1.
       -3    1    3    3    0  502  0.23975415942E+03 -0.53706943239E+03  0.68937116553E+03  0.90617782263E+03  0.10100000352E+00 0. -1.
</event>
<event>
 5   0  0.9692981E-03  0.1097776E+04  0.7818609E-02  0.9207362E-01
       -2   -1    0    0    0  501  0.00000000000E+00  0.00000000000E+00  0.30931970422E+03  0.30931970423E+03  0.25500000920E-02 0.  1.
        2   -1    0    0  501    0  0.00000000000E+00  0.00000000000E+00 -0.97400295598E+03  0.97400295598E+03  0.25500000920E-02 0. -1.
    10030    2    1    2    0    0  0.00000000000E+00  0.00000000000E+00 -0.66468325176E+03  0.12833226602E+04  0.10977764914E+04 0.  0.
        5    1    3    3  502    0 -0.28172888562E+03  0.62920139870E+02  0.21338678918E+03  0.35900713195E+03  0.46999998093E+01 0.  1.
       -5    1    3    3    0  502  0.28172888562E+03 -0.62920139870E+02 -0.87807004094E+03  0.92431552826E+03  0.46999998093E+01 0. -1.
</event>
<event>
 5   0  0.9719260E-03  0.1079795E+04  0.7818609E-02  0.9225112E-01
       -2   -1    0    0    0  501  0.00000000000E+00  0.00000000000E+00  0.92917555710E+03  0.92917555710E+03  0.25500000920E-02 0. -1.
        2   -1    0    0  501    0  0.00000000000E+00  0.00000000000E+00 -0.31370718770E+03  0.31370718771E+03  0.25500000920E-02 0.  1.
    10030    2    1    2    0    0  0.00000000000E+00  0.00000000000E+00  0.61546836939E+03  0.12428827448E+04  0.10797945192E+04 0.  0.
        3    1    3    3  502    0 -0.12721233907E+03 -0.10150972507E+03  0.90026846688E+03  0.91486093269E+03  0.10100000352E+00 0. -1.
       -3    1    3    3    0  502  0.12721233907E+03  0.10150972507E+03 -0.28480009749E+03  0.32802181212E+03  0.10100000352E+00 0.  1.
</event>
<event>
 5   0  0.3949750E-03  0.1209098E+04  0.7818609E-02  0.9104930E-01
       -3   -1    0    0    0  501  0.00000000000E+00  0.00000000000E+00  0.53672270044E+03  0.53672270994E+03  0.10100000352E+00 0.  1.
        3   -1    0    0  501    0  0.00000000000E+00  0.00000000000E+00 -0.68094636788E+03  0.68094637537E+03  0.10100000352E+00 0. -1.
    10030    2    1    2    0    0  0.00000000000E+00  0.00000000000E+00 -0.14422366745E+03  0.12176690853E+04  0.12090978187E+04 0.  0.
        3    1    3    3  502    0  0.24480175362E+02  0.27398320375E+03  0.47004757313E+03  0.54461987306E+03  0.10100000352E+00 0.  1.
       -3    1    3    3    0  502 -0.24480175362E+02 -0.27398320375E+03 -0.61427124057E+03  0.67304921226E+03  0.10100000352E+00 0. -1.
</event>
<event>
 5   0  0.9719260E-03  0.8161041E+03  0.7818609E-02  0.9536995E-01
        2   -1    0    0  501    0  0.00000000000E+00  0.00000000000E+00  0.11365114228E+04  0.11365114228E+04  0.25500000920E-02 0. -1.
       -2   -1    0    0    0  501  0.00000000000E+00  0.00000000000E+00 -0.14650664056E+03  0.14650664058E+03  0.25500000920E-02 0.  1.
    10030    2    1    2    0    0  0.00000000000E+00  0.00000000000E+00  0.99000478222E+03  0.12830180634E+04  0.81610408778E+03 0.  0.
        3    1    3    3  502    0 -0.18398469555E+03 -0.52247730879E+01 -0.77537996448E+02  0.19972435391E+03  0.10100000352E+00 0.  1.
       -3    1    3    3    0  502  0.18398469555E+03  0.52247730879E+01  0.10675427787E+04  0.10832937095E+04  0.10100000352E+00 0. -1.
</event>
<event>
 5   0  0.5854579E-03  0.1100135E+04  0.7818609E-02  0.9205060E-01
       -1   -1    0    0    0  501  0.00000000000E+00  0.00000000000E+00  0.33542281099E+03  0.33542281103E+03  0.50400001928E-02 0. -1.
        1   -1    0    0  501    0  0.00000000000E+00  0.00000000000E+00 -0.90206787103E+03  0.90206787104E+03  0.50400001928E-02 0.  1.
    10030    2    1    2    0    0  0.00000000000E+00  0.00000000000E+00 -0.56664506003E+03  0.12374906821E+04  0.11001347936E+04 0.  0.
        4    1    3    3  502    0 -0.13713282114E+03  0.37237808277E+03  0.14515915101E+03  0.42254424524E+03  0.12699999809E+01 0. -1.
       -4    1    3    3    0  502  0.13713282114E+03 -0.37237808277E+03 -0.71180421104E+03  0.81494643684E+03  0.12699999809E+01 0.  1.
</event>
<event>
 5   0  0.5854579E-03  0.1118846E+04  0.7818609E-02  0.9187016E-01
       -1   -1    0    0    0  501  0.00000000000E+00  0.00000000000E+00  0.69566533032E+03  0.69566533034E+03  0.50400001928E-02 0. -1.
        1   -1    0    0  501    0  0.00000000000E+00  0.00000000000E+00 -0.44986265999E+03  0.44986266002E+03  0.50400001928E-02 0.  1.
    10030    2    1    2    0    0  0.00000000000E+00  0.00000000000E+00  0.24580267033E+03  0.11455279904E+04  0.11188455765E+04 0.  0.
        4    1    3    3  502    0 -0.23215489262E+03  0.50770966078E+03  0.15963522196E+03  0.58064620106E+03  0.12699999809E+01 0.  1.
       -4    1    3    3    0  502  0.23215489262E+03 -0.50770966078E+03  0.86167448371E+02  0.56488178930E+03  0.12699999809E+01 0. -1.
</event>
<event>
 5   0  0.5789905E-03  0.1055379E+04  0.7818609E-02  0.9249808E-01
       -1   -1    0    0    0  501  0.00000000000E+00  0.00000000000E+00  0.73038431259E+03  0.73038431261E+03  0.50400001928E-02 0. -1.
        1   -1    0    0  501    0  0.00000000000E+00  0.00000000000E+00 -0.38124605831E+03  0.38124605834E+03  0.50400001928E-02 0.  1.
    10030    2    1    2    0    0  0.00000000000E+00  0.00000000000E+00  0.34913825428E+03  0.11116303710E+04  0.10553788708E+04 0.  0.
        1    1    3    3  502    0 -0.23097014785E+03  0.43110553040E+03 -0.34125035098E+02  0.49026901349E+03  0.50400001928E-02 0. -1.
       -1    1    3    3    0  502  0.23097014785E+03 -0.43110553040E+03  0.38326328938E+03  0.62136135746E+03  0.50400001928E-02 0.  1.
</event>
<event>
 5   0  0.5712664E-03  0.1102848E+04  0.7818609E-02  0.9202421E-01
       -1   -1    0    0    0  501  0.00000000000E+00  0.00000000000E+00  0.61003089828E+03  0.61003089830E+03  0.50400001928E-02 0.  1.
        1   -1    0    0  501    0  0.00000000000E+00  0.00000000000E+00 -0.49844721066E+03  0.49844721069E+03  0.50400001928E-02 0. -1.
    10030    2    1    2    0    0  0.00000000000E+00  0.00000000000E+00  0.11158368762E+03  0.11084781090E+04  0.11028475864E+04 0.  0.
        5    1    3    3  502    0  0.36344969316E+03  0.13377216642E+03  0.45029468914E+03  0.59395123456E+03  0.46999998093E+01 0.  1.
       -5    1    3    3    0  502 -0.36344969316E+03 -0.13377216642E+03 -0.33871100152E+03  0.51452687443E+03  0.46999998093E+01 0. -1.
</event>
<event>
 5   0  0.5998641E-03  0.1096063E+04  0.7818609E-02  0.9209037E-01
       -1   -1    0    0    0  501  0.00000000000E+00  0.00000000000E+00  0.35760286874E+03  0.35760286878E+03  0.50400001928E-02 0. -1.
        1   -1    0    0  501    0  0.00000000000E+00  0.00000000000E+00 -0.83986662431E+03  0.83986662432E+03  0.50400001928E-02 0.  1.
    10030    2    1    2    0    0  0.00000000000E+00  0.00000000000E+00 -0.48226375557E+03  0.11974694931E+04  0.10960633453E+04 0.  0.
        3    1    3    3  502    0 -0.39290443913E+03 -0.37614496739E+03 -0.31425531984E+03  0.62818416968E+03  0.10100000352E+00 0.  1.
       -3    1    3    3    0  502  0.39290443913E+03  0.37614496739E+03 -0.16800843573E+03  0.56928532342E+03  0.10100000352E+00 0. -1.
</event>
<event>
 5   0  0.5958706E-03  0.1095976E+04  0.7818609E-02  0.9209123E-01
        1   -1    0    0  501    0  0.00000000000E+00  0.00000000000E+00  0.12530735276E+04  0.12530735276E+04  0.50400001928E-02 0.  1.
       -1   -1    0    0    0  501  0.00000000000E+00  0.00000000000E+00 -0.23964331703E+03  0.23964331708E+03  0.50400001928E-02 0. -1.
    10030    2    1    2    0    0  0.00000000000E+00  0.00000000000E+00  0.10134302105E+04  0.14927168447E+04  0.10959757236E+04 0.  0.
        2    1    3    3  502    0 -0.48851445041E+02 -0.13441371592E+03 -0.21377697556E+03  0.25720440509E+03  0.25500000920E-02 0. -1.
       -2    1    3    3    0  502  0.48851445041E+02  0.13441371592E+03  0.12272071861E+04  0.12355124396E+04  0.25500000920E-02 0.  1.
</event>
<event>
 5   0  0.5958706E-03  0.1112974E+04  0.7818609E-02  0.9192638E-01
       -1   -1    0    0    0  501  0.00000000000E+00  0.00000000000E+00  0.40273173508E+03  0.40273173511E+03  0.50400001928E-02 0.  1.
        1   -1    0    0  501    0  0.00000000000E+00  0.00000000000E+00 -0.76894272481E+03  0.76894272483E+03  0.50400001928E-02 0. -1.
    10030    2    1    2    0    0  0.00000000000E+00  0.00000000000E+00 -0.36621098973E+03  0.11716744599E+04  0.11129737423E+04 0.  0.
        2    1    3    3  502    0  0.19172725471E+02 -0.14996909001E+03  0.38069602604E+03  0.40961907378E+03  0.25500000920E-02 0.  1.
       -2    1    3    3    0  502 -0.19172725471E+02  0.14996909001E+03 -0.74690701577E+03  0.76205538616E+03  0.25500000920E-02 0. -1.
</event>
<event>
 5   0  0.1028016E-02  0.1119802E+04  0.7818609E-02  0.9186104E-01
        2   -1    0    0  501    0  0.00000000000E+00  0.00000000000E+00  0.94596851693E+03  0.94596851693E+03  0.25500000920E-02 0. -1.
       -2   -1    0    0    0  501  0.00000000000E+00  0.00000000000E+00 -0.33139488992E+03  0.33139488992E+03  0.25500000920E-02 0.  1.
    10030    2    1    2    0    0  0.00000000000E+00  0.00000000000E+00  0.61457362702E+03  0.12773634069E+04  0.11198020049E+04 0.  0.
        2    1    3    3  502    0  0.38470703183E+03 -0.23926352488E+03 -0.68007801881E+02  0.45811744760E+03  0.25500000920E-02 0.  1.
       -2    1    3    3    0  502 -0.38470703183E+03  0.23926352488E+03  0.68258142890E+03  0.81924595926E+03  0.25500000920E-02 0. -1.
</event>
<event>
 5   0  0.5998641E-03  0.1001630E+04  0.7818609E-02  0.9306759E-01
       -1   -1    0    0    0  501  0.00000000000E+00  0.00000000000E+00  0.39401213847E+03  0.39401213850E+03  0.50400001928E-02 0. -1.
        1   -1    0    0  501    0  0.00000000000E+00  0.00000000000E+00 -0.63656869874E+03  0.63656869876E+03  0.50400001928E-02 0.  1.
    10030    2    1    2    0    0  0.00000000000E+00  0.00000000000E+00 -0.24255656027E+03  0.10305808373E+04  0.10016302597E+04 0.  0.
        3    1    3    3  502    0 -0.33580546353E+03 -0.17903105278E+03 -0.45626237969E+03  0.59413196894E+03  0.10100000352E+00 0.  1.
       -3    1    3    3    0  502  0.33580546353E+03  0.17903105278E+03  0.21370581943E+03  0.43644886832E+03  0.10100000352E+00 0. -1.
</event>
<event>
 5   0  0.5789905E-03  0.9809348E+03  0.7818609E-02  0.9329706E-01
       -1   -1    0    0    0  501  0.00000000000E+00  0.00000000000E+00  0.48983349888E+03  0.48983349891E+03  0.50400001928E-02 0. -1.
        1   -1    0    0  501    0  0.00000000000E+00  0.00000000000E+00 -0.49110207703E+03  0.49110207706E+03  0.50400001928E-02 0.  1.
    10030    2    1    2    0    0  0.00000000000E+00  0.00000000000E+00 -0.12685781485E+01  0.98093557596E+03  0.98093475568E+03 0.  0.
        1    1    3    3  502    0 -0.13105450705E+03 -0.74408702275E+02  0.46610618940E+03  0.48986418384E+03  0.50400001928E-02 0. -1.
       -1    1    3    3    0  502  0.13105450705E+03  0.74408702275E+02 -0.46737476755E+03  0.49107139212E+03  0.50400001928E-02 0.  1.
</event>
<event>
 5   0  0.1028016E-02  0.1110054E+04  0.7818609E-02  0.9195448E-01
       -2   -1    0    0    0  501  0.00000000000E+00  0.00000000000E+00  0.26572840664E+03  0.26572840665E+03  0.25500000920E-02 0. -1.
        2   -1    0    0  501    0  0.00000000000E+00  0.00000000000E+00 -0.11592843087E+04  0.11592843087E+04  0.25500000920E-02 0.  1.
    10030    2    1    2    0    0  0.00000000000E+00  0.00000000000E+00 -0.89355590204E+03  0.14250127153E+04  0.11100536423E+04 0.  0.
        2    1    3    3  502    0 -0.42968658892E+03 -0.33123563526E+02 -0.89576726169E+03  0.99404563391E+03  0.25500000920E-02 0.  1.
       -2    1    3    3    0  502  0.42968658892E+03  0.33123563526E+02  0.22113596511E+01  0.43096708143E+03  0.25500000920E-02 0. -1.
</event>
<event>
 5   0  0.5958706E-03  0.1135326E+04  0.7818609E-02  0.9171429E-01
        1   -1    0    0  501    0  0.00000000000E+00  0.00000000000E+00  0.10944398101E+04  0.10944398101E+04  0.50400001928E-02 0. -1.
       -1   -1    0    0    0  501  0.00000000000E+00  0.00000000000E+00 -0.29443466275E+03  0.29443466280E+03  0.50400001928E-02 0.  1.
    10030    2    1    2    0    0  0.00000000000E+00  0.00000000000E+00  0.80000514731E+03  0.13888744729E+04  0.11353255329E+04 0.  0.
        2    1    3    3  502    0  0.13372515456E+03 -0.28550655743E+02  0.10739919180E+04  0.10826616262E+04  0.25500000920E-02 0. -1.
       -2    1    3    3    0  502 -0.13372515456E+03  0.28550655743E+02 -0.27398677073E+03  0.30621284664E+03  0.25500000920E-02 0.  1.
</event>
<event>
 5   0  0.5998641E-03  0.1117438E+04  0.7818609E-02  0.9188360E-01
       -1   -1    0    0    0  501  0.00000000000E+00  0.00000000000E+00  0.46596741553E+03  0.46596741555E+03  0.50400001928E-02 0.  1.
        1   -1    0    0  501    0  0.00000000000E+00  0.00000000000E+00 -0.66993309503E+03  0.66993309505E+03  0.50400001928E-02 0. -1.
    10030    2    1    2    0    0  0.00000000000E+00  0.00000000000E+00 -0.20396567951E+03  0.11359005106E+04  0.11174381287E+04 0.  0.
        3    1    3    3  502    0 -0.45920242258E+03  0.59746184744E+02 -0.41976674216E+03  0.62501247949E+03  0.10100000352E+00 0. -1.
       -3    1    3    3    0  502  0.45920242258E+03 -0.59746184744E+02  0.21580106266E+03  0.51088803112E+03  0.10100000352E+00 0.  1.
</event>
<event>
 5   0  0.1019384E-02  0.1105031E+04  0.7818609E-02  0.9200302E-01
        2   -1    0    0  501    0  0.00000000000E+00  0.00000000000E+00  0.11533655467E+04  0.11533655467E+04  0.25500000920E-02 0. -1.
       -2   -1    0    0    0  501  0.00000000000E+00  0.00000000000E+00 -0.26468048550E+03  0.26468048551E+03  0.25500000920E-02 0.  1.
    10030    2    1    2    0    0  0.00000000000E+00  0.00000000000E+00  0.88868506116E+03  0.14180460322E+04  0.11050309550E+04 0.  0.
        1    1    3    3  502    0 -0.27260227340E+03  0.49974717392E+02  0.10577155378E+04  0.10934219821E+04  0.50400001928E-02 0. -1.
       -1    1    3    3    0  502  0.27260227340E+03 -0.49974717392E+02 -0.16903047668E+03  0.32462405011E+03  0.50400001928E-02 0.  1.
</event>
<event>
 5   0  0.1028016E-02  0.1111726E+04  0.7818609E-02  0.9193838E-01
        2   -1    0    0  501    0  0.00000000000E+00  0.00000000000E+00  0.16111640351E+04  0.16111640351E+04  0.25500000920E-02 0. -1.
       -2   -1    0    0    0  501  0.00000000000E+00  0.00000000000E+00 -0.19177659772E+03  0.19177659774E+03  0.25500000920E-02 0.  1.
    10030    2    1    2    0    0  0.00000000000E+00  0.00000000000E+00  0.14193874373E+04  0.18029406328E+04  0.11117257882E+04 0.  0.
        2    1    3    3  502    0  0.40381903693E+03 -0.11436419890E+03  0.11862318704E+03  0.43614268891E+03  0.25500000920E-02 0.  1.
       -2    1    3    3    0  502 -0.40381903693E+03  0.11436419890E+03  0.13007642503E+04  0.13667979439E+04  0.25500000920E-02 0. -1.
</event>
<event>
 5   0  0.9925021E-03  0.1134988E+04  0.7818609E-02  0.9171746E-01
        2   -1    0    0  501    0  0.00000000000E+00  0.00000000000E+00  0.16266860928E+04  0.16266860928E+04  0.25500000920E-02 0.  1.
       -2   -1    0    0    0  501  0.00000000000E+00  0.00000000000E+00 -0.19797872775E+03  0.19797872777E+03  0.25500000920E-02 0. -1.
    10030    2    1    2    0    0  0.00000000000E+00  0.00000000000E+00  0.14287073651E+04  0.18246648206E+04  0.11349876530E+04 0.  0.
        4    1    3    3  502    0 -0.48184758678E+03  0.23329962261E+03  0.41169720990E+03  0.67535325300E+03  0.12699999809E+01 0. -1.
       -4    1    3    3    0  502  0.48184758678E+03 -0.23329962261E+03  0.10170101552E+04  0.11493115676E+04  0.12699999809E+01 0.  1.
</event>
<event>
 5   0  0.9692981E-03  0.1094203E+04  0.7818609E-02  0.9210860E-01
       -2   -1    0    0    0  501  0.00000000000E+00  0.00000000000E+00  0.35658219217E+03  0.35658219218E+03  0.25500000920E-02 0.  1.
        2   -1    0    0  501    0  0.00000000000E+00  0.00000000000E+00 -0.83941401017E+03  0.83941401017E+03  0.25500000920E-02 0. -1.
    10030    2    1    2    0    0  0.00000000000E+00  0.00000000000E+00 -0.48283181800E+03  0.11959962023E+04  0.10942030669E+04 0.  0.
        5    1    3    3  502    0  0.54014280842E+03  0.81919829353E+02 -0.20987133662E+03  0.58526334232E+03  0.46999998093E+01 0.  1.
       -5    1    3    3    0  502 -0.54014280842E+03 -0.81919829353E+02 -0.27296048138E+03  0.61073286003E+03  0.46999998093E+01 0. -1.
</event>
<event>
 5   0  0.9925021E-03  0.1099313E+04  0.7818609E-02  0.9205861E-01
        2   -1    0    0  501    0  0.00000000000E+00  0.00000000000E+00  0.13700037114E+04  0.13700037114E+04  0.25500000920E-02 0. -1.
       -2   -1    0    0    0  501  0.00000000000E+00  0.00000000000E+00 -0.22052672393E+03  0.22052672395E+03  0.25500000920E-02 0.  1.
    10030    2    1    2    0    0  0.00000000000E+00  0.00000000000E+00  0.11494769874E+04  0.15905304353E+04  0.10993132952E+04 0.  0.
        4    1    3    3  502    0  0.37018567824E+03  0.25141675472E+03  0.10365343628E+04  0.11290052786E+04  0.12699999809E+01 0.  1.
       -4    1    3    3    0  502 -0.37018567824E+03 -0.25141675472E+03  0.11294262463E+03  0.46152515672E+03  0.12699999809E+01 0. -1.
</event>
<event>
 5   0  0.1019384E-02  0.1147192E+04  0.7818609E-02  0.9160378E-01
       -2   -1    0    0    0  501  0.00000000000E+00  0.00000000000E+00  0.22407038936E+03  0.22407038937E+03  0.25500000920E-02 0. -1.
        2   -1    0    0  501    0  0.00000000000E+00  0.00000000000E+00 -0.14683445115E+04  0.14683445115E+04  0.25500000920E-02 0.  1.
    10030    2    1    2    0    0  0.00000000000E+00  0.00000000000E+00 -0.12442741222E+04  0.16924149009E+04  0.11471922706E+04 0.  0.
        1    1    3    3  502    0  0.19912229025E+02 -0.54089351961E+03 -0.90224450341E+03  0.10521442108E+04  0.50400001928E-02 0.  1.
       -1    1    3    3    0  502 -0.19912229025E+02  0.54089351961E+03 -0.34202961874E+03  0.64027069006E+03  0.50400001928E-02 0. -1.
</event>
<event>
 5   0  0.5958706E-03  0.1104063E+04  0.7818609E-02  0.9201241E-01
       -1   -1    0    0    0  501  0.00000000000E+00  0.00000000000E+00  0.54180304118E+03  0.54180304120E+03  0.50400001928E-02 0.  1.
        1   -1    0    0  501    0  0.00000000000E+00  0.00000000000E+00 -0.56245308261E+03  0.56245308263E+03  0.50400001928E-02 0. -1.
    10030    2    1    2    0    0  0.00000000000E+00  0.00000000000E+00 -0.20650041432E+02  0.11042561238E+04  0.11040630248E+04 0.  0.
        2    1    3    3  502    0  0.26146698486E+03 -0.34574051818E+03 -0.35219952039E+03  0.55852125497E+03  0.25500000920E-02 0. -1.
       -2    1    3    3    0  502 -0.26146698486E+03  0.34574051818E+03  0.33154947896E+03  0.54573486886E+03  0.25500000920E-02 0.  1.
</event>
<event>
 5   0  0.1028016E-02  0.1026054E+04  0.7818609E-02  0.9280422E-01
        2   -1    0    0  501    0  0.00000000000E+00  0.00000000000E+00  0.15473233653E+04  0.15473233653E+04  0.25500000920E-02 0.  1.
       -2   -1    0    0    0  501  0.00000000000E+00  0.00000000000E+00 -0.17009814908E+03  0.17009814910E+03  0.25500000920E-02 0. -1.
    10030    2    1    2    0    0  0.00000000000E+00  0.00000000000E+00  0.13772252162E+04  0.17174215144E+04  0.10260542685E+04 0.  0.
        2    1    3    3  502    0  0.17611891711E+03  0.35434911208E+02  0.14929541100E+04  0.15037238711E+04  0.25500000920E-02 0.  1.
       -2    1    3    3    0  502 -0.17611891711E+03 -0.35434911208E+02 -0.11572889378E+03  0.21369764331E+03  0.25500000920E-02 0. -1.
</event>
<event>
 5   0  0.9719260E-03  0.1105853E+04  0.7818609E-02  0.9199506E-01
       -2   -1    0    0    0  501  0.00000000000E+00  0.00000000000E+00  0.33696925481E+03  0.33696925482E+03  0.25500000920E-02 0. -1.
        2   -1    0    0  501    0  0.00000000000E+00  0.00000000000E+00 -0.90728593247E+03  0.90728593247E+03  0.25500000920E-02 0.  1.
    10030    2    1    2    0    0  0.00000000000E+00  0.00000000000E+00 -0.57031667766E+03  0.12442551873E+04  0.11058525482E+04 0.  0.
        3    1    3    3  502    0  0.21246121185E+03  0.50351037990E+03 -0.19058518679E+03  0.57877905356E+03  0.10100000352E+00 0.  1.
       -3    1    3    3    0  502 -0.21246121185E+03 -0.50351037990E+03 -0.37973149087E+03  0.66547613373E+03  0.10100000352E+00 0. -1.
</event>
<event>
 5   0  0.9692981E-03  0.1139417E+04  0.7818609E-02  0.9167602E-01
       -2   -1    0    0    0  501  0.00000000000E+00  0.00000000000E+00  0.98308445321E+03  0.98308445321E+03  0.25500000920E-02 0.  1.
        2   -1    0    0  501    0  0.00000000000E+00  0.00000000000E+00 -0.33015269285E+03  0.33015269286E+03  0.25500000920E-02 0. -1.
    10030    2    1    2    0    0  0.00000000000E+00  0.00000000000E+00  0.65293176036E+03  0.13132371461E+04  0.11394173591E+04 0.  0.
        5    1    3    3  502    0  0.24709749817E+03  0.33585066513E+03 -0.12094540442E+03  0.43416900364E+03  0.46999998093E+01 0. -1.
       -5    1    3    3    0  502 -0.24709749817E+03 -0.33585066513E+03  0.77387716477E+03  0.87906814243E+03  0.46999998093E+01 0.  1.
</event>
<event>
 5   0  0.1019384E-02  0.1090421E+04  0.7818609E-02  0.9214579E-01
        2   -1    0    0  501    0  0.00000000000E+00  0.00000000000E+00  0.10500347383E+04  0.10500347383E+04  0.25500000920E-02 0.  1.
       -2   -1    0    0    0  501  0.00000000000E+00  0.00000000000E+00 -0.28308995483E+03  0.28308995484E+03  0.25500000920E-02 0. -1.
    10030    2    1    2    0    0  0.00000000000E+00  0.00000000000E+00  0.76694478346E+03  0.13331246931E+04  0.10904206283E+04 0.  0.
        1    1    3    3  502    0 -0.30031440434E+03 -0.44368614155E+03  0.50699609359E+03  0.73762536060E+03  0.50400001928E-02 0.  1.
       -1    1    3    3    0  502  0.30031440434E+03  0.44368614155E+03  0.25994868987E+03  0.59549933254E+03  0.50400001928E-02 0. -1.
</event>
<event>
 5   0  0.5789905E-03  0.1086618E+04  0.7818609E-02  0.9218334E-01
       -1   -1    0    0    0  501  0.00000000000E+00  0.00000000000E+00  0.38604563248E+03  0.38604563251E+03  0.50400001928E-02 0.  1.
        1   -1    0    0  501    0  0.00000000000E+00  0.00000000000E+00 -0.76463694188E+03  0.76463694190E+03  0.50400001928E-02 0. -1.
    10030    2    1    2    0    0  0.00000000000E+00  0.00000000000E+00 -0.37859130940E+03  0.11506825744E+04  0.10866181516E+04 0.  0.
        1    1    3    3  502    0 -0.44078253563E+03 -0.31295321207E+03 -0.13172306704E+03  0.55639906818E+03  0.50400001928E-02 0. -1.
       -1    1    3    3    0  502  0.44078253563E+03  0.31295321207E+03 -0.24686824236E+03  0.59428350622E+03  0.50400001928E-02 0.  1.
</event>
<event>
 5   0  0.1028016E-02  0.1092746E+04  0.7818609E-02  0.9212291E-01
       -2   -1    0    0    0  501  0.00000000000E+00  0.00000000000E+00  0.21680517307E+03  0.21680517309E+03  0.25500000920E-02 0.  1.
        2   -1    0    0  501    0  0.00000000000E+00  0.00000000000E+00 -0.13769210835E+04  0.13769210835E+04  0.25500000920E-02 0. -1.
    10030    2    1    2    0    0  0.00000000000E+00  0.00000000000E+00 -0.11601159104E+04  0.15937262566E+04  0.10927462905E+04 0.  0.
        2    1    3    3  502    0  0.25249669490E+03  0.27876528668E+03 -0.11580551474E+04  0.12176027227E+04  0.25500000920E-02 0. -1.
       -2    1    3    3    0  502 -0.25249669490E+03 -0.27876528668E+03 -0.20607630629E+01  0.37612353389E+03  0.25500000920E-02 0.  1.
</event>
<event>
 5   0  0.5998641E-03  0.1087599E+04  0.7818609E-02  0.9217364E-01
       -1   -1    0    0    0  501  0.00000000000E+00  0.00000000000E+00  0.33671391878E+03  0.33671391881E+03  0.50400001928E-02 0.  1.
        1   -1    0    0  501    0  0.00000000000E+00  0.00000000000E+00 -0.87824623599E+03  0.87824623601E+03  0.50400001928E-02 0. -1.
    10030    2    1    2    0    0  0.00000000000E+00  0.00000000000E+00 -0.54153231722E+03  0.12149601548E+04  0.10875986977E+04 0.  0.
        3    1    3    3  502    0 -0.28527752387E+03 -0.28956332490E+03  0.13276574210E+03  0.42761774662E+03  0.10100000352E+00 0. -1.
       -3    1    3    3    0  502  0.28527752387E+03  0.28956332490E+03 -0.67429805932E+03  0.78734240820E+03  0.10100000352E+00 0.  1.
</event>
<event>
 5   0  0.9692981E-03  0.1079427E+04  0.7818609E-02  0.9225479E-01
       -2   -1    0    0    0  501  0.00000000000E+00  0.00000000000E+00  0.31211772180E+03  0.31211772181E+03  0.25500000920E-02 0. -1.
        2   -1    0    0  501    0  0.00000000000E+00  0.00000000000E+00 -0.93327114530E+03  0.93327114531E+03  0.25500000920E-02 0.  1.
    10030    2    1    2    0    0  0.00000000000E+00  0.00000000000E+00 -0.62115342350E+03  0.12453888671E+04  0.10794266324E+04 0.  0.
        5    1    3    3  502    0  0.12467032732E+03 -0.36803953447E+03 -0.74269062409E+03  0.83821670381E+03  0.46999998093E+01 0.  1.
       -5    1    3    3    0  502 -0.12467032732E+03  0.36803953447E+03  0.12153720059E+03  0.40717216331E+03  0.46999998093E+01 0. -1.
</event>
<event>
 5   0  0.5958706E-03  0.1007700E+04  0.7818609E-02  0.9300140E-01
        1   -1    0    0  501    0  0.00000000000E+00  0.00000000000E+00  0.10790766536E+04  0.10790766536E+04  0.50400001928E-02 0. -1.
       -1   -1    0    0    0  501  0.00000000000E+00  0.00000000000E+00 -0.23526098474E+03  0.23526098479E+03  0.50400001928E-02 0.  1.
    10030    2    1    2    0    0  0.00000000000E+00  0.00000000000E+00  0.84381566888E+03  0.13143376384E+04  0.10076996302E+04 0.  0.
        2    1    3    3  502    0  0.15762588188E+03  0.44051204550E+03  0.66580701649E+03  0.81375411771E+03  0.25500000920E-02 0. -1.
       -2    1    3    3    0  502 -0.15762588188E+03 -0.44051204550E+03  0.17800865239E+03  0.50058352071E+03  0.25500000920E-02 0.  1.
</event>
<event>
 5   0  0.9925021E-03  0.9228528E+03  0.7818609E-02  0.9397457E-01
       -2   -1    0    0    0  501  0.00000000000E+00  0.00000000000E+00  0.92359088767E+02  0.92359088802E+02  0.25500000920E-02 0. -1.
        2   -1    0    0  501    0  0.00000000000E+00  0.00000000000E+00 -0.23052883306E+04  0.23052883306E+04  0.25500000920E-02 0.  1.
    10030    2    1    2    0    0  0.00000000000E+00  0.00000000000E+00 -0.22129292419E+04  0.23976474194E+04  0.92285281514E+03 0.  0.
        4    1    3    3  502    0  0.28812977219E+03 -0.11022695015E+03 -0.21496283735E+03  0.37600449532E+03  0.12699999809E+01 0. -1.
       -4    1    3    3    0  502 -0.28812977219E+03  0.11022695015E+03 -0.19979664045E+04  0.20216429241E+04  0.12699999809E+01 0.  1.
</event>
<event>
 5   0  0.5789905E-03  0.1067760E+04  0.7818609E-02  0.9237198E-01
       -1   -1    0    0    0  501  0.00000000000E+00  0.00000000000E+00  0.43648394240E+03  0.43648394243E+03  0.50400001928E-02 0.  1.
        1   -1    0    0  501    0  0.00000000000E+00  0.00000000000E+00 -0.65300840995E+03  0.65300840997E+03  0.50400001928E-02 0. -1.
    10030    2    1    2    0    0  0.00000000000E+00  0.00000000000E+00 -0.21652446755E+03  0.10894923524E+04  0.10677596831E+04 0.  0.
        1    1    3    3  502    0 -0.20778986293E+03 -0.31174525030E+03  0.27982900596E+03  0.46761736583E+03  0.50400001928E-02 0.  1.
       -1    1    3    3    0  502  0.20778986293E+03  0.31174525030E+03 -0.49635347351E+03  0.62187498657E+03  0.50400001928E-02 0. -1.
</event>
<event>
 5   0  0.1019384E-02  0.1138844E+04  0.7818609E-02  0.9168137E-01
        2   -1    0    0  501    0  0.00000000000E+00  0.00000000000E+00  0.10243576731E+04  0.10243576731E+04  0.25500000920E-02 0. -1.
       -2   -1    0    0    0  501  0.00000000000E+00  0.00000000000E+00 -0.31653169379E+03  0.31653169380E+03  0.25500000920E-02 0.  1.
    10030    2    1    2    0    0  0.00000000000E+00  0.00000000000E+00  0.70782597931E+03  0.13408893669E+04  0.11388444482E+04 0.  0.
        1    1    3    3  502    0  0.13640859199E+02  0.50400148071E+03  0.66551175441E+03  0.83493081203E+03  0.50400001928E-02 0.  1.
       -1    1    3    3    0  502 -0.13640859199E+02 -0.50400148071E+03  0.42314224904E+02  0.50595855487E+03  0.50400001928E-02 0. -1.
</event>
<event>
 5   0  0.5854579E-03  0.1017618E+04  0.7818609E-02  0.9289430E-01
        1   -1    0    0  501    0  0.00000000000E+00  0.00000000000E+00  0.98554159920E+03  0.98554159922E+03  0.50400001928E-02 0. -1.
       -1   -1    0    0    0  501  0.00000000000E+00  0.00000000000E+00 -0.26268441697E+03  0.26268441702E+03  0.50400001928E-02 0.  1.
    10030    2    1    2    0    0  0.00000000000E+00  0.00000000000E+00  0.72285718223E+03  0.12482260162E+04  0.10176176501E+04 0.  0.
        4    1    3    3  502    0  0.61460531174E+02  0.44183481184E+03  0.61247304074E+02  0.45027574108E+03  0.12699999809E+01 0.  1.
       -4    1    3    3    0  502 -0.61460531174E+02 -0.44183481184E+03  0.66160987816E+03  0.79795027516E+03  0.12699999809E+01 0. -1.
</event>
<event>
 5   0  0.3949750E-03  0.1093633E+04  0.7818609E-02  0.9211420E-01
        3   -1    0    0  501    0  0.00000000000E+00  0.00000000000E+00  0.32894591113E+03  0.32894592664E+03  0.10100000352E+00 0.  1.
       -3   -1    0    0    0  501  0.00000000000E+00  0.00000000000E+00 -0.90898844170E+03  0.90898844731E+03  0.10100000352E+00 0. -1.
    10030    2    1    2    0    0  0.00000000000E+00  0.00000000000E+00 -0.58004253057E+03  0.12379343739E+04  0.10936325603E+04 0.  0.
        2    1    3    3  502    0  0.39194756720E+03  0.24522154380E+03 -0.62052571819E+03  0.77382728559E+03  0.25500000920E-02 0. -1.
       -2    1    3    3    0  502 -0.39194756720E+03 -0.24522154380E+03  0.40483187624E+02  0.46410708836E+03  0.25500000920E-02 0.  1.
</event>
<event>
 5   0  0.9719260E-03  0.1086296E+04  0.7818609E-02  0.9218653E-01
       -2   -1    0    0    0  501  0.00000000000E+00  0.00000000000E+00  0.10621998154E+04  0.10621998154E+04  0.25500000920E-02 0.  1.
        2   -1    0    0  501    0  0.00000000000E+00  0.00000000000E+00 -0.27773451792E+03  0.27773451793E+03  0.25500000920E-02 0. -1.
    10030    2    1    2    0    0  0.00000000000E+00  0.00000000000E+00  0.78446529748E+03  0.13399343333E+04  0.10862956387E+04 0.  0.
        3    1    3    3  502    0  0.16023229791E+03 -0.13195181484E+03  0.10113459595E+04  0.10324273973E+04  0.10100000352E+00 0.  1.
       -3    1    3    3    0  502 -0.16023229791E+03  0.13195181484E+03 -0.22688066198E+03  0.30750693605E+03  0.10100000352E+00 0. -1.
</event>
<event>
 5   0  0.5998641E-03  0.1111021E+04  0.7818609E-02  0.9194516E-01
       -1   -1    0    0    0  501  0.00000000000E+00  0.00000000000E+00  0.11360069331E+03  0.11360069342E+03  0.50400001928E-02 0.  1.
        1   -1    0    0  501    0  0.00000000000E+00  0.00000000000E+00 -0.27164621624E+04  0.27164621624E+04  0.50400001928E-02 0. -1.
    10030    2    1    2    0    0  0.00000000000E+00  0.00000000000E+00 -0.26028614691E+04  0.28300628558E+04  0.11110211252E+04 0.  0.
        3    1    3    3  502    0  0.15620261676E+03  0.32943717791E+02  0.53912828119E+02  0.16849673368E+03  0.10100000352E+00 0.  1.
       -3    1    3    3    0  502 -0.15620261676E+03 -0.32943717791E+02 -0.26567742972E+04  0.26615661221E+04  0.10100000352E+00 0. -1.
</event>
<event>
 5   0  0.1019384E-02  0.1349894E+04  0.7818609E-02  0.8990909E-01
       -2   -1    0    0    0  501  0.00000000000E+00  0.00000000000E+00  0.41721045860E+03  0.41721045861E+03  0.25500000920E-02 0.  1.
        2   -1    0    0  501    0  0.00000000000E+00  0.00000000000E+00 -0.10919028305E+04  0.10919028305E+04  0.25500000920E-02 0. -1.
    10030    2    1    2    0    0  0.00000000000E+00  0.00000000000E+00 -0.67469237188E+03  0.15091132891E+04  0.13498937450E+04 0.  0.
        1    1    3    3  502    0  0.60936662573E+03  0.63297136933E+02 -0.65398275130E+03  0.89611810110E+03  0.50400001928E-02 0. -1.
       -1    1    3    3    0  502 -0.60936662573E+03 -0.63297136933E+02 -0.20709620577E+02  0.61299518800E+03  0.50400001928E-02 0.  1.
</event>
<event>
 5   0  0.5854579E-03  0.1089253E+04  0.7818609E-02  0.9215731E-01
       -1   -1    0    0    0  501  0.00000000000E+00  0.00000000000E+00  0.13798641856E+03  0.13798641866E+03  0.50400001928E-02 0. -1.
        1   -1    0    0  501    0  0.00000000000E+00  0.00000000000E+00 -0.21496160004E+04  0.21496160004E+04  0.50400001928E-02 0.  1.
    10030    2    1    2    0    0  0.00000000000E+00  0.00000000000E+00 -0.20116295818E+04  0.22876024191E+04  0.10892526122E+04 0.  0.
        4    1    3    3  502    0  0.21921015384E+03 -0.28359916973E+03 -0.18669681700E+04  0.19010663695E+04  0.12699999809E+01 0.  1.
       -4    1    3    3    0  502 -0.21921015384E+03  0.28359916973E+03 -0.14466141183E+03  0.38653604954E+03  0.12699999809E+01 0. -1.
</event>
<event>
 5   0  0.9719260E-03  0.7721372E+03  0.7818609E-02  0.9601247E-01
        2   -1    0    0  501    0  0.00000000000E+00  0.00000000000E+00  0.79082642256E+03  0.79082642257E+03  0.25500000920E-02 0.  1.
       -2   -1    0    0    0  501  0.00000000000E+00  0.00000000000E+00 -0.18847242638E+03  0.18847242640E+03  0.25500000920E-02 0. -1.
    10030    2    1    2    0    0  0.00000000000E+00  0.00000000000E+00  0.60235399618E+03  0.97929884897E+03  0.77213722801E+03 0.  0.
        3    1    3    3  502    0  0.41955367751E+02  0.34413567772E+03  0.51663568145E+03  0.62217526077E+03  0.10100000352E+00 0.  1.
       -3    1    3    3    0  502 -0.41955367751E+02 -0.34413567772E+03  0.85718314730E+02  0.35712358820E+03  0.10100000352E+00 0. -1.
</event>
<event>
 5   0  0.5854579E-03  0.1097873E+04  0.7818609E-02  0.9207267E-01
        1   -1    0    0  501    0  0.00000000000E+00  0.00000000000E+00  0.66228757630E+03  0.66228757632E+03  0.50400001928E-02 0. -1.
       -1   -1    0    0    0  501  0.00000000000E+00  0.00000000000E+00 -0.45498567233E+03  0.45498567236E+03  0.50400001928E-02 0.  1.
    10030    2    1    2    0    0  0.00000000000E+00  0.00000000000E+00  0.20730190397E+03  0.11172732487E+04  0.10978731406E+04 0.  0.
        4    1    3    3  502    0  0.12750857282E+03  0.50321603797E+03 -0.77953870860E+02  0.52494117375E+03  0.12699999809E+01 0. -1.
       -4    1    3    3    0  502 -0.12750857282E+03 -0.50321603797E+03  0.28525577483E+03  0.59233207493E+03  0.12699999809E+01 0.  1.
</event>
<event>
 5   0  0.5712664E-03  0.1092527E+04  0.7818609E-02  0.9212506E-01
        1   -1    0    0  501    0  0.00000000000E+00  0.00000000000E+00  0.56908635448E+03  0.56908635450E+03  0.50400001928E-02 0. -1.
       -1   -1    0    0    0  501  0.00000000000E+00  0.00000000000E+00 -0.52435611050E+03  0.52435611052E+03  0.50400001928E-02 0.  1.
    10030    2    1    2    0    0  0.00000000000E+00  0.00000000000E+00  0.44730243982E+02  0.10934424650E+04  0.10925271757E+04 0.  0.
        5    1    3    3  502    0  0.58392347598E+02  0.25771766472E+02  0.56532119763E+03  0.56893233050E+03  0.46999998093E+01 0. -1.
       -5    1    3    3    0  502 -0.58392347598E+02 -0.25771766472E+02 -0.52059095365E+03  0.52451013453E+03  0.46999998093E+01 0.  1.
</event>
<event>
 5   0  0.5854579E-03  0.1099571E+04  0.7818609E-02  0.9205610E-01
        1   -1    0    0  501    0  0.00000000000E+00  0.00000000000E+00  0.35098394427E+03  0.35098394431E+03  0.50400001928E-02 0. -1.
       -1   -1    0    0    0  501  0.00000000000E+00  0.00000000000E+00 -0.86119115304E+03  0.86119115306E+03  0.50400001928E-02 0.  1.
    10030    2    1    2    0    0  0.00000000000E+00  0.00000000000E+00 -0.51020720877E+03  0.12121750974E+04  0.10995713123E+04 0.  0.
        4    1    3    3  502    0  0.37842983328E+03  0.24657596562E+03  0.90450977200E+02  0.46064285267E+03  0.12699999809E+01 0. -1.
       -4    1    3    3    0  502 -0.37842983328E+03 -0.24657596562E+03 -0.60065818597E+03  0.75153224469E+03  0.12699999809E+01 0.  1.
</event>
<event>
 5   0  0.5998641E-03  0.1098099E+04  0.7818609E-02  0.9207047E-01
        1   -1    0    0  501    0  0.00000000000E+00  0.00000000000E+00  0.56134998775E+03  0.56134998778E+03  0.50400001928E-02 0.  1.
       -1   -1    0    0    0  501  0.00000000000E+00  0.00000000000E+00 -0.53701820904E+03  0.53701820907E+03  0.50400001928E-02 0. -1.
    10030    2    1    2    0    0  0.00000000000E+00  0.00000000000E+00  0.24331778711E+02  0.10983681968E+04  0.10980986569E+04 0.  0.
        3    1    3    3  502    0 -0.35454563937E+03 -0.19405985371E+03  0.38386619729E+03  0.55741824947E+03  0.10100000352E+00 0.  1.
       -3    1    3    3    0  502  0.35454563937E+03  0.19405985371E+03 -0.35953441858E+03  0.54094994737E+03  0.10100000352E+00 0. -1.
</event>
<event>
 5   0  0.1028016E-02  0.1102448E+04  0.7818609E-02  0.9202809E-01
       -2   -1    0    0    0  501  0.00000000000E+00  0.00000000000E+00  0.21283148178E+03  0.21283148179E+03  0.25500000920E-02 0. -1.
        2   -1    0    0  501    0  0.00000000000E+00  0.00000000000E+00 -0.14276447377E+04  0.14276447377E+04  0.25500000920E-02 0.  1.
    10030    2    1    2    0    0  0.00000000000E+00  0.00000000000E+00 -0.12148132559E+04  0.16404762195E+04  0.11024477221E+04 0.  0.
        2    1    3    3  502    0 -0.16501267990E+01 -0.36375505836E+03  0.88740258391E+01  0.36386702756E+03  0.25500000920E-02 0. -1.
       -2    1    3    3    0  502  0.16501267990E+01  0.36375505836E+03 -0.12236872818E+04  0.12766091920E+04  0.25500000920E-02 0.  1.
</event>
<event>
 5   0  0.9925021E-03  0.1117314E+04  0.7818609E-02  0.9188479E-01
        2   -1    0    0  501    0  0.00000000000E+00  0.00000000000E+00  0.27541505053E+04  0.27541505053E+04  0.25500000920E-02 0.  1.
       -2   -1    0    0    0  501  0.00000000000E+00  0.00000000000E+00 -0.11331903969E+03  0.11331903972E+03  0.25500000920E-02 0. -1.
    10030    2    1    2    0    0  0.00000000000E+00  0.00000000000E+00  0.26408314656E+04  0.28674695450E+04  0.11173140838E+04 0.  0.
        4    1    3    3  502    0 -0.56838726062E+02  0.52803404518E+03  0.87556619616E+03  0.10240451017E+04  0.12699999809E+01 0. -1.
       -4    1    3    3    0  502  0.56838726062E+02 -0.52803404518E+03  0.17652652694E+04  0.18434244433E+04  0.12699999809E+01 0.  1.
</event>
<event>
 5   0  0.9719260E-03  0.1092326E+04  0.7818609E-02  0.9212704E-01
       -2   -1    0    0    0  501  0.00000000000E+00  0.00000000000E+00  0.24108087693E+03  0.24108087695E+03  0.25500000920E-02 0.  1.
        2   -1    0    0  501    0  0.00000000000E+00  0.00000000000E+00 -0.12373200960E+04  0.12373200960E+04  0.25500000920E-02 0. -1.
    10030    2    1    2    0    0  0.00000000000E+00  0.00000000000E+00 -0.99623921911E+03  0.14784009730E+04  0.10923263502E+04 0.  0.
        3    1    3    3  502    0  0.15223753344E+03 -0.21234622973E+03 -0.11472459793E+04  0.11766225117E+04  0.10100000352E+00 0. -1.
       -3    1    3    3    0  502 -0.15223753344E+03  0.21234622973E+03  0.15100676019E+03  0.30177846128E+03  0.10100000352E+00 0.  1.
</event>
<event>
 5   0  0.9692981E-03  0.1107989E+04  0.7818609E-02  0.9197440E-01
       -2   -1    0    0    0  501  0.00000000000E+00  0.00000000000E+00  0.25331289250E+03  0.25331289251E+03  0.25500000920E-02 0.  1.
        2   -1    0    0  501    0  0.00000000000E+00  0.00000000000E+00 -0.12115844993E+04  0.12115844993E+04  0.25500000920E-02 0. -1.
    10030    2    1    2    0    0  0.00000000000E+00  0.00000000000E+00 -0.95827160678E+03  0.14648973918E+04  0.11079891227E+04 0.  0.
        5    1    3    3  502    0 -0.12135204320E+03  0.37435635839E+03 -0.99462607876E+03  0.10696598188E+04  0.46999998093E+01 0. -1.
       -5    1    3    3    0  502  0.12135204320E+03 -0.37435635839E+03  0.36354471975E+02  0.39523757297E+03  0.46999998093E+01 0.  1.
</event>
<event>
 5   0  0.5958706E-03  0.1082757E+04  0.7818609E-02  0.9222163E-01
        1   -1    0    0  501    0  0.00000000000E+00  0.00000000000E+00  0.61981772904E+03  0.61981772906E+03  0.50400001928E-02 0.  1.
       -1   -1    0    0    0  501  0.00000000000E+00  0.00000000000E+00 -0.47286586755E+03  0.47286586758E+03  0.50400001928E-02 0. -1.
    10030    2    1    2    0    0  0.00000000000E+00  0.00000000000E+00  0.14695186149E+03  0.10926835966E+04  0.10827569408E+04 0.  0.
        2    1    3    3  502    0  0.52426544448E+03 -0.10382180087E+03  0.16062402832E+03  0.55806209430E+03  0.25500000920E-02 0.  1.
       -2    1    3    3    0  502 -0.52426544448E+03  0.10382180087E+03 -0.13672166831E+02  0.53462150234E+03  0.25500000920E-02 0. -1.
</event>
<event>
 5   0  0.5854579E-03  0.1145471E+04  0.7818609E-02  0.9161972E-01
        1   -1    0    0  501    0  0.00000000000E+00  0.00000000000E+00  0.52540872759E+03  0.52540872762E+03  0.50400001928E-02 0. -1.
       -1   -1    0    0    0  501  0.00000000000E+00  0.00000000000E+00 -0.62432499354E+03  0.62432499356E+03  0.50400001928E-02 0.  1.
    10030    2    1    2    0    0  0.00000000000E+00  0.00000000000E+00 -0.98916265943E+02  0.11497337212E+04  0.11454707338E+04 0.  0.
        4    1    3    3  502    0 -0.37204040637E+02  0.25319508077E+03  0.46482779546E+03  0.53062075148E+03  0.12699999809E+01 0. -1.
       -4    1    3    3    0  502  0.37204040637E+02 -0.25319508077E+03 -0.56374406141E+03  0.61911296969E+03  0.12699999809E+01 0.  1.
</event>
<event>
 5   0  0.9719260E-03  0.1093858E+04  0.7818609E-02  0.9211199E-01
       -2   -1    0    0    0  501  0.00000000000E+00  0.00000000000E+00  0.31404150320E+03  0.31404150321E+03  0.25500000920E-02 0. -1.
        2   -1    0    0  501    0  0.00000000000E+00  0.00000000000E+00 -0.95252227448E+03  0.95252227449E+03  0.25500000920E-02 0.  1.
    10030    2    1    2    0    0  0.00000000000E+00  0.00000000000E+00 -0.63848077128E+03  0.12665637777E+04  0.10938583581E+04 0.  0.
        3    1    3    3  502    0 -0.31219015775E+03 -0.10433719663E+03 -0.82498972376E+03  0.88823251444E+03  0.10100000352E+00 0.  1.
       -3    1    3    3    0  502  0.31219015775E+03  0.10433719663E+03  0.18650895248E+03  0.37833126325E+03  0.10100000352E+00 0. -1.
</event>
<event>
 5   0  0.1019384E-02  0.1094547E+04  0.7818609E-02  0.9210523E-01
       -2   -1    0    0    0  501  0.00000000000E+00  0.00000000000E+00  0.63891889582E+03  0.63891889583E+03  0.25500000920E-02 0. -1.
        2   -1    0    0  501    0  0.00000000000E+00  0.00000000000E+00 -0.46877324341E+03  0.46877324342E+03  0.25500000920E-02 0.  1.
    10030    2    1    2    0    0  0.00000000000E+00  0.00000000000E+00  0.17014565241E+03  0.11076921392E+04  0.10945466332E+04 0.  0.
        1    1    3    3  502    0  0.31761028327E+02  0.51069313504E+03  0.28154836348E+03  0.58402544644E+03  0.50400001928E-02 0. -1.
       -1    1    3    3    0  502 -0.31761028327E+02 -0.51069313504E+03 -0.11140271106E+03  0.52366669280E+03  0.50400001928E-02 0.  1.
</event>
<event>
 5   0  0.3949750E-03  0.1089769E+04  0.7818609E-02  0.9215221E-01
       -3   -1    0    0    0  501  0.00000000000E+00  0.00000000000E+00  0.93673203570E+03  0.93673204114E+03  0.10100000352E+00 0. -1.
        3   -1    0    0  501    0  0.00000000000E+00  0.00000000000E+00 -0.31695224139E+03  0.31695225748E+03  0.10100000352E+00 0.  1.
    10030    2    1    2    0    0  0.00000000000E+00  0.00000000000E+00  0.61977979431E+03  0.12536842986E+04  0.10897693917E+04 0.  0.
        2    1    3    3  502    0  0.46825809198E+03 -0.10462834833E+03  0.12810271414E+02  0.47997586923E+03  0.25500000920E-02 0.  1.
       -2    1    3    3    0  502 -0.46825809198E+03  0.10462834833E+03  0.60696952289E+03  0.77370842939E+03  0.25500000920E-02 0. -1.
</event>
<event>
 5   0  0.9719260E-03  0.1100512E+04  0.7818609E-02  0.9204693E-01
       -2   -1    0    0    0  501  0.00000000000E+00  0.00000000000E+00  0.86019498951E+03  0.86019498951E+03  0.25500000920E-02 0. -1.
        2   -1    0    0  501    0  0.00000000000E+00  0.00000000000E+00 -0.35199204946E+03  0.35199204947E+03  0.25500000920E-02 0.  1.
    10030    2    1    2    0    0  0.00000000000E+00  0.00000000000E+00  0.50820294005E+03  0.12121870390E+04  0.11005122395E+04 0.  0.
        3    1    3    3  502    0 -0.48571924697E+03  0.12491136201E+03  0.47304030996E+01  0.50154603193E+03  0.10100000352E+00 0.  1.
       -3    1    3    3    0  502  0.48571924697E+03 -0.12491136201E+03  0.50347253695E+03  0.71064100705E+03  0.10100000352E+00 0. -1.
</event>
<event>
 5   0  0.5998641E-03  0.1108929E+04  0.7818609E-02  0.9196532E-01
        1   -1    0    0  501    0  0.00000000000E+00  0.00000000000E+00  0.51132119752E+03  0.51132119755E+03  0.50400001928E-02 0.  1.
       -1   -1    0    0    0  501  0.00000000000E+00  0.00000000000E+00 -0.60124849215E+03  0.60124849217E+03  0.50400001928E-02 0. -1.
    10030    2    1    2    0    0  0.00000000000E+00  0.00000000000E+00 -0.89927294626E+02  0.11125696897E+04  0.11089293919E+04 0.  0.
        3    1    3    3  502    0 -0.16486932823E+03 -0.31102675735E+03 -0.47475238498E+03  0.59102400664E+03  0.10100000352E+00 0. -1.
       -3    1    3    3    0  502  0.16486932823E+03  0.31102675735E+03  0.38482509035E+03  0.52154568308E+03  0.10100000352E+00 0.  1.
</event>
<event>
 5   0  0.3949750E-03  0.1076011E+04  0.7818609E-02  0.9228894E-01
        3   -1    0    0  501    0  0.00000000000E+00  0.00000000000E+00  0.30084123720E+03  0.30084125415E+03  0.10100000352E+00 0. -1.
       -3   -1    0    0    0  501  0.00000000000E+00  0.00000000000E+00 -0.96213503954E+03  0.96213504484E+03  0.10100000352E+00 0.  1.
    10030    2    1    2    0    0  0.00000000000E+00  0.00000000000E+00 -0.66129380234E+03  0.12629762990E+04  0.10760109845E+04 0.  0.
        4    1    3    3  502    0 -0.31615073396E+03  0.41047324925E+01  0.18028188133E+03  0.36396607678E+03  0.12699999809E+01 0. -1.
       -4    1    3    3    0  502  0.31615073396E+03 -0.41047324925E+01 -0.84157568366E+03  0.89901022221E+03  0.12699999809E+01 0.  1.
</event>
<event>
 5   0  0.1028016E-02  0.1095008E+04  0.7818609E-02  0.9210071E-01
       -2   -1    0    0    0  501  0.00000000000E+00  0.00000000000E+00  0.81835096816E+03  0.81835096817E+03  0.25500000920E-02 0. -1.
        2   -1    0    0  501    0  0.00000000000E+00  0.00000000000E+00 -0.36629824074E+03  0.36629824074E+03  0.25500000920E-02 0.  1.
    10030    2    1    2    0    0  0.00000000000E+00  0.00000000000E+00  0.45205272743E+03  0.11846492089E+04  0.10950077990E+04 0.  0.
        2    1    3    3  502    0  0.40770173373E+03 -0.23951383701E+03 -0.72562021528E+02  0.47838564859E+03  0.25500000920E-02 0.  1.
       -2    1    3    3    0  502 -0.40770173373E+03  0.23951383701E+03  0.52461474896E+03  0.70626356032E+03  0.25500000920E-02 0. -1.
</event>
<event>
 5   0  0.5789905E-03  0.1094214E+04  0.7818609E-02  0.9210849E-01
        1   -1    0    0  501    0  0.00000000000E+00  0.00000000000E+00  0.15645570737E+04  0.15645570737E+04  0.50400001928E-02 0.  1.
       -1   -1    0    0    0  501  0.00000000000E+00  0.00000000000E+00 -0.19131695256E+03  0.19131695263E+03  0.50400001928E-02 0. -1.
    10030    2    1    2    0    0  0.00000000000E+00  0.00000000000E+00  0.13732401211E+04  0.17558740263E+04  0.10942144059E+04 0.  0.
        1    1    3    3  502    0  0.27462445037E+03 -0.10428232451E+03  0.14272721727E+04  0.14571888165E+04  0.50400001928E-02 0.  1.
       -1    1    3    3    0  502 -0.27462445037E+03  0.10428232451E+03 -0.54032051576E+02  0.29868520982E+03  0.50400001928E-02 0. -1.
</event>
<event>
 5   0  0.9719260E-03  0.1064659E+04  0.7818609E-02  0.9240339E-01
        2   -1    0    0  501    0  0.00000000000E+00  0.00000000000E+00  0.21299622146E+04  0.21299622146E+04  0.25500000920E-02 0.  1.
       -2   -1    0    0    0  501  0.00000000000E+00  0.00000000000E+00 -0.13304221885E+03  0.13304221887E+03  0.25500000920E-02 0. -1.
    10030    2    1    2    0    0  0.00000000000E+00  0.00000000000E+00  0.19969199958E+04  0.22630044335E+04  0.10646593805E+04 0.  0.
        3    1    3    3  502    0 -0.28336462454E+03 -0.36780037606E+03  0.15519334710E+04  0.16198981868E+04  0.10100000352E+00 0.  1.
       -3    1    3    3    0  502  0.28336462454E+03  0.36780037606E+03  0.44498652476E+03  0.64310624666E+03  0.10100000352E+00 0. -1.
</event>
<event>
 5   0  0.1028016E-02  0.1108192E+04  0.7818609E-02  0.9197244E-01
       -2   -1    0    0    0  501  0.00000000000E+00  0.00000000000E+00  0.56756606190E+03  0.56756606190E+03  0.25500000920E-02 0.  1.
        2   -1    0    0  501    0  0.00000000000E+00  0.00000000000E+00 -0.54094602217E+03  0.54094602217E+03  0.25500000920E-02 0. -1.
    10030    2    1    2    0    0  0.00000000000E+00  0.00000000000E+00  0.26620039729E+02  0.11085120841E+04  0.11081924084E+04 0.  0.
        2    1    3    3  502    0 -0.19752821987E+03  0.36957954815E+03  0.37592826614E+03  0.56296403202E+03  0.25500000920E-02 0.  1.
       -2    1    3    3    0  502  0.19752821987E+03 -0.36957954815E+03 -0.34930822641E+03  0.54554805206E+03  0.25500000920E-02 0. -1.
</event>
<event>
 5   0  0.5789905E-03  0.1145013E+04  0.7818609E-02  0.9162396E-01
        1   -1    0    0  501    0  0.00000000000E+00  0.00000000000E+00  0.93089837027E+03  0.93089837028E+03  0.50400001928E-02 0.  1.
       -1   -1    0    0    0  501  0.00000000000E+00  0.00000000000E+00 -0.35209404982E+03  0.35209404985E+03  0.50400001928E-02 0. -1.
    10030    2    1    2    0    0  0.00000000000E+00  0.00000000000E+00  0.57880432045E+03  0.12829924201E+04  0.11450131479E+04 0.  0.
        1    1    3    3  502    0  0.59203277874E+02 -0.41416897221E+03  0.72729270958E+03  0.83904448695E+03  0.50400001928E-02 0.  1.
       -1    1    3    3    0  502 -0.59203277874E+02  0.41416897221E+03 -0.14848838913E+03  0.44394793319E+03  0.50400001928E-02 0. -1.
</event>
<event>
 5   0  0.9692981E-03  0.1104570E+04  0.7818609E-02  0.9200749E-01
       -2   -1    0    0    0  501  0.00000000000E+00  0.00000000000E+00  0.79021362160E+03  0.79021362160E+03  0.25500000920E-02 0. -1.
        2   -1    0    0  501    0  0.00000000000E+00  0.00000000000E+00 -0.38599517205E+03  0.38599517206E+03  0.25500000920E-02 0.  1.
    10030    2    1    2    0    0  0.00000000000E+00  0.00000000000E+00  0.40421844955E+03  0.11762087937E+04  0.11045698581E+04 0.  0.
        5    1    3    3  502    0 -0.22512224624E+03 -0.12474712901E+03  0.72242522558E+03  0.76691731530E+03  0.46999998093E+01 0. -1.
       -5    1    3    3    0  502  0.22512224624E+03  0.12474712901E+03 -0.31820677604E+03  0.40929147836E+03  0.46999998093E+01 0.  1.
</event>
<event>
 5   0  0.1028016E-02  0.1086291E+04  0.7818609E-02  0.9218658E-01
       -2   -1    0    0    0  501  0.00000000000E+00  0.00000000000E+00  0.22474123393E+03  0.22474123394E+03  0.25500000920E-02 0. -1.
        2   -1    0    0  501    0  0.00000000000E+00  0.00000000000E+00 -0.13126513244E+04  0.13126513244E+04  0.25500000920E-02 0.  1.
    10030    2    1    2    0    0  0.00000000000E+00  0.00000000000E+00 -0.10879100905E+04  0.15373925584E+04  0.10862907132E+04 0.  0.
        2    1    3    3  502    0 -0.41888487142E+02  0.50538147926E+03 -0.26864341173E+03  0.57387661358E+03  0.25500000920E-02 0.  1.
       -2    1    3    3    0  502  0.41888487142E+02 -0.50538147926E+03 -0.81926667878E+03  0.96351594481E+03  0.25500000920E-02 0. -1.
</event>
<event>
 5   0  0.9692981E-03  0.1075394E+04  0.7818609E-02  0.9229512E-01
        2   -1    0    0  501    0  0.00000000000E+00  0.00000000000E+00  0.79006065116E+03  0.79006065117E+03  0.25500000920E-02 0. -1.
       -2   -1    0    0    0  501  0.00000000000E+00  0.00000000000E+00 -0.36594380545E+03  0.36594380545E+03  0.25500000920E-02 0.  1.
    10030    2    1    2    0    0  0.00000000000E+00  0.00000000000E+00  0.42411684572E+03  0.11560044566E+04  0.10753935117E+04 0.  0.
        5    1    3    3  502    0  0.31240432598E+03  0.34594638001E+03 -0.76023400161E+02  0.47231028795E+03  0.46999998093E+01 0.  1.
       -5    1    3    3    0  502 -0.31240432598E+03 -0.34594638001E+03  0.50014024588E+03  0.68369416867E+03  0.46999998093E+01 0. -1.
</event>
<event>
 5   0  0.5854579E-03  0.1105265E+04  0.7818609E-02  0.9200076E-01
        1   -1    0    0  501    0  0.00000000000E+00  0.00000000000E+00  0.38793063652E+03  0.38793063655E+03  0.50400001928E-02 0. -1.
       -1   -1    0    0    0  501  0.00000000000E+00  0.00000000000E+00 -0.78726084623E+03  0.78726084624E+03  0.50400001928E-02 0.  1.
    10030    2    1    2    0    0  0.00000000000E+00  0.00000000000E+00 -0.39933020971E+03  0.11751914828E+04  0.11052648573E+04 0.  0.
        4    1    3    3  502    0 -0.43577722237E+03  0.33899774173E+03 -0.22526604199E+03  0.59629494297E+03  0.12699999809E+01 0. -1.
       -4    1    3    3    0  502  0.43577722237E+03 -0.33899774173E+03 -0.17406416773E+03  0.57889653983E+03  0.12699999809E+01 0.  1.
</event>
<event>
 5   0  0.9925021E-03  0.1085589E+04  0.7818609E-02  0.9219353E-01
       -2   -1    0    0    0  501  0.00000000000E+00  0.00000000000E+00  0.30960071983E+03  0.30960071984E+03  0.25500000920E-02 0.  1.
        2   -1    0    0  501    0  0.00000000000E+00  0.00000000000E+00 -0.95163107483E+03  0.95163107483E+03  0.25500000920E-02 0. -1.
    10030    2    1    2    0    0  0.00000000000E+00  0.00000000000E+00 -0.64203035500E+03  0.12612317947E+04  0.10855886252E+04 0.  0.
        4    1    3    3  502    0  0.48354649285E+03 -0.23328663208E+03 -0.22818642614E+03  0.58336139865E+03  0.12699999809E+01 0.  1.
       -4    1    3    3    0  502 -0.48354649285E+03  0.23328663208E+03 -0.41384392885E+03  0.67787039603E+03  0.12699999809E+01 0. -1.
</event>
<event>
 5   0  0.9719260E-03  0.1162956E+04  0.7818609E-02  0.9145913E-01
        2   -1    0    0  501    0  0.00000000000E+00  0.00000000000E+00  0.43311338471E+03  0.43311338471E+03  0.25500000920E-02 0. -1.
       -2   -1    0    0    0  501  0.00000000000E+00  0.00000000000E+00 -0.78066566920E+03  0.78066566920E+03  0.25500000920E-02 0.  1.
    10030    2    1    2    0    0  0.00000000000E+00  0.00000000000E+00 -0.34755228449E+03  0.12137790539E+04  0.11629561476E+04 0.  0.
        3    1    3    3  502    0 -0.53644777625E+02  0.44143685156E+03 -0.56481263812E+03  0.71885852743E+03  0.10100000352E+00 0.  1.
       -3    1    3    3    0  502  0.53644777625E+02 -0.44143685156E+03  0.21726035363E+03  0.49492052649E+03  0.10100000352E+00 0. -1.
</event>
<event>
 5   0  0.9692981E-03  0.1092298E+04  0.7818609E-02  0.9212731E-01
       -2   -1    0    0    0  501  0.00000000000E+00  0.00000000000E+00  0.12138796535E+03  0.12138796538E+03  0.25500000920E-02 0. -1.
        2   -1    0    0  501    0  0.00000000000E+00  0.00000000000E+00 -0.24572356334E+04  0.24572356334E+04  0.25500000920E-02 0.  1.
    10030    2    1    2    0    0  0.00000000000E+00  0.00000000000E+00 -0.23358476681E+04  0.25786235988E+04  0.10922981900E+04 0.  0.
        5    1    3    3  502    0 -0.15511909920E+03 -0.52319167077E+03 -0.11170017571E+04  0.12431840068E+04  0.46999998093E+01 0.  1.
       -5    1    3    3    0  502  0.15511909920E+03  0.52319167077E+03 -0.12188459110E+04  0.13354395920E+04  0.46999998093E+01 0. -1.
</event>
<event>
 5   0  0.9719260E-03  0.7361328E+03  0.7818609E-02  0.9657361E-01
        2   -1    0    0  501    0  0.00000000000E+00  0.00000000000E+00  0.78231020555E+03  0.78231020555E+03  0.25500000920E-02 0.  1.
       -2   -1    0    0    0  501  0.00000000000E+00  0.00000000000E+00 -0.17317025713E+03  0.17317025715E+03  0.25500000920E-02 0. -1.
    10030    2    1    2    0    0  0.00000000000E+00  0.00000000000E+00  0.60913994842E+03  0.95548046270E+03  0.73613275830E+03 0.  0.
        3    1    3    3  502    0  0.14564084068E+03  0.15422071502E+03 -0.85853678891E+02  0.22883650888E+03  0.10100000352E+00 0. -1.
       -3    1    3    3    0  502 -0.14564084068E+03 -0.15422071502E+03  0.69499362731E+03  0.72664395382E+03  0.10100000352E+00 0.  1.
</event>
<event>
 5   0  0.5998641E-03  0.1371697E+04  0.7818609E-02  0.8974564E-01
       -1   -1    0    0    0  501  0.00000000000E+00  0.00000000000E+00  0.24198543114E+03  0.24198543119E+03  0.50400001928E-02 0.  1.
        1   -1    0    0  501    0  0.00000000000E+00  0.00000000000E+00 -0.19438708105E+04  0.19438708105E+04  0.50400001928E-02 0. -1.
    10030    2    1    2    0    0  0.00000000000E+00  0.00000000000E+00 -0.17018853794E+04  0.21858562417E+04  0.13716973664E+04 0.  0.
        3    1    3    3  502    0 -0.21770036521E+03  0.53387214446E+03 -0.25902098586E+03  0.63206391841E+03  0.10100000352E+00 0.  1.
       -3    1    3    3    0  502  0.21770036521E+03 -0.53387214446E+03 -0.14428643935E+04  0.15537923233E+04  0.10100000352E+00 0. -1.
</event>
<event>
 5   0  0.5998641E-03  0.1082150E+04  0.7818609E-02  0.9222767E-01
       -1   -1    0    0    0  501  0.00000000000E+00  0.00000000000E+00  0.24957362796E+03  0.24957362801E+03  0.50400001928E-02 0. -1.
        1   -1    0    0  501    0  0.00000000000E+00  0.00000000000E+00 -0.11730485761E+04  0.11730485761E+04  0.50400001928E-02 0.  1.
    10030    2    1    2    0    0  0.00000000000E+00  0.00000000000E+00 -0.92347494814E+03  0.14226222041E+04  0.10821496920E+04 0.  0.
        3    1    3    3  502    0 -0.43398478712E+03 -0.31197920225E+03 -0.57241744060E+03  0.78315742644E+03  0.10100000352E+00 0. -1.
       -3    1    3    3    0  502  0.43398478712E+03  0.31197920225E+03 -0.35105750754E+03  0.63946477768E+03  0.10100000352E+00 0.  1.
</event>
<event>
 5   0  0.9925021E-03  0.1077628E+04  0.7818609E-02  0.9227276E-01
        2   -1    0    0  501    0  0.00000000000E+00  0.00000000000E+00  0.12868739315E+04  0.12868739315E+04  0.25500000920E-02 0. -1.
       -2   -1    0    0    0  501  0.00000000000E+00  0.00000000000E+00 -0.22560143397E+03  0.22560143399E+03  0.25500000920E-02 0.  1.
    10030    2    1    2    0    0  0.00000000000E+00  0.00000000000E+00  0.10612724976E+04  0.15124753655E+04  0.10776281442E+04 0.  0.
        4    1    3    3  502    0  0.88045250097E+02  0.32134440087E+03  0.11249494048E+04  0.11732548599E+04  0.12699999809E+01 0. -1.
       -4    1    3    3    0  502 -0.88045250097E+02 -0.32134440087E+03 -0.63676907212E+02  0.33922050564E+03  0.12699999809E+01 0.  1.
</event>
<event>
 5   0  0.5712664E-03  0.1077568E+04  0.7818609E-02  0.9227336E-01
        1   -1    0    0  501    0  0.00000000000E+00  0.00000000000E+00  0.45496160193E+03  0.45496160196E+03  0.50400001928E-02 0. -1.
       -1   -1    0    0    0  501  0.00000000000E+00  0.00000000000E+00 -0.63804999200E+03  0.63804999202E+03  0.50400001928E-02 0.  1.
    10030    2    1    2    0    0  0.00000000000E+00  0.00000000000E+00 -0.18308839007E+03  0.10930115940E+04  0.10775680888E+04 0.  0.
        5    1    3    3  502    0  0.33940998259E+03  0.25674621157E+03 -0.42665523845E+03  0.60263964019E+03  0.46999998093E+01 0.  1.
       -5    1    3    3    0  502 -0.33940998259E+03 -0.25674621157E+03  0.24356684838E+03  0.49037195379E+03  0.46999998093E+01 0. -1.
</event>
<event>
 5   0  0.5712664E-03  0.1108395E+04  0.7818609E-02  0.9197048E-01
        1   -1    0    0  501    0  0.00000000000E+00  0.00000000000E+00  0.44023826041E+03  0.44023826044E+03  0.50400001928E-02 0.  1.
       -1   -1    0    0    0  501  0.00000000000E+00  0.00000000000E+00 -0.69765630549E+03  0.69765630551E+03  0.50400001928E-02 0. -1.
    10030    2    1    2    0    0  0.00000000000E+00  0.00000000000E+00 -0.25741804508E+03  0.11378945659E+04  0.11083952333E+04 0.  0.
        5    1    3    3  502    0  0.31104585613E+03  0.43251169797E+03 -0.28540487884E+03  0.60439550657E+03  0.46999998093E+01 0. -1.
       -5    1    3    3    0  502 -0.31104585613E+03 -0.43251169797E+03  0.27986833764E+02  0.53349905938E+03  0.46999998093E+01 0.  1.
</event>
<event>
 5   0  0.5998641E-03  0.1038618E+04  0.7818609E-02  0.9267175E-01
        1   -1    0    0  501    0  0.00000000000E+00  0.00000000000E+00  0.55590023239E+03  0.55590023241E+03  0.50400001928E-02 0.  1.
       -1   -1    0    0    0  501  0.00000000000E+00  0.00000000000E+00 -0.48512588994E+03  0.48512588997E+03  0.50400001928E-02 0. -1.
    10030    2    1    2    0    0  0.00000000000E+00  0.00000000000E+00  0.70774342448E+02  0.10410261224E+04  0.10386175330E+04 0.  0.
        3    1    3    3  502    0  0.46040387828E+03 -0.48286833861E+02 -0.20048436406E+03  0.50447729374E+03  0.10100000352E+00 0. -1.
       -3    1    3    3    0  502 -0.46040387828E+03  0.48286833861E+02  0.27125870651E+03  0.53654882865E+03  0.10100000352E+00 0.  1.
</event>
<event>
 5   0  0.5712664E-03  0.1136704E+04  0.7818609E-02  0.9170138E-01
       -1   -1    0    0    0  501  0.00000000000E+00  0.00000000000E+00  0.19299219467E+04  0.19299219467E+04  0.50400001928E-02 0.  1.
        1   -1    0    0  501    0  0.00000000000E+00  0.00000000000E+00 -0.16737686216E+03  0.16737686224E+03  0.50400001928E-02 0. -1.
    10030    2    1    2    0    0  0.00000000000E+00  0.00000000000E+00  0.17625450846E+04  0.20972988090E+04  0.11367044994E+04 0.  0.
        5    1    3    3  502    0 -0.11827318268E+03 -0.15619497788E+03 -0.10306256794E+03  0.22142583355E+03  0.46999998093E+01 0. -1.
       -5    1    3    3    0  502  0.11827318268E+03  0.15619497788E+03  0.18656076525E+04  0.18758729754E+04  0.46999998093E+01 0.  1.
</event>
<event>
 5   0  0.5789905E-03  0.1114688E+04  0.7818609E-02  0.9190993E-01
        1   -1    0    0  501    0  0.00000000000E+00  0.00000000000E+00  0.10201229793E+04  0.10201229793E+04  0.50400001928E-02 0. -1.
       -1   -1    0    0    0  501  0.00000000000E+00  0.00000000000E+00 -0.30450499876E+03  0.30450499880E+03  0.50400001928E-02 0.  1.
    10030    2    1    2    0    0  0.00000000000E+00  0.00000000000E+00  0.71561798053E+03  0.13246279781E+04  0.11146883808E+04 0.  0.
        1    1    3    3  502    0 -0.12807712957E+03  0.21667430378E+03  0.94873874755E+03  0.98155831012E+03  0.50400001928E-02 0. -1.
       -1    1    3    3    0  502  0.12807712957E+03 -0.21667430378E+03 -0.23312076702E+03  0.34306966797E+03  0.50400001928E-02 0.  1.
</event>
<event>
 5   0  0.1019384E-02  0.1099795E+04  0.7818609E-02  0.9205392E-01
       -2   -1    0    0    0  501  0.00000000000E+00  0.00000000000E+00  0.61508458555E+03  0.61508458555E+03  0.25500000920E-02 0. -1.
        2   -1    0    0  501    0  0.00000000000E+00  0.00000000000E+00 -0.49161902623E+03  0.49161902623E+03  0.25500000920E-02 0.  1.
    10030    2    1    2    0    0  0.00000000000E+00  0.00000000000E+00  0.12346555932E+03  0.11067036118E+04  0.10997950445E+04 0.  0.
        1    1    3    3  502    0  0.53287426255E+03 -0.89853376161E+01 -0.74586150544E+02  0.53814385610E+03  0.50400001928E-02 0. -1.
       -1    1    3    3    0  502 -0.53287426255E+03  0.89853376161E+01  0.19805170986E+03  0.56855975569E+03  0.50400001928E-02 0.  1.
</event>
<event>
 5   0  0.5958706E-03  0.1066507E+04  0.7818609E-02  0.9238466E-01
       -1   -1    0    0    0  501  0.00000000000E+00  0.00000000000E+00  0.44377754747E+03  0.44377754750E+03  0.50400001928E-02 0.  1.
        1   -1    0    0  501    0  0.00000000000E+00  0.00000000000E+00 -0.64076981975E+03  0.64076981977E+03  0.50400001928E-02 0. -1.
    10030    2    1    2    0    0  0.00000000000E+00  0.00000000000E+00 -0.19699227228E+03  0.10845473673E+04  0.10665069322E+04 0.  0.
        2    1    3    3  502    0 -0.93949820930E+02  0.20981633126E+03 -0.58778972940E+03  0.63114675608E+03  0.25500000920E-02 0. -1.
       -2    1    3    3    0  502  0.93949820930E+02 -0.20981633126E+03  0.39079745712E+03  0.45340061118E+03  0.25500000920E-02 0.  1.
</event>
<event>
 5   0  0.5998641E-03  0.1067604E+04  0.7818609E-02  0.9237355E-01
       -1   -1    0    0    0  501  0.00000000000E+00  0.00000000000E+00  0.15613972751E+03  0.15613972759E+03  0.50400001928E-02 0. -1.
        1   -1    0    0  501    0  0.00000000000E+00  0.00000000000E+00 -0.18249336439E+04  0.18249336439E+04  0.50400001928E-02 0.  1.
    10030    2    1    2    0    0  0.00000000000E+00  0.00000000000E+00 -0.16687939164E+04  0.19810733715E+04  0.10676041251E+04 0.  0.
        3    1    3    3  502    0  0.26626420741E+02  0.65003598498E+01  0.15483313495E+03  0.15724036008E+03  0.10100000352E+00 0. -1.
       -3    1    3    3    0  502 -0.26626420741E+02 -0.65003598498E+01 -0.18236270513E+04  0.18238330114E+04  0.10100000352E+00 0.  1.
</event>
<event>
 5   0  0.5958706E-03  0.1019515E+04  0.7818609E-02  0.9287396E-01
        1   -1    0    0  501    0  0.00000000000E+00  0.00000000000E+00  0.37623887003E+03  0.37623887006E+03  0.50400001928E-02 0. -1.
       -1   -1    0    0    0  501  0.00000000000E+00  0.00000000000E+00 -0.69065920133E+03  0.69065920135E+03  0.50400001928E-02 0.  1.
    10030    2    1    2    0    0  0.00000000000E+00  0.00000000000E+00 -0.31442033130E+03  0.10668980714E+04  0.10195152525E+04 0.  0.
        2    1    3    3  502    0  0.47916465369E+03 -0.16910905535E+02  0.23948352538E+02  0.48006069165E+03  0.25500000920E-02 0. -1.
       -2    1    3    3    0  502 -0.47916465369E+03  0.16910905535E+02 -0.33836868384E+03  0.58683737976E+03  0.25500000920E-02 0.  1.
</event>
<event>
 5   0  0.5998641E-03  0.1246703E+04  0.7818609E-02  0.9072932E-01
        1   -1    0    0  501    0  0.00000000000E+00  0.00000000000E+00  0.11773544307E+04  0.11773544307E+04  0.50400001928E-02 0.  1.
       -1   -1    0    0    0  501  0.00000000000E+00  0.00000000000E+00 -0.33003412579E+03  0.33003412583E+03  0.50400001928E-02 0. -1.
    10030    2    1    2    0    0  0.00000000000E+00  0.00000000000E+00  0.84732030488E+03  0.15073885565E+04  0.12467030766E+04 0.  0.
        3    1    3    3  502    0 -0.46526153210E+03  0.37737289379E+03  0.63199243543E+03  0.87080023131E+03  0.10100000352E+00 0.  1.
       -3    1    3    3    0  502  0.46526153210E+03 -0.37737289379E+03  0.21532786945E+03  0.63658832520E+03  0.10100000352E+00 0. -1.
</event>
<event>
 5   0  0.9692981E-03  0.1065835E+04  0.7818609E-02  0.9239146E-01
       -2   -1    0    0    0  501  0.00000000000E+00  0.00000000000E+00  0.17674780373E+03  0.17674780375E+03  0.25500000920E-02 0. -1.
        2   -1    0    0  501    0  0.00000000000E+00  0.00000000000E+00 -0.16068161820E+04  0.16068161820E+04  0.25500000920E-02 0.  1.
    10030    2    1    2    0    0  0.00000000000E+00  0.00000000000E+00 -0.14300683783E+04  0.17835639858E+04  0.10658353179E+04 0.  0.
        5    1    3    3  502    0  0.25658896345E+03  0.31112312470E+03 -0.13211667006E+03  0.42439651200E+03  0.46999998093E+01 0. -1.
       -5    1    3    3    0  502 -0.25658896345E+03 -0.31112312470E+03 -0.12979517082E+04  0.13591674738E+04  0.46999998093E+01 0.  1.
</event>
<event>
 5   0  0.1019384E-02  0.1119692E+04  0.7818609E-02  0.9186209E-01
       -2   -1    0    0    0  501  0.00000000000E+00  0.00000000000E+00  0.40860738048E+03  0.40860738048E+03  0.25500000920E-02 0.  1.
        2   -1    0    0  501    0  0.00000000000E+00  0.00000000000E+00 -0.76706252549E+03  0.76706252549E+03  0.25500000920E-02 0. -1.
    10030    2    1    2    0    0  0.00000000000E+00  0.00000000000E+00 -0.35845514501E+03  0.11756699060E+04  0.11196917597E+04 0.  0.
        1    1    3    3  502    0 -0.42362200999E+03 -0.28373904398E+03 -0.42201012212E+03  0.66185798750E+03  0.50400001928E-02 0. -1.
       -1    1    3    3    0  502  0.42362200999E+03  0.28373904398E+03  0.63554977109E+02  0.51381191847E+03  0.50400001928E-02 0.  1.
</event>
<event>
 5   0  0.5789905E-03  0.1094854E+04  0.7818609E-02  0.9210222E-01
        1   -1    0    0  501    0  0.00000000000E+00  0.00000000000E+00  0.85536290536E+03  0.85536290538E+03  0.50400001928E-02 0.  1.
       -1   -1    0    0    0  501  0.00000000000E+00  0.00000000000E+00 -0.35034982318E+03  0.35034982321E+03  0.50400001928E-02 0. -1.
    10030    2    1    2    0    0  0.00000000000E+00  0.00000000000E+00  0.50501308218E+03  0.12057127286E+04  0.10948538582E+04 0.  0.
        1    1    3    3  502    0 -0.39405873749E+03 -0.58317227220E+02 -0.16100396971E+03  0.42965738196E+03  0.50400001928E-02 0.  1.
       -1    1    3    3    0  502  0.39405873749E+03  0.58317227220E+02  0.66601705190E+03  0.77605534663E+03  0.50400001928E-02 0. -1.
</event>
<event>
 5   0  0.1028016E-02  0.8104399E+03  0.7818609E-02  0.9545027E-01
        2   -1    0    0  501    0  0.00000000000E+00  0.00000000000E+00  0.96577163429E+03  0.96577163429E+03  0.25500000920E-02 0.  1.
       -2   -1    0    0    0  501  0.00000000000E+00  0.00000000000E+00 -0.17002282136E+03  0.17002282138E+03  0.25500000920E-02 0. -1.
    10030    2    1    2    0    0  0.00000000000E+00  0.00000000000E+00  0.79574881292E+03  0.11357944557E+04  0.81043992515E+03 0.  0.
        2    1    3    3  502    0 -0.36372460973E+03  0.13335947509E+03  0.23132599259E+03  0.45121176422E+03  0.25500000920E-02 0. -1.
       -2    1    3    3    0  502  0.36372460973E+03 -0.13335947509E+03  0.56442282034E+03  0.68458269146E+03  0.25500000920E-02 0.  1.
</event>
<event>
 5   0  0.9692981E-03  0.1093232E+04  0.7818609E-02  0.9211813E-01
       -2   -1    0    0    0  501  0.00000000000E+00  0.00000000000E+00  0.21337107820E+03  0.21337107821E+03  0.25500000920E-02 0. -1.
        2   -1    0    0  501    0  0.00000000000E+00  0.00000000000E+00 -0.14003271799E+04  0.14003271799E+04  0.25500000920E-02 0.  1.
    10030    2    1    2    0    0  0.00000000000E+00  0.00000000000E+00 -0.11869561017E+04  0.16136982581E+04  0.10932324917E+04 0.  0.
        5    1    3    3  502    0  0.36609942820E+03  0.11663519016E+03 -0.11673194177E+04  0.12289382702E+04  0.46999998093E+01 0.  1.
       -5    1    3    3    0  502 -0.36609942820E+03 -0.11663519016E+03 -0.19636683912E+02  0.38475998787E+03  0.46999998093E+01 0. -1.
</event>
<event>
 5   0  0.5958706E-03  0.1098666E+04  0.7818609E-02  0.9206493E-01
       -1   -1    0    0    0  501  0.00000000000E+00  0.00000000000E+00  0.20656246363E+03  0.20656246369E+03  0.50400001928E-02 0. -1.
        1   -1    0    0  501    0  0.00000000000E+00  0.00000000000E+00 -0.14608972267E+04  0.14608972268E+04  0.50400001928E-02 0.  1.
    10030    2    1    2    0    0  0.00000000000E+00  0.00000000000E+00 -0.12543347631E+04  0.16674596904E+04  0.10986656094E+04 0.  0.
        2    1    3    3  502    0  0.42831128586E+03 -0.32223135231E+03 -0.80981667820E+03  0.97112648728E+03  0.25500000920E-02 0.  1.
       -2    1    3    3    0  502 -0.42831128586E+03  0.32223135231E+03 -0.44451808492E+03  0.69633320317E+03  0.25500000920E-02 0. -1.
</event>
<event>
 5   0  0.1028016E-02  0.1095671E+04  0.7818609E-02  0.9209422E-01
       -2   -1    0    0    0  501  0.00000000000E+00  0.00000000000E+00  0.12907061318E+03  0.12907061320E+03  0.25500000920E-02 0. -1.
        2   -1    0    0  501    0  0.00000000000E+00  0.00000000000E+00 -0.23252675982E+04  0.23252675982E+04  0.25500000920E-02 0.  1.
    10030    2    1    2    0    0  0.00000000000E+00  0.00000000000E+00 -0.21961969851E+04  0.24543382114E+04  0.10956709629E+04 0.  0.
        2    1    3    3  502    0 -0.19012333039E+02 -0.54563929887E+03 -0.99692435867E+03  0.11366362172E+04  0.25500000920E-02 0. -1.
       -2    1    3    3    0  502  0.19012333039E+02  0.54563929887E+03 -0.11992726264E+04  0.13177019943E+04  0.25500000920E-02 0.  1.
</event>
<event>
 5   0  0.9719260E-03  0.1101647E+04  0.7818609E-02  0.9203588E-01
       -2   -1    0    0    0  501  0.00000000000E+00  0.00000000000E+00  0.26381895018E+03  0.26381895020E+03  0.25500000920E-02 0.  1.
        2   -1    0    0  501    0  0.00000000000E+00  0.00000000000E+00 -0.11500565219E+04  0.11500565219E+04  0.25500000920E-02 0. -1.
    10030    2    1    2    0    0  0.00000000000E+00  0.00000000000E+00 -0.88623757168E+03  0.14138754721E+04  0.11016473197E+04 0.  0.
        3    1    3    3  502    0 -0.39765224138E+03 -0.38007462562E+03 -0.40630751031E+03  0.68386389673E+03  0.10100000352E+00 0.  1.
       -3    1    3    3    0  502  0.39765224138E+03  0.38007462562E+03 -0.47993006137E+03  0.73001157533E+03  0.10100000352E+00 0. -1.
</event>
<event>
 5   0  0.5712664E-03  0.1113286E+04  0.7818609E-02  0.9192339E-01
        1   -1    0    0  501    0  0.00000000000E+00  0.00000000000E+00  0.49766506386E+03  0.49766506388E+03  0.50400001928E-02 0. -1.
       -1   -1    0    0    0  501  0.00000000000E+00  0.00000000000E+00 -0.62261014974E+03  0.62261014976E+03  0.50400001928E-02 0.  1.
    10030    2    1    2    0    0  0.00000000000E+00  0.00000000000E+00 -0.12494508589E+03  0.11202752136E+04  0.11132858033E+04 0.  0.
        5    1    3    3  502    0 -0.42353949337E+01 -0.28624182322E+03 -0.54283407047E+03  0.61371266729E+03  0.46999998093E+01 0.  1.
       -5    1    3    3    0  502  0.42353949337E+01  0.28624182322E+03  0.41788898459E+03  0.50656254635E+03  0.46999998093E+01 0. -1.
</event>
<event>
 5   0  0.5998641E-03  0.1092011E+04  0.7818609E-02  0.9213013E-01
        1   -1    0    0  501    0  0.00000000000E+00  0.00000000000E+00  0.13846779188E+04  0.13846779188E+04  0.50400001928E-02 0.  1.
       -1   -1    0    0    0  501  0.00000000000E+00  0.00000000000E+00 -0.21530068287E+03  0.21530068293E+03  0.50400001928E-02 0. -1.
    10030    2    1    2    0    0  0.00000000000E+00  0.00000000000E+00  0.11693772359E+04  0.15999786018E+04  0.10920111749E+04 0.  0.
        3    1    3    3  502    0  0.48227688939E+02  0.30576290263E+03 -0.74319319510E+02  0.31833980910E+03  0.10100000352E+00 0. -1.
       -3    1    3    3    0  502 -0.48227688939E+02 -0.30576290263E+03  0.12436965554E+04  0.12816387927E+04  0.10100000352E+00 0.  1.
</event>
<event>
 5   0  0.1019384E-02  0.8651966E+03  0.7818609E-02  0.9470165E-01
        2   -1    0    0  501    0  0.00000000000E+00  0.00000000000E+00  0.90691203074E+03  0.90691203074E+03  0.25500000920E-02 0. -1.
       -2   -1    0    0    0  501  0.00000000000E+00  0.00000000000E+00 -0.20634997358E+03  0.20634997360E+03  0.25500000920E-02 0.  1.
    10030    2    1    2    0    0  0.00000000000E+00  0.00000000000E+00  0.70056205716E+03  0.11132620043E+04  0.86519656401E+03 0.  0.
        1    1    3    3  502    0  0.39357246802E+03  0.53163033379E+02  0.57096563026E+03  0.69550510183E+03  0.50400001928E-02 0. -1.
       -1    1    3    3    0  502 -0.39357246802E+03 -0.53163033379E+02  0.12959642690E+03  0.41775690251E+03  0.50400001928E-02 0.  1.
</event>
<event>
 5   0  0.5854579E-03  0.1105129E+04  0.7818609E-02  0.9200207E-01
        1   -1    0    0  501    0  0.00000000000E+00  0.00000000000E+00  0.11001431080E+04  0.11001431080E+04  0.50400001928E-02 0. -1.
       -1   -1    0    0    0  501  0.00000000000E+00  0.00000000000E+00 -0.27753426408E+03  0.27753426412E+03  0.50400001928E-02 0.  1.
    10030    2    1    2    0    0  0.00000000000E+00  0.00000000000E+00  0.82260884396E+03  0.13776773722E+04  0.11051287851E+04 0.  0.
        4    1    3    3  502    0 -0.26752997207E+03 -0.18233855426E+03 -0.14690671234E+03  0.35553175576E+03  0.12699999809E+01 0.  1.
       -4    1    3    3    0  502  0.26752997207E+03  0.18233855426E+03  0.96951555630E+03  0.10221456164E+04  0.12699999809E+01 0. -1.
</event>
<event>
 5   0  0.5958706E-03  0.1058588E+04  0.7818609E-02  0.9246522E-01
       -1   -1    0    0    0  501  0.00000000000E+00  0.00000000000E+00  0.25658079280E+03  0.25658079285E+03  0.50400001928E-02 0. -1.
        1   -1    0    0  501    0  0.00000000000E+00  0.00000000000E+00 -0.10918668452E+04  0.10918668452E+04  0.50400001928E-02 0.  1.
    10030    2    1    2    0    0  0.00000000000E+00  0.00000000000E+00 -0.83528605237E+03  0.13484476380E+04  0.10585878533E+04 0.  0.
        2    1    3    3  502    0 -0.79467315671E+02  0.65217055682E+02 -0.10790275514E+04  0.10839136383E+04  0.25500000920E-02 0.  1.
       -2    1    3    3    0  502  0.79467315671E+02 -0.65217055682E+02  0.24374149908E+03  0.26453399969E+03  0.25500000920E-02 0. -1.
</event>
<event>
 5   0  0.9925021E-03  0.1084483E+04  0.7818609E-02  0.9220449E-01
        2   -1    0    0  501    0  0.00000000000E+00  0.00000000000E+00  0.52621268934E+03  0.52621268935E+03  0.25500000920E-02 0.  1.
       -2   -1    0    0    0  501  0.00000000000E+00  0.00000000000E+00 -0.55875830334E+03  0.55875830334E+03  0.25500000920E-02 0. -1.
    10030    2    1    2    0    0  0.00000000000E+00  0.00000000000E+00 -0.32545613991E+02  0.10849709927E+04  0.10844827514E+04 0.  0.
        4    1    3    3  502    0  0.38683975615E+03 -0.21822892797E+03  0.29492226682E+03  0.53315065254E+03  0.12699999809E+01 0.  1.
       -4    1    3    3    0  502 -0.38683975615E+03  0.21822892797E+03 -0.32746788081E+03  0.55182034015E+03  0.12699999809E+01 0. -1.
</event>
<event>
 5   0  0.1028016E-02  0.1108479E+04  0.7818609E-02  0.9196967E-01
        2   -1    0    0  501    0  0.00000000000E+00  0.00000000000E+00  0.33835346003E+03  0.33835346004E+03  0.25500000920E-02 0. -1.
       -2   -1    0    0    0  501  0.00000000000E+00  0.00000000000E+00 -0.90787150662E+03  0.90787150663E+03  0.25500000920E-02 0.  1.
    10030    2    1    2    0    0  0.00000000000E+00  0.00000000000E+00 -0.56951804659E+03  0.12462249667E+04  0.11084790761E+04 0.  0.
        2    1    3    3  502    0 -0.17342782512E+03 -0.51641272640E+03 -0.39953410985E+03  0.67556407501E+03  0.25500000920E-02 0. -1.
       -2    1    3    3    0  502  0.17342782512E+03  0.51641272640E+03 -0.16998393675E+03  0.57066089166E+03  0.25500000920E-02 0.  1.
</event>
<event>
 5   0  0.9719260E-03  0.1108794E+04  0.7818609E-02  0.9196663E-01
       -2   -1    0    0    0  501  0.00000000000E+00  0.00000000000E+00  0.24957934878E+03  0.24957934879E+03  0.25500000920E-02 0.  1.
        2   -1    0    0  501    0  0.00000000000E+00  0.00000000000E+00 -0.12314956944E+04  0.12314956944E+04  0.25500000920E-02 0. -1.
    10030    2    1    2    0    0  0.00000000000E+00  0.00000000000E+00 -0.98191634565E+03  0.14810750432E+04  0.11087937472E+04 0.  0.
        3    1    3    3  502    0  0.47928924015E+03  0.17025232039E+03 -0.78558751582E+03  0.93586953340E+03  0.10100000352E+00 0. -1.
       -3    1    3    3    0  502 -0.47928924015E+03 -0.17025232039E+03 -0.19632882982E+03  0.54520550982E+03  0.10100000352E+00 0.  1.
</event>
<event>
 5   0  0.9692981E-03  0.1088071E+04  0.7818609E-02  0.9216897E-01
       -2   -1    0    0    0  501  0.00000000000E+00  0.00000000000E+00  0.12062703298E+03  0.12062703301E+03  0.25500000920E-02 0.  1.
        2   -1    0    0  501    0  0.00000000000E+00  0.00000000000E+00 -0.24536351935E+04  0.24536351935E+04  0.25500000920E-02 0. -1.
    10030    2    1    2    0    0  0.00000000000E+00  0.00000000000E+00 -0.23330081605E+04  0.25742622265E+04  0.10880711988E+04 0.  0.
        5    1    3    3  502    0  0.15689939800E+03  0.11409362663E+03  0.35961605974E+02  0.19735780662E+03  0.46999998093E+01 0.  1.
       -5    1    3    3    0  502 -0.15689939800E+03 -0.11409362663E+03 -0.23689697664E+04  0.23769044198E+04  0.46999998093E+01 0. -1.
</event>
<event>
 5   0  0.9925021E-03  0.1185402E+04  0.7818609E-02  0.9125731E-01
       -2   -1    0    0    0  501  0.00000000000E+00  0.00000000000E+00  0.21606378262E+03  0.21606378264E+03  0.25500000920E-02 0.  1.
        2   -1    0    0  501    0  0.00000000000E+00  0.00000000000E+00 -0.16258841009E+04  0.16258841009E+04  0.25500000920E-02 0. -1.
    10030    2    1    2    0    0  0.00000000000E+00  0.00000000000E+00 -0.14098203183E+04  0.18419478835E+04  0.11854023266E+04 0.  0.
        4    1    3    3  502    0 -0.17232440092E+03 -0.50294267933E+03 -0.11120271598E+04  0.12325798371E+04  0.12699999809E+01 0. -1.
       -4    1    3    3    0  502  0.17232440092E+03  0.50294267933E+03 -0.29779315845E+03  0.60936804640E+03  0.12699999809E+01 0.  1.
</event>
<event>
 5   0  0.9719260E-03  0.1081592E+04  0.7818609E-02  0.9223321E-01
       -2   -1    0    0    0  501  0.00000000000E+00  0.00000000000E+00  0.76919138352E+03  0.76919138352E+03  0.25500000920E-02 0.  1.
        2   -1    0    0  501    0  0.00000000000E+00  0.00000000000E+00 -0.38021814873E+03  0.38021814874E+03  0.25500000920E-02 0. -1.
    10030    2    1    2    0    0  0.00000000000E+00  0.00000000000E+00  0.38897323479E+03  0.11494095323E+04  0.10815923888E+04 0.  0.
        3    1    3    3  502    0 -0.71357996176E+02 -0.37660136250E+02  0.76275883351E+03  0.76701453557E+03  0.10100000352E+00 0.  1.
       -3    1    3    3    0  502  0.71357996176E+02  0.37660136250E+02 -0.37378559872E+03  0.38239499669E+03  0.10100000352E+00 0. -1.
</event>
<event>
 5   0  0.5998641E-03  0.1102746E+04  0.7818609E-02  0.9202519E-01
        1   -1    0    0  501    0  0.00000000000E+00  0.00000000000E+00  0.38381370736E+03  0.38381370739E+03  0.50400001928E-02 0.  1.
       -1   -1    0    0    0  501  0.00000000000E+00  0.00000000000E+00 -0.79208307349E+03  0.79208307351E+03  0.50400001928E-02 0. -1.
    10030    2    1    2    0    0  0.00000000000E+00  0.00000000000E+00 -0.40826936613E+03  0.11758967809E+04  0.11027462827E+04 0.  0.
        3    1    3    3  502    0 -0.25905785975E+03  0.12353638432E+03  0.29788157842E+03  0.41364919668E+03  0.10100000352E+00 0.  1.
       -3    1    3    3    0  502  0.25905785975E+03 -0.12353638432E+03 -0.70615094456E+03  0.76224758422E+03  0.10100000352E+00 0. -1.
</event>
<event>
 5   0  0.9719260E-03  0.1101659E+04  0.7818609E-02  0.9203577E-01
       -2   -1    0    0    0  501  0.00000000000E+00  0.00000000000E+00  0.78258584327E+03  0.78258584328E+03  0.25500000920E-02 0.  1.
        2   -1    0    0  501    0  0.00000000000E+00  0.00000000000E+00 -0.38770562336E+03  0.38770562336E+03  0.25500000920E-02 0. -1.
    10030    2    1    2    0    0  0.00000000000E+00  0.00000000000E+00  0.39488021992E+03  0.11702914666E+04  0.11016586263E+04 0.  0.
        3    1    3    3  502    0  0.16291642358E+03  0.44960397680E+03 -0.92953467843E+02  0.48716101487E+03  0.10100000352E+00 0. -1.
       -3    1    3    3    0  502 -0.16291642358E+03 -0.44960397680E+03  0.48783368776E+03  0.68313045177E+03  0.10100000352E+00 0.  1.
</event>
<event>
 5   0  0.5958706E-03  0.7487281E+03  0.7818609E-02  0.9637348E-01
        1   -1    0    0  501    0  0.00000000000E+00  0.00000000000E+00  0.74833760753E+03  0.74833760755E+03  0.50400001928E-02 0. -1.
       -1   -1    0    0    0  501  0.00000000000E+00  0.00000000000E+00 -0.18727968756E+03  0.18727968763E+03  0.50400001928E-02 0.  1.
    10030    2    1    2    0    0  0.00000000000E+00  0.00000000000E+00  0.56105791997E+03  0.93561729518E+03  0.74872807712E+03 0.  0.
        2    1    3    3  502    0 -0.19049022091E+03 -0.29387384389E+03  0.44583702860E+03  0.56693828276E+03  0.25500000920E-02 0.  1.
       -2    1    3    3    0  502  0.19049022091E+03  0.29387384389E+03  0.11522089138E+03  0.36867901242E+03  0.25500000920E-02 0. -1.
</event>
<event>
 5   0  0.5789905E-03  0.9004822E+03  0.7818609E-02  0.9424979E-01
        1   -1    0    0  501    0  0.00000000000E+00  0.00000000000E+00  0.24182908870E+04  0.24182908870E+04  0.50400001928E-02 0.  1.
       -1   -1    0    0    0  501  0.00000000000E+00  0.00000000000E+00 -0.83826575666E+02  0.83826575818E+02  0.50400001928E-02 0. -1.
    10030    2    1    2    0    0  0.00000000000E+00  0.00000000000E+00  0.23344643114E+04  0.25021174628E+04  0.90048219132E+03 0.  0.
        1    1    3    3  502    0 -0.40739665455E+02  0.71269243796E+02  0.23973203406E+04  0.23987254618E+04  0.50400001928E-02 0.  1.
       -1    1    3    3    0  502  0.40739665455E+02 -0.71269243796E+02 -0.62856029233E+02  0.10339200109E+03  0.50400001928E-02 0. -1.
</event>
<event>
 5   0  0.9925021E-03  0.1057060E+04  0.7818609E-02  0.9248085E-01
        2   -1    0    0  501    0  0.00000000000E+00  0.00000000000E+00  0.14568352421E+04  0.14568352421E+04  0.25500000920E-02 0. -1.
       -2   -1    0    0    0  501  0.00000000000E+00  0.00000000000E+00 -0.19174709889E+03  0.19174709890E+03  0.25500000920E-02 0.  1.
    10030    2    1    2    0    0  0.00000000000E+00  0.00000000000E+00  0.12650881432E+04  0.16485823410E+04  0.10570599439E+04 0.  0.
        4    1    3    3  502    0 -0.35120831007E+03  0.36540366779E+03  0.39873421356E+03  0.64487029972E+03  0.12699999809E+01 0.  1.
       -4    1    3    3    0  502  0.35120831007E+03 -0.36540366779E+03  0.86635392969E+03  0.10037120413E+04  0.12699999809E+01 0. -1.
</event>
<event>
 5   0  0.9925021E-03  0.1135312E+04  0.7818609E-02  0.9171441E-01
       -2   -1    0    0    0  501  0.00000000000E+00  0.00000000000E+00  0.55716873980E+03  0.55716873980E+03  0.25500000920E-02 0. -1.
        2   -1    0    0  501    0  0.00000000000E+00  0.00000000000E+00 -0.57834103949E+03  0.57834103950E+03  0.25500000920E-02 0.  1.
    10030    2    1    2    0    0  0.00000000000E+00  0.00000000000E+00 -0.21172299693E+02  0.11355097793E+04  0.11353123767E+04 0.  0.
        4    1    3    3  502    0  0.20164282100E+03 -0.47800684064E+03  0.21984828559E+03  0.56345829352E+03  0.12699999809E+01 0. -1.
       -4    1    3    3    0  502 -0.20164282100E+03  0.47800684064E+03 -0.24102058528E+03  0.57205148578E+03  0.12699999809E+01 0.  1.
</event>
<event>
 5   0  0.9925021E-03  0.9295434E+03  0.7818609E-02  0.9389386E-01
        2   -1    0    0  501    0  0.00000000000E+00  0.00000000000E+00  0.82988509910E+03  0.82988509911E+03  0.25500000920E-02 0. -1.
       -2   -1    0    0    0  501  0.00000000000E+00  0.00000000000E+00 -0.26029231317E+03  0.26029231318E+03  0.25500000920E-02 0.  1.
    10030    2    1    2    0    0  0.00000000000E+00  0.00000000000E+00  0.56959278594E+03  0.10901774123E+04  0.92954335481E+03 0.  0.
        4    1    3    3  502    0  0.38087537542E+03 -0.26613507395E+03  0.27210130275E+03  0.53845581161E+03  0.12699999809E+01 0. -1.
       -4    1    3    3    0  502 -0.38087537542E+03  0.26613507395E+03  0.29749148318E+03  0.55172160068E+03  0.12699999809E+01 0.  1.
</event>
<event>
 5   0  0.5712664E-03  0.1075577E+04  0.7818609E-02  0.9229328E-01
        1   -1    0    0  501    0  0.00000000000E+00  0.00000000000E+00  0.13004760970E+04  0.13004760970E+04  0.50400001928E-02 0.  1.
       -1   -1    0    0    0  501  0.00000000000E+00  0.00000000000E+00 -0.22239285952E+03  0.22239285958E+03  0.50400001928E-02 0. -1.
    10030    2    1    2    0    0  0.00000000000E+00  0.00000000000E+00  0.10780832375E+04  0.15228689566E+04  0.10755772367E+04 0.  0.
        5    1    3    3  502    0  0.43823614166E+02  0.37098279594E+03 -0.86715026548E+01  0.37369242566E+03  0.46999998093E+01 0. -1.
       -5    1    3    3    0  502 -0.43823614166E+02 -0.37098279594E+03  0.10867547402E+04  0.11491765310E+04  0.46999998093E+01 0.  1.
</event>
<event>
 5   0  0.5789905E-03  0.1047153E+04  0.7818609E-02  0.9258288E-01
        1   -1    0    0  501    0  0.00000000000E+00  0.00000000000E+00  0.95916866486E+03  0.95916866487E+03  0.50400001928E-02 0.  1.
       -1   -1    0    0    0  501  0.00000000000E+00  0.00000000000E+00 -0.28580198028E+03  0.28580198032E+03  0.50400001928E-02 0. -1.
    10030    2    1    2    0    0  0.00000000000E+00  0.00000000000E+00  0.67336668458E+03  0.12449706452E+04  0.10471529093E+04 0.  0.
        1    1    3    3  502    0 -0.50306716259E+02  0.13318616631E+03 -0.26234682960E+03  0.29848815659E+03  0.50400001928E-02 0. -1.
       -1    1    3    3    0  502  0.50306716259E+02 -0.13318616631E+03  0.93571351418E+03  0.94648248861E+03  0.50400001928E-02 0.  1.
</event>
<event>
 5   0  0.3949750E-03  0.1199850E+04  0.7818609E-02  0.9112988E-01
       -3   -1    0    0    0  501  0.00000000000E+00  0.00000000000E+00  0.96609421563E+03  0.96609422091E+03  0.10100000352E+00 0. -1.
        3   -1    0    0  501    0  0.00000000000E+00  0.00000000000E+00 -0.37254151795E+03  0.37254153164E+03  0.10100000352E+00 0.  1.
    10030    2    1    2    0    0  0.00000000000E+00  0.00000000000E+00  0.59355269768E+03  0.13386357525E+04  0.11998503544E+04 0.  0.
        2    1    3    3  502    0  0.53462036486E+03 -0.27219491662E+03  0.29554855133E+03  0.66877346939E+03  0.25500000920E-02 0. -1.
       -2    1    3    3    0  502 -0.53462036486E+03  0.27219491662E+03  0.29800414635E+03  0.66986228316E+03  0.25500000920E-02 0.  1.
</event>
<event>
 5   0  0.9719260E-03  0.1074832E+04  0.7818609E-02  0.9230076E-01
        2   -1    0    0  501    0  0.00000000000E+00  0.00000000000E+00  0.25888950286E+04  0.25888950286E+04  0.25500000920E-02 0. -1.
       -2   -1    0    0    0  501  0.00000000000E+00  0.00000000000E+00 -0.11155950956E+03  0.11155950959E+03  0.25500000920E-02 0.  1.
    10030    2    1    2    0    0  0.00000000000E+00  0.00000000000E+00  0.24773355190E+04  0.27004545382E+04  0.10748318189E+04 0.  0.
        3    1    3    3  502    0  0.63403233088E+01  0.21404332876E+03  0.24770785608E+04  0.24863171465E+04  0.10100000352E+00 0. -1.
       -3    1    3    3    0  502 -0.63403233088E+01 -0.21404332876E+03  0.25695819705E+00  0.21413739168E+03  0.10100000352E+00 0.  1.
</event>
<event>
 5   0  0.3949750E-03  0.1075747E+04  0.7818609E-02  0.9229158E-01
        3   -1    0    0  501    0  0.00000000000E+00  0.00000000000E+00  0.20710025320E+04  0.20710025345E+04  0.10100000352E+00 0.  1.
       -3   -1    0    0    0  501  0.00000000000E+00  0.00000000000E+00 -0.13969466810E+03  0.13969470462E+03  0.10100000352E+00 0. -1.
    10030    2    1    2    0    0  0.00000000000E+00  0.00000000000E+00  0.19313078639E+04  0.22106972391E+04  0.10757472834E+04 0.  0.
        1    1    3    3  502    0 -0.97546315423E+02  0.47849741280E+03  0.14289854749E+04  0.15101240165E+04  0.50400001928E-02 0.  1.
       -1    1    3    3    0  502  0.97546315423E+02 -0.47849741280E+03  0.50232238908E+03  0.70057322266E+03  0.50400001928E-02 0. -1.
</event>
<event>
 5   0  0.1019384E-02  0.1103383E+04  0.7818609E-02  0.9201901E-01
        2   -1    0    0  501    0  0.00000000000E+00  0.00000000000E+00  0.64271514594E+03  0.64271514594E+03  0.25500000920E-02 0.  1.
       -2   -1    0    0    0  501  0.00000000000E+00  0.00000000000E+00 -0.47355865375E+03  0.47355865376E+03  0.25500000920E-02 0. -1.
    10030    2    1    2    0    0  0.00000000000E+00  0.00000000000E+00  0.16915649219E+03  0.11162737997E+04  0.11033826521E+04 0.  0.
        1    1    3    3  502    0  0.16719257544E+03 -0.50292948987E+03 -0.70417083561E+02  0.53464941293E+03  0.50400001928E-02 0. -1.
       -1    1    3    3    0  502 -0.16719257544E+03  0.50292948987E+03  0.23957357575E+03  0.58162438677E+03  0.50400001928E-02 0.  1.
</event>
<event>
 5   0  0.9692981E-03  0.1102524E+04  0.7818609E-02  0.9202735E-01
        2   -1    0    0  501    0  0.00000000000E+00  0.00000000000E+00  0.98789978716E+03  0.98789978717E+03  0.25500000920E-02 0. -1.
       -2   -1    0    0    0  501  0.00000000000E+00  0.00000000000E+00 -0.30761206346E+03  0.30761206347E+03  0.25500000920E-02 0.  1.
    10030    2    1    2    0    0  0.00000000000E+00  0.00000000000E+00  0.68028772371E+03  0.12955118506E+04  0.11025241803E+04 0.  0.
        5    1    3    3  502    0  0.38108355417E+03  0.25563302521E+03 -0.18763345445E+02  0.45928974729E+03  0.46999998093E+01 0.  1.
       -5    1    3    3    0  502 -0.38108355417E+03 -0.25563302521E+03  0.69905106915E+03  0.83622210334E+03  0.46999998093E+01 0. -1.
</event>
<event>
 5   0  0.5789905E-03  0.1076395E+04  0.7818609E-02  0.9228509E-01
       -1   -1    0    0    0  501  0.00000000000E+00  0.00000000000E+00  0.86850926851E+03  0.86850926853E+03  0.50400001928E-02 0.  1.
        1   -1    0    0  501    0  0.00000000000E+00  0.00000000000E+00 -0.33351001778E+03  0.33351001782E+03  0.50400001928E-02 0. -1.
    10030    2    1    2    0    0  0.00000000000E+00  0.00000000000E+00  0.53499925073E+03  0.12020192863E+04  0.10763949863E+04 0.  0.
        1    1    3    3  502    0  0.20511038999E+03  0.47021183444E+03  0.85756924645E+02  0.52011892052E+03  0.50400001928E-02 0.  1.
       -1    1    3    3    0  502 -0.20511038999E+03 -0.47021183444E+03  0.44924232609E+03  0.68190036582E+03  0.50400001928E-02 0. -1.
</event>
<event>
 5   0  0.3949750E-03  0.1004665E+04  0.7818609E-02  0.9303443E-01
       -4   -1    0    0    0  501  0.00000000000E+00  0.00000000000E+00  0.30854579130E+03  0.30854840500E+03  0.12699999809E+01 0. -1.
        4   -1    0    0  501    0  0.00000000000E+00  0.00000000000E+00 -0.81782358330E+03  0.81782456939E+03  0.12699999809E+01 0.  1.
    10030    2    1    2    0    0  0.00000000000E+00  0.00000000000E+00 -0.50927779200E+03  0.11263729744E+04  0.10046652219E+04 0.  0.
        5    1    3    3  502    0  0.22515607356E+02  0.11319812007E+03 -0.80273338810E+03  0.81100169503E+03  0.46999998093E+01 0.  1.
       -5    1    3    3    0  502 -0.22515607356E+02 -0.11319812007E+03  0.29345559610E+03  0.31537127936E+03  0.46999998093E+01 0. -1.
</event>
<event>
 5   0  0.9719260E-03  0.1060464E+04  0.7818609E-02  0.9244607E-01
       -2   -1    0    0    0  501  0.00000000000E+00  0.00000000000E+00  0.61905829896E+03  0.61905829896E+03  0.25500000920E-02 0.  1.
        2   -1    0    0  501    0  0.00000000000E+00  0.00000000000E+00 -0.45415090912E+03  0.45415090912E+03  0.25500000920E-02 0. -1.
    10030    2    1    2    0    0  0.00000000000E+00  0.00000000000E+00  0.16490738984E+03  0.10732092081E+04  0.10604638405E+04 0.  0.
        3    1    3    3  502    0 -0.10065456562E+03  0.46976117145E+03 -0.14460635460E+03  0.50171496666E+03  0.10100000352E+00 0. -1.
       -3    1    3    3    0  502  0.10065456562E+03 -0.46976117145E+03  0.30951374444E+03  0.57149424142E+03  0.10100000352E+00 0.  1.
</event>
<event>
 5   0  0.5958706E-03  0.6062217E+03  0.7818609E-02  0.9892581E-01
        1   -1    0    0  501    0  0.00000000000E+00  0.00000000000E+00  0.96500709888E+03  0.96500709889E+03  0.50400001928E-02 0. -1.
       -1   -1    0    0    0  501  0.00000000000E+00  0.00000000000E+00 -0.95207797989E+02  0.95207798123E+02  0.50400001928E-02 0.  1.
    10030    2    1    2    0    0  0.00000000000E+00  0.00000000000E+00  0.86979930089E+03  0.10602148970E+04  0.60622174493E+03 0.  0.
        2    1    3    3  502    0 -0.18164475672E+02 -0.13273215240E+03 -0.40619628568E+02  0.13999188080E+03  0.25500000920E-02 0.  1.
       -2    1    3    3    0  502  0.18164475672E+02  0.13273215240E+03  0.91041892946E+03  0.92022301622E+03  0.25500000920E-02 0. -1.
</event>
<event>
 5   0  0.9925021E-03  0.1098529E+04  0.7818609E-02  0.9206626E-01
        2   -1    0    0  501    0  0.00000000000E+00  0.00000000000E+00  0.11181219122E+04  0.11181219122E+04  0.25500000920E-02 0. -1.
       -2   -1    0    0    0  501  0.00000000000E+00  0.00000000000E+00 -0.26982007062E+03  0.26982007063E+03  0.25500000920E-02 0.  1.
    10030    2    1    2    0    0  0.00000000000E+00  0.00000000000E+00  0.84830184157E+03  0.13879419828E+04  0.10985294412E+04 0.  0.
        4    1    3    3  502    0 -0.33250912013E+02  0.45624787150E+03  0.40047496580E+02  0.45920927504E+03  0.12699999809E+01 0.  1.
       -4    1    3    3    0  502  0.33250912013E+02 -0.45624787150E+03  0.80825434499E+03  0.92873270778E+03  0.12699999809E+01 0. -1.
</event>
<event>
 5   0  0.5998641E-03  0.1109178E+04  0.7818609E-02  0.9196292E-01
       -1   -1    0    0    0  501  0.00000000000E+00  0.00000000000E+00  0.23604034125E+03  0.23604034131E+03  0.50400001928E-02 0.  1.
        1   -1    0    0  501    0  0.00000000000E+00  0.00000000000E+00 -0.13030353233E+04  0.13030353233E+04  0.50400001928E-02 0. -1.
    10030    2    1    2    0    0  0.00000000000E+00  0.00000000000E+00 -0.10669949821E+04  0.15390756646E+04  0.11091778981E+04 0.  0.
        3    1    3    3  502    0 -0.50413114278E+03  0.19971965735E+03 -0.37207960386E+03  0.65763165409E+03  0.10100000352E+00 0. -1.
       -3    1    3    3    0  502  0.50413114278E+03 -0.19971965735E+03 -0.69491537820E+03  0.88144401054E+03  0.10100000352E+00 0.  1.
</event>
<event>
 5   0  0.5789905E-03  0.1104073E+04  0.7818609E-02  0.9201231E-01
       -1   -1    0    0    0  501  0.00000000000E+00  0.00000000000E+00  0.25520929980E+03  0.25520929985E+03  0.50400001928E-02 0.  1.
        1   -1    0    0  501    0  0.00000000000E+00  0.00000000000E+00 -0.11940955138E+04  0.11940955138E+04  0.50400001928E-02 0. -1.
    10030    2    1    2    0    0  0.00000000000E+00  0.00000000000E+00 -0.93888621400E+03  0.14493048137E+04  0.11040729686E+04 0.  0.
        1    1    3    3  502    0  0.87845547124E+02  0.52511349850E+03 -0.27793773241E+03  0.60059171621E+03  0.50400001928E-02 0.  1.
       -1    1    3    3    0  502 -0.87845547124E+02 -0.52511349850E+03 -0.66094848160E+03  0.84871309747E+03  0.50400001928E-02 0. -1.
</event>
<event>
 5   0  0.9925021E-03  0.1128608E+04  0.7818609E-02  0.9177748E-01
        2   -1    0    0  501    0  0.00000000000E+00  0.00000000000E+00  0.10999284443E+04  0.10999284443E+04  0.25500000920E-02 0. -1.
       -2   -1    0    0    0  501  0.00000000000E+00  0.00000000000E+00 -0.28950891348E+03  0.28950891349E+03  0.25500000920E-02 0.  1.
    10030    2    1    2    0    0  0.00000000000E+00  0.00000000000E+00  0.81041953086E+03  0.13894373578E+04  0.11286081496E+04 0.  0.
        4    1    3    3  502    0  0.54219515436E+03  0.83666990216E+02  0.24252781705E+03  0.59983089751E+03  0.12699999809E+01 0.  1.
       -4    1    3    3    0  502 -0.54219515436E+03 -0.83666990216E+02  0.56789171381E+03  0.78960646032E+03  0.12699999809E+01 0. -1.
</event>
<event>
 5   0  0.9692981E-03  0.1080899E+04  0.7818609E-02  0.9224012E-01
       -2   -1    0    0    0  501  0.00000000000E+00  0.00000000000E+00  0.27663652357E+03  0.27663652358E+03  0.25500000920E-02 0. -1.
        2   -1    0    0  501    0  0.00000000000E+00  0.00000000000E+00 -0.10558459837E+04  0.10558459837E+04  0.25500000920E-02 0.  1.
    10030    2    1    2    0    0  0.00000000000E+00  0.00000000000E+00 -0.77920946017E+03  0.13324825073E+04  0.10808988156E+04 0.  0.
        5    1    3    3  502    0 -0.14866041964E+03  0.45490852229E+03 -0.80132391425E+02  0.48526794060E+03  0.46999998093E+01 0. -1.
       -5    1    3    3    0  502  0.14866041964E+03 -0.45490852229E+03 -0.69907706875E+03  0.84721456672E+03  0.46999998093E+01 0.  1.
</event>
<event>
 5   0  0.3949750E-03  0.1093909E+04  0.7818609E-02  0.9211149E-01
        4   -1    0    0  501    0  0.00000000000E+00  0.00000000000E+00  0.57711800292E+03  0.57711940029E+03  0.12699999809E+01 0. -1.
       -4   -1    0    0    0  501  0.00000000000E+00  0.00000000000E+00 -0.51836511909E+03  0.51836667484E+03  0.12699999809E+01 0.  1.
    10030    2    1    2    0    0  0.00000000000E+00  0.00000000000E+00  0.58752883830E+02  0.10954860751E+04  0.10939094293E+04 0.  0.
        3    1    3    3  502    0 -0.46382228807E+03 -0.25031817206E+03 -0.11701614790E+03  0.53989174030E+03  0.10100000352E+00 0.  1.
       -3    1    3    3    0  502  0.46382228807E+03  0.25031817206E+03  0.17576903173E+03  0.55559433483E+03  0.10100000352E+00 0. -1.
</event>
<event>
 5   0  0.5958706E-03  0.1116952E+04  0.7818609E-02  0.9188825E-01
       -1   -1    0    0    0  501  0.00000000000E+00  0.00000000000E+00  0.24920652618E+03  0.24920652623E+03  0.50400001928E-02 0.  1.
        1   -1    0    0  501    0  0.00000000000E+00  0.00000000000E+00 -0.12515545386E+04  0.12515545386E+04  0.50400001928E-02 0. -1.
    10030    2    1    2    0    0  0.00000000000E+00  0.00000000000E+00 -0.10023480125E+04  0.15007610649E+04  0.11169522084E+04 0.  0.
        2    1    3    3  502    0 -0.29651515482E+03 -0.11221426522E+02 -0.11368765681E+04  0.11749619094E+04  0.25500000920E-02 0. -1.
       -2    1    3    3    0  502  0.29651515482E+03  0.11221426522E+02  0.13452855561E+03  0.32579915551E+03  0.25500000920E-02 0.  1.
</event>
<event>
 5   0  0.5789905E-03  0.1137026E+04  0.7818609E-02  0.9169837E-01
       -1   -1    0    0    0  501  0.00000000000E+00  0.00000000000E+00  0.42375423474E+03  0.42375423477E+03  0.50400001928E-02 0.  1.
        1   -1    0    0  501    0  0.00000000000E+00  0.00000000000E+00 -0.76272291542E+03  0.76272291544E+03  0.50400001928E-02 0. -1.
    10030    2    1    2    0    0  0.00000000000E+00  0.00000000000E+00 -0.33896868068E+03  0.11864771502E+04  0.11370260602E+04 0.  0.
        1    1    3    3  502    0 -0.65160268359E+02 -0.31447478043E+03 -0.65899960758E+03  0.73308985187E+03  0.50400001928E-02 0. -1.
       -1    1    3    3    0  502  0.65160268359E+02  0.31447478043E+03  0.32003092690E+03  0.45338729834E+03  0.50400001928E-02 0.  1.
</event>
<event>
 5   0  0.5712664E-03  0.1099311E+04  0.7818609E-02  0.9205863E-01
        1   -1    0    0  501    0  0.00000000000E+00  0.00000000000E+00  0.70347317145E+03  0.70347317147E+03  0.50400001928E-02 0. -1.
       -1   -1    0    0    0  501  0.00000000000E+00  0.00000000000E+00 -0.42947102341E+03  0.42947102344E+03  0.50400001928E-02 0.  1.
    10030    2    1    2    0    0  0.00000000000E+00  0.00000000000E+00  0.27400214804E+03  0.11329441949E+04  0.10993113170E+04 0.  0.
        5    1    3    3  502    0  0.95990837034E+02 -0.39349149784E+02 -0.41926860156E+03  0.43193847552E+03  0.46999998093E+01 0.  1.
       -5    1    3    3    0  502 -0.95990837034E+02  0.39349149784E+02  0.69327074959E+03  0.70100571939E+03  0.46999998093E+01 0. -1.
</event>
<event>
 5   0  0.5998641E-03  0.1073001E+04  0.7818609E-02  0.9231914E-01
        1   -1    0    0  501    0  0.00000000000E+00  0.00000000000E+00  0.35872822317E+03  0.35872822320E+03  0.50400001928E-02 0.  1.
       -1   -1    0    0    0  501  0.00000000000E+00  0.00000000000E+00 -0.80236967343E+03  0.80236967345E+03  0.50400001928E-02 0. -1.
    10030    2    1    2    0    0  0.00000000000E+00  0.00000000000E+00 -0.44364145027E+03  0.11610978967E+04  0.10730007405E+04 0.  0.
        3    1    3    3  502    0 -0.13528784847E+03  0.49659037903E+03 -0.38567217885E+03  0.64315460524E+03  0.10100000352E+00 0. -1.
       -3    1    3    3    0  502  0.13528784847E+03 -0.49659037903E+03 -0.57969271414E+02  0.51794329142E+03  0.10100000352E+00 0.  1.
</event>
<event>
 5   0  0.1019384E-02  0.1096959E+04  0.7818609E-02  0.9208161E-01
       -2   -1    0    0    0  501  0.00000000000E+00  0.00000000000E+00  0.47679694414E+03  0.47679694415E+03  0.25500000920E-02 0. -1.
        2   -1    0    0  501    0  0.00000000000E+00  0.00000000000E+00 -0.63093837195E+03  0.63093837196E+03  0.25500000920E-02 0.  1.
    10030    2    1    2    0    0  0.00000000000E+00  0.00000000000E+00 -0.15414142781E+03  0.11077353161E+04  0.10969585000E+04 0.  0.
        1    1    3    3  502    0 -0.11733642700E+03 -0.40043513309E+03 -0.43653603488E+03  0.60388727647E+03  0.50400001928E-02 0.  1.
       -1    1    3    3    0  502  0.11733642700E+03  0.40043513309E+03  0.28239460708E+03  0.50384803963E+03  0.50400001928E-02 0. -1.
</event>
<event>
 5   0  0.5998641E-03  0.1104431E+04  0.7818609E-02  0.9200884E-01
        1   -1    0    0  501    0  0.00000000000E+00  0.00000000000E+00  0.17186846576E+04  0.17186846576E+04  0.50400001928E-02 0. -1.
       -1   -1    0    0    0  501  0.00000000000E+00  0.00000000000E+00 -0.17742742449E+03  0.17742742456E+03  0.50400001928E-02 0.  1.
    10030    2    1    2    0    0  0.00000000000E+00  0.00000000000E+00  0.15412572331E+04  0.18961120822E+04  0.11044306993E+04 0.  0.
        3    1    3    3  502    0  0.40855494160E+03  0.35357358548E+03  0.96645455577E+03  0.11072334168E+04  0.10100000352E+00 0. -1.
       -3    1    3    3    0  502 -0.40855494160E+03 -0.35357358548E+03  0.57480267735E+03  0.78887866541E+03  0.10100000352E+00 0.  1.
</event>
<event>
 5   0  0.5789905E-03  0.1123577E+04  0.7818609E-02  0.9182512E-01
       -1   -1    0    0    0  501  0.00000000000E+00  0.00000000000E+00  0.83793407752E+03  0.83793407754E+03  0.50400001928E-02 0. -1.
        1   -1    0    0  501    0  0.00000000000E+00  0.00000000000E+00 -0.37664828908E+03  0.37664828911E+03  0.50400001928E-02 0.  1.
    10030    2    1    2    0    0  0.00000000000E+00  0.00000000000E+00  0.46128578845E+03  0.12145823667E+04  0.11235772100E+04 0.  0.
        1    1    3    3  502    0 -0.33235013201E+03  0.38103489816E+03 -0.34062595494E+02  0.50675878315E+03  0.50400001928E-02 0.  1.
       -1    1    3    3    0  502  0.33235013201E+03 -0.38103489816E+03  0.49534838394E+03  0.70782358350E+03  0.50400001928E-02 0. -1.
</event>
<event>
 5   0  0.5789905E-03  0.1070319E+04  0.7818609E-02  0.9234614E-01
       -1   -1    0    0    0  501  0.00000000000E+00  0.00000000000E+00  0.28898653188E+03  0.28898653192E+03  0.50400001928E-02 0. -1.
        1   -1    0    0  501    0  0.00000000000E+00  0.00000000000E+00 -0.99103434618E+03  0.99103434620E+03  0.50400001928E-02 0.  1.
    10030    2    1    2    0    0  0.00000000000E+00  0.00000000000E+00 -0.70204781430E+03  0.12800208781E+04  0.10703187912E+04 0.  0.
        1    1    3    3  502    0 -0.17548756128E+03 -0.18810956031E+03  0.21018796142E+03  0.33220486149E+03  0.50400001928E-02 0. -1.
       -1    1    3    3    0  502  0.17548756128E+03  0.18810956031E+03 -0.91223577572E+03  0.94781601663E+03  0.50400001928E-02 0.  1.
</event>
<event>
 5   0  0.5958706E-03  0.1091836E+04  0.7818609E-02  0.9213186E-01
        1   -1    0    0  501    0  0.00000000000E+00  0.00000000000E+00  0.12481127857E+04  0.12481127857E+04  0.50400001928E-02 0. -1.
       -1   -1    0    0    0  501  0.00000000000E+00  0.00000000000E+00 -0.23878147700E+03  0.23878147705E+03  0.50400001928E-02 0.  1.
    10030    2    1    2    0    0  0.00000000000E+00  0.00000000000E+00  0.10093313087E+04  0.14868942628E+04  0.10918355453E+04 0.  0.
        2    1    3    3  502    0  0.31148206103E+03 -0.59521236648E+02 -0.10048710962E+03  0.33265824980E+03  0.25500000920E-02 0.  1.
       -2    1    3    3    0  502 -0.31148206103E+03  0.59521236648E+02  0.11098184183E+04  0.11542360130E+04  0.25500000920E-02 0. -1.
</event>
<event>
 5   0  0.5998641E-03  0.1109453E+04  0.7818609E-02  0.9196027E-01
       -1   -1    0    0    0  501  0.00000000000E+00  0.00000000000E+00  0.26637536128E+03  0.26637536133E+03  0.50400001928E-02 0. -1.
        1   -1    0    0  501    0  0.00000000000E+00  0.00000000000E+00 -0.11552176142E+04  0.11552176142E+04  0.50400001928E-02 0.  1.
    10030    2    1    2    0    0  0.00000000000E+00  0.00000000000E+00 -0.88884225290E+03  0.14215929755E+04  0.11094530353E+04 0.  0.
        3    1    3    3  502    0 -0.22516223266E+03  0.56694917105E+02 -0.10899564138E+04  0.11144134506E+04  0.10100000352E+00 0.  1.
       -3    1    3    3    0  502  0.22516223266E+03 -0.56694917105E+02  0.20111416088E+03  0.30717952495E+03  0.10100000352E+00 0. -1.
</event>
<event>
 5   0  0.1019384E-02  0.1108600E+04  0.7818609E-02  0.9196850E-01
       -2   -1    0    0    0  501  0.00000000000E+00  0.00000000000E+00  0.30343276822E+03  0.30343276823E+03  0.25500000920E-02 0. -1.
        2   -1    0    0  501    0  0.00000000000E+00  0.00000000000E+00 -0.10125747099E+04  0.10125747099E+04  0.25500000920E-02 0.  1.
    10030    2    1    2    0    0  0.00000000000E+00  0.00000000000E+00 -0.70914194170E+03  0.13160074782E+04  0.11085997425E+04 0.  0.
        1    1    3    3  502    0 -0.50055200582E+03  0.10674180566E+03 -0.10190698463E+03  0.52185357826E+03  0.50400001928E-02 0. -1.
       -1    1    3    3    0  502  0.50055200582E+03 -0.10674180566E+03 -0.60723495707E+03  0.79415389989E+03  0.50400001928E-02 0.  1.
</event>
<event>
 5   0  0.9719260E-03  0.1074776E+04  0.7818609E-02  0.9230132E-01
       -2   -1    0    0    0  501  0.00000000000E+00  0.00000000000E+00  0.16239994374E+03  0.16239994376E+03  0.25500000920E-02 0. -1.
        2   -1    0    0  501    0  0.00000000000E+00  0.00000000000E+00 -0.17782386302E+04  0.17782386302E+04  0.25500000920E-02 0.  1.
    10030    2    1    2    0    0  0.00000000000E+00  0.00000000000E+00 -0.16158386865E+04  0.19406385740E+04  0.10747759832E+04 0.  0.
        3    1    3    3  502    0  0.23438823608E+03  0.27422049273E+03 -0.15271170217E+04  0.15691466254E+04  0.10100000352E+00 0.  1.
       -3    1    3    3    0  502 -0.23438823608E+03 -0.27422049273E+03 -0.88721664757E+02  0.37149194856E+03  0.10100000352E+00 0. -1.
</event>
<event>
 5   0  0.5998641E-03  0.9980663E+03  0.7818609E-02  0.9310668E-01
       -1   -1    0    0    0  501  0.00000000000E+00  0.00000000000E+00  0.25898783058E+03  0.25898783063E+03  0.50400001928E-02 0. -1.
        1   -1    0    0  501    0  0.00000000000E+00  0.00000000000E+00 -0.96156674855E+03  0.96156674856E+03  0.50400001928E-02 0.  1.
    10030    2    1    2    0    0  0.00000000000E+00  0.00000000000E+00 -0.70257891796E+03  0.12205545792E+04  0.99806630282E+03 0.  0.
        3    1    3    3  502    0  0.29550447416E+03  0.53563304159E+02  0.13610512126E+03  0.32972190712E+03  0.10100000352E+00 0. -1.
       -3    1    3    3    0  502 -0.29550447416E+03 -0.53563304159E+02 -0.83868403922E+03  0.89083267208E+03  0.10100000352E+00 0.  1.
</event>
<event>
 5   0  0.9692981E-03  0.9504030E+03  0.7818609E-02  0.9364680E-01
       -2   -1    0    0    0  501  0.00000000000E+00  0.00000000000E+00  0.23187354949E+03  0.23187354951E+03  0.25500000920E-02 0.  1.
        2   -1    0    0  501    0  0.00000000000E+00  0.00000000000E+00 -0.97387757057E+03  0.97387757057E+03  0.25500000920E-02 0. -1.
    10030    2    1    2    0    0  0.00000000000E+00  0.00000000000E+00 -0.74200402107E+03  0.12057511201E+04  0.95040296521E+03 0.  0.
        5    1    3    3  502    0  0.19984378055E+02  0.15673741357E+03 -0.93954383619E+03  0.95274902377E+03  0.46999998093E+01 0. -1.
       -5    1    3    3    0  502 -0.19984378055E+02 -0.15673741357E+03  0.19753981512E+03  0.25300209631E+03  0.46999998093E+01 0.  1.
</event>
<event>
 5   0  0.5958706E-03  0.1027047E+04  0.7818609E-02  0.9279368E-01
       -1   -1    0    0    0  501  0.00000000000E+00  0.00000000000E+00  0.41401229365E+03  0.41401229368E+03  0.50400001928E-02 0. -1.
        1   -1    0    0  501    0  0.00000000000E+00  0.00000000000E+00 -0.63695321154E+03  0.63695321156E+03  0.50400001928E-02 0.  1.
    10030    2    1    2    0    0  0.00000000000E+00  0.00000000000E+00 -0.22294091789E+03  0.10509655052E+04  0.10270471461E+04 0.  0.
        2    1    3    3  502    0 -0.14292841108E+03  0.26111663741E+03 -0.53966017517E+03  0.61631447630E+03  0.25500000920E-02 0.  1.
       -2    1    3    3    0  502  0.14292841108E+03 -0.26111663741E+03  0.31671925728E+03  0.43465102894E+03  0.25500000920E-02 0. -1.
</event>
<event>
 5   0  0.5958706E-03  0.1106126E+04  0.7818609E-02  0.9199242E-01
       -1   -1    0    0    0  501  0.00000000000E+00  0.00000000000E+00  0.25465566028E+03  0.25465566033E+03  0.50400001928E-02 0. -1.
        1   -1    0    0  501    0  0.00000000000E+00  0.00000000000E+00 -0.12011458455E+04  0.12011458455E+04  0.50400001928E-02 0.  1.
    10030    2    1    2    0    0  0.00000000000E+00  0.00000000000E+00 -0.94649018518E+03  0.14558015058E+04  0.11061258308E+04 0.  0.
        2    1    3    3  502    0  0.13979364131E+03  0.48622638447E+02  0.22810606221E+03  0.27191689676E+03  0.25500000920E-02 0. -1.
       -2    1    3    3    0  502 -0.13979364131E+03 -0.48622638447E+02 -0.11745962474E+04  0.11838846090E+04  0.25500000920E-02 0.  1.
</event>
<event>
 5   0  0.5789905E-03  0.1101579E+04  0.7818609E-02  0.9203655E-01
       -1   -1    0    0    0  501  0.00000000000E+00  0.00000000000E+00  0.54116209803E+03  0.54116209806E+03  0.50400001928E-02 0. -1.
        1   -1    0    0  501    0  0.00000000000E+00  0.00000000000E+00 -0.56058773692E+03  0.56058773694E+03  0.50400001928E-02 0.  1.
    10030    2    1    2    0    0  0.00000000000E+00  0.00000000000E+00 -0.19425638888E+02  0.11017498350E+04  0.11015785689E+04 0.  0.
        1    1    3    3  502    0  0.82865052046E+02 -0.32452711463E+03  0.42760151102E+03  0.54316435563E+03  0.50400001928E-02 0. -1.
       -1    1    3    3    0  502 -0.82865052046E+02  0.32452711463E+03 -0.44702714991E+03  0.55858547937E+03  0.50400001928E-02 0.  1.
</event>
<event>
 5   0  0.5998641E-03  0.1129688E+04  0.7818609E-02  0.9176730E-01
        1   -1    0    0  501    0  0.00000000000E+00  0.00000000000E+00  0.12937913393E+04  0.12937913393E+04  0.50400001928E-02 0. -1.
       -1   -1    0    0    0  501  0.00000000000E+00  0.00000000000E+00 -0.24659974059E+03  0.24659974065E+03  0.50400001928E-02 0.  1.
    10030    2    1    2    0    0  0.00000000000E+00  0.00000000000E+00  0.10471915987E+04  0.15403910800E+04  0.11296877599E+04 0.  0.
        3    1    3    3  502    0 -0.12646270377E+03 -0.88393079484E+02 -0.21730825205E+03  0.26651273620E+03  0.10100000352E+00 0.  1.
       -3    1    3    3    0  502  0.12646270377E+03  0.88393079484E+02  0.12644998508E+04  0.12738783438E+04  0.10100000352E+00 0. -1.
</event>
<event>
 5   0  0.9692981E-03  0.1089668E+04  0.7818609E-02  0.9215321E-01
        2   -1    0    0  501    0  0.00000000000E+00  0.00000000000E+00  0.13333551438E+04  0.13333551438E+04  0.25500000920E-02 0. -1.
       -2   -1    0    0    0  501  0.00000000000E+00  0.00000000000E+00 -0.22262957899E+03  0.22262957901E+03  0.25500000920E-02 0.  1.
    10030    2    1    2    0    0  0.00000000000E+00  0.00000000000E+00  0.11107255648E+04  0.15559847228E+04  0.10896683795E+04 0.  0.
        5    1    3    3  502    0 -0.25192745343E+03 -0.48300274240E+03  0.56670692401E+03  0.78609027387E+03  0.46999998093E+01 0. -1.
       -5    1    3    3    0  502  0.25192745343E+03  0.48300274240E+03  0.54401864077E+03  0.76989444891E+03  0.46999998093E+01 0.  1.
</event>
<event>
 5   0  0.9925021E-03  0.1097147E+04  0.7818609E-02  0.9207977E-01
       -2   -1    0    0    0  501  0.00000000000E+00  0.00000000000E+00  0.20683675100E+03  0.20683675101E+03  0.25500000920E-02 0.  1.
        2   -1    0    0  501    0  0.00000000000E+00  0.00000000000E+00 -0.14549290427E+04  0.14549290427E+04  0.25500000920E-02 0. -1.
    10030    2    1    2    0    0  0.00000000000E+00  0.00000000000E+00 -0.12480922917E+04  0.16617657937E+04  0.10971468382E+04 0.  0.
        4    1    3    3  502    0  0.44745383176E+02 -0.39124807115E+03 -0.45598307410E+02  0.39643160953E+03  0.12699999809E+01 0.  1.
       -4    1    3    3    0  502 -0.44745383176E+02  0.39124807115E+03 -0.12024939843E+04  0.12653341842E+04  0.12699999809E+01 0. -1.
</event>
<event>
 5   0  0.5712664E-03  0.9907574E+03  0.7818609E-02  0.9318740E-01
        1   -1    0    0  501    0  0.00000000000E+00  0.00000000000E+00  0.32360590942E+03  0.32360590945E+03  0.50400001928E-02 0. -1.
       -1   -1    0    0    0  501  0.00000000000E+00  0.00000000000E+00 -0.75832998028E+03  0.75832998029E+03  0.50400001928E-02 0.  1.
    10030    2    1    2    0    0  0.00000000000E+00  0.00000000000E+00 -0.43472407086E+03  0.10819358897E+04  0.99075741316E+03 0.  0.
        5    1    3    3  502    0 -0.20473941073E+03 -0.45057936801E+03 -0.19450808848E+03  0.53178518188E+03  0.46999998093E+01 0. -1.
       -5    1    3    3    0  502  0.20473941073E+03  0.45057936801E+03 -0.24021598238E+03  0.55015070787E+03  0.46999998093E+01 0.  1.
</event>
<event>
 5   0  0.5712664E-03  0.1101532E+04  0.7818609E-02  0.9203700E-01
        1   -1    0    0  501    0  0.00000000000E+00  0.00000000000E+00  0.18382025848E+04  0.18382025848E+04  0.50400001928E-02 0.  1.
       -1   -1    0    0    0  501  0.00000000000E+00  0.00000000000E+00 -0.16502159984E+03  0.16502159992E+03  0.50400001928E-02 0. -1.
    10030    2    1    2    0    0  0.00000000000E+00  0.00000000000E+00  0.16731809850E+04  0.20032241848E+04  0.11015318996E+04 0.  0.
        5    1    3    3  502    0  0.83963651572E+02 -0.83196222072E+02 -0.14164602471E+03  0.18454590883E+03  0.46999998093E+01 0. -1.
       -5    1    3    3    0  502 -0.83963651572E+02  0.83196222072E+02  0.18148270097E+04  0.18186782759E+04  0.46999998093E+01 0.  1.
</event>
<event>
 5   0  0.1019384E-02  0.1074172E+04  0.7818609E-02  0.9230738E-01
        2   -1    0    0  501    0  0.00000000000E+00  0.00000000000E+00  0.38363096218E+03  0.38363096218E+03  0.25500000920E-02 0. -1.
       -2   -1    0    0    0  501  0.00000000000E+00  0.00000000000E+00 -0.75192436342E+03  0.75192436343E+03  0.25500000920E-02 0.  1.
    10030    2    1    2    0    0  0.00000000000E+00  0.00000000000E+00 -0.36829340125E+03  0.11355553256E+04  0.10741721781E+04 0.  0.
        1    1    3    3  502    0 -0.32724153994E+03 -0.33340511538E+03 -0.46427101348E+03  0.65863007098E+03  0.50400001928E-02 0.  1.
       -1    1    3    3    0  502  0.32724153994E+03  0.33340511538E+03  0.95977612229E+02  0.47692525463E+03  0.50400001928E-02 0. -1.
</event>
<event>
 5   0  0.9925021E-03  0.1111483E+04  0.7818609E-02  0.9194071E-01
       -2   -1    0    0    0  501  0.00000000000E+00  0.00000000000E+00  0.21866976946E+03  0.21866976948E+03  0.25500000920E-02 0.  1.
        2   -1    0    0  501    0  0.00000000000E+00  0.00000000000E+00 -0.14123980372E+04  0.14123980372E+04  0.25500000920E-02 0. -1.
    10030    2    1    2    0    0  0.00000000000E+00  0.00000000000E+00 -0.11937282677E+04  0.16310678066E+04  0.11114832490E+04 0.  0.
        4    1    3    3  502    0 -0.41789388762E+03 -0.11412022727E+03 -0.86006788085E+02  0.44165315360E+03  0.12699999809E+01 0.  1.
       -4    1    3    3    0  502  0.41789388762E+03  0.11412022727E+03 -0.11077214796E+04  0.11894146531E+04  0.12699999809E+01 0. -1.
</event>
<event>
 5   0  0.9925021E-03  0.1108850E+04  0.7818609E-02  0.9196609E-01
       -2   -1    0    0    0  501  0.00000000000E+00  0.00000000000E+00  0.44030650305E+03  0.44030650306E+03  0.25500000920E-02 0. -1.
        2   -1    0    0  501    0  0.00000000000E+00  0.00000000000E+00 -0.69812034431E+03  0.69812034431E+03  0.25500000920E-02 0.  1.
    10030    2    1    2    0    0  0.00000000000E+00  0.00000000000E+00 -0.25781384125E+03  0.11384268474E+04  0.11088497238E+04 0.  0.
        4    1    3    3  502    0 -0.11633052461E+02 -0.38057590974E+03  0.28484635501E+03  0.47551278621E+03  0.12699999809E+01 0. -1.
       -4    1    3    3    0  502  0.11633052461E+02  0.38057590974E+03 -0.54266019627E+03  0.66291406117E+03  0.12699999809E+01 0.  1.
</event>
<event>
 5   0  0.5854579E-03  0.1040847E+04  0.7818609E-02  0.9264846E-01
        1   -1    0    0  501    0  0.00000000000E+00  0.00000000000E+00  0.32095240952E+03  0.32095240956E+03  0.50400001928E-02 0.  1.
       -1   -1    0    0    0  501  0.00000000000E+00  0.00000000000E+00 -0.84386473721E+03  0.84386473722E+03  0.50400001928E-02 0. -1.
    10030    2    1    2    0    0  0.00000000000E+00  0.00000000000E+00 -0.52291232769E+03  0.11648171468E+04  0.10408466184E+04 0.  0.
        4    1    3    3  502    0 -0.17944763709E+03 -0.13756249141E+03  0.26310942797E+03  0.34691941065E+03  0.12699999809E+01 0.  1.
       -4    1    3    3    0  502  0.17944763709E+03  0.13756249141E+03 -0.78602175566E+03  0.81789773613E+03  0.12699999809E+01 0. -1.
</event>
<event>
 5   0  0.5998641E-03  0.1101522E+04  0.7818609E-02  0.9203710E-01
       -1   -1    0    0    0  501  0.00000000000E+00  0.00000000000E+00  0.34686770431E+03  0.34686770435E+03  0.50400001928E-02 0. -1.
        1   -1    0    0  501    0  0.00000000000E+00  0.00000000000E+00 -0.87450519364E+03  0.87450519366E+03  0.50400001928E-02 0.  1.
    10030    2    1    2    0    0  0.00000000000E+00  0.00000000000E+00 -0.52763748933E+03  0.12213728980E+04  0.11015218726E+04 0.  0.
        3    1    3    3  502    0 -0.48189611401E+03  0.23255235840E+02 -0.55837905042E+03  0.73793756162E+03  0.10100000352E+00 0. -1.
       -3    1    3    3    0  502  0.48189611401E+03 -0.23255235840E+02  0.30741561089E+02  0.48343533639E+03  0.10100000352E+00 0.  1.
</event>
<event>
 5   0  0.5789905E-03  0.1067885E+04  0.7818609E-02  0.9237071E-01
       -1   -1    0    0    0  501  0.00000000000E+00  0.00000000000E+00  0.22778790163E+03  0.22778790169E+03  0.50400001928E-02 0. -1.
        1   -1    0    0  501    0  0.00000000000E+00  0.00000000000E+00 -0.12515799128E+04  0.12515799128E+04  0.50400001928E-02 0.  1.
    10030    2    1    2    0    0  0.00000000000E+00  0.00000000000E+00 -0.10237920112E+04  0.14793678145E+04  0.10678853162E+04 0.  0.
        1    1    3    3  502    0  0.31539132364E+03 -0.30585910072E+03 -0.93225309037E+03  0.10305907534E+04  0.50400001928E-02 0.  1.
       -1    1    3    3    0  502 -0.31539132364E+03  0.30585910072E+03 -0.91538920835E+02  0.44877706110E+03  0.50400001928E-02 0. -1.
</event>
<event>
 5   0  0.9925021E-03  0.1141249E+04  0.7818609E-02  0.9165894E-01
       -2   -1    0    0    0  501  0.00000000000E+00  0.00000000000E+00  0.48607643073E+03  0.48607643074E+03  0.25500000920E-02 0. -1.
        2   -1    0    0  501    0  0.00000000000E+00  0.00000000000E+00 -0.66987937920E+03  0.66987937921E+03  0.25500000920E-02 0.  1.
    10030    2    1    2    0    0  0.00000000000E+00  0.00000000000E+00 -0.18380294847E+03  0.11559558100E+04  0.11412494516E+04 0.  0.
        4    1    3    3  502    0  0.36630550761E+03  0.82225671257E+02 -0.52717177468E+03  0.64718813249E+03  0.12699999809E+01 0.  1.
       -4    1    3    3    0  502 -0.36630550761E+03 -0.82225671257E+02  0.34336882621E+03  0.50876767746E+03  0.12699999809E+01 0. -1.
</event>
<event>
 5   0  0.5854579E-03  0.1027925E+04  0.7818609E-02  0.9278437E-01
        1   -1    0    0  501    0  0.00000000000E+00  0.00000000000E+00  0.12220620969E+04  0.12220620969E+04  0.50400001928E-02 0.  1.
       -1   -1    0    0    0  501  0.00000000000E+00  0.00000000000E+00 -0.21615698120E+03  0.21615698126E+03  0.50400001928E-02 0. -1.
    10030    2    1    2    0    0  0.00000000000E+00  0.00000000000E+00  0.10059051157E+04  0.14382190782E+04  0.10279246154E+04 0.  0.
        4    1    3    3  502    0  0.30915329908E+03 -0.35467543605E+03  0.21354449153E+03  0.51669458100E+03  0.12699999809E+01 0. -1.
       -4    1    3    3    0  502 -0.30915329908E+03  0.35467543605E+03  0.79236062416E+03  0.92152449717E+03  0.12699999809E+01 0.  1.
</event>
<event>
 5   0  0.3949750E-03  0.1087926E+04  0.7818609E-02  0.9217040E-01
       -3   -1    0    0    0  501  0.00000000000E+00  0.00000000000E+00  0.78745915520E+03  0.78745916168E+03  0.10100000352E+00 0.  1.
        3   -1    0    0  501    0  0.00000000000E+00  0.00000000000E+00 -0.37576030636E+03  0.37576031993E+03  0.10100000352E+00 0. -1.
    10030    2    1    2    0    0  0.00000000000E+00  0.00000000000E+00  0.41169884884E+03  0.11632194816E+04  0.10879262936E+04 0.  0.
        5    1    3    3  502    0 -0.94885413624E+02  0.47079814063E+03  0.47890530847E+03  0.67825254546E+03  0.46999998093E+01 0.  1.
       -5    1    3    3    0  502  0.94885413624E+02 -0.47079814063E+03 -0.67206459626E+02  0.48496693615E+03  0.46999998093E+01 0. -1.
</event>
<event>
 5   0  0.1019384E-02  0.1093823E+04  0.7818609E-02  0.9211233E-01
       -2   -1    0    0    0  501  0.00000000000E+00  0.00000000000E+00  0.36975616358E+03  0.36975616359E+03  0.25500000920E-02 0. -1.
        2   -1    0    0  501    0  0.00000000000E+00  0.00000000000E+00 -0.80894460427E+03  0.80894460427E+03  0.25500000920E-02 0.  1.
    10030    2    1    2    0    0  0.00000000000E+00  0.00000000000E+00 -0.43918844069E+03  0.11787007679E+04  0.10938231181E+04 0.  0.
        1    1    3    3  502    0  0.52551381410E+03 -0.11966263524E+03 -0.11949745317E+03  0.55205394340E+03  0.50400001928E-02 0. -1.
       -1    1    3    3    0  502 -0.52551381410E+03  0.11966263524E+03 -0.31969098752E+03  0.62664682446E+03  0.50400001928E-02 0.  1.
</event>
<event>
 5   0  0.5998641E-03  0.1068792E+04  0.7818609E-02  0.9236154E-01
        1   -1    0    0  501    0  0.00000000000E+00  0.00000000000E+00  0.66868237045E+03  0.66868237047E+03  0.50400001928E-02 0. -1.
       -1   -1    0    0    0  501  0.00000000000E+00  0.00000000000E+00 -0.42707750533E+03  0.42707750536E+03  0.50400001928E-02 0.  1.
    10030    2    1    2    0    0  0.00000000000E+00  0.00000000000E+00  0.24160486512E+03  0.10957598758E+04  0.10687922130E+04 0.  0.
        3    1    3    3  502    0  0.49063140250E+03 -0.16429072742E+03  0.25784864533E+03  0.57809735368E+03  0.10100000352E+00 0.  1.
       -3    1    3    3    0  502 -0.49063140250E+03  0.16429072742E+03 -0.16243780206E+02  0.51766252214E+03  0.10100000352E+00 0. -1.
</event>
<event>
 5   0  0.9719260E-03  0.1166968E+04  0.7818609E-02  0.9142271E-01
       -2   -1    0    0    0  501  0.00000000000E+00  0.00000000000E+00  0.29525563016E+03  0.29525563017E+03  0.25500000920E-02 0. -1.
        2   -1    0    0  501    0  0.00000000000E+00  0.00000000000E+00 -0.11530810698E+04  0.11530810698E+04  0.25500000920E-02 0.  1.
    10030    2    1    2    0    0  0.00000000000E+00  0.00000000000E+00 -0.85782543964E+03  0.14483367000E+04  0.11669681708E+04 0.  0.
        3    1    3    3  502    0  0.52241496226E+03 -0.25687772241E+03 -0.47777704138E+03  0.75310986485E+03  0.10100000352E+00 0.  1.
       -3    1    3    3    0  502 -0.52241496226E+03  0.25687772241E+03 -0.38004839826E+03  0.69522683513E+03  0.10100000352E+00 0. -1.
</event>
<event>
 5   0  0.1019384E-02  0.1089697E+04  0.7818609E-02  0.9215293E-01
        2   -1    0    0  501    0  0.00000000000E+00  0.00000000000E+00  0.21475551936E+03  0.21475551938E+03  0.25500000920E-02 0. -1.
       -2   -1    0    0    0  501  0.00000000000E+00  0.00000000000E+00 -0.13823146069E+04  0.13823146070E+04  0.25500000920E-02 0.  1.
    10030    2    1    2    0    0  0.00000000000E+00  0.00000000000E+00 -0.11675590876E+04  0.15970701263E+04  0.10896966392E+04 0.  0.
        1    1    3    3  502    0  0.29903620470E+03  0.59202068176E+02 -0.12456320667E+04  0.12823910411E+04  0.50400001928E-02 0.  1.
       -1    1    3    3    0  502 -0.29903620470E+03 -0.59202068176E+02  0.78072979123E+02  0.31467908525E+03  0.50400001928E-02 0. -1.
</event>
<event>
 5   0  0.5712664E-03  0.1108461E+04  0.7818609E-02  0.9196985E-01
        1   -1    0    0  501    0  0.00000000000E+00  0.00000000000E+00  0.10130644317E+04  0.10130644317E+04  0.50400001928E-02 0. -1.
       -1   -1    0    0    0  501  0.00000000000E+00  0.00000000000E+00 -0.30320994672E+03  0.30320994676E+03  0.50400001928E-02 0.  1.
    10030    2    1    2    0    0  0.00000000000E+00  0.00000000000E+00  0.70985448495E+03  0.13162743784E+04  0.11084605764E+04 0.  0.
        5    1    3    3  502    0 -0.35549631417E+03 -0.21416721653E+03  0.79107979938E+03  0.89335019170E+03  0.46999998093E+01 0. -1.
       -5    1    3    3    0  502  0.35549631417E+03  0.21416721653E+03 -0.81225314430E+02  0.42292418674E+03  0.46999998093E+01 0.  1.
</event>
<event>
 5   0  0.5958706E-03  0.1116503E+04  0.7818609E-02  0.9189254E-01
       -1   -1    0    0    0  501  0.00000000000E+00  0.00000000000E+00  0.31981123163E+03  0.31981123167E+03  0.50400001928E-02 0. -1.
        1   -1    0    0  501    0  0.00000000000E+00  0.00000000000E+00 -0.97446549854E+03  0.97446549855E+03  0.50400001928E-02 0.  1.
    10030    2    1    2    0    0  0.00000000000E+00  0.00000000000E+00 -0.65465426691E+03  0.12942767302E+04  0.11165034909E+04 0.  0.
        2    1    3    3  502    0  0.33772287253E+03  0.25467087776E+03 -0.74965843252E+03  0.86075650451E+03  0.25500000920E-02 0.  1.
       -2    1    3    3    0  502 -0.33772287253E+03 -0.25467087776E+03  0.95004165607E+02  0.43352022571E+03  0.25500000920E-02 0. -1.
</event>
<event>
 5   0  0.1028016E-02  0.1101034E+04  0.7818609E-02  0.9204184E-01
       -2   -1    0    0    0  501  0.00000000000E+00  0.00000000000E+00  0.40959716317E+03  0.40959716318E+03  0.25500000920E-02 0. -1.
        2   -1    0    0  501    0  0.00000000000E+00  0.00000000000E+00 -0.73991991353E+03  0.73991991353E+03  0.25500000920E-02 0.  1.
    10030    2    1    2    0    0  0.00000000000E+00  0.00000000000E+00 -0.33032275036E+03  0.11495170767E+04  0.11010342366E+04 0.  0.
        2    1    3    3  502    0  0.28797095608E+03 -0.20321457540E+02 -0.65455483291E+03  0.71538958790E+03  0.25500000920E-02 0.  1.
       -2    1    3    3    0  502 -0.28797095608E+03  0.20321457540E+02  0.32423208255E+03  0.43412748881E+03  0.25500000920E-02 0. -1.
</event>
<event>
 5   0  0.1028016E-02  0.1096686E+04  0.7818609E-02  0.9208428E-01
       -2   -1    0    0    0  501  0.00000000000E+00  0.00000000000E+00  0.10334214494E+04  0.10334214494E+04  0.25500000920E-02 0. -1.
        2   -1    0    0  501    0  0.00000000000E+00  0.00000000000E+00 -0.29095574807E+03  0.29095574808E+03  0.25500000920E-02 0.  1.
    10030    2    1    2    0    0  0.00000000000E+00  0.00000000000E+00  0.74246570128E+03  0.13243771974E+04  0.10966857542E+04 0.  0.
        2    1    3    3  502    0 -0.42449190755E+02  0.47861396931E+03  0.69029690308E+03  0.84106068736E+03  0.25500000920E-02 0. -1.
       -2    1    3    3    0  502  0.42449190755E+02 -0.47861396931E+03  0.52168798206E+02  0.48331651009E+03  0.25500000920E-02 0.  1.
</event>
<event>
 5   0  0.5789905E-03  0.1104554E+04  0.7818609E-02  0.9200765E-01
       -1   -1    0    0    0  501  0.00000000000E+00  0.00000000000E+00  0.19876961810E+03  0.19876961816E+03  0.50400001928E-02 0.  1.
        1   -1    0    0  501    0  0.00000000000E+00  0.00000000000E+00 -0.15344884718E+04  0.15344884718E+04  0.50400001928E-02 0. -1.
    10030    2    1    2    0    0  0.00000000000E+00  0.00000000000E+00 -0.13357188537E+04  0.17332580900E+04  0.11045536430E+04 0.  0.
        1    1    3    3  502    0  0.42356949508E+03  0.24289581618E+02 -0.11304678785E+03  0.43906796422E+03  0.50400001928E-02 0.  1.
       -1    1    3    3    0  502 -0.42356949508E+03 -0.24289581618E+02 -0.12226720659E+04  0.12941901258E+04  0.50400001928E-02 0. -1.
</event>
<event>
 5   0  0.5958706E-03  0.1106250E+04  0.7818609E-02  0.9199121E-01
        1   -1    0    0  501    0  0.00000000000E+00  0.00000000000E+00  0.49548144624E+03  0.49548144627E+03  0.50400001928E-02 0. -1.
       -1   -1    0    0    0  501  0.00000000000E+00  0.00000000000E+00 -0.61747476893E+03  0.61747476895E+03  0.50400001928E-02 0.  1.
    10030    2    1    2    0    0  0.00000000000E+00  0.00000000000E+00 -0.12199332269E+03  0.11129562152E+04  0.11062500469E+04 0.  0.
        2    1    3    3  502    0  0.17468799982E+03 -0.18674116017E+03  0.43244487276E+03  0.50239100924E+03  0.25500000920E-02 0. -1.
       -2    1    3    3    0  502 -0.17468799982E+03  0.18674116017E+03 -0.55443819544E+03  0.61056520598E+03  0.25500000920E-02 0.  1.
</event>
<event>
 5   0  0.1019384E-02  0.1055925E+04  0.7818609E-02  0.9249248E-01
        2   -1    0    0  501    0  0.00000000000E+00  0.00000000000E+00  0.65661687229E+03  0.65661687229E+03  0.25500000920E-02 0. -1.
       -2   -1    0    0    0  501  0.00000000000E+00  0.00000000000E+00 -0.42451638176E+03  0.42451638177E+03  0.25500000920E-02 0.  1.
    10030    2    1    2    0    0  0.00000000000E+00  0.00000000000E+00  0.23210049052E+03  0.10811332541E+04  0.10559254118E+04 0.  0.
        1    1    3    3  502    0  0.23691329931E+01  0.51785399254E+03  0.10804052886E+02  0.51797210153E+03  0.50400001928E-02 0.  1.
       -1    1    3    3    0  502 -0.23691329931E+01 -0.51785399254E+03  0.22129643764E+03  0.56316115253E+03  0.50400001928E-02 0. -1.
</event>
<event>
 5   0  0.5854579E-03  0.1148765E+04  0.7818609E-02  0.9158923E-01
       -1   -1    0    0    0  501  0.00000000000E+00  0.00000000000E+00  0.39751982100E+03  0.39751982103E+03  0.50400001928E-02 0. -1.
        1   -1    0    0  501    0  0.00000000000E+00  0.00000000000E+00 -0.82993474880E+03  0.82993474881E+03  0.50400001928E-02 0.  1.
    10030    2    1    2    0    0  0.00000000000E+00  0.00000000000E+00 -0.43241492780E+03  0.12274545698E+04  0.11487654466E+04 0.  0.
        4    1    3    3  502    0 -0.80312169979E+02  0.32797493889E+02  0.39047804003E+03  0.40000054112E+03  0.12699999809E+01 0. -1.
       -4    1    3    3    0  502  0.80312169979E+02 -0.32797493889E+02 -0.82289296783E+03  0.82745402872E+03  0.12699999809E+01 0.  1.
</event>
<event>
 5   0  0.1019384E-02  0.1030869E+04  0.7818609E-02  0.9275321E-01
       -2   -1    0    0    0  501  0.00000000000E+00  0.00000000000E+00  0.70012865019E+03  0.70012865019E+03  0.25500000920E-02 0. -1.
        2   -1    0    0  501    0  0.00000000000E+00  0.00000000000E+00 -0.37946283665E+03  0.37946283666E+03  0.25500000920E-02 0.  1.
    10030    2    1    2    0    0  0.00000000000E+00  0.00000000000E+00  0.32066581354E+03  0.10795914868E+04  0.10308691549E+04 0.  0.
        1    1    3    3  502    0  0.10405223867E+03 -0.40138854035E+03  0.48096173654E+03  0.63503056678E+03  0.50400001928E-02 0. -1.
       -1    1    3    3    0  502 -0.10405223867E+03  0.40138854035E+03 -0.16029592301E+03  0.44456092007E+03  0.50400001928E-02 0.  1.
</event>
<event>
 5   0  0.5789905E-03  0.1123107E+04  0.7818609E-02  0.9182958E-01
        1   -1    0    0  501    0  0.00000000000E+00  0.00000000000E+00  0.50815503535E+03  0.50815503538E+03  0.50400001928E-02 0.  1.
       -1   -1    0    0    0  501  0.00000000000E+00  0.00000000000E+00 -0.62056310039E+03  0.62056310041E+03  0.50400001928E-02 0. -1.
    10030    2    1    2    0    0  0.00000000000E+00  0.00000000000E+00 -0.11240806503E+03  0.11287181358E+04  0.11231068769E+04 0.  0.
        1    1    3    3  502    0  0.30832212228E+03  0.43347739124E+03  0.12463129850E+03  0.54634983334E+03  0.50400001928E-02 0.  1.
       -1    1    3    3    0  502 -0.30832212228E+03 -0.43347739124E+03 -0.23703936354E+03  0.58236830244E+03  0.50400001928E-02 0. -1.
</event>
<event>
 5   0  0.9925021E-03  0.1087716E+04  0.7818609E-02  0.9217248E-01
       -2   -1    0    0    0  501  0.00000000000E+00  0.00000000000E+00  0.19772984294E+03  0.19772984295E+03  0.25500000920E-02 0.  1.
        2   -1    0    0  501    0  0.00000000000E+00  0.00000000000E+00 -0.14958860272E+04  0.14958860272E+04  0.25500000920E-02 0. -1.
    10030    2    1    2    0    0  0.00000000000E+00  0.00000000000E+00 -0.12981561843E+04  0.16936158702E+04  0.10877156048E+04 0.  0.
        4    1    3    3  502    0  0.46225005665E+03  0.10056222723E+03 -0.23130435828E+03  0.52658446187E+03  0.12699999809E+01 0.  1.
       -4    1    3    3    0  502 -0.46225005665E+03 -0.10056222723E+03 -0.10668518260E+04  0.11670314083E+04  0.12699999809E+01 0. -1.
</event>
<event>
 5   0  0.5712664E-03  0.1128135E+04  0.7818609E-02  0.9178196E-01
        1   -1    0    0  501    0  0.00000000000E+00  0.00000000000E+00  0.33589390655E+03  0.33589390658E+03  0.50400001928E-02 0.  1.
       -1   -1    0    0    0  501  0.00000000000E+00  0.00000000000E+00 -0.94723956614E+03  0.94723956615E+03  0.50400001928E-02 0. -1.
    10030    2    1    2    0    0  0.00000000000E+00  0.00000000000E+00 -0.61134565959E+03  0.12831334727E+04  0.11281347408E+04 0.  0.
        5    1    3    3  502    0 -0.48665777709E+03 -0.13225127233E+03 -0.59301668127E+03  0.77847097910E+03  0.46999998093E+01 0. -1.
       -5    1    3    3    0  502  0.48665777709E+03  0.13225127233E+03 -0.18328978324E+02  0.50466249364E+03  0.46999998093E+01 0.  1.
</event>
<event>
 5   0  0.9719260E-03  0.1093250E+04  0.7818609E-02  0.9211796E-01
        2   -1    0    0  501    0  0.00000000000E+00  0.00000000000E+00  0.35247235315E+03  0.35247235316E+03  0.25500000920E-02 0. -1.
       -2   -1    0    0    0  501  0.00000000000E+00  0.00000000000E+00 -0.84772242213E+03  0.84772242213E+03  0.25500000920E-02 0.  1.
    10030    2    1    2    0    0  0.00000000000E+00  0.00000000000E+00 -0.49525006897E+03  0.12001947753E+04  0.10932496823E+04 0.  0.
        3    1    3    3  502    0 -0.16985079607E+03  0.47191127287E+02 -0.81565956369E+03  0.83449195889E+03  0.10100000352E+00 0.  1.
       -3    1    3    3    0  502  0.16985079607E+03 -0.47191127287E+02  0.32040949471E+03  0.36570281640E+03  0.10100000352E+00 0. -1.
</event>
<event>
 5   0  0.1028016E-02  0.1091493E+04  0.7818609E-02  0.9213523E-01
        2   -1    0    0  501    0  0.00000000000E+00  0.00000000000E+00  0.10178464866E+04  0.10178464866E+04  0.25500000920E-02 0.  1.
       -2   -1    0    0    0  501  0.00000000000E+00  0.00000000000E+00 -0.29261703666E+03  0.29261703667E+03  0.25500000920E-02 0. -1.
    10030    2    1    2    0    0  0.00000000000E+00  0.00000000000E+00  0.72522944990E+03  0.13104635232E+04  0.10914929641E+04 0.  0.
        2    1    3    3  502    0  0.32951820659E+03  0.23578633722E+03 -0.76327754250E+02  0.41231465093E+03  0.25500000920E-02 0. -1.
       -2    1    3    3    0  502 -0.32951820659E+03 -0.23578633722E+03  0.80155720415E+03  0.89814887230E+03  0.25500000920E-02 0.  1.
</event>
<event>
 5   0  0.1019384E-02  0.1101426E+04  0.7818609E-02  0.9203803E-01
        2   -1    0    0  501    0  0.00000000000E+00  0.00000000000E+00  0.11322918790E+04  0.11322918790E+04  0.25500000920E-02 0. -1.
       -2   -1    0    0    0  501  0.00000000000E+00  0.00000000000E+00 -0.26785057805E+03  0.26785057806E+03  0.25500000920E-02 0.  1.
    10030    2    1    2    0    0  0.00000000000E+00  0.00000000000E+00  0.86444130090E+03  0.14001424570E+04  0.11014264103E+04 0.  0.
        1    1    3    3  502    0  0.40095369387E+03  0.33091114498E+03  0.20122777203E+03  0.55745732282E+03  0.50400001928E-02 0. -1.
       -1    1    3    3    0  502 -0.40095369387E+03 -0.33091114498E+03  0.66321352887E+03  0.84268513420E+03  0.50400001928E-02 0.  1.
</event>
<event>
 5   0  0.5958706E-03  0.1059727E+04  0.7818609E-02  0.9245359E-01
        1   -1    0    0  501    0  0.00000000000E+00  0.00000000000E+00  0.21944818369E+04  0.21944818369E+04  0.50400001928E-02 0.  1.
       -1   -1    0    0    0  501  0.00000000000E+00  0.00000000000E+00 -0.12793686862E+03  0.12793686872E+03  0.50400001928E-02 0. -1.
    10030    2    1    2    0    0  0.00000000000E+00  0.00000000000E+00  0.20665449683E+04  0.23224187056E+04  0.10597266338E+04 0.  0.
        2    1    3    3  502    0 -0.30898971802E+03 -0.42397989728E+03  0.87042666886E+03  0.10163051633E+04  0.25500000920E-02 0. -1.
       -2    1    3    3    0  502  0.30898971802E+03  0.42397989728E+03  0.11961182994E+04  0.13061135423E+04  0.25500000920E-02 0.  1.
</event>
<event>
 5   0  0.1028016E-02  0.1059240E+04  0.7818609E-02  0.9245856E-01
       -2   -1    0    0    0  501  0.00000000000E+00  0.00000000000E+00  0.34399708274E+03  0.34399708275E+03  0.25500000920E-02 0.  1.
        2   -1    0    0  501    0  0.00000000000E+00  0.00000000000E+00 -0.81540667356E+03  0.81540667357E+03  0.25500000920E-02 0. -1.
    10030    2    1    2    0    0  0.00000000000E+00  0.00000000000E+00 -0.47140959082E+03  0.11594037563E+04  0.10592403258E+04 0.  0.
        2    1    3    3  502    0 -0.28536242766E+03  0.15855958902E+03 -0.69218376775E+03  0.76530466269E+03  0.25500000920E-02 0. -1.
       -2    1    3    3    0  502  0.28536242766E+03 -0.15855958902E+03  0.22077417693E+03  0.39409909363E+03  0.25500000920E-02 0.  1.
</event>
<event>
 5   0  0.5998641E-03  0.1024527E+04  0.7818609E-02  0.9282046E-01
        1   -1    0    0  501    0  0.00000000000E+00  0.00000000000E+00  0.65217069136E+03  0.65217069138E+03  0.50400001928E-02 0.  1.
       -1   -1    0    0    0  501  0.00000000000E+00  0.00000000000E+00 -0.40237006722E+03  0.40237006725E+03  0.50400001928E-02 0. -1.
    10030    2    1    2    0    0  0.00000000000E+00  0.00000000000E+00  0.24980062414E+03  0.10545407586E+04  0.10245271396E+04 0.  0.
        3    1    3    3  502    0 -0.10626582569E+03 -0.25184073030E+03  0.57083316164E+03  0.63290337949E+03  0.10100000352E+00 0.  1.
       -3    1    3    3    0  502  0.10626582569E+03  0.25184073030E+03 -0.32103253750E+03  0.42163737913E+03  0.10100000352E+00 0. -1.
</event>
<event>
 5   0  0.5958706E-03  0.1093059E+04  0.7818609E-02  0.9211984E-01
       -1   -1    0    0    0  501  0.00000000000E+00  0.00000000000E+00  0.18978528827E+03  0.18978528833E+03  0.50400001928E-02 0.  1.
        1   -1    0    0  501    0  0.00000000000E+00  0.00000000000E+00 -0.15738545586E+04  0.15738545586E+04  0.50400001928E-02 0. -1.
    10030    2    1    2    0    0  0.00000000000E+00  0.00000000000E+00 -0.13840692704E+04  0.17636398470E+04  0.10930589026E+04 0.  0.
        2    1    3    3  502    0 -0.71487434875E+02  0.87165020972E+02 -0.15548918026E+04  0.15589729670E+04  0.25500000920E-02 0. -1.
       -2    1    3    3    0  502  0.71487434875E+02 -0.87165020972E+02  0.17082253221E+03  0.20466687994E+03  0.25500000920E-02 0.  1.
</event>
<event>
 5   0  0.5958706E-03  0.1100726E+04  0.7818609E-02  0.9204485E-01
       -1   -1    0    0    0  501  0.00000000000E+00  0.00000000000E+00  0.67984537235E+03  0.67984537237E+03  0.50400001928E-02 0. -1.
        1   -1    0    0  501    0  0.00000000000E+00  0.00000000000E+00 -0.44554163920E+03  0.44554163923E+03  0.50400001928E-02 0.  1.
    10030    2    1    2    0    0  0.00000000000E+00  0.00000000000E+00  0.23430373316E+03  0.11253870116E+04  0.11007259816E+04 0.  0.
        2    1    3    3  502    0 -0.15553382892E+02 -0.47962129150E+03  0.39267215595E+03  0.62005637892E+03  0.25500000920E-02 0. -1.
       -2    1    3    3    0  502  0.15553382892E+02  0.47962129150E+03 -0.15836842279E+03  0.50533063268E+03  0.25500000920E-02 0.  1.
</event>
<event>
 5   0  0.5712664E-03  0.1096187E+04  0.7818609E-02  0.9208916E-01
       -1   -1    0    0    0  501  0.00000000000E+00  0.00000000000E+00  0.10083496705E+04  0.10083496705E+04  0.50400001928E-02 0.  1.
        1   -1    0    0  501    0  0.00000000000E+00  0.00000000000E+00 -0.29791913784E+03  0.29791913788E+03  0.50400001928E-02 0. -1.
    10030    2    1    2    0    0  0.00000000000E+00  0.00000000000E+00  0.71043053261E+03  0.13062688083E+04  0.10961873280E+04 0.  0.
        5    1    3    3  502    0  0.26045385649E+03 -0.45599795044E+03  0.54217192049E+03  0.75481310503E+03  0.46999998093E+01 0. -1.
       -5    1    3    3    0  502 -0.26045385649E+03  0.45599795044E+03  0.16825861213E+03  0.55145570332E+03  0.46999998093E+01 0.  1.
</event>
<event>
 5   0  0.1019384E-02  0.1129183E+04  0.7818609E-02  0.9177206E-01
       -2   -1    0    0    0  501  0.00000000000E+00  0.00000000000E+00  0.51686264504E+03  0.51686264505E+03  0.25500000920E-02 0. -1.
        2   -1    0    0  501    0  0.00000000000E+00  0.00000000000E+00 -0.61672752117E+03  0.61672752118E+03  0.25500000920E-02 0.  1.
    10030    2    1    2    0    0  0.00000000000E+00  0.00000000000E+00 -0.99864876130E+02  0.11335901662E+04  0.11291827449E+04 0.  0.
        1    1    3    3  502    0  0.29333863046E+03  0.46898347220E+03  0.63514701928E+02  0.55680083217E+03  0.50400001928E-02 0. -1.
       -1    1    3    3    0  502 -0.29333863046E+03 -0.46898347220E+03 -0.16337957806E+03  0.57678933405E+03  0.50400001928E-02 0.  1.
</event>
<event>
 5   0  0.9925021E-03  0.1120447E+04  0.7818609E-02  0.9185489E-01
       -2   -1    0    0    0  501  0.00000000000E+00  0.00000000000E+00  0.20051375335E+03  0.20051375337E+03  0.25500000920E-02 0. -1.
        2   -1    0    0  501    0  0.00000000000E+00  0.00000000000E+00 -0.15652298950E+04  0.15652298950E+04  0.25500000920E-02 0.  1.
    10030    2    1    2    0    0  0.00000000000E+00  0.00000000000E+00 -0.13647161417E+04  0.17657436484E+04  0.11204465559E+04 0.  0.
        4    1    3    3  502    0  0.22305469261E+03 -0.47754630716E+03 -0.98155479482E+03  0.11141163761E+04  0.12699999809E+01 0.  1.
       -4    1    3    3    0  502 -0.22305469261E+03  0.47754630716E+03 -0.38316134687E+03  0.65162727230E+03  0.12699999809E+01 0. -1.
</event>
<event>
 5   0  0.9719260E-03  0.1049139E+04  0.7818609E-02  0.9256233E-01
       -2   -1    0    0    0  501  0.00000000000E+00  0.00000000000E+00  0.60579046199E+03  0.60579046200E+03  0.25500000920E-02 0. -1.
        2   -1    0    0  501    0  0.00000000000E+00  0.00000000000E+00 -0.45423834841E+03  0.45423834841E+03  0.25500000920E-02 0.  1.
    10030    2    1    2    0    0  0.00000000000E+00  0.00000000000E+00  0.15155211359E+03  0.10600288104E+04  0.10491391880E+04 0.  0.
        3    1    3    3  502    0 -0.80760710642E+02  0.22161850442E+03  0.54918627321E+03  0.59769777210E+03  0.10100000352E+00 0. -1.
       -3    1    3    3    0  502  0.80760710642E+02 -0.22161850442E+03 -0.39763415962E+03  0.46233103831E+03  0.10100000352E+00 0.  1.
</event>
<event>
 5   0  0.3949750E-03  0.1047593E+04  0.7818609E-02  0.9257833E-01
        4   -1    0    0  501    0  0.00000000000E+00  0.00000000000E+00  0.41638275600E+03  0.41638469280E+03  0.12699999809E+01 0.  1.
       -4   -1    0    0    0  501  0.00000000000E+00  0.00000000000E+00 -0.65891534080E+03  0.65891656470E+03  0.12699999809E+01 0. -1.
    10030    2    1    2    0    0  0.00000000000E+00  0.00000000000E+00 -0.24253258480E+03  0.10753012575E+04  0.10475928311E+04 0.  0.
        5    1    3    3  502    0  0.48948347623E+03  0.25680089571E+02 -0.31077639768E+03  0.58039434858E+03  0.46999998093E+01 0.  1.
       -5    1    3    3    0  502 -0.48948347623E+03 -0.25680089571E+02  0.68243812883E+02  0.49490690892E+03  0.46999998093E+01 0. -1.
</event>
<event>
 5   0  0.9692981E-03  0.1099737E+04  0.7818609E-02  0.9205449E-01
        2   -1    0    0  501    0  0.00000000000E+00  0.00000000000E+00  0.39138260468E+03  0.39138260469E+03  0.25500000920E-02 0. -1.
       -2   -1    0    0    0  501  0.00000000000E+00  0.00000000000E+00 -0.77253094831E+03  0.77253094831E+03  0.25500000920E-02 0.  1.
    10030    2    1    2    0    0  0.00000000000E+00  0.00000000000E+00 -0.38114834363E+03  0.11639135530E+04  0.10997366498E+04 0.  0.
        5    1    3    3  502    0 -0.11646808177E+03  0.18207878373E+03 -0.72566276539E+03  0.75718296113E+03  0.46999998093E+01 0.  1.
       -5    1    3    3    0  502  0.11646808177E+03 -0.18207878373E+03  0.34451442177E+03  0.40673059186E+03  0.46999998093E+01 0. -1.
</event>
<event>
 5   0  0.5712664E-03  0.1072903E+04  0.7818609E-02  0.9232012E-01
        1   -1    0    0  501    0  0.00000000000E+00  0.00000000000E+00  0.93922801829E+03  0.93922801830E+03  0.50400001928E-02 0. -1.
       -1   -1    0    0    0  501  0.00000000000E+00  0.00000000000E+00 -0.30640091562E+03  0.30640091566E+03  0.50400001928E-02 0.  1.
    10030    2    1    2    0    0  0.00000000000E+00  0.00000000000E+00  0.63282710267E+03  0.12456289340E+04  0.10729032106E+04 0.  0.
        5    1    3    3  502    0 -0.15460921656E+03  0.10904313832E+02 -0.27981434393E+03  0.31990791014E+03  0.46999998093E+01 0.  1.
       -5    1    3    3    0  502  0.15460921656E+03 -0.10904313832E+02  0.91264144660E+03  0.92572102382E+03  0.46999998093E+01 0. -1.
</event>
<event>
 5   0  0.5712664E-03  0.1122581E+04  0.7818609E-02  0.9183458E-01
       -1   -1    0    0    0  501  0.00000000000E+00  0.00000000000E+00  0.20334062590E+03  0.20334062596E+03  0.50400001928E-02 0. -1.
        1   -1    0    0  501    0  0.00000000000E+00  0.00000000000E+00 -0.15493550628E+04  0.15493550628E+04  0.50400001928E-02 0.  1.
    10030    2    1    2    0    0  0.00000000000E+00  0.00000000000E+00 -0.13460144369E+04  0.17526956888E+04  0.11225806488E+04 0.  0.
        5    1    3    3  502    0 -0.46219153387E+03 -0.18046740313E+02 -0.17662367876E+03  0.49514110385E+03  0.46999998093E+01 0. -1.
       -5    1    3    3    0  502  0.46219153387E+03  0.18046740313E+02 -0.11693907581E+04  0.12575545849E+04  0.46999998093E+01 0.  1.
</event>
<event>
 5   0  0.5854579E-03  0.1083496E+04  0.7818609E-02  0.9221428E-01
       -1   -1    0    0    0  501  0.00000000000E+00  0.00000000000E+00  0.23500845159E+03  0.23500845165E+03  0.50400001928E-02 0. -1.
        1   -1    0    0  501    0  0.00000000000E+00  0.00000000000E+00 -0.12488535160E+04  0.12488535160E+04  0.50400001928E-02 0.  1.
    10030    2    1    2    0    0  0.00000000000E+00  0.00000000000E+00 -0.10138450644E+04  0.14838619677E+04  0.10834964349E+04 0.  0.
        4    1    3    3  502    0  0.77226817723E+02 -0.44359305438E+03 -0.94358747907E+02  0.46004778608E+03  0.12699999809E+01 0. -1.
       -4    1    3    3    0  502 -0.77226817723E+02  0.44359305438E+03 -0.91948631653E+03  0.10238141816E+04  0.12699999809E+01 0.  1.
</event>
<event>
 5   0  0.5789905E-03  0.5955412E+03  0.7818609E-02  0.9914700E-01
        1   -1    0    0  501    0  0.00000000000E+00  0.00000000000E+00  0.79737151122E+02  0.79737151281E+02  0.50400001928E-02 0.  1.
       -1   -1    0    0    0  501  0.00000000000E+00  0.00000000000E+00 -0.11119952209E+04  0.11119952209E+04  0.50400001928E-02 0. -1.
    10030    2    1    2    0    0  0.00000000000E+00  0.00000000000E+00 -0.10322580698E+04  0.11917323722E+04  0.59554120286E+03 0.  0.
        1    1    3    3  502    0 -0.23337824745E+03 -0.14221589347E+03 -0.27955496759E+03  0.39094980070E+03  0.50400001928E-02 0.  1.
       -1    1    3    3    0  502  0.23337824745E+03  0.14221589347E+03 -0.75270310217E+03  0.80078257147E+03  0.50400001928E-02 0. -1.
</event>
<event>
 5   0  0.9925021E-03  0.1085459E+04  0.7818609E-02  0.9219481E-01
        2   -1    0    0  501    0  0.00000000000E+00  0.00000000000E+00  0.94245258589E+03  0.94245258590E+03  0.25500000920E-02 0. -1.
       -2   -1    0    0    0  501  0.00000000000E+00  0.00000000000E+00 -0.31254133962E+03  0.31254133963E+03  0.25500000920E-02 0.  1.
    10030    2    1    2    0    0  0.00000000000E+00  0.00000000000E+00  0.62991124627E+03  0.12549939255E+04  0.10854591540E+04 0.  0.
        4    1    3    3  502    0  0.92730825038E+02  0.15658130207E+02 -0.30304733400E+03  0.31730660645E+03  0.12699999809E+01 0.  1.
       -4    1    3    3    0  502 -0.92730825038E+02 -0.15658130207E+02  0.93295858027E+03  0.93768731908E+03  0.12699999809E+01 0. -1.
</event>
<event>
 5   0  0.9692981E-03  0.1223564E+04  0.7818609E-02  0.9092477E-01
       -2   -1    0    0    0  501  0.00000000000E+00  0.00000000000E+00  0.43322802208E+03  0.43322802208E+03  0.25500000920E-02 0.  1.
        2   -1    0    0  501    0  0.00000000000E+00  0.00000000000E+00 -0.86392662924E+03  0.86392662925E+03  0.25500000920E-02 0. -1.
    10030    2    1    2    0    0  0.00000000000E+00  0.00000000000E+00 -0.43069860717E+03  0.12971546513E+04  0.12235640152E+04 0.  0.
        5    1    3    3  502    0  0.38472475726E+03  0.93008992728E+02 -0.70987156656E+03  0.81277521037E+03  0.46999998093E+01 0. -1.
       -5    1    3    3    0  502 -0.38472475726E+03 -0.93008992728E+02  0.27917295940E+03  0.48437944097E+03  0.46999998093E+01 0.  1.
</event>
<event>
 5   0  0.5712664E-03  0.1104421E+04  0.7818609E-02  0.9200893E-01
        1   -1    0    0  501    0  0.00000000000E+00  0.00000000000E+00  0.70272967310E+03  0.70272967312E+03  0.50400001928E-02 0.  1.
       -1   -1    0    0    0  501  0.00000000000E+00  0.00000000000E+00 -0.43393139342E+03  0.43393139345E+03  0.50400001928E-02 0. -1.
    10030    2    1    2    0    0  0.00000000000E+00  0.00000000000E+00  0.26879827968E+03  0.11366610666E+04  0.11044210543E+04 0.  0.
        5    1    3    3  502    0  0.44819962942E+02  0.39392413974E+03 -0.26117660611E+03  0.47478454749E+03  0.46999998093E+01 0. -1.
       -5    1    3    3    0  502 -0.44819962942E+02 -0.39392413974E+03  0.52997488579E+03  0.66187651909E+03  0.46999998093E+01 0.  1.
</event>
<event>
 5   0  0.1019384E-02  0.9817280E+03  0.7818609E-02  0.9328815E-01
        2   -1    0    0  501    0  0.00000000000E+00  0.00000000000E+00  0.81446591619E+03  0.81446591620E+03  0.25500000920E-02 0.  1.
       -2   -1    0    0    0  501  0.00000000000E+00  0.00000000000E+00 -0.29583494437E+03  0.29583494438E+03  0.25500000920E-02 0. -1.
    10030    2    1    2    0    0  0.00000000000E+00  0.00000000000E+00  0.51863097182E+03  0.11103008606E+04  0.98172802551E+03 0.  0.
        1    1    3    3  502    0 -0.79335620718E+02  0.85375825770E+01  0.80708189088E+03  0.81101677520E+03  0.50400001928E-02 0.  1.
       -1    1    3    3    0  502  0.79335620718E+02 -0.85375825770E+01 -0.28845091906E+03  0.29928408538E+03  0.50400001928E-02 0. -1.
</event>
<event>
 5   0  0.1028016E-02  0.1041328E+04  0.7818609E-02  0.9264343E-01
        2   -1    0    0  501    0  0.00000000000E+00  0.00000000000E+00  0.11647427019E+04  0.11647427019E+04  0.25500000920E-02 0.  1.
       -2   -1    0    0    0  501  0.00000000000E+00  0.00000000000E+00 -0.23274755695E+03  0.23274755697E+03  0.25500000920E-02 0. -1.
    10030    2    1    2    0    0  0.00000000000E+00  0.00000000000E+00  0.93199514493E+03  0.13974902589E+04  0.10413280335E+04 0.  0.
        2    1    3    3  502    0  0.46570000336E+02  0.51819506354E+01 -0.22991216957E+03  0.23463849485E+03  0.25500000920E-02 0. -1.
       -2    1    3    3    0  502 -0.46570000336E+02 -0.51819506354E+01  0.11619073145E+04  0.11628517640E+04  0.25500000920E-02 0.  1.
</event>
<event>
 5   0  0.1028016E-02  0.1030720E+04  0.7818609E-02  0.9275479E-01
        2   -1    0    0  501    0  0.00000000000E+00  0.00000000000E+00  0.37993964270E+03  0.37993964270E+03  0.25500000920E-02 0. -1.
       -2   -1    0    0    0  501  0.00000000000E+00  0.00000000000E+00 -0.69904725696E+03  0.69904725696E+03  0.25500000920E-02 0.  1.
    10030    2    1    2    0    0  0.00000000000E+00  0.00000000000E+00 -0.31910761426E+03  0.10789868997E+04  0.10307196807E+04 0.  0.
        2    1    3    3  502    0  0.50281565675E+03 -0.10778045492E+03 -0.19513911328E+03  0.55001771306E+03  0.25500000920E-02 0. -1.
       -2    1    3    3    0  502 -0.50281565675E+03  0.10778045492E+03 -0.12396850098E+03  0.52896918661E+03  0.25500000920E-02 0.  1.
</event>
<event>
 5   0  0.5854579E-03  0.9017649E+03  0.7818609E-02  0.9423378E-01
        1   -1    0    0  501    0  0.00000000000E+00  0.00000000000E+00  0.72748935733E+03  0.72748935735E+03  0.50400001928E-02 0.  1.
       -1   -1    0    0    0  501  0.00000000000E+00  0.00000000000E+00 -0.27944739374E+03  0.27944739379E+03  0.50400001928E-02 0. -1.
    10030    2    1    2    0    0  0.00000000000E+00  0.00000000000E+00  0.44804196359E+03  0.10069367511E+04  0.90176494701E+03 0.  0.
        4    1    3    3  502    0 -0.25803589075E+03 -0.15438372272E+03  0.59917593202E+03  0.67039560348E+03  0.12699999809E+01 0.  1.
       -4    1    3    3    0  502  0.25803589075E+03  0.15438372272E+03 -0.15113396843E+03  0.33654114766E+03  0.12699999809E+01 0. -1.
</event>
<event>
 5   0  0.5789905E-03  0.1069523E+04  0.7818609E-02  0.9235417E-01
        1   -1    0    0  501    0  0.00000000000E+00  0.00000000000E+00  0.69869342968E+03  0.69869342970E+03  0.50400001928E-02 0.  1.
       -1   -1    0    0    0  501  0.00000000000E+00  0.00000000000E+00 -0.40929227486E+03  0.40929227489E+03  0.50400001928E-02 0. -1.
    10030    2    1    2    0    0  0.00000000000E+00  0.00000000000E+00  0.28940115482E+03  0.11079857046E+04  0.10695229278E+04 0.  0.
        1    1    3    3  502    0  0.17992732278E+03  0.49677673569E+03  0.59217302115E+02  0.53166498427E+03  0.50400001928E-02 0.  1.
       -1    1    3    3    0  502 -0.17992732278E+03 -0.49677673569E+03  0.23018385271E+03  0.57632072032E+03  0.50400001928E-02 0. -1.
</event>
<event>
 5   0  0.9692981E-03  0.1064982E+04  0.7818609E-02  0.9240011E-01
       -2   -1    0    0    0  501  0.00000000000E+00  0.00000000000E+00  0.45352529466E+03  0.45352529466E+03  0.25500000920E-02 0.  1.
        2   -1    0    0  501    0  0.00000000000E+00  0.00000000000E+00 -0.62520565926E+03  0.62520565927E+03  0.25500000920E-02 0. -1.
    10030    2    1    2    0    0  0.00000000000E+00  0.00000000000E+00 -0.17168036461E+03  0.10787309539E+04  0.10649818418E+04 0.  0.
        5    1    3    3  502    0 -0.26509914715E+03  0.44830014105E+03  0.26377816887E+02  0.52150594772E+03  0.46999998093E+01 0.  1.
       -5    1    3    3    0  502  0.26509914715E+03 -0.44830014105E+03 -0.19805818149E+03  0.55722500621E+03  0.46999998093E+01 0. -1.
</event>
<event>
 5   0  0.5712664E-03  0.1086804E+04  0.7818609E-02  0.9218149E-01
       -1   -1    0    0    0  501  0.00000000000E+00  0.00000000000E+00  0.10521463791E+04  0.10521463791E+04  0.50400001928E-02 0.  1.
        1   -1    0    0  501    0  0.00000000000E+00  0.00000000000E+00 -0.28065100301E+03  0.28065100306E+03  0.50400001928E-02 0. -1.
    10030    2    1    2    0    0  0.00000000000E+00  0.00000000000E+00  0.77149537612E+03  0.13327973822E+04  0.10868043737E+04 0.  0.
        5    1    3    3  502    0  0.21683237672E+03 -0.23917135025E+03  0.92176667492E+03  0.97667553843E+03  0.46999998093E+01 0.  1.
       -5    1    3    3    0  502 -0.21683237672E+03  0.23917135025E+03 -0.15027129880E+03  0.35612184378E+03  0.46999998093E+01 0. -1.
</event>
<event>
 5   0  0.1028016E-02  0.1099510E+04  0.7818609E-02  0.9205670E-01
       -2   -1    0    0    0  501  0.00000000000E+00  0.00000000000E+00  0.73685394674E+03  0.73685394674E+03  0.25500000920E-02 0. -1.
        2   -1    0    0  501    0  0.00000000000E+00  0.00000000000E+00 -0.41016331802E+03  0.41016331803E+03  0.25500000920E-02 0.  1.
    10030    2    1    2    0    0  0.00000000000E+00  0.00000000000E+00  0.32669062871E+03  0.11470172648E+04  0.10995098175E+04 0.  0.
        2    1    3    3  502    0  0.21112220093E+03  0.44455023992E+03 -0.92257553682E+02  0.50070845385E+03  0.25500000920E-02 0. -1.
       -2    1    3    3    0  502 -0.21112220093E+03 -0.44455023992E+03  0.41894818240E+03  0.64630881093E+03  0.25500000920E-02 0.  1.
</event>
<event>
 5   0  0.9925021E-03  0.1076445E+04  0.7818609E-02  0.9228459E-01
        2   -1    0    0  501    0  0.00000000000E+00  0.00000000000E+00  0.10930820453E+04  0.10930820453E+04  0.25500000920E-02 0. -1.
       -2   -1    0    0    0  501  0.00000000000E+00  0.00000000000E+00 -0.26501532416E+03  0.26501532418E+03  0.25500000920E-02 0.  1.
    10030    2    1    2    0    0  0.00000000000E+00  0.00000000000E+00  0.82806672116E+03  0.13580973695E+04  0.10764450615E+04 0.  0.
        4    1    3    3  502    0  0.29152427706E+03 -0.18097644400E+02 -0.15632187641E+03  0.33128850084E+03  0.12699999809E+01 0.  1.
       -4    1    3    3    0  502 -0.29152427706E+03  0.18097644400E+02  0.98438859757E+03  0.10268088687E+04  0.12699999809E+01 0. -1.
</event>
<event>
 5   0  0.5854579E-03  0.1115830E+04  0.7818609E-02  0.9189899E-01
       -1   -1    0    0    0  501  0.00000000000E+00  0.00000000000E+00  0.79434908787E+03  0.79434908789E+03  0.50400001928E-02 0. -1.
        1   -1    0    0  501    0  0.00000000000E+00  0.00000000000E+00 -0.39185407588E+03  0.39185407591E+03  0.50400001928E-02 0.  1.
    10030    2    1    2    0    0  0.00000000000E+00  0.00000000000E+00  0.40249501199E+03  0.11862031638E+04  0.11158296067E+04 0.  0.
        4    1    3    3  502    0 -0.34719340436E+03 -0.31085845864E+03 -0.12484093871E+03  0.48245529763E+03  0.12699999809E+01 0.  1.
       -4    1    3    3    0  502  0.34719340436E+03  0.31085845864E+03  0.52733595069E+03  0.70374786617E+03  0.12699999809E+01 0. -1.
</event>
<event>
 5   0  0.9692981E-03  0.1094566E+04  0.7818609E-02  0.9210505E-01
        2   -1    0    0  501    0  0.00000000000E+00  0.00000000000E+00  0.11836460294E+04  0.11836460294E+04  0.25500000920E-02 0.  1.
       -2   -1    0    0    0  501  0.00000000000E+00  0.00000000000E+00 -0.25304747258E+03  0.25304747260E+03  0.25500000920E-02 0. -1.
    10030    2    1    2    0    0  0.00000000000E+00  0.00000000000E+00  0.93059855685E+03  0.14366935020E+04  0.10945659161E+04 0.  0.
        5    1    3    3  502    0  0.19984701995E+03 -0.50321388063E+03  0.36084066151E+03  0.65068511127E+03  0.46999998093E+01 0. -1.
       -5    1    3    3    0  502 -0.19984701995E+03  0.50321388063E+03  0.56975789535E+03  0.78600839076E+03  0.46999998093E+01 0.  1.
</event>
<event>
 5   0  0.9719260E-03  0.1035426E+04  0.7818609E-02  0.9270522E-01
       -2   -1    0    0    0  501  0.00000000000E+00  0.00000000000E+00  0.33341044776E+03  0.33341044777E+03  0.25500000920E-02 0. -1.
        2   -1    0    0  501    0  0.00000000000E+00  0.00000000000E+00 -0.80389370699E+03  0.80389370700E+03  0.25500000920E-02 0.  1.
    10030    2    1    2    0    0  0.00000000000E+00  0.00000000000E+00 -0.47048325924E+03  0.11373041548E+04  0.10354256338E+04 0.  0.
        3    1    3    3  502    0  0.10474136868E+03  0.29339349238E+03 -0.68941886164E+03  0.75653742318E+03  0.10100000352E+00 0.  1.
       -3    1    3    3    0  502 -0.10474136868E+03 -0.29339349238E+03  0.21893560240E+03  0.38076673159E+03  0.10100000352E+00 0. -1.
</event>
<event>
 5   0  0.9925021E-03  0.1052073E+04  0.7818609E-02  0.9253206E-01
        2   -1    0    0  501    0  0.00000000000E+00  0.00000000000E+00  0.46818017877E+03  0.46818017878E+03  0.25500000920E-02 0.  1.
       -2   -1    0    0    0  501  0.00000000000E+00  0.00000000000E+00 -0.59104252001E+03  0.59104252002E+03  0.25500000920E-02 0. -1.
    10030    2    1    2    0    0  0.00000000000E+00  0.00000000000E+00 -0.12286234124E+03  0.10592226988E+04  0.10520729874E+04 0.  0.
        4    1    3    3  502    0 -0.40513363529E+03 -0.84420434463E+01  0.27627079799E+03  0.49044030958E+03  0.12699999809E+01 0.  1.
       -4    1    3    3    0  502  0.40513363529E+03  0.84420434463E+01 -0.39913313924E+03  0.56878238921E+03  0.12699999809E+01 0. -1.
</event>
<event>
 5   0  0.5958706E-03  0.1089887E+04  0.7818609E-02  0.9215105E-01
       -1   -1    0    0    0  501  0.00000000000E+00  0.00000000000E+00  0.18993487657E+03  0.18993487663E+03  0.50400001928E-02 0.  1.
        1   -1    0    0  501    0  0.00000000000E+00  0.00000000000E+00 -0.15635007644E+04  0.15635007644E+04  0.50400001928E-02 0. -1.
    10030    2    1    2    0    0  0.00000000000E+00  0.00000000000E+00 -0.13735658879E+04  0.17534356411E+04  0.10898868286E+04 0.  0.
        2    1    3    3  502    0 -0.91224096779E+02 -0.76171063745E+01  0.17747653292E+03  0.19969420595E+03  0.25500000920E-02 0.  1.
       -2    1    3    3    0  502  0.91224096779E+02  0.76171063745E+01 -0.15510424208E+04  0.15537414351E+04  0.25500000920E-02 0. -1.
</event>
<event>
 5   0  0.9719260E-03  0.1113284E+04  0.7818609E-02  0.9192341E-01
       -2   -1    0    0    0  501  0.00000000000E+00  0.00000000000E+00  0.11617246397E+03  0.11617246399E+03  0.25500000920E-02 0.  1.
        2   -1    0    0  501    0  0.00000000000E+00  0.00000000000E+00 -0.26671563998E+04  0.26671563998E+04  0.25500000920E-02 0. -1.
    10030    2    1    2    0    0  0.00000000000E+00  0.00000000000E+00 -0.25509839358E+04  0.27833288638E+04  0.11132836670E+04 0.  0.
        3    1    3    3  502    0  0.12317376224E+02  0.24053345366E+03 -0.25301426232E+04  0.25415801707E+04  0.10100000352E+00 0. -1.
       -3    1    3    3    0  502 -0.12317376224E+02 -0.24053345366E+03 -0.20841312585E+02  0.24174869306E+03  0.10100000352E+00 0.  1.
</event>
<event>
 5   0  0.5998641E-03  0.1099667E+04  0.7818609E-02  0.9205516E-01
       -1   -1    0    0    0  501  0.00000000000E+00  0.00000000000E+00  0.58278878941E+03  0.58278878943E+03  0.50400001928E-02 0. -1.
        1   -1    0    0  501    0  0.00000000000E+00  0.00000000000E+00 -0.51874174425E+03  0.51874174428E+03  0.50400001928E-02 0.  1.
    10030    2    1    2    0    0  0.00000000000E+00  0.00000000000E+00  0.64047045154E+02  0.11015305337E+04  0.10996669917E+04 0.  0.
        3    1    3    3  502    0  0.31493504715E+03  0.41209755486E+03  0.21483865204E+03  0.56139481228E+03  0.10100000352E+00 0. -1.
       -3    1    3    3    0  502 -0.31493504715E+03 -0.41209755486E+03 -0.15079160689E+03  0.54013572142E+03  0.10100000352E+00 0.  1.
</event>
<event>
 5   0  0.9925021E-03  0.1087910E+04  0.7818609E-02  0.9217056E-01
       -2   -1    0    0    0  501  0.00000000000E+00  0.00000000000E+00  0.22027371458E+03  0.22027371460E+03  0.25500000920E-02 0. -1.
        2   -1    0    0  501    0  0.00000000000E+00  0.00000000000E+00 -0.13432703850E+04  0.13432703850E+04  0.25500000920E-02 0.  1.
    10030    2    1    2    0    0  0.00000000000E+00  0.00000000000E+00 -0.11229966704E+04  0.15635440996E+04  0.10879102121E+04 0.  0.
        4    1    3    3  502    0  0.35617895255E+03  0.17756101591E+03 -0.28581739035E+02  0.39901113933E+03  0.12699999809E+01 0. -1.
       -4    1    3    3    0  502 -0.35617895255E+03 -0.17756101591E+03 -0.10944149314E+04  0.11645329603E+04  0.12699999809E+01 0.  1.
</event>
<event>
 5   0  0.5789905E-03  0.1070984E+04  0.7818609E-02  0.9233944E-01
        1   -1    0    0  501    0  0.00000000000E+00  0.00000000000E+00  0.20877154922E+04  0.20877154922E+04  0.50400001928E-02 0.  1.
       -1   -1    0    0    0  501  0.00000000000E+00  0.00000000000E+00 -0.13735178218E+03  0.13735178227E+03  0.50400001928E-02 0. -1.
    10030    2    1    2    0    0  0.00000000000E+00  0.00000000000E+00  0.19503637100E+04  0.22250672744E+04  0.10709835548E+04 0.  0.
        1    1    3    3  502    0 -0.18317469652E+03  0.41449509504E+03  0.38245858337E+03  0.59298711729E+03  0.50400001928E-02 0. -1.
       -1    1    3    3    0  502  0.18317469652E+03 -0.41449509504E+03  0.15679051266E+04  0.16320801571E+04  0.50400001928E-02 0.  1.
</event>
<event>
 5   0  0.9692981E-03  0.1070066E+04  0.7818609E-02  0.9234869E-01
        2   -1    0    0  501    0  0.00000000000E+00  0.00000000000E+00  0.52421776953E+03  0.52421776953E+03  0.25500000920E-02 0.  1.
       -2   -1    0    0    0  501  0.00000000000E+00  0.00000000000E+00 -0.54607111826E+03  0.54607111827E+03  0.25500000920E-02 0. -1.
    10030    2    1    2    0    0  0.00000000000E+00  0.00000000000E+00 -0.21853348733E+02  0.10702888878E+04  0.10700657618E+04 0.  0.
        5    1    3    3  502    0  0.11141741383E+03  0.14812037798E+03  0.49105904469E+03  0.52489481027E+03  0.46999998093E+01 0.  1.
       -5    1    3    3    0  502 -0.11141741383E+03 -0.14812037798E+03 -0.51291239342E+03  0.54539407753E+03  0.46999998093E+01 0. -1.
</event>
<event>
 5   0  0.5712664E-03  0.1140536E+04  0.7818609E-02  0.9166559E-01
       -1   -1    0    0    0  501  0.00000000000E+00  0.00000000000E+00  0.27187060249E+03  0.27187060254E+03  0.50400001928E-02 0.  1.
        1   -1    0    0  501    0  0.00000000000E+00  0.00000000000E+00 -0.11961786767E+04  0.11961786767E+04  0.50400001928E-02 0. -1.
    10030    2    1    2    0    0  0.00000000000E+00  0.00000000000E+00 -0.92430807423E+03  0.14680492793E+04  0.11405363959E+04 0.  0.
        5    1    3    3  502    0 -0.28051331358E+03  0.29879633332E+03 -0.97251906348E+03  0.10553588900E+04  0.46999998093E+01 0. -1.
       -5    1    3    3    0  502  0.28051331358E+03 -0.29879633332E+03  0.48210989251E+02  0.41269038926E+03  0.46999998093E+01 0.  1.
</event>
<event>
 5   0  0.5712664E-03  0.1086992E+04  0.7818609E-02  0.9217964E-01
       -1   -1    0    0    0  501  0.00000000000E+00  0.00000000000E+00  0.36757678086E+03  0.36757678089E+03  0.50400001928E-02 0. -1.
        1   -1    0    0  501    0  0.00000000000E+00  0.00000000000E+00 -0.80360810231E+03  0.80360810233E+03  0.50400001928E-02 0.  1.
    10030    2    1    2    0    0  0.00000000000E+00  0.00000000000E+00 -0.43603132145E+03  0.11711848832E+04  0.10869915903E+04 0.  0.
        5    1    3    3  502    0 -0.12508698921E+02  0.50508255774E+03 -0.43377789090E+03  0.66592057057E+03  0.46999998093E+01 0.  1.
       -5    1    3    3    0  502  0.12508698921E+02 -0.50508255774E+03 -0.22534305570E+01  0.50526431264E+03  0.46999998093E+01 0. -1.
</event>
<event>
 5   0  0.9692981E-03  0.7107905E+03  0.7818609E-02  0.9698955E-01
       -2   -1    0    0    0  501  0.00000000000E+00  0.00000000000E+00  0.12467184225E+03  0.12467184228E+03  0.25500000920E-02 0. -1.
        2   -1    0    0  501    0  0.00000000000E+00  0.00000000000E+00 -0.10131058395E+04  0.10131058395E+04  0.25500000920E-02 0.  1.
    10030    2    1    2    0    0  0.00000000000E+00  0.00000000000E+00 -0.88843399724E+03  0.11377776818E+04  0.71079046538E+03 0.  0.
        5    1    3    3  502    0  0.34031547252E+03 -0.10161959155E+03 -0.42510735866E+03  0.55396707358E+03  0.46999998093E+01 0. -1.
       -5    1    3    3    0  502 -0.34031547252E+03  0.10161959155E+03 -0.46332663858E+03  0.58381060819E+03  0.46999998093E+01 0.  1.
</event>
<event>
 5   0  0.5854579E-03  0.1088986E+04  0.7818609E-02  0.9215994E-01
        1   -1    0    0  501    0  0.00000000000E+00  0.00000000000E+00  0.20428635078E+04  0.20428635078E+04  0.50400001928E-02 0.  1.
       -1   -1    0    0    0  501  0.00000000000E+00  0.00000000000E+00 -0.14512604096E+03  0.14512604104E+03  0.50400001928E-02 0. -1.
    10030    2    1    2    0    0  0.00000000000E+00  0.00000000000E+00  0.18977374668E+04  0.21879895489E+04  0.10889861215E+04 0.  0.
        4    1    3    3  502    0 -0.50403882091E+03  0.16949305883E+03  0.11839368323E+04  0.12978794496E+04  0.12699999809E+01 0.  1.
       -4    1    3    3    0  502  0.50403882091E+03 -0.16949305883E+03  0.71380063455E+03  0.89011009923E+03  0.12699999809E+01 0. -1.
</event>
<event>
 5   0  0.5854579E-03  0.1107836E+04  0.7818609E-02  0.9197588E-01
        1   -1    0    0  501    0  0.00000000000E+00  0.00000000000E+00  0.14708513199E+04  0.14708513199E+04  0.50400001928E-02 0.  1.
       -1   -1    0    0    0  501  0.00000000000E+00  0.00000000000E+00 -0.20860388279E+03  0.20860388285E+03  0.50400001928E-02 0. -1.
    10030    2    1    2    0    0  0.00000000000E+00  0.00000000000E+00  0.12622474371E+04  0.16794552028E+04  0.11078362630E+04 0.  0.
        4    1    3    3  502    0  0.48683955657E+03 -0.22053071808E+03  0.85173434072E+03  0.10055344606E+04  0.12699999809E+01 0.  1.
       -4    1    3    3    0  502 -0.48683955657E+03  0.22053071808E+03  0.41051309640E+03  0.67392074213E+03  0.12699999809E+01 0. -1.
</event>
<event>
 5   0  0.5712664E-03  0.1065721E+04  0.7818609E-02  0.9239262E-01
       -1   -1    0    0    0  501  0.00000000000E+00  0.00000000000E+00  0.18245495411E+03  0.18245495418E+03  0.50400001928E-02 0. -1.
        1   -1    0    0  501    0  0.00000000000E+00  0.00000000000E+00 -0.15562201920E+04  0.15562201920E+04  0.50400001928E-02 0.  1.
    10030    2    1    2    0    0  0.00000000000E+00  0.00000000000E+00 -0.13737652379E+04  0.17386751462E+04  0.10657205709E+04 0.  0.
        5    1    3    3  502    0  0.51232204624E+03 -0.14285983393E+03 -0.73937346518E+03  0.91081173808E+03  0.46999998093E+01 0.  1.
       -5    1    3    3    0  502 -0.51232204624E+03  0.14285983393E+03 -0.63439177274E+03  0.82786340814E+03  0.46999998093E+01 0. -1.
</event>
<event>
 5   0  0.5958706E-03  0.1135043E+04  0.7818609E-02  0.9171694E-01
       -1   -1    0    0    0  501  0.00000000000E+00  0.00000000000E+00  0.63077128585E+03  0.63077128587E+03  0.50400001928E-02 0. -1.
        1   -1    0    0  501    0  0.00000000000E+00  0.00000000000E+00 -0.51061362473E+03  0.51061362475E+03  0.50400001928E-02 0.  1.
    10030    2    1    2    0    0  0.00000000000E+00  0.00000000000E+00  0.12015766112E+03  0.11413849106E+04  0.11350425766E+04 0.  0.
        2    1    3    3  502    0  0.11136715263E+03  0.49836144930E+02 -0.49726914697E+03  0.51201844553E+03  0.25500000920E-02 0.  1.
       -2    1    3    3    0  502 -0.11136715263E+03 -0.49836144930E+02  0.61742680810E+03  0.62936646510E+03  0.25500000920E-02 0. -1.
</event>
<event>
 5   0  0.5854579E-03  0.1085474E+04  0.7818609E-02  0.9219467E-01
       -1   -1    0    0    0  501  0.00000000000E+00  0.00000000000E+00  0.31624648539E+03  0.31624648543E+03  0.50400001928E-02 0.  1.
        1   -1    0    0  501    0  0.00000000000E+00  0.00000000000E+00 -0.93143591802E+03  0.93143591803E+03  0.50400001928E-02 0. -1.
    10030    2    1    2    0    0  0.00000000000E+00  0.00000000000E+00 -0.61518943263E+03  0.12476824035E+04  0.10854737868E+04 0.  0.
        4    1    3    3  502    0 -0.84295866115E+02  0.25757798638E+03 -0.84808566011E+03  0.89033876243E+03  0.12699999809E+01 0. -1.
       -4    1    3    3    0  502  0.84295866115E+02 -0.25757798638E+03  0.23289622748E+03  0.35734364103E+03  0.12699999809E+01 0.  1.
</event>
<event>
 5   0  0.5854579E-03  0.1101614E+04  0.7818609E-02  0.9203620E-01
        1   -1    0    0  501    0  0.00000000000E+00  0.00000000000E+00  0.12752114971E+04  0.12752114971E+04  0.50400001928E-02 0.  1.
       -1   -1    0    0    0  501  0.00000000000E+00  0.00000000000E+00 -0.23791228479E+03  0.23791228484E+03  0.50400001928E-02 0. -1.
    10030    2    1    2    0    0  0.00000000000E+00  0.00000000000E+00  0.10372992123E+04  0.15131237819E+04  0.11016142354E+04 0.  0.
        4    1    3    3  502    0  0.38724338049E+03 -0.20818680166E+03  0.62912602036E+02  0.44413825383E+03  0.12699999809E+01 0. -1.
       -4    1    3    3    0  502 -0.38724338049E+03  0.20818680166E+03  0.97438661025E+03  0.10689855281E+04  0.12699999809E+01 0.  1.
</event>
<event>
 5   0  0.5789905E-03  0.1116657E+04  0.7818609E-02  0.9189107E-01
       -1   -1    0    0    0  501  0.00000000000E+00  0.00000000000E+00  0.50807065724E+03  0.50807065727E+03  0.50400001928E-02 0. -1.
        1   -1    0    0  501    0  0.00000000000E+00  0.00000000000E+00 -0.61355811604E+03  0.61355811606E+03  0.50400001928E-02 0.  1.
    10030    2    1    2    0    0  0.00000000000E+00  0.00000000000E+00 -0.10548745879E+03  0.11216287733E+04  0.11166572890E+04 0.  0.
        1    1    3    3  502    0 -0.17304389223E+03  0.20046411024E+03  0.44097368399E+03  0.51438102427E+03  0.50400001928E-02 0. -1.
       -1    1    3    3    0  502  0.17304389223E+03 -0.20046411024E+03 -0.54646114278E+03  0.60724774905E+03  0.50400001928E-02 0.  1.
</event>
<event>
 5   0  0.1028016E-02  0.1075694E+04  0.7818609E-02  0.9229212E-01
       -2   -1    0    0    0  501  0.00000000000E+00  0.00000000000E+00  0.44430764765E+03  0.44430764765E+03  0.25500000920E-02 0.  1.
        2   -1    0    0  501    0  0.00000000000E+00  0.00000000000E+00 -0.65107863952E+03  0.65107863953E+03  0.25500000920E-02 0. -1.
    10030    2    1    2    0    0  0.00000000000E+00  0.00000000000E+00 -0.20677099187E+03  0.10953862872E+04  0.10756936716E+04 0.  0.
        2    1    3    3  502    0  0.11413886582E+03 -0.22262220480E+03  0.38145146674E+03  0.45617271756E+03  0.25500000920E-02 0.  1.
       -2    1    3    3    0  502 -0.11413886582E+03  0.22262220480E+03 -0.58822245862E+03  0.63921356962E+03  0.25500000920E-02 0. -1.
</event>
<event>
 5   0  0.5789905E-03  0.1092680E+04  0.7818609E-02  0.9212356E-01
       -1   -1    0    0    0  501  0.00000000000E+00  0.00000000000E+00  0.73022108680E+03  0.73022108682E+03  0.50400001928E-02 0.  1.
        1   -1    0    0  501    0  0.00000000000E+00  0.00000000000E+00 -0.40876321282E+03  0.40876321285E+03  0.50400001928E-02 0. -1.
    10030    2    1    2    0    0  0.00000000000E+00  0.00000000000E+00  0.32145787398E+03  0.11389842997E+04  0.10926802232E+04 0.  0.
        1    1    3    3  502    0  0.15965053064E+03  0.76727941825E+02  0.69945922643E+03  0.72153910390E+03  0.50400001928E-02 0.  1.
       -1    1    3    3    0  502 -0.15965053064E+03 -0.76727941825E+02 -0.37800135245E+03  0.41744519577E+03  0.50400001928E-02 0. -1.
</event>
<event>
 5   0  0.5854579E-03  0.9788746E+03  0.7818609E-02  0.9332023E-01
       -1   -1    0    0    0  501  0.00000000000E+00  0.00000000000E+00  0.19418669590E+03  0.19418669596E+03  0.50400001928E-02 0. -1.
        1   -1    0    0  501    0  0.00000000000E+00  0.00000000000E+00 -0.12336007669E+04  0.12336007669E+04  0.50400001928E-02 0.  1.
    10030    2    1    2    0    0  0.00000000000E+00  0.00000000000E+00 -0.10394140710E+04  0.14277874629E+04  0.97887457222E+03 0.  0.
        4    1    3    3  502    0  0.10710592695E+03 -0.45409929048E+03 -0.73540941720E+03  0.87092276868E+03  0.12699999809E+01 0. -1.
       -4    1    3    3    0  502 -0.10710592695E+03  0.45409929048E+03 -0.30400465381E+03  0.55686469420E+03  0.12699999809E+01 0.  1.
</event>
<event>
 5   0  0.9692981E-03  0.8593784E+03  0.7818609E-02  0.9477835E-01
       -2   -1    0    0    0  501  0.00000000000E+00  0.00000000000E+00  0.23480348946E+03  0.23480348947E+03  0.25500000920E-02 0. -1.
        2   -1    0    0  501    0  0.00000000000E+00  0.00000000000E+00 -0.78632898645E+03  0.78632898645E+03  0.25500000920E-02 0.  1.
    10030    2    1    2    0    0  0.00000000000E+00  0.00000000000E+00 -0.55152549699E+03  0.10211324759E+04  0.85937835647E+03 0.  0.
        5    1    3    3  502    0  0.21591968561E+03 -0.25202221840E+03 -0.60002812041E+03  0.68570572732E+03  0.46999998093E+01 0.  1.
       -5    1    3    3    0  502 -0.21591968561E+03  0.25202221840E+03  0.48502623427E+02  0.33542674860E+03  0.46999998093E+01 0. -1.
</event>
<event>
 5   0  0.9692981E-03  0.1097773E+04  0.7818609E-02  0.9207365E-01
        2   -1    0    0  501    0  0.00000000000E+00  0.00000000000E+00  0.52325921352E+03  0.52325921352E+03  0.25500000920E-02 0. -1.
       -2   -1    0    0    0  501  0.00000000000E+00  0.00000000000E+00 -0.57576921433E+03  0.57576921434E+03  0.25500000920E-02 0.  1.
    10030    2    1    2    0    0  0.00000000000E+00  0.00000000000E+00 -0.52510000816E+02  0.10990284279E+04  0.10977732849E+04 0.  0.
        5    1    3    3  502    0  0.27801893868E+01 -0.53162189471E+03 -0.16288406720E+03  0.55604215463E+03  0.46999998093E+01 0.  1.
       -5    1    3    3    0  502 -0.27801893868E+01  0.53162189471E+03  0.11037406638E+03  0.54298627323E+03  0.46999998093E+01 0. -1.
</event>
<event>
 5   0  0.5998641E-03  0.1103504E+04  0.7818609E-02  0.9201783E-01
        1   -1    0    0  501    0  0.00000000000E+00  0.00000000000E+00  0.63729167596E+03  0.63729167598E+03  0.50400001928E-02 0. -1.
       -1   -1    0    0    0  501  0.00000000000E+00  0.00000000000E+00 -0.47769391208E+03  0.47769391211E+03  0.50400001928E-02 0.  1.
    10030    2    1    2    0    0  0.00000000000E+00  0.00000000000E+00  0.15959776388E+03  0.11149855881E+04  0.11035041529E+04 0.  0.
        3    1    3    3  502    0 -0.20044811362E+03 -0.51181809631E+03  0.31413968455E+02  0.55056703278E+03  0.10100000352E+00 0. -1.
       -3    1    3    3    0  502  0.20044811362E+03  0.51181809631E+03  0.12818379542E+03  0.56441855531E+03  0.10100000352E+00 0.  1.
</event>
<event>
 5   0  0.5854579E-03  0.1001962E+04  0.7818609E-02  0.9306396E-01
       -1   -1    0    0    0  501  0.00000000000E+00  0.00000000000E+00  0.52920671364E+03  0.52920671366E+03  0.50400001928E-02 0.  1.
        1   -1    0    0  501    0  0.00000000000E+00  0.00000000000E+00 -0.47426056965E+03  0.47426056967E+03  0.50400001928E-02 0. -1.
    10030    2    1    2    0    0  0.00000000000E+00  0.00000000000E+00  0.54946143993E+02  0.10034672833E+04  0.10019618306E+04 0.  0.
        4    1    3    3  502    0  0.19696887577E+03 -0.25471841241E+03 -0.35690308969E+03  0.48068662970E+03  0.12699999809E+01 0. -1.
       -4    1    3    3    0  502 -0.19696887577E+03  0.25471841241E+03  0.41184923368E+03  0.52278065364E+03  0.12699999809E+01 0.  1.
</event>
<event>
 5   0  0.5958706E-03  0.1169467E+04  0.7818609E-02  0.9140010E-01
        1   -1    0    0  501    0  0.00000000000E+00  0.00000000000E+00  0.12057119242E+04  0.12057119242E+04  0.50400001928E-02 0.  1.
       -1   -1    0    0    0  501  0.00000000000E+00  0.00000000000E+00 -0.28357812124E+03  0.28357812128E+03  0.50400001928E-02 0. -1.
    10030    2    1    2    0    0  0.00000000000E+00  0.00000000000E+00  0.92213380294E+03  0.14892900455E+04  0.11694674382E+04 0.  0.
        2    1    3    3  502    0  0.39027642396E+03  0.27417257402E+03  0.30286581927E+02  0.47791585504E+03  0.25500000920E-02 0. -1.
       -2    1    3    3    0  502 -0.39027642396E+03 -0.27417257402E+03  0.89184722101E+03  0.10113741904E+04  0.25500000920E-02 0.  1.
</event>
<event>
 5   0  0.9925021E-03  0.9490006E+03  0.7818609E-02  0.9366319E-01
        2   -1    0    0  501    0  0.00000000000E+00  0.00000000000E+00  0.12512550146E+04  0.12512550146E+04  0.25500000920E-02 0.  1.
       -2   -1    0    0    0  501  0.00000000000E+00  0.00000000000E+00 -0.17993976252E+03  0.17993976254E+03  0.25500000920E-02 0. -1.
    10030    2    1    2    0    0  0.00000000000E+00  0.00000000000E+00  0.10713152520E+04  0.14311947771E+04  0.94900059050E+03 0.  0.
        4    1    3    3  502    0  0.19163613178E+03  0.29218103093E+02  0.11888105721E+04  0.12045124715E+04  0.12699999809E+01 0.  1.
       -4    1    3    3    0  502 -0.19163613178E+03 -0.29218103093E+02 -0.11749532010E+03  0.22668230566E+03  0.12699999809E+01 0. -1.
</event>
<event>
 5   0  0.5712664E-03  0.1109530E+04  0.7818609E-02  0.9195953E-01
        1   -1    0    0  501    0  0.00000000000E+00  0.00000000000E+00  0.94615286038E+03  0.94615286039E+03  0.50400001928E-02 0.  1.
       -1   -1    0    0    0  501  0.00000000000E+00  0.00000000000E+00 -0.32527950853E+03  0.32527950856E+03  0.50400001928E-02 0. -1.
    10030    2    1    2    0    0  0.00000000000E+00  0.00000000000E+00  0.62087335185E+03  0.12714323690E+04  0.11095298778E+04 0.  0.
        5    1    3    3  502    0  0.68334087727E+02  0.33098380216E+03  0.81454014238E+03  0.88188296184E+03  0.46999998093E+01 0.  1.
       -5    1    3    3    0  502 -0.68334087727E+02 -0.33098380216E+03 -0.19366679053E+03  0.38954940712E+03  0.46999998093E+01 0. -1.
</event>
<event>
 5   0  0.5998641E-03  0.1077915E+04  0.7818609E-02  0.9226988E-01
       -1   -1    0    0    0  501  0.00000000000E+00  0.00000000000E+00  0.27131277363E+03  0.27131277368E+03  0.50400001928E-02 0. -1.
        1   -1    0    0  501    0  0.00000000000E+00  0.00000000000E+00 -0.10706290992E+04  0.10706290992E+04  0.50400001928E-02 0.  1.
    10030    2    1    2    0    0  0.00000000000E+00  0.00000000000E+00 -0.79931632555E+03  0.13419418729E+04  0.10779153037E+04 0.  0.
        3    1    3    3  502    0 -0.27899489699E+03  0.42763174470E+03 -0.18486229222E+03  0.54302959303E+03  0.10100000352E+00 0. -1.
       -3    1    3    3    0  502  0.27899489699E+03 -0.42763174470E+03 -0.61445403333E+03  0.79891227985E+03  0.10100000352E+00 0.  1.
</event>
<event>
 5   0  0.1028016E-02  0.1083209E+04  0.7818609E-02  0.9221713E-01
       -2   -1    0    0    0  501  0.00000000000E+00  0.00000000000E+00  0.96268572690E+03  0.96268572691E+03  0.25500000920E-02 0. -1.
        2   -1    0    0  501    0  0.00000000000E+00  0.00000000000E+00 -0.30470549385E+03  0.30470549386E+03  0.25500000920E-02 0.  1.
    10030    2    1    2    0    0  0.00000000000E+00  0.00000000000E+00  0.65798023306E+03  0.12673912208E+04  0.10832093608E+04 0.  0.
        2    1    3    3  502    0 -0.42731829817E+03  0.11980950808E+03 -0.34249003914E+02  0.44511598539E+03  0.25500000920E-02 0.  1.
       -2    1    3    3    0  502  0.42731829817E+03 -0.11980950808E+03  0.69222923697E+03  0.82227523537E+03  0.25500000920E-02 0. -1.
</event>
<event>
 5   0  0.9692981E-03  0.1143812E+04  0.7818609E-02  0.9163511E-01
        2   -1    0    0  501    0  0.00000000000E+00  0.00000000000E+00  0.10537029570E+04  0.10537029570E+04  0.25500000920E-02 0.  1.
       -2   -1    0    0    0  501  0.00000000000E+00  0.00000000000E+00 -0.31040681381E+03  0.31040681382E+03  0.25500000920E-02 0. -1.
    10030    2    1    2    0    0  0.00000000000E+00  0.00000000000E+00  0.74329614315E+03  0.13641097708E+04  0.11438121832E+04 0.  0.
        5    1    3    3  502    0 -0.12345229970E+03 -0.49192298464E+03  0.68678735596E+03  0.85377260171E+03  0.46999998093E+01 0.  1.
       -5    1    3    3    0  502  0.12345229970E+03  0.49192298464E+03  0.56508787190E+02  0.51033716908E+03  0.46999998093E+01 0. -1.
</event>
<event>
 5   0  0.9719260E-03  0.1146129E+04  0.7818609E-02  0.9161363E-01
        2   -1    0    0  501    0  0.00000000000E+00  0.00000000000E+00  0.99853123038E+03  0.99853123038E+03  0.25500000920E-02 0.  1.
       -2   -1    0    0    0  501  0.00000000000E+00  0.00000000000E+00 -0.32888569813E+03  0.32888569814E+03  0.25500000920E-02 0. -1.
    10030    2    1    2    0    0  0.00000000000E+00  0.00000000000E+00  0.66964553225E+03  0.13274169285E+04  0.11461285108E+04 0.  0.
        3    1    3    3  502    0  0.21085420762E+03  0.48913092256E+03  0.57967214649E+03  0.78722827941E+03  0.10100000352E+00 0.  1.
       -3    1    3    3    0  502 -0.21085420762E+03 -0.48913092256E+03  0.89973385759E+02  0.54018864911E+03  0.10100000352E+00 0. -1.
</event>
<event>
 5   0  0.3949750E-03  0.1084329E+04  0.7818609E-02  0.9220602E-01
        4   -1    0    0  501    0  0.00000000000E+00  0.00000000000E+00  0.87513207541E+03  0.87513299693E+03  0.12699999809E+01 0.  1.
       -4   -1    0    0    0  501  0.00000000000E+00  0.00000000000E+00 -0.33588095721E+03  0.33588335820E+03  0.12699999809E+01 0. -1.
    10030    2    1    2    0    0  0.00000000000E+00  0.00000000000E+00  0.53925111820E+03  0.12110163551E+04  0.10843287527E+04 0.  0.
        1    1    3    3  502    0 -0.27845583999E+03  0.37819736494E+03  0.57214421978E+03  0.74021612379E+03  0.50400001928E-02 0. -1.
       -1    1    3    3    0  502  0.27845583999E+03 -0.37819736494E+03 -0.32893101579E+02  0.47080023134E+03  0.50400001928E-02 0.  1.
</event>
<event>
 5   0  0.9719260E-03  0.1094722E+04  0.7818609E-02  0.9210352E-01
        2   -1    0    0  501    0  0.00000000000E+00  0.00000000000E+00  0.23607687963E+04  0.23607687963E+04  0.25500000920E-02 0. -1.
       -2   -1    0    0    0  501  0.00000000000E+00  0.00000000000E+00 -0.12690949306E+03  0.12690949308E+03  0.25500000920E-02 0.  1.
    10030    2    1    2    0    0  0.00000000000E+00  0.00000000000E+00  0.22338593033E+04  0.24876782894E+04  0.10947218299E+04 0.  0.
        3    1    3    3  502    0  0.19787369652E+03 -0.14386719252E+03  0.42459390169E+01  0.24468307473E+03  0.10100000352E+00 0.  1.
       -3    1    3    3    0  502 -0.19787369652E+03  0.14386719252E+03  0.22296133643E+04  0.22429952147E+04  0.10100000352E+00 0. -1.
</event>
<event>
 5   0  0.5712664E-03  0.1092102E+04  0.7818609E-02  0.9212924E-01
        1   -1    0    0  501    0  0.00000000000E+00  0.00000000000E+00  0.10053969702E+04  0.10053969703E+04  0.50400001928E-02 0.  1.
       -1   -1    0    0    0  501  0.00000000000E+00  0.00000000000E+00 -0.29657107418E+03  0.29657107422E+03  0.50400001928E-02 0. -1.
    10030    2    1    2    0    0  0.00000000000E+00  0.00000000000E+00  0.70882589607E+03  0.13019680445E+04  0.10921019357E+04 0.  0.
        5    1    3    3  502    0  0.33944193160E+03  0.15655912500E+03  0.82891641566E+03  0.90931628090E+03  0.46999998093E+01 0.  1.
       -5    1    3    3    0  502 -0.33944193160E+03 -0.15655912500E+03 -0.12009051960E+03  0.39265176358E+03  0.46999998093E+01 0. -1.
</event>
<event>
 5   0  0.5998641E-03  0.1125367E+04  0.7818609E-02  0.9180815E-01
       -1   -1    0    0    0  501  0.00000000000E+00  0.00000000000E+00  0.54643741173E+03  0.54643741176E+03  0.50400001928E-02 0.  1.
        1   -1    0    0  501    0  0.00000000000E+00  0.00000000000E+00 -0.57941221776E+03  0.57941221778E+03  0.50400001928E-02 0. -1.
    10030    2    1    2    0    0  0.00000000000E+00  0.00000000000E+00 -0.32974806023E+02  0.11258496295E+04  0.11253666294E+04 0.  0.
        3    1    3    3  502    0 -0.56726964774E+02 -0.14992182427E+03  0.52311223967E+03  0.54712057850E+03  0.10100000352E+00 0.  1.
       -3    1    3    3    0  502  0.56726964774E+02  0.14992182427E+03 -0.55608704569E+03  0.57872905104E+03  0.10100000352E+00 0. -1.
</event>
<event>
 5   0  0.3949750E-03  0.1096684E+04  0.7818609E-02  0.9208429E-01
        3   -1    0    0  501    0  0.00000000000E+00  0.00000000000E+00  0.20391631885E+04  0.20391631910E+04  0.10100000352E+00 0.  1.
       -3   -1    0    0    0  501  0.00000000000E+00  0.00000000000E+00 -0.14745221574E+03  0.14745225033E+03  0.10100000352E+00 0. -1.
    10030    2    1    2    0    0  0.00000000000E+00  0.00000000000E+00  0.18917109728E+04  0.21866154413E+04  0.10966844048E+04 0.  0.
        1    1    3    3  502    0 -0.27531063627E+03 -0.17161092351E+03  0.64421893191E+02  0.33075132027E+03  0.50400001928E-02 0. -1.
       -1    1    3    3    0  502  0.27531063627E+03  0.17161092351E+03  0.18272890796E+04  0.18558641211E+04  0.50400001928E-02 0.  1.
</event>
<event>
 5   0  0.5854579E-03  0.1093608E+04  0.7818609E-02  0.9211444E-01
       -1   -1    0    0    0  501  0.00000000000E+00  0.00000000000E+00  0.62273193763E+03  0.62273193765E+03  0.50400001928E-02 0. -1.
        1   -1    0    0  501    0  0.00000000000E+00  0.00000000000E+00 -0.48013371131E+03  0.48013371133E+03  0.50400001928E-02 0.  1.
    10030    2    1    2    0    0  0.00000000000E+00  0.00000000000E+00  0.14259822632E+03  0.11028656490E+04  0.10936079670E+04 0.  0.
        4    1    3    3  502    0 -0.69139243611E+02  0.49554284089E+03  0.29373381969E+03  0.58019316774E+03  0.12699999809E+01 0. -1.
       -4    1    3    3    0  502  0.69139243611E+02 -0.49554284089E+03 -0.15113559336E+03  0.52267248124E+03  0.12699999809E+01 0.  1.
</event>
<event>
 5   0  0.9925021E-03  0.1086238E+04  0.7818609E-02  0.9218710E-01
       -2   -1    0    0    0  501  0.00000000000E+00  0.00000000000E+00  0.35196341901E+03  0.35196341902E+03  0.25500000920E-02 0.  1.
        2   -1    0    0  501    0  0.00000000000E+00  0.00000000000E+00 -0.83809287213E+03  0.83809287213E+03  0.25500000920E-02 0. -1.
    10030    2    1    2    0    0  0.00000000000E+00  0.00000000000E+00 -0.48612945312E+03  0.11900562911E+04  0.10862376033E+04 0.  0.
        4    1    3    3  502    0  0.46791010926E+03 -0.22855498908E+03 -0.74050390150E+02  0.52598700228E+03  0.12699999809E+01 0.  1.
       -4    1    3    3    0  502 -0.46791010926E+03  0.22855498908E+03 -0.41207906297E+03  0.66406928887E+03  0.12699999809E+01 0. -1.
</event>
<event>
 5   0  0.5854579E-03  0.1104334E+04  0.7818609E-02  0.9200978E-01
       -1   -1    0    0    0  501  0.00000000000E+00  0.00000000000E+00  0.30778373778E+03  0.30778373782E+03  0.50400001928E-02 0.  1.
        1   -1    0    0  501    0  0.00000000000E+00  0.00000000000E+00 -0.99059210230E+03  0.99059210231E+03  0.50400001928E-02 0. -1.
    10030    2    1    2    0    0  0.00000000000E+00  0.00000000000E+00 -0.68280836451E+03  0.12983758401E+04  0.11043335364E+04 0.  0.
        4    1    3    3  502    0 -0.36478266321E+03  0.22940213957E+03  0.64504936901E+02  0.43572265583E+03  0.12699999809E+01 0.  1.
       -4    1    3    3    0  502  0.36478266321E+03 -0.22940213957E+03 -0.74731330142E+03  0.86265318430E+03  0.12699999809E+01 0. -1.
</event>
<event>
 5   0  0.9692981E-03  0.1006338E+04  0.7818609E-02  0.9301620E-01
        2   -1    0    0  501    0  0.00000000000E+00  0.00000000000E+00  0.10456756592E+04  0.10456756593E+04  0.25500000920E-02 0.  1.
       -2   -1    0    0    0  501  0.00000000000E+00  0.00000000000E+00 -0.24212027086E+03  0.24212027088E+03  0.25500000920E-02 0. -1.
    10030    2    1    2    0    0  0.00000000000E+00  0.00000000000E+00  0.80355538839E+03  0.12877959301E+04  0.10063384597E+04 0.  0.
        5    1    3    3  502    0  0.26182884937E+02  0.50171297505E+03  0.36659844107E+03  0.62194691075E+03  0.46999998093E+01 0.  1.
       -5    1    3    3    0  502 -0.26182884937E+02 -0.50171297505E+03  0.43695694731E+03  0.66584901937E+03  0.46999998093E+01 0. -1.
</event>
<event>
 5   0  0.5998641E-03  0.1126496E+04  0.7818609E-02  0.9179745E-01
       -1   -1    0    0    0  501  0.00000000000E+00  0.00000000000E+00  0.61854316681E+03  0.61854316683E+03  0.50400001928E-02 0.  1.
        1   -1    0    0  501    0  0.00000000000E+00  0.00000000000E+00 -0.51289632883E+03  0.51289632886E+03  0.50400001928E-02 0. -1.
    10030    2    1    2    0    0  0.00000000000E+00  0.00000000000E+00  0.10564683798E+03  0.11314394957E+04  0.11264963728E+04 0.  0.
        3    1    3    3  502    0  0.12273825288E+03 -0.11949573456E+03  0.59174532742E+03  0.61604094996E+03  0.10100000352E+00 0.  1.
       -3    1    3    3    0  502 -0.12273825288E+03  0.11949573456E+03 -0.48609848944E+03  0.51539854573E+03  0.10100000352E+00 0. -1.
</event>
<event>
 5   0  0.1028016E-02  0.1096481E+04  0.7818609E-02  0.9208628E-01
        2   -1    0    0  501    0  0.00000000000E+00  0.00000000000E+00  0.88722164559E+03  0.88722164559E+03  0.25500000920E-02 0. -1.
       -2   -1    0    0    0  501  0.00000000000E+00  0.00000000000E+00 -0.33877407824E+03  0.33877407825E+03  0.25500000920E-02 0.  1.
    10030    2    1    2    0    0  0.00000000000E+00  0.00000000000E+00  0.54844756734E+03  0.12259957238E+04  0.10964810900E+04 0.  0.
        2    1    3    3  502    0  0.84884335217E+02 -0.14529997548E+02 -0.33116401698E+03  0.34217842910E+03  0.25500000920E-02 0.  1.
       -2    1    3    3    0  502 -0.84884335217E+02  0.14529997548E+02  0.87961158432E+03  0.88381729474E+03  0.25500000920E-02 0. -1.
</event>
<event>
 5   0  0.9925021E-03  0.9184543E+03  0.7818609E-02  0.9402802E-01
        2   -1    0    0  501    0  0.00000000000E+00  0.00000000000E+00  0.89890232927E+03  0.89890232928E+03  0.25500000920E-02 0.  1.
       -2   -1    0    0    0  501  0.00000000000E+00  0.00000000000E+00 -0.23460787243E+03  0.23460787244E+03  0.25500000920E-02 0. -1.
    10030    2    1    2    0    0  0.00000000000E+00  0.00000000000E+00  0.66429445684E+03  0.11335102017E+04  0.91845427323E+03 0.  0.
        4    1    3    3  502    0  0.27257781890E+03 -0.13406731310E+03  0.75719538493E+03  0.81585487414E+03  0.12699999809E+01 0.  1.
       -4    1    3    3    0  502 -0.27257781890E+03  0.13406731310E+03 -0.92900928089E+02  0.31765532758E+03  0.12699999809E+01 0. -1.
</event>
<event>
 5   0  0.1028016E-02  0.1066355E+04  0.7818609E-02  0.9238620E-01
        2   -1    0    0  501    0  0.00000000000E+00  0.00000000000E+00  0.94833660084E+03  0.94833660085E+03  0.25500000920E-02 0.  1.
       -2   -1    0    0    0  501  0.00000000000E+00  0.00000000000E+00 -0.29976493335E+03  0.29976493336E+03  0.25500000920E-02 0. -1.
    10030    2    1    2    0    0  0.00000000000E+00  0.00000000000E+00  0.64857166749E+03  0.12481015342E+04  0.10663546464E+04 0.  0.
        2    1    3    3  502    0 -0.47298413651E+03 -0.15697875728E+03  0.54611921539E+03  0.73932572054E+03  0.25500000920E-02 0. -1.
       -2    1    3    3    0  502  0.47298413651E+03  0.15697875728E+03  0.10245245211E+03  0.50877581367E+03  0.25500000920E-02 0.  1.
</event>
<event>
 5   0  0.5854579E-03  0.1186698E+04  0.7818609E-02  0.9124580E-01
       -1   -1    0    0    0  501  0.00000000000E+00  0.00000000000E+00  0.17451043995E+03  0.17451044002E+03  0.50400001928E-02 0.  1.
        1   -1    0    0  501    0  0.00000000000E+00  0.00000000000E+00 -0.20174331619E+04  0.20174331619E+04  0.50400001928E-02 0. -1.
    10030    2    1    2    0    0  0.00000000000E+00  0.00000000000E+00 -0.18429227219E+04  0.21919436019E+04  0.11866981903E+04 0.  0.
        4    1    3    3  502    0 -0.10447294032E+03  0.12277684069E+03  0.13328096434E+03  0.20917498948E+03  0.12699999809E+01 0.  1.
       -4    1    3    3    0  502  0.10447294032E+03 -0.12277684069E+03 -0.19762036863E+04  0.19827686124E+04  0.12699999809E+01 0. -1.
</event>
<event>
 5   0  0.9692981E-03  0.9296802E+03  0.7818609E-02  0.9389222E-01
       -2   -1    0    0    0  501  0.00000000000E+00  0.00000000000E+00  0.34929268098E+03  0.34929268099E+03  0.25500000920E-02 0. -1.
        2   -1    0    0  501    0  0.00000000000E+00  0.00000000000E+00 -0.61861112054E+03  0.61861112055E+03  0.25500000920E-02 0.  1.
    10030    2    1    2    0    0  0.00000000000E+00  0.00000000000E+00 -0.26931843956E+03  0.96790380153E+03  0.92968023919E+03 0.  0.
        5    1    3    3  502    0 -0.10786212277E+03 -0.31456463998E+03  0.20345326594E+03  0.38987237870E+03  0.46999998093E+01 0. -1.
       -5    1    3    3    0  502  0.10786212277E+03  0.31456463998E+03 -0.47277170550E+03  0.57803142283E+03  0.46999998093E+01 0.  1.
</event>
<event>
 5   0  0.3949750E-03  0.1101257E+04  0.7818609E-02  0.9203967E-01
        4   -1    0    0  501    0  0.00000000000E+00  0.00000000000E+00  0.10410850487E+04  0.10410858233E+04  0.12699999809E+01 0.  1.
       -4   -1    0    0    0  501  0.00000000000E+00  0.00000000000E+00 -0.29122467212E+03  0.29122744127E+03  0.12699999809E+01 0. -1.
    10030    2    1    2    0    0  0.00000000000E+00  0.00000000000E+00  0.74986037657E+03  0.13323132646E+04  0.11012574861E+04 0.  0.
        5    1    3    3  502    0 -0.29617204687E+03 -0.35795190489E+03  0.73243385183E+03  0.86736894391E+03  0.46999998093E+01 0.  1.
       -5    1    3    3    0  502  0.29617204687E+03  0.35795190489E+03  0.17426524742E+02  0.46494432067E+03  0.46999998093E+01 0. -1.
</event>
<event>
 5   0  0.5854579E-03  0.1107024E+04  0.7818609E-02  0.9198372E-01
       -1   -1    0    0    0  501  0.00000000000E+00  0.00000000000E+00  0.39205366761E+03  0.39205366764E+03  0.50400001928E-02 0. -1.
        1   -1    0    0  501    0  0.00000000000E+00  0.00000000000E+00 -0.78146366858E+03  0.78146366860E+03  0.50400001928E-02 0.  1.
    10030    2    1    2    0    0  0.00000000000E+00  0.00000000000E+00 -0.38941000098E+03  0.11735173362E+04  0.11070242949E+04 0.  0.
        4    1    3    3  502    0 -0.50102165523E+03  0.61054373252E+02  0.46150810046E+02  0.50683512671E+03  0.12699999809E+01 0. -1.
       -4    1    3    3    0  502  0.50102165523E+03 -0.61054373252E+02 -0.43556081102E+03  0.66668220953E+03  0.12699999809E+01 0.  1.
</event>
<event>
 5   0  0.5712664E-03  0.1109859E+04  0.7818609E-02  0.9195636E-01
        1   -1    0    0  501    0  0.00000000000E+00  0.00000000000E+00  0.41256961194E+03  0.41256961197E+03  0.50400001928E-02 0. -1.
       -1   -1    0    0    0  501  0.00000000000E+00  0.00000000000E+00 -0.74641156059E+03  0.74641156060E+03  0.50400001928E-02 0.  1.
    10030    2    1    2    0    0  0.00000000000E+00  0.00000000000E+00 -0.33384194865E+03  0.11589811726E+04  0.11098589603E+04 0.  0.
        5    1    3    3  502    0 -0.20161422531E+03 -0.49207433549E+03 -0.33249195927E+03  0.62718294020E+03  0.46999998093E+01 0.  1.
       -5    1    3    3    0  502  0.20161422531E+03  0.49207433549E+03 -0.13499893747E+01  0.53179823238E+03  0.46999998093E+01 0. -1.
</event>
<event>
 5   0  0.5958706E-03  0.9760766E+03  0.7818609E-02  0.9335180E-01
       -1   -1    0    0    0  501  0.00000000000E+00  0.00000000000E+00  0.66013155464E+02  0.66013155656E+02  0.50400001928E-02 0. -1.
        1   -1    0    0  501    0  0.00000000000E+00  0.00000000000E+00 -0.36080898202E+04  0.36080898202E+04  0.50400001928E-02 0.  1.
    10030    2    1    2    0    0  0.00000000000E+00  0.00000000000E+00 -0.35420766647E+04  0.36741029759E+04  0.97607662525E+03 0.  0.
        2    1    3    3  502    0 -0.92107470454E+02 -0.43934061181E+03 -0.10501518342E+04  0.11420695400E+04  0.25500000920E-02 0. -1.
       -2    1    3    3    0  502  0.92107470454E+02  0.43934061181E+03 -0.24919248305E+04  0.25320334359E+04  0.25500000920E-02 0.  1.
</event>
<event>
 5   0  0.1019384E-02  0.1075617E+04  0.7818609E-02  0.9229288E-01
       -2   -1    0    0    0  501  0.00000000000E+00  0.00000000000E+00  0.24931337284E+03  0.24931337285E+03  0.25500000920E-02 0. -1.
        2   -1    0    0  501    0  0.00000000000E+00  0.00000000000E+00 -0.11601386813E+04  0.11601386813E+04  0.25500000920E-02 0.  1.
    10030    2    1    2    0    0  0.00000000000E+00  0.00000000000E+00 -0.91082530848E+03  0.14094520542E+04  0.10756171951E+04 0.  0.
        1    1    3    3  502    0  0.33249898388E+03  0.18307513440E+03 -0.95467066074E+03  0.10273597956E+04  0.50400001928E-02 0.  1.
       -1    1    3    3    0  502 -0.33249898388E+03 -0.18307513440E+03  0.43845352257E+02  0.38209225857E+03  0.50400001928E-02 0. -1.
</event>
<event>
 5   0  0.5854579E-03  0.1193582E+04  0.7818609E-02  0.9118492E-01
       -1   -1    0    0    0  501  0.00000000000E+00  0.00000000000E+00  0.24350192197E+03  0.24350192202E+03  0.50400001928E-02 0.  1.
        1   -1    0    0  501    0  0.00000000000E+00  0.00000000000E+00 -0.14626569511E+04  0.14626569511E+04  0.50400001928E-02 0. -1.
    10030    2    1    2    0    0  0.00000000000E+00  0.00000000000E+00 -0.12191550291E+04  0.17061588731E+04  0.11935824711E+04 0.  0.
        4    1    3    3  502    0  0.50058001644E+03 -0.19028399570E+03 -0.98606652344E+03  0.11221038960E+04  0.12699999809E+01 0. -1.
       -4    1    3    3    0  502 -0.50058001644E+03  0.19028399570E+03 -0.23308850565E+03  0.58405497707E+03  0.12699999809E+01 0.  1.
</event>
<event>
 5   0  0.9719260E-03  0.1098193E+04  0.7818609E-02  0.9206955E-01
       -2   -1    0    0    0  501  0.00000000000E+00  0.00000000000E+00  0.23256055826E+03  0.23256055827E+03  0.25500000920E-02 0.  1.
        2   -1    0    0  501    0  0.00000000000E+00  0.00000000000E+00 -0.12964662988E+04  0.12964662988E+04  0.25500000920E-02 0. -1.
    10030    2    1    2    0    0  0.00000000000E+00  0.00000000000E+00 -0.10639057405E+04  0.15290268571E+04  0.10981929270E+04 0.  0.
        3    1    3    3  502    0  0.26018423024E+03 -0.35037352561E+03 -0.99592802597E+03  0.10873500284E+04  0.10100000352E+00 0. -1.
       -3    1    3    3    0  502 -0.26018423024E+03  0.35037352561E+03 -0.67977714557E+02  0.44167682868E+03  0.10100000352E+00 0.  1.
</event>
<event>
 5   0  0.1019384E-02  0.1094791E+04  0.7818609E-02  0.9210283E-01
        2   -1    0    0  501    0  0.00000000000E+00  0.00000000000E+00  0.49364326297E+03  0.49364326297E+03  0.25500000920E-02 0. -1.
       -2   -1    0    0    0  501  0.00000000000E+00  0.00000000000E+00 -0.60700112981E+03  0.60700112982E+03  0.25500000920E-02 0.  1.
    10030    2    1    2    0    0  0.00000000000E+00  0.00000000000E+00 -0.11335786685E+03  0.11006443928E+04  0.10947913378E+04 0.  0.
        1    1    3    3  502    0  0.46466399949E+03  0.21972881860E+03  0.13260572425E+03  0.53082733942E+03  0.50400001928E-02 0. -1.
       -1    1    3    3    0  502 -0.46466399949E+03 -0.21972881860E+03 -0.24596359110E+03  0.56981705337E+03  0.50400001928E-02 0.  1.
</event>
<event>
 5   0  0.1019384E-02  0.9042272E+03  0.7818609E-02  0.9420313E-01
        2   -1    0    0  501    0  0.00000000000E+00  0.00000000000E+00  0.23037865821E+03  0.23037865823E+03  0.25500000920E-02 0.  1.
       -2   -1    0    0    0  501  0.00000000000E+00  0.00000000000E+00 -0.88726413280E+03  0.88726413281E+03  0.25500000920E-02 0. -1.
    10030    2    1    2    0    0  0.00000000000E+00  0.00000000000E+00 -0.65688547459E+03  0.11176427910E+04  0.90422722898E+03 0.  0.
        1    1    3    3  502    0  0.28213637454E+03 -0.98981102590E+02  0.90727523292E+02  0.31245747874E+03  0.50400001928E-02 0.  1.
       -1    1    3    3    0  502 -0.28213637454E+03  0.98981102590E+02 -0.74761299788E+03  0.80518531230E+03  0.50400001928E-02 0. -1.
</event>
<event>
 5   0  0.9692981E-03  0.9776190E+03  0.7818609E-02  0.9333438E-01
        2   -1    0    0  501    0  0.00000000000E+00  0.00000000000E+00  0.12530915936E+04  0.12530915936E+04  0.25500000920E-02 0.  1.
       -2   -1    0    0    0  501  0.00000000000E+00  0.00000000000E+00 -0.19067617970E+03  0.19067617972E+03  0.25500000920E-02 0. -1.
    10030    2    1    2    0    0  0.00000000000E+00  0.00000000000E+00  0.10624154139E+04  0.14437677733E+04  0.97761898078E+03 0.  0.
        5    1    3    3  502    0 -0.21080450681E+03 -0.41043932106E+03  0.76940036882E+03  0.89716107467E+03  0.46999998093E+01 0.  1.
       -5    1    3    3    0  502  0.21080450681E+03  0.41043932106E+03  0.29301504507E+03  0.54660669864E+03  0.46999998093E+01 0. -1.
</event>
<event>
 5   0  0.5712664E-03  0.1176010E+04  0.7818609E-02  0.9134118E-01
        1   -1    0    0  501    0  0.00000000000E+00  0.00000000000E+00  0.99226903626E+03  0.99226903628E+03  0.50400001928E-02 0.  1.
       -1   -1    0    0    0  501  0.00000000000E+00  0.00000000000E+00 -0.34844343913E+03  0.34844343916E+03  0.50400001928E-02 0. -1.
    10030    2    1    2    0    0  0.00000000000E+00  0.00000000000E+00  0.64382559714E+03  0.13407124754E+04  0.11760095843E+04 0.  0.
        5    1    3    3  502    0  0.30320852983E+03 -0.98932122934E+00 -0.25241922171E+03  0.39455537610E+03  0.46999998093E+01 0. -1.
       -5    1    3    3    0  502 -0.30320852983E+03  0.98932122934E+00  0.89624481885E+03  0.94615709934E+03  0.46999998093E+01 0.  1.
</event>
<event>
 5   0  0.9719260E-03  0.1121803E+04  0.7818609E-02  0.9184197E-01
       -2   -1    0    0    0  501  0.00000000000E+00  0.00000000000E+00  0.12409772938E+04  0.12409772938E+04  0.25500000920E-02 0.  1.
        2   -1    0    0  501    0  0.00000000000E+00  0.00000000000E+00 -0.25351855330E+03  0.25351855332E+03  0.25500000920E-02 0. -1.
    10030    2    1    2    0    0  0.00000000000E+00  0.00000000000E+00  0.98745874045E+03  0.14944958471E+04  0.11218034912E+04 0.  0.
        3    1    3    3  502    0  0.29967834675E+03 -0.39511152008E+03  0.84289088510E+03  0.97794952794E+03  0.10100000352E+00 0.  1.
       -3    1    3    3    0  502 -0.29967834675E+03  0.39511152008E+03  0.14456785535E+03  0.51654631913E+03  0.10100000352E+00 0. -1.
</event>
<event>
 5   0  0.5958706E-03  0.1092927E+04  0.7818609E-02  0.9212113E-01
       -1   -1    0    0    0  501  0.00000000000E+00  0.00000000000E+00  0.61446739410E+03  0.61446739412E+03  0.50400001928E-02 0.  1.
        1   -1    0    0  501    0  0.00000000000E+00  0.00000000000E+00 -0.48598598062E+03  0.48598598065E+03  0.50400001928E-02 0. -1.
    10030    2    1    2    0    0  0.00000000000E+00  0.00000000000E+00  0.12848141348E+03  0.11004533748E+04  0.10929273336E+04 0.  0.
        2    1    3    3  502    0  0.29883296248E+03  0.45430273531E+03  0.97345432284E+01  0.54386292033E+03  0.25500000920E-02 0.  1.
       -2    1    3    3    0  502 -0.29883296248E+03 -0.45430273531E+03  0.11874687025E+03  0.55659045444E+03  0.25500000920E-02 0. -1.
</event>
<event>
 5   0  0.5789905E-03  0.1070047E+04  0.7818609E-02  0.9234888E-01
       -1   -1    0    0    0  501  0.00000000000E+00  0.00000000000E+00  0.51556335360E+03  0.51556335362E+03  0.50400001928E-02 0. -1.
        1   -1    0    0  501    0  0.00000000000E+00  0.00000000000E+00 -0.55521786499E+03  0.55521786502E+03  0.50400001928E-02 0.  1.
    10030    2    1    2    0    0  0.00000000000E+00  0.00000000000E+00 -0.39654511394E+02  0.10707812186E+04  0.10700466989E+04 0.  0.
        1    1    3    3  502    0  0.17208788575E+03  0.36146303222E+03  0.33535331065E+03  0.52223711767E+03  0.50400001928E-02 0. -1.
       -1    1    3    3    0  502 -0.17208788575E+03 -0.36146303222E+03 -0.37500782205E+03  0.54854410097E+03  0.50400001928E-02 0.  1.
</event>
<event>
 5   0  0.5789905E-03  0.1026915E+04  0.7818609E-02  0.9279508E-01
       -1   -1    0    0    0  501  0.00000000000E+00  0.00000000000E+00  0.14741623440E+03  0.14741623448E+03  0.50400001928E-02 0.  1.
        1   -1    0    0  501    0  0.00000000000E+00  0.00000000000E+00 -0.17883947630E+04  0.17883947630E+04  0.50400001928E-02 0. -1.
    10030    2    1    2    0    0  0.00000000000E+00  0.00000000000E+00 -0.16409785286E+04  0.19358109975E+04  0.10269146443E+04 0.  0.
        1    1    3    3  502    0  0.13220950353E+03 -0.44390592627E+02 -0.17520072581E+04  0.17575492340E+04  0.50400001928E-02 0. -1.
       -1    1    3    3    0  502 -0.13220950353E+03  0.44390592627E+02  0.11102872946E+03  0.17826176350E+03  0.50400001928E-02 0.  1.
</event>
<event>
 5   0  0.5998641E-03  0.1070155E+04  0.7818609E-02  0.9234779E-01
       -1   -1    0    0    0  501  0.00000000000E+00  0.00000000000E+00  0.37907804526E+03  0.37907804530E+03  0.50400001928E-02 0. -1.
        1   -1    0    0  501    0  0.00000000000E+00  0.00000000000E+00 -0.75527506728E+03  0.75527506730E+03  0.50400001928E-02 0.  1.
    10030    2    1    2    0    0  0.00000000000E+00  0.00000000000E+00 -0.37619702202E+03  0.11343531126E+04  0.10701554956E+04 0.  0.
        3    1    3    3  502    0 -0.12049106048E+03 -0.25467954551E+03  0.29408399665E+03  0.40726548325E+03  0.10100000352E+00 0. -1.
       -3    1    3    3    0  502  0.12049106048E+03  0.25467954551E+03 -0.67028101867E+03  0.72708762935E+03  0.10100000352E+00 0.  1.
</event>
<event>
 5   0  0.1028016E-02  0.1043460E+04  0.7818609E-02  0.9262122E-01
        2   -1    0    0  501    0  0.00000000000E+00  0.00000000000E+00  0.22382816974E+04  0.22382816974E+04  0.25500000920E-02 0.  1.
       -2   -1    0    0    0  501  0.00000000000E+00  0.00000000000E+00 -0.12161214759E+03  0.12161214762E+03  0.25500000920E-02 0. -1.
    10030    2    1    2    0    0  0.00000000000E+00  0.00000000000E+00  0.21166695498E+04  0.23598938450E+04  0.10434600983E+04 0.  0.
        2    1    3    3  502    0 -0.39966971830E+03 -0.46919149723E+02  0.30734267031E+03  0.50635640347E+03  0.25500000920E-02 0. -1.
       -2    1    3    3    0  502  0.39966971830E+03  0.46919149723E+02  0.18093268795E+04  0.18535374415E+04  0.25500000920E-02 0.  1.
</event>
<event>
 5   0  0.5712664E-03  0.1088563E+04  0.7818609E-02  0.9216412E-01
        1   -1    0    0  501    0  0.00000000000E+00  0.00000000000E+00  0.39408975246E+03  0.39408975249E+03  0.50400001928E-02 0.  1.
       -1   -1    0    0    0  501  0.00000000000E+00  0.00000000000E+00 -0.75171228810E+03  0.75171228812E+03  0.50400001928E-02 0. -1.
    10030    2    1    2    0    0  0.00000000000E+00  0.00000000000E+00 -0.35762253564E+03  0.11458020406E+04  0.10885625560E+04 0.  0.
        5    1    3    3  502    0 -0.39958140452E+03 -0.50037763797E+02  0.20657047503E+03  0.45261741879E+03  0.46999998093E+01 0.  1.
       -5    1    3    3    0  502  0.39958140452E+03  0.50037763797E+02 -0.56419301067E+03  0.69318462182E+03  0.46999998093E+01 0. -1.
</event>
<event>
 5   0  0.9692981E-03  0.1095386E+04  0.7818609E-02  0.9209701E-01
       -2   -1    0    0    0  501  0.00000000000E+00  0.00000000000E+00  0.71025529878E+03  0.71025529879E+03  0.25500000920E-02 0.  1.
        2   -1    0    0  501    0  0.00000000000E+00  0.00000000000E+00 -0.42233784599E+03  0.42233784600E+03  0.25500000920E-02 0. -1.
    10030    2    1    2    0    0  0.00000000000E+00  0.00000000000E+00  0.28791745279E+03  0.11325931448E+04  0.10953861292E+04 0.  0.
        5    1    3    3  502    0  0.30412347495E+03  0.45214475220E+03  0.20077649001E+03  0.58074026371E+03  0.46999998093E+01 0.  1.
       -5    1    3    3    0  502 -0.30412347495E+03 -0.45214475220E+03  0.87140962785E+02  0.55185288107E+03  0.46999998093E+01 0. -1.
</event>
<event>
 5   0  0.3949750E-03  0.1096042E+04  0.7818609E-02  0.9209059E-01
        4   -1    0    0  501    0  0.00000000000E+00  0.00000000000E+00  0.41565455083E+03  0.41565649102E+03  0.12699999809E+01 0.  1.
       -4   -1    0    0    0  501  0.00000000000E+00  0.00000000000E+00 -0.72253522438E+03  0.72253634052E+03  0.12699999809E+01 0. -1.
    10030    2    1    2    0    0  0.00000000000E+00  0.00000000000E+00 -0.30688067355E+03  0.11381928315E+04  0.10960415932E+04 0.  0.
        4    1    3    3  502    0 -0.41024909401E+02  0.50115973280E+03  0.72841143919E+02  0.50808617982E+03  0.12699999809E+01 0.  1.
       -4    1    3    3    0  502  0.41024909401E+02 -0.50115973280E+03 -0.37972181747E+03  0.63010665172E+03  0.12699999809E+01 0. -1.
</event>
<event>
 5   0  0.9692981E-03  0.1088881E+04  0.7818609E-02  0.9216097E-01
        2   -1    0    0  501    0  0.00000000000E+00  0.00000000000E+00  0.29602098560E+03  0.29602098561E+03  0.25500000920E-02 0.  1.
       -2   -1    0    0    0  501  0.00000000000E+00  0.00000000000E+00 -0.10013334580E+04  0.10013334580E+04  0.25500000920E-02 0. -1.
    10030    2    1    2    0    0  0.00000000000E+00  0.00000000000E+00 -0.70531247244E+03  0.12973544437E+04  0.10888814760E+04 0.  0.
        5    1    3    3  502    0  0.49986078977E+03 -0.19553123637E+03 -0.46120536242E+03  0.70769043364E+03  0.46999998093E+01 0.  1.
       -5    1    3    3    0  502 -0.49986078977E+03  0.19553123637E+03 -0.24410711002E+03  0.58966401001E+03  0.46999998093E+01 0. -1.
</event>
<event>
 5   0  0.5789905E-03  0.1142819E+04  0.7818609E-02  0.9164434E-01
       -1   -1    0    0    0  501  0.00000000000E+00  0.00000000000E+00  0.21281093765E+03  0.21281093770E+03  0.50400001928E-02 0.  1.
        1   -1    0    0  501    0  0.00000000000E+00  0.00000000000E+00 -0.15342681729E+04  0.15342681729E+04  0.50400001928E-02 0. -1.
    10030    2    1    2    0    0  0.00000000000E+00  0.00000000000E+00 -0.13214572353E+04  0.17470791107E+04  0.11428194058E+04 0.  0.
        1    1    3    3  502    0  0.18034686153E+03 -0.14562375210E+03  0.13770618804E+03  0.26961873431E+03  0.50400001928E-02 0.  1.
       -1    1    3    3    0  502 -0.18034686153E+03  0.14562375210E+03 -0.14591634233E+04  0.14774603763E+04  0.50400001928E-02 0. -1.
</event>
<event>
 5   0  0.5958706E-03  0.1086885E+04  0.7818609E-02  0.9218070E-01
       -1   -1    0    0    0  501  0.00000000000E+00  0.00000000000E+00  0.49031130670E+03  0.49031130673E+03  0.50400001928E-02 0. -1.
        1   -1    0    0  501    0  0.00000000000E+00  0.00000000000E+00 -0.60233110383E+03  0.60233110385E+03  0.50400001928E-02 0.  1.
    10030    2    1    2    0    0  0.00000000000E+00  0.00000000000E+00 -0.11201979712E+03  0.10926424106E+04  0.10868849996E+04 0.  0.
        2    1    3    3  502    0 -0.16194694916E+02 -0.53857036672E+03 -0.12716223391E+03  0.55361587928E+03  0.25500000920E-02 0. -1.
       -2    1    3    3    0  502  0.16194694916E+02  0.53857036672E+03  0.15142436784E+02  0.53902653130E+03  0.25500000920E-02 0.  1.
</event>
<event>
 5   0  0.1019384E-02  0.1225968E+04  0.7818609E-02  0.9090425E-01
       -2   -1    0    0    0  501  0.00000000000E+00  0.00000000000E+00  0.30705981458E+03  0.30705981459E+03  0.25500000920E-02 0.  1.
        2   -1    0    0  501    0  0.00000000000E+00  0.00000000000E+00 -0.12237016914E+04  0.12237016914E+04  0.25500000920E-02 0. -1.
    10030    2    1    2    0    0  0.00000000000E+00  0.00000000000E+00 -0.91664187685E+03  0.15307615060E+04  0.12259683756E+04 0.  0.
        1    1    3    3  502    0 -0.21064491076E+03 -0.42775413220E+03  0.22686894763E+02  0.47734638499E+03  0.50400001928E-02 0.  1.
       -1    1    3    3    0  502  0.21064491076E+03  0.42775413220E+03 -0.93932877162E+03  0.10534151210E+04  0.50400001928E-02 0. -1.
</event>
<event>
 5   0  0.1019384E-02  0.1090252E+04  0.7818609E-02  0.9214745E-01
       -2   -1    0    0    0  501  0.00000000000E+00  0.00000000000E+00  0.23279902059E+03  0.23279902061E+03  0.25500000920E-02 0. -1.
        2   -1    0    0  501    0  0.00000000000E+00  0.00000000000E+00 -0.12764764316E+04  0.12764764316E+04  0.25500000920E-02 0.  1.
    10030    2    1    2    0    0  0.00000000000E+00  0.00000000000E+00 -0.10436774110E+04  0.15092754522E+04  0.10902521967E+04 0.  0.
        1    1    3    3  502    0 -0.49305438981E+03  0.19267260482E+03 -0.70199981693E+03  0.87922073847E+03  0.50400001928E-02 0. -1.
       -1    1    3    3    0  502  0.49305438981E+03 -0.19267260482E+03 -0.34167759403E+03  0.63005471369E+03  0.50400001928E-02 0.  1.
</event>
<event>
 5   0  0.5712664E-03  0.1097860E+04  0.7818609E-02  0.9207280E-01
       -1   -1    0    0    0  501  0.00000000000E+00  0.00000000000E+00  0.69330413260E+03  0.69330413262E+03  0.50400001928E-02 0.  1.
        1   -1    0    0  501    0  0.00000000000E+00  0.00000000000E+00 -0.43462049825E+03  0.43462049827E+03  0.50400001928E-02 0. -1.
    10030    2    1    2    0    0  0.00000000000E+00  0.00000000000E+00  0.25868363435E+03  0.11279246309E+04  0.10978600777E+04 0.  0.
        5    1    3    3  502    0 -0.27208112496E+02  0.16435470648E+03 -0.40800035761E+03  0.44072568876E+03  0.46999998093E+01 0. -1.
       -5    1    3    3    0  502  0.27208112496E+02 -0.16435470648E+03  0.66668399196E+03  0.68719894213E+03  0.46999998093E+01 0.  1.
</event>
<event>
 5   0  0.5958706E-03  0.1099496E+04  0.7818609E-02  0.9205684E-01
       -1   -1    0    0    0  501  0.00000000000E+00  0.00000000000E+00  0.61303806936E+03  0.61303806938E+03  0.50400001928E-02 0.  1.
        1   -1    0    0  501    0  0.00000000000E+00  0.00000000000E+00 -0.49299167604E+03  0.49299167607E+03  0.50400001928E-02 0. -1.
    10030    2    1    2    0    0  0.00000000000E+00  0.00000000000E+00  0.12004639331E+03  0.11060297454E+04  0.10994956395E+04 0.  0.
        2    1    3    3  502    0  0.51204684047E+03  0.33714346307E+02 -0.13836454392E+03  0.53148223960E+03  0.25500000920E-02 0.  1.
       -2    1    3    3    0  502 -0.51204684047E+03 -0.33714346307E+02  0.25841093723E+03  0.57454750585E+03  0.25500000920E-02 0. -1.
</event>
<event>
 5   0  0.9692981E-03  0.1071472E+04  0.7818609E-02  0.9233452E-01
        2   -1    0    0  501    0  0.00000000000E+00  0.00000000000E+00  0.15552492120E+04  0.15552492120E+04  0.25500000920E-02 0.  1.
       -2   -1    0    0    0  501  0.00000000000E+00  0.00000000000E+00 -0.18454479958E+03  0.18454479960E+03  0.25500000920E-02 0. -1.
    10030    2    1    2    0    0  0.00000000000E+00  0.00000000000E+00  0.13707044124E+04  0.17397940116E+04  0.10714721726E+04 0.  0.
        5    1    3    3  502    0 -0.39816609282E+03  0.22545604462E+02  0.10454609358E+03  0.41230633930E+03  0.46999998093E+01 0. -1.
       -5    1    3    3    0  502  0.39816609282E+03 -0.22545604462E+02  0.12661583188E+04  0.13274876723E+04  0.46999998093E+01 0.  1.
</event>
<event>
 5   0  0.5712664E-03  0.1091530E+04  0.7818609E-02  0.9213487E-01
       -1   -1    0    0    0  501  0.00000000000E+00  0.00000000000E+00  0.99181494399E+03  0.99181494400E+03  0.50400001928E-02 0.  1.
        1   -1    0    0  501    0  0.00000000000E+00  0.00000000000E+00 -0.30031756558E+03  0.30031756562E+03  0.50400001928E-02 0. -1.
    10030    2    1    2    0    0  0.00000000000E+00  0.00000000000E+00  0.69149737840E+03  0.12921325096E+04  0.10915300262E+04 0.  0.
        5    1    3    3  502    0 -0.38399980963E+03 -0.37138969194E+03  0.47784084062E+03  0.71675666445E+03  0.46999998093E+01 0.  1.
       -5    1    3    3    0  502  0.38399980963E+03  0.37138969194E+03  0.21365653778E+03  0.57537584517E+03  0.46999998093E+01 0. -1.
</event>
<event>
 5   0  0.5958706E-03  0.1123449E+04  0.7818609E-02  0.9182634E-01
       -1   -1    0    0    0  501  0.00000000000E+00  0.00000000000E+00  0.18985470675E+03  0.18985470682E+03  0.50400001928E-02 0. -1.
        1   -1    0    0  501    0  0.00000000000E+00  0.00000000000E+00 -0.16619777485E+04  0.16619777485E+04  0.50400001928E-02 0.  1.
    10030    2    1    2    0    0  0.00000000000E+00  0.00000000000E+00 -0.14721230417E+04  0.18518324553E+04  0.11234487939E+04 0.  0.
        2    1    3    3  502    0  0.43091184675E+03 -0.12577371849E+03 -0.12926810602E+04  0.13684035850E+04  0.25500000920E-02 0.  1.
       -2    1    3    3    0  502 -0.43091184675E+03  0.12577371849E+03 -0.17944198152E+03  0.48342887033E+03  0.25500000920E-02 0. -1.
</event>
<event>
 5   0  0.9692981E-03  0.5544316E+03  0.7818609E-02  0.1000473E+00
       -2   -1    0    0    0  501  0.00000000000E+00  0.00000000000E+00  0.27546603065E+03  0.27546603066E+03  0.25500000920E-02 0. -1.
        2   -1    0    0  501    0  0.00000000000E+00  0.00000000000E+00 -0.27897668167E+03  0.27897668168E+03  0.25500000920E-02 0.  1.
    10030    2    1    2    0    0  0.00000000000E+00  0.00000000000E+00 -0.35106510190E+01  0.55444271234E+03  0.55443159776E+03 0.  0.
        5    1    3    3  502    0  0.28417270200E+02  0.12278026798E+03 -0.24862860715E+03  0.27878452206E+03  0.46999998093E+01 0.  1.
       -5    1    3    3    0  502 -0.28417270200E+02 -0.12278026798E+03  0.24511795613E+03  0.27565819028E+03  0.46999998093E+01 0. -1.
</event>
<event>
 5   0  0.1019384E-02  0.1077903E+04  0.7818609E-02  0.9227001E-01
        2   -1    0    0  501    0  0.00000000000E+00  0.00000000000E+00  0.10093281176E+04  0.10093281176E+04  0.25500000920E-02 0.  1.
       -2   -1    0    0    0  501  0.00000000000E+00  0.00000000000E+00 -0.28778420378E+03  0.28778420379E+03  0.25500000920E-02 0. -1.
    10030    2    1    2    0    0  0.00000000000E+00  0.00000000000E+00  0.72154391384E+03  0.12971123214E+04  0.10779029431E+04 0.  0.
        1    1    3    3  502    0 -0.39258948800E+03  0.36558853428E+03  0.29839151868E+03  0.61385583074E+03  0.50400001928E-02 0.  1.
       -1    1    3    3    0  502  0.39258948800E+03 -0.36558853428E+03  0.42315239516E+03  0.68325649068E+03  0.50400001928E-02 0. -1.
</event>
<event>
 5   0  0.5958706E-03  0.1087161E+04  0.7818609E-02  0.9217797E-01
        1   -1    0    0  501    0  0.00000000000E+00  0.00000000000E+00  0.11487531474E+04  0.11487531474E+04  0.50400001928E-02 0.  1.
       -1   -1    0    0    0  501  0.00000000000E+00  0.00000000000E+00 -0.25721763945E+03  0.25721763950E+03  0.50400001928E-02 0. -1.
    10030    2    1    2    0    0  0.00000000000E+00  0.00000000000E+00  0.89153550797E+03  0.14059707869E+04  0.10871606559E+04 0.  0.
        2    1    3    3  502    0 -0.41161719802E+03  0.19698606742E+03  0.63771874141E+02  0.46075924343E+03  0.25500000920E-02 0. -1.
       -2    1    3    3    0  502  0.41161719802E+03 -0.19698606742E+03  0.82776363383E+03  0.94521154350E+03  0.25500000920E-02 0.  1.
</event>
<event>
 5   0  0.5712664E-03  0.1109182E+04  0.7818609E-02  0.9196288E-01
       -1   -1    0    0    0  501  0.00000000000E+00  0.00000000000E+00  0.66105670514E+03  0.66105670516E+03  0.50400001928E-02 0. -1.
        1   -1    0    0  501    0  0.00000000000E+00  0.00000000000E+00 -0.46527217467E+03  0.46527217470E+03  0.50400001928E-02 0.  1.
    10030    2    1    2    0    0  0.00000000000E+00  0.00000000000E+00  0.19578453047E+03  0.11263288799E+04  0.11091822047E+04 0.  0.
        5    1    3    3  502    0 -0.16111213804E+03  0.43340944372E+03 -0.21302447488E+03  0.50911922359E+03  0.46999998093E+01 0.  1.
       -5    1    3    3    0  502  0.16111213804E+03 -0.43340944372E+03  0.40880900535E+03  0.61720965627E+03  0.46999998093E+01 0. -1.
</event>
<event>
 5   0  0.5998641E-03  0.1116101E+04  0.7818609E-02  0.9189639E-01
       -1   -1    0    0    0  501  0.00000000000E+00  0.00000000000E+00  0.43293758876E+03  0.43293758879E+03  0.50400001928E-02 0. -1.
        1   -1    0    0  501    0  0.00000000000E+00  0.00000000000E+00 -0.71931918056E+03  0.71931918057E+03  0.50400001928E-02 0.  1.
    10030    2    1    2    0    0  0.00000000000E+00  0.00000000000E+00 -0.28638159179E+03  0.11522567694E+04  0.11161009123E+04 0.  0.
        3    1    3    3  502    0 -0.62570993465E+02  0.31984208140E+03  0.32448087157E+03  0.45989339251E+03  0.10100000352E+00 0. -1.
       -3    1    3    3    0  502  0.62570993465E+02 -0.31984208140E+03 -0.61086246336E+03  0.69236337685E+03  0.10100000352E+00 0.  1.
</event>
<event>
 5   0  0.5998641E-03  0.1081663E+04  0.7818609E-02  0.9223251E-01
        1   -1    0    0  501    0  0.00000000000E+00  0.00000000000E+00  0.51996988704E+03  0.51996988706E+03  0.50400001928E-02 0.  1.
       -1   -1    0    0    0  501  0.00000000000E+00  0.00000000000E+00 -0.56253028881E+03  0.56253028883E+03  0.50400001928E-02 0. -1.
    10030    2    1    2    0    0  0.00000000000E+00  0.00000000000E+00 -0.42560401770E+02  0.10825001759E+04  0.10816631837E+04 0.  0.
        3    1    3    3  502    0  0.38412942498E+03 -0.38049106850E+03 -0.34326092538E+02  0.54176301016E+03  0.10100000352E+00 0.  1.
       -3    1    3    3    0  502 -0.38412942498E+03  0.38049106850E+03 -0.82343092327E+01  0.54073716573E+03  0.10100000352E+00 0. -1.
</event>
<event>
 5   0  0.5712664E-03  0.1090234E+04  0.7818609E-02  0.9214763E-01
        1   -1    0    0  501    0  0.00000000000E+00  0.00000000000E+00  0.85565960239E+03  0.85565960240E+03  0.50400001928E-02 0. -1.
       -1   -1    0    0    0  501  0.00000000000E+00  0.00000000000E+00 -0.34727916534E+03  0.34727916537E+03  0.50400001928E-02 0.  1.
    10030    2    1    2    0    0  0.00000000000E+00  0.00000000000E+00  0.50838043705E+03  0.12029387678E+04  0.10902343832E+04 0.  0.
        5    1    3    3  502    0  0.52555738819E+02 -0.48834588043E+02 -0.34202489444E+03  0.34949970112E+03  0.46999998093E+01 0.  1.
       -5    1    3    3    0  502 -0.52555738819E+02  0.48834588043E+02  0.85040533148E+03  0.85343906665E+03  0.46999998093E+01 0. -1.
</event>
<event>
 5   0  0.5854579E-03  0.1091044E+04  0.7818609E-02  0.9213965E-01
       -1   -1    0    0    0  501  0.00000000000E+00  0.00000000000E+00  0.20858315521E+03  0.20858315527E+03  0.50400001928E-02 0. -1.
        1   -1    0    0  501    0  0.00000000000E+00  0.00000000000E+00 -0.14267412010E+04  0.14267412010E+04  0.50400001928E-02 0.  1.
    10030    2    1    2    0    0  0.00000000000E+00  0.00000000000E+00 -0.12181580457E+04  0.16353243562E+04  0.10910438697E+04 0.  0.
        4    1    3    3  502    0 -0.42508166383E+02  0.10337405110E+03 -0.14093920129E+04  0.14138177384E+04  0.12699999809E+01 0.  1.
       -4    1    3    3    0  502  0.42508166383E+02 -0.10337405110E+03  0.19123396713E+03  0.22150661781E+03  0.12699999809E+01 0. -1.
</event>
<event>
 5   0  0.5998641E-03  0.1168769E+04  0.7818609E-02  0.9140641E-01
       -1   -1    0    0    0  501  0.00000000000E+00  0.00000000000E+00  0.22112140851E+03  0.22112140856E+03  0.50400001928E-02 0.  1.
        1   -1    0    0  501    0  0.00000000000E+00  0.00000000000E+00 -0.15444245226E+04  0.15444245226E+04  0.50400001928E-02 0. -1.
    10030    2    1    2    0    0  0.00000000000E+00  0.00000000000E+00 -0.13233031141E+04  0.17655459312E+04  0.11687691403E+04 0.  0.
        3    1    3    3  502    0  0.20314823766E+02  0.15847103134E+03 -0.15107924894E+04  0.15192168101E+04  0.10100000352E+00 0. -1.
       -3    1    3    3    0  502 -0.20314823766E+02 -0.15847103134E+03  0.18748937531E+03  0.24632912108E+03  0.10100000352E+00 0.  1.
</event>
<event>
 5   0  0.9925021E-03  0.1103938E+04  0.7818609E-02  0.9201362E-01
       -2   -1    0    0    0  501  0.00000000000E+00  0.00000000000E+00  0.21486079277E+03  0.21486079278E+03  0.25500000920E-02 0. -1.
        2   -1    0    0  501    0  0.00000000000E+00  0.00000000000E+00 -0.14179870422E+04  0.14179870422E+04  0.25500000920E-02 0.  1.
    10030    2    1    2    0    0  0.00000000000E+00  0.00000000000E+00 -0.12031262494E+04  0.16328478350E+04  0.11039380780E+04 0.  0.
        4    1    3    3  502    0  0.30341157022E+03  0.14988650821E+03 -0.12465367071E+04  0.12916578190E+04  0.12699999809E+01 0.  1.
       -4    1    3    3    0  502 -0.30341157022E+03 -0.14988650821E+03  0.43410457670E+02  0.34119001600E+03  0.12699999809E+01 0. -1.
</event>
<event>
 5   0  0.5998641E-03  0.1091546E+04  0.7818609E-02  0.9213471E-01
        1   -1    0    0  501    0  0.00000000000E+00  0.00000000000E+00  0.12339384195E+04  0.12339384195E+04  0.50400001928E-02 0. -1.
       -1   -1    0    0    0  501  0.00000000000E+00  0.00000000000E+00 -0.24139629051E+03  0.24139629056E+03  0.50400001928E-02 0.  1.
    10030    2    1    2    0    0  0.00000000000E+00  0.00000000000E+00  0.99254212898E+03  0.14753347101E+04  0.10915459811E+04 0.  0.
        3    1    3    3  502    0 -0.16033932566E+02 -0.76374681743E+02  0.12263583292E+04  0.12288388588E+04  0.10100000352E+00 0. -1.
       -3    1    3    3    0  502  0.16033932566E+02  0.76374681743E+02 -0.23381620024E+03  0.24649585128E+03  0.10100000352E+00 0.  1.
</event>
<event>
 5   0  0.9719260E-03  0.1086793E+04  0.7818609E-02  0.9218160E-01
       -2   -1    0    0    0  501  0.00000000000E+00  0.00000000000E+00  0.21563116968E+03  0.21563116969E+03  0.25500000920E-02 0.  1.
        2   -1    0    0  501    0  0.00000000000E+00  0.00000000000E+00 -0.13693747947E+04  0.13693747947E+04  0.25500000920E-02 0. -1.
    10030    2    1    2    0    0  0.00000000000E+00  0.00000000000E+00 -0.11537436250E+04  0.15850059644E+04  0.10867932438E+04 0.  0.
        3    1    3    3  502    0  0.32473767619E+03 -0.37223921148E+03 -0.90707952058E+03  0.10328648778E+04  0.10100000352E+00 0. -1.
       -3    1    3    3    0  502 -0.32473767619E+03  0.37223921148E+03 -0.24666410443E+03  0.55214108660E+03  0.10100000352E+00 0.  1.
</event>
<event>
 5   0  0.9719260E-03  0.1141625E+04  0.7818609E-02  0.9165545E-01
       -2   -1    0    0    0  501  0.00000000000E+00  0.00000000000E+00  0.51774472451E+03  0.51774472452E+03  0.25500000920E-02 0. -1.
        2   -1    0    0  501    0  0.00000000000E+00  0.00000000000E+00 -0.62931938776E+03  0.62931938777E+03  0.25500000920E-02 0.  1.
    10030    2    1    2    0    0  0.00000000000E+00  0.00000000000E+00 -0.11157466325E+03  0.11470641123E+04  0.11416247948E+04 0.  0.
        3    1    3    3  502    0 -0.43128757754E+03  0.34758707844E+03 -0.19428832410E+03  0.58700401593E+03  0.10100000352E+00 0.  1.
       -3    1    3    3    0  502  0.43128757754E+03 -0.34758707844E+03  0.82713660851E+02  0.56006009635E+03  0.10100000352E+00 0. -1.
</event>
<event>
 5   0  0.9692981E-03  0.1104098E+04  0.7818609E-02  0.9201207E-01
        2   -1    0    0  501    0  0.00000000000E+00  0.00000000000E+00  0.15355676968E+04  0.15355676968E+04  0.25500000920E-02 0. -1.
       -2   -1    0    0    0  501  0.00000000000E+00  0.00000000000E+00 -0.19846600667E+03  0.19846600669E+03  0.25500000920E-02 0.  1.
    10030    2    1    2    0    0  0.00000000000E+00  0.00000000000E+00  0.13371016901E+04  0.17340337035E+04  0.11040978014E+04 0.  0.
        5    1    3    3  502    0 -0.39908353033E+03 -0.37543885108E+03  0.77406874375E+03  0.94838099155E+03  0.46999998093E+01 0. -1.
       -5    1    3    3    0  502  0.39908353033E+03  0.37543885108E+03  0.56303294638E+03  0.78565271195E+03  0.46999998093E+01 0.  1.
</event>
<event>
 5   0  0.9692981E-03  0.1093584E+04  0.7818609E-02  0.9211468E-01
        2   -1    0    0  501    0  0.00000000000E+00  0.00000000000E+00  0.49204858450E+03  0.49204858450E+03  0.25500000920E-02 0.  1.
       -2   -1    0    0    0  501  0.00000000000E+00  0.00000000000E+00 -0.60762642101E+03  0.60762642102E+03  0.25500000920E-02 0. -1.
    10030    2    1    2    0    0  0.00000000000E+00  0.00000000000E+00 -0.11557783652E+03  0.10996750055E+04  0.10935844190E+04 0.  0.
        5    1    3    3  502    0  0.88619886123E+02  0.53457068371E+03  0.15695641795E+02  0.54211414229E+03  0.46999998093E+01 0. -1.
       -5    1    3    3    0  502 -0.88619886123E+02 -0.53457068371E+03 -0.13127347831E+03  0.55756086323E+03  0.46999998093E+01 0.  1.
</event>
<event>
 5   0  0.5712664E-03  0.1090857E+04  0.7818609E-02  0.9214150E-01
        1   -1    0    0  501    0  0.00000000000E+00  0.00000000000E+00  0.57356094301E+03  0.57356094304E+03  0.50400001928E-02 0.  1.
       -1   -1    0    0    0  501  0.00000000000E+00  0.00000000000E+00 -0.51867561958E+03  0.51867561961E+03  0.50400001928E-02 0. -1.
    10030    2    1    2    0    0  0.00000000000E+00  0.00000000000E+00  0.54885323432E+02  0.10922365626E+04  0.10908566863E+04 0.  0.
        5    1    3    3  502    0 -0.87028513215E+02  0.23614835829E+03  0.51192452632E+03  0.57046368848E+03  0.46999998093E+01 0.  1.
       -5    1    3    3    0  502  0.87028513215E+02 -0.23614835829E+03 -0.45703920289E+03  0.52177287416E+03  0.46999998093E+01 0. -1.
</event>
<event>
 5   0  0.5958706E-03  0.1125509E+04  0.7818609E-02  0.9180680E-01
        1   -1    0    0  501    0  0.00000000000E+00  0.00000000000E+00  0.66413277032E+03  0.66413277034E+03  0.50400001928E-02 0. -1.
       -1   -1    0    0    0  501  0.00000000000E+00  0.00000000000E+00 -0.47685127858E+03  0.47685127861E+03  0.50400001928E-02 0.  1.
    10030    2    1    2    0    0  0.00000000000E+00  0.00000000000E+00  0.18728149173E+03  0.11409840489E+04  0.11255088817E+04 0.  0.
        2    1    3    3  502    0  0.71945286988E+02  0.82371747308E+02 -0.46597406647E+03  0.47863666773E+03  0.25500000920E-02 0.  1.
       -2    1    3    3    0  502 -0.71945286988E+02 -0.82371747308E+02  0.65325555820E+03  0.66234738121E+03  0.25500000920E-02 0. -1.
</event>
<event>
 5   0  0.9692981E-03  0.1086175E+04  0.7818609E-02  0.9218772E-01
        2   -1    0    0  501    0  0.00000000000E+00  0.00000000000E+00  0.47373106909E+03  0.47373106910E+03  0.25500000920E-02 0.  1.
       -2   -1    0    0    0  501  0.00000000000E+00  0.00000000000E+00 -0.62259813269E+03  0.62259813270E+03  0.25500000920E-02 0. -1.
    10030    2    1    2    0    0  0.00000000000E+00  0.00000000000E+00 -0.14886706360E+03  0.10963292018E+04  0.10861750854E+04 0.  0.
        5    1    3    3  502    0 -0.24117870920E+03 -0.11646609229E+03  0.40241337234E+03  0.48341507285E+03  0.46999998093E+01 0.  1.
       -5    1    3    3    0  502  0.24117870920E+03  0.11646609229E+03 -0.55128043594E+03  0.61291412895E+03  0.46999998093E+01 0. -1.
</event>
<event>
 5   0  0.1019384E-02  0.1103528E+04  0.7818609E-02  0.9201760E-01
       -2   -1    0    0    0  501  0.00000000000E+00  0.00000000000E+00  0.11766388070E+03  0.11766388073E+03  0.25500000920E-02 0. -1.
        2   -1    0    0  501    0  0.00000000000E+00  0.00000000000E+00 -0.25874014591E+04  0.25874014591E+04  0.25500000920E-02 0.  1.
    10030    2    1    2    0    0  0.00000000000E+00  0.00000000000E+00 -0.24697375784E+04  0.27050653398E+04  0.11035283352E+04 0.  0.
        1    1    3    3  502    0 -0.13743127856E+03  0.53110636549E+03 -0.13795231911E+04  0.14846028299E+04  0.50400001928E-02 0. -1.
       -1    1    3    3    0  502  0.13743127856E+03 -0.53110636549E+03 -0.10902143873E+04  0.12204625099E+04  0.50400001928E-02 0.  1.
</event>
<event>
 5   0  0.5958706E-03  0.1158725E+04  0.7818609E-02  0.9149772E-01
       -1   -1    0    0    0  501  0.00000000000E+00  0.00000000000E+00  0.47799177837E+03  0.47799177839E+03  0.50400001928E-02 0. -1.
        1   -1    0    0  501    0  0.00000000000E+00  0.00000000000E+00 -0.70223096156E+03  0.70223096158E+03  0.50400001928E-02 0.  1.
    10030    2    1    2    0    0  0.00000000000E+00  0.00000000000E+00 -0.22423918319E+03  0.11802227400E+04  0.11587245163E+04 0.  0.
        2    1    3    3  502    0 -0.12170032899E+03 -0.89323880505E+02 -0.68184602317E+03  0.69835787747E+03  0.25500000920E-02 0.  1.
       -2    1    3    3    0  502  0.12170032899E+03  0.89323880505E+02  0.45760683998E+03  0.48186486250E+03  0.25500000920E-02 0. -1.
</event>
<event>
 5   0  0.1019384E-02  0.1152750E+04  0.7818609E-02  0.9155250E-01
       -2   -1    0    0    0  501  0.00000000000E+00  0.00000000000E+00  0.24169065039E+03  0.24169065041E+03  0.25500000920E-02 0.  1.
        2   -1    0    0  501    0  0.00000000000E+00  0.00000000000E+00 -0.13745185600E+04  0.13745185600E+04  0.25500000920E-02 0. -1.
    10030    2    1    2    0    0  0.00000000000E+00  0.00000000000E+00 -0.11328279096E+04  0.16162092104E+04  0.11527502501E+04 0.  0.
        1    1    3    3  502    0 -0.35073789864E+03 -0.66678131675E+02  0.67994930682E+02  0.36343686854E+03  0.50400001928E-02 0.  1.
       -1    1    3    3    0  502  0.35073789864E+03  0.66678131675E+02 -0.12008228403E+04  0.12527723419E+04  0.50400001928E-02 0. -1.
</event>
<event>
 5   0  0.5854579E-03  0.1144711E+04  0.7818609E-02  0.9162677E-01
       -1   -1    0    0    0  501  0.00000000000E+00  0.00000000000E+00  0.26096230859E+03  0.26096230863E+03  0.50400001928E-02 0.  1.
        1   -1    0    0  501    0  0.00000000000E+00  0.00000000000E+00 -0.12553185841E+04  0.12553185841E+04  0.50400001928E-02 0. -1.
    10030    2    1    2    0    0  0.00000000000E+00  0.00000000000E+00 -0.99435627550E+03  0.15162808927E+04  0.11447110304E+04 0.  0.
        4    1    3    3  502    0  0.28995848184E+03 -0.47763437804E+03 -0.33291366517E+03  0.65041805143E+03  0.12699999809E+01 0.  1.
       -4    1    3    3    0  502 -0.28995848184E+03  0.47763437804E+03 -0.66144261033E+03  0.86586284130E+03  0.12699999809E+01 0. -1.
</event>
<event>
 5   0  0.3949750E-03  0.1118130E+04  0.7818609E-02  0.9187699E-01
       -3   -1    0    0    0  501  0.00000000000E+00  0.00000000000E+00  0.28941028650E+03  0.28941030412E+03  0.10100000352E+00 0. -1.
        3   -1    0    0  501    0  0.00000000000E+00  0.00000000000E+00 -0.10799676455E+04  0.10799676502E+04  0.10100000352E+00 0.  1.
    10030    2    1    2    0    0  0.00000000000E+00  0.00000000000E+00 -0.79055735896E+03  0.13693779543E+04  0.11181301552E+04 0.  0.
        1    1    3    3  502    0 -0.51192644190E+03  0.17876491443E+03 -0.56198321039E+03  0.78092938563E+03  0.50400001928E-02 0.  1.
       -1    1    3    3    0  502  0.51192644190E+03 -0.17876491443E+03 -0.22857414856E+03  0.58844856867E+03  0.50400001928E-02 0. -1.
</event>
<event>
 5   0  0.9719260E-03  0.1076158E+04  0.7818609E-02  0.9228747E-01
        2   -1    0    0  501    0  0.00000000000E+00  0.00000000000E+00  0.99614215233E+03  0.99614215233E+03  0.25500000920E-02 0. -1.
       -2   -1    0    0    0  501  0.00000000000E+00  0.00000000000E+00 -0.29065022580E+03  0.29065022581E+03  0.25500000920E-02 0.  1.
    10030    2    1    2    0    0  0.00000000000E+00  0.00000000000E+00  0.70549192653E+03  0.12867923781E+04  0.10761578723E+04 0.  0.
        3    1    3    3  502    0  0.10041127563E+03  0.13313459442E+03  0.96446549615E+03  0.97877522852E+03  0.10100000352E+00 0. -1.
       -3    1    3    3    0  502 -0.10041127563E+03 -0.13313459442E+03 -0.25897356962E+03  0.30801714963E+03  0.10100000352E+00 0.  1.
</event>
<event>
 5   0  0.5854579E-03  0.1092300E+04  0.7818609E-02  0.9212729E-01
       -1   -1    0    0    0  501  0.00000000000E+00  0.00000000000E+00  0.37337524587E+03  0.37337524590E+03  0.50400001928E-02 0. -1.
        1   -1    0    0  501    0  0.00000000000E+00  0.00000000000E+00 -0.79887439346E+03  0.79887439348E+03  0.50400001928E-02 0.  1.
    10030    2    1    2    0    0  0.00000000000E+00  0.00000000000E+00 -0.42549914759E+03  0.11722496394E+04  0.10923001842E+04 0.  0.
        4    1    3    3  502    0 -0.37163005664E+03 -0.37326435402E+03 -0.36768816513E+03  0.64236389738E+03  0.12699999809E+01 0.  1.
       -4    1    3    3    0  502  0.37163005664E+03  0.37326435402E+03 -0.57810982461E+02  0.52988574200E+03  0.12699999809E+01 0. -1.
</event>
<event>
 5   0  0.9719260E-03  0.1117798E+04  0.7818609E-02  0.9188016E-01
       -2   -1    0    0    0  501  0.00000000000E+00  0.00000000000E+00  0.17448179935E+03  0.17448179937E+03  0.25500000920E-02 0. -1.
        2   -1    0    0  501    0  0.00000000000E+00  0.00000000000E+00 -0.17902627836E+04  0.17902627836E+04  0.25500000920E-02 0.  1.
    10030    2    1    2    0    0  0.00000000000E+00  0.00000000000E+00 -0.16157809842E+04  0.19647445830E+04  0.11177983214E+04 0.  0.
        3    1    3    3  502    0 -0.30082397651E+03 -0.43222530580E+03 -0.47880069141E+03  0.71173302025E+03  0.10100000352E+00 0. -1.
       -3    1    3    3    0  502  0.30082397651E+03  0.43222530580E+03 -0.11369802928E+04  0.12530115627E+04  0.10100000352E+00 0.  1.
</event>
<event>
 5   0  0.9925021E-03  0.1131115E+04  0.7818609E-02  0.9175385E-01
       -2   -1    0    0    0  501  0.00000000000E+00  0.00000000000E+00  0.24355376140E+03  0.24355376141E+03  0.25500000920E-02 0.  1.
        2   -1    0    0  501    0  0.00000000000E+00  0.00000000000E+00 -0.13132842049E+04  0.13132842049E+04  0.25500000920E-02 0. -1.
    10030    2    1    2    0    0  0.00000000000E+00  0.00000000000E+00 -0.10697304435E+04  0.15568379663E+04  0.11311150391E+04 0.  0.
        4    1    3    3  502    0 -0.44183969700E+03 -0.10174002632E+03 -0.10001538166E+04  0.10981268691E+04  0.12699999809E+01 0. -1.
       -4    1    3    3    0  502  0.44183969700E+03  0.10174002632E+03 -0.69576626868E+02  0.45871109722E+03  0.12699999809E+01 0.  1.
</event>
<event>
 5   0  0.1028016E-02  0.1236827E+04  0.7818609E-02  0.9081219E-01
       -2   -1    0    0    0  501  0.00000000000E+00  0.00000000000E+00  0.62770941358E+03  0.62770941359E+03  0.25500000920E-02 0. -1.
        2   -1    0    0  501    0  0.00000000000E+00  0.00000000000E+00 -0.60925554066E+03  0.60925554067E+03  0.25500000920E-02 0.  1.
    10030    2    1    2    0    0  0.00000000000E+00  0.00000000000E+00  0.18453872921E+02  0.12369649543E+04  0.12368272930E+04 0.  0.
        2    1    3    3  502    0 -0.20628738480E+03 -0.48226058925E+03 -0.31838497582E+03  0.61359494286E+03  0.25500000920E-02 0.  1.
       -2    1    3    3    0  502  0.20628738480E+03  0.48226058925E+03  0.33683884874E+03  0.62337001139E+03  0.25500000920E-02 0. -1.
</event>
<event>
 5   0  0.1028016E-02  0.9598324E+03  0.7818609E-02  0.9353731E-01
        2   -1    0    0  501    0  0.00000000000E+00  0.00000000000E+00  0.38716020377E+03  0.38716020378E+03  0.25500000920E-02 0. -1.
       -2   -1    0    0    0  501  0.00000000000E+00  0.00000000000E+00 -0.59489472078E+03  0.59489472078E+03  0.25500000920E-02 0.  1.
    10030    2    1    2    0    0  0.00000000000E+00  0.00000000000E+00 -0.20773451701E+03  0.98205492456E+03  0.95983240480E+03 0.  0.
        2    1    3    3  502    0  0.17291116050E+03 -0.26949595370E+03 -0.46962563513E+03  0.56839649512E+03  0.25500000920E-02 0.  1.
       -2    1    3    3    0  502 -0.17291116050E+03  0.26949595370E+03  0.26189111813E+03  0.41365842944E+03  0.25500000920E-02 0. -1.
</event>
<event>
 5   0  0.5958706E-03  0.1097431E+04  0.7818609E-02  0.9207700E-01
        1   -1    0    0  501    0  0.00000000000E+00  0.00000000000E+00  0.11432821566E+04  0.11432821566E+04  0.50400001928E-02 0. -1.
       -1   -1    0    0    0  501  0.00000000000E+00  0.00000000000E+00 -0.26335451020E+03  0.26335451025E+03  0.50400001928E-02 0.  1.
    10030    2    1    2    0    0  0.00000000000E+00  0.00000000000E+00  0.87992764644E+03  0.14066366669E+04  0.10974306583E+04 0.  0.
        2    1    3    3  502    0  0.22124930501E+03 -0.33143776534E+03 -0.43524884547E+02  0.40086988268E+03  0.25500000920E-02 0.  1.
       -2    1    3    3    0  502 -0.22124930501E+03  0.33143776534E+03  0.92345253098E+03  0.10057667842E+04  0.25500000920E-02 0. -1.
</event>
<event>
 5   0  0.1028016E-02  0.1059998E+04  0.7818609E-02  0.9245082E-01
        2   -1    0    0  501    0  0.00000000000E+00  0.00000000000E+00  0.79413405724E+03  0.79413405724E+03  0.25500000920E-02 0. -1.
       -2   -1    0    0    0  501  0.00000000000E+00  0.00000000000E+00 -0.35371712805E+03  0.35371712806E+03  0.25500000920E-02 0.  1.
    10030    2    1    2    0    0  0.00000000000E+00  0.00000000000E+00  0.44041692919E+03  0.11478511853E+04  0.10599977699E+04 0.  0.
        2    1    3    3  502    0  0.11443925713E+03  0.29523096986E+03 -0.24003642912E+03  0.39733506824E+03  0.25500000920E-02 0.  1.
       -2    1    3    3    0  502 -0.11443925713E+03 -0.29523096986E+03  0.68045335831E+03  0.75051611707E+03  0.25500000920E-02 0. -1.
</event>
<event>
 5   0  0.9692981E-03  0.1094766E+04  0.7818609E-02  0.9210308E-01
        2   -1    0    0  501    0  0.00000000000E+00  0.00000000000E+00  0.12841019497E+04  0.12841019497E+04  0.25500000920E-02 0. -1.
       -2   -1    0    0    0  501  0.00000000000E+00  0.00000000000E+00 -0.23333678930E+03  0.23333678932E+03  0.25500000920E-02 0.  1.
    10030    2    1    2    0    0  0.00000000000E+00  0.00000000000E+00  0.10507651604E+04  0.15174387390E+04  0.10947661414E+04 0.  0.
        5    1    3    3  502    0  0.48919523022E+03  0.24004552329E+03  0.45372977576E+03  0.70910269069E+03  0.46999998093E+01 0.  1.
       -5    1    3    3    0  502 -0.48919523022E+03 -0.24004552329E+03  0.59703538462E+03  0.80833604832E+03  0.46999998093E+01 0. -1.
</event>
<event>
 5   0  0.9692981E-03  0.1083599E+04  0.7818609E-02  0.9221326E-01
        2   -1    0    0  501    0  0.00000000000E+00  0.00000000000E+00  0.10851975587E+04  0.10851975587E+04  0.25500000920E-02 0.  1.
       -2   -1    0    0    0  501  0.00000000000E+00  0.00000000000E+00 -0.27050085780E+03  0.27050085781E+03  0.25500000920E-02 0. -1.
    10030    2    1    2    0    0  0.00000000000E+00  0.00000000000E+00  0.81469670085E+03  0.13556984165E+04  0.10835993180E+04 0.  0.
        5    1    3    3  502    0 -0.11505533195E+02 -0.31615433010E+03  0.95760615166E+03  0.10085224685E+04  0.46999998093E+01 0.  1.
       -5    1    3    3    0  502  0.11505533195E+02  0.31615433010E+03 -0.14290945081E+03  0.34717594799E+03  0.46999998093E+01 0. -1.
</event>
<event>
 5   0  0.9719260E-03  0.1097772E+04  0.7818609E-02  0.9207366E-01
        2   -1    0    0  501    0  0.00000000000E+00  0.00000000000E+00  0.27633421406E+03  0.27633421407E+03  0.25500000920E-02 0.  1.
       -2   -1    0    0    0  501  0.00000000000E+00  0.00000000000E+00 -0.10902596194E+04  0.10902596194E+04  0.25500000920E-02 0. -1.
    10030    2    1    2    0    0  0.00000000000E+00  0.00000000000E+00 -0.81392540538E+03  0.13665938335E+04  0.10977723536E+04 0.  0.
        3    1    3    3  502    0 -0.15683977197E+03  0.36575387514E+02  0.24626029760E+03  0.29424584520E+03  0.10100000352E+00 0.  1.
       -3    1    3    3    0  502  0.15683977197E+03 -0.36575387514E+02 -0.10601857030E+04  0.10723479883E+04  0.10100000352E+00 0. -1.
</event>
<event>
 5   0  0.5712664E-03  0.1074125E+04  0.7818609E-02  0.9230785E-01
        1   -1    0    0  501    0  0.00000000000E+00  0.00000000000E+00  0.65223500131E+03  0.65223500133E+03  0.50400001928E-02 0.  1.
       -1   -1    0    0    0  501  0.00000000000E+00  0.00000000000E+00 -0.44222710884E+03  0.44222710887E+03  0.50400001928E-02 0. -1.
    10030    2    1    2    0    0  0.00000000000E+00  0.00000000000E+00  0.21000789247E+03  0.10944621102E+04  0.10741247580E+04 0.  0.
        5    1    3    3  502    0 -0.43078984191E+03 -0.27982356297E+03  0.26459903254E+03  0.57785452521E+03  0.46999998093E+01 0. -1.
       -5    1    3    3    0  502  0.43078984191E+03  0.27982356297E+03 -0.54591140065E+02  0.51660758498E+03  0.46999998093E+01 0.  1.
</event>
<event>
 5   0  0.5789905E-03  0.1089734E+04  0.7818609E-02  0.9215256E-01
       -1   -1    0    0    0  501  0.00000000000E+00  0.00000000000E+00  0.70300304130E+03  0.70300304132E+03  0.50400001928E-02 0.  1.
        1   -1    0    0  501    0  0.00000000000E+00  0.00000000000E+00 -0.42230275124E+03  0.42230275127E+03  0.50400001928E-02 0. -1.
    10030    2    1    2    0    0  0.00000000000E+00  0.00000000000E+00  0.28070029006E+03  0.11253057926E+04  0.10897341300E+04 0.  0.
        1    1    3    3  502    0  0.49795748819E+03  0.16151319428E+03 -0.15684655637E+02  0.52373101915E+03  0.50400001928E-02 0.  1.
       -1    1    3    3    0  502 -0.49795748819E+03 -0.16151319428E+03  0.29638494570E+03  0.60157477344E+03  0.50400001928E-02 0. -1.
</event>
<event>
 5   0  0.9719260E-03  0.6982149E+03  0.7818609E-02  0.9720290E-01
       -2   -1    0    0    0  501  0.00000000000E+00  0.00000000000E+00  0.21725489466E+03  0.21725489468E+03  0.25500000920E-02 0.  1.
        2   -1    0    0  501    0  0.00000000000E+00  0.00000000000E+00 -0.56098173252E+03  0.56098173252E+03  0.25500000920E-02 0. -1.
    10030    2    1    2    0    0  0.00000000000E+00  0.00000000000E+00 -0.34372683785E+03  0.77823662720E+03  0.69821494460E+03 0.  0.
        3    1    3    3  502    0  0.79557107395E+02  0.26380128641E+03  0.67078078640E+02  0.28358408080E+03  0.10100000352E+00 0.  1.
       -3    1    3    3    0  502 -0.79557107395E+02 -0.26380128641E+03 -0.41080491649E+03  0.49465254641E+03  0.10100000352E+00 0. -1.
</event>
<event>
 5   0  0.3949750E-03  0.1059778E+04  0.7818609E-02  0.9245306E-01
       -4   -1    0    0    0  501  0.00000000000E+00  0.00000000000E+00  0.27596178196E+03  0.27596470426E+03  0.12699999809E+01 0.  1.
        4   -1    0    0  501    0  0.00000000000E+00  0.00000000000E+00 -0.10174604326E+04  0.10174612252E+04  0.12699999809E+01 0. -1.
    10030    2    1    2    0    0  0.00000000000E+00  0.00000000000E+00 -0.74149865067E+03  0.12934259295E+04  0.10597784609E+04 0.  0.
        2    1    3    3  502    0  0.26320998420E+03  0.38705265184E+03 -0.67389099281E+03  0.82049882466E+03  0.25500000920E-02 0. -1.
       -2    1    3    3    0  502 -0.26320998420E+03 -0.38705265184E+03 -0.67607657859E+02  0.47292710483E+03  0.25500000920E-02 0.  1.
</event>
<event>
 5   0  0.9925021E-03  0.1097892E+04  0.7818609E-02  0.9207249E-01
        2   -1    0    0  501    0  0.00000000000E+00  0.00000000000E+00  0.16860109827E+04  0.16860109827E+04  0.25500000920E-02 0. -1.
       -2   -1    0    0    0  501  0.00000000000E+00  0.00000000000E+00 -0.17873043605E+03  0.17873043607E+03  0.25500000920E-02 0.  1.
    10030    2    1    2    0    0  0.00000000000E+00  0.00000000000E+00  0.15072805467E+04  0.18647414188E+04  0.10978915760E+04 0.  0.
        4    1    3    3  502    0 -0.26912778934E+03  0.47411634311E+03  0.64456972124E+03  0.84420839384E+03  0.12699999809E+01 0.  1.
       -4    1    3    3    0  502  0.26912778934E+03 -0.47411634311E+03  0.86271082546E+03  0.10205330250E+04  0.12699999809E+01 0. -1.
</event>
<event>
 5   0  0.3949750E-03  0.1057038E+04  0.7818609E-02  0.9248108E-01
       -3   -1    0    0    0  501  0.00000000000E+00  0.00000000000E+00  0.31854635832E+03  0.31854637434E+03  0.10100000352E+00 0.  1.
        3   -1    0    0  501    0  0.00000000000E+00  0.00000000000E+00 -0.87689670534E+03  0.87689671116E+03  0.10100000352E+00 0. -1.
    10030    2    1    2    0    0  0.00000000000E+00  0.00000000000E+00 -0.55835034702E+03  0.11954430855E+04  0.10570378710E+04 0.  0.
        4    1    3    3  502    0 -0.71718888793E+02 -0.36470760330E+03  0.14575531959E+03  0.39925112524E+03  0.12699999809E+01 0.  1.
       -4    1    3    3    0  502  0.71718888793E+02  0.36470760330E+03 -0.70410566661E+03  0.79619196025E+03  0.12699999809E+01 0. -1.
</event>
<event>
 5   0  0.5854579E-03  0.1048367E+04  0.7818609E-02  0.9257032E-01
       -1   -1    0    0    0  501  0.00000000000E+00  0.00000000000E+00  0.42550340027E+03  0.42550340030E+03  0.50400001928E-02 0. -1.
        1   -1    0    0  501    0  0.00000000000E+00  0.00000000000E+00 -0.64574836060E+03  0.64574836062E+03  0.50400001928E-02 0.  1.
    10030    2    1    2    0    0  0.00000000000E+00  0.00000000000E+00 -0.22024496033E+03  0.10712517609E+04  0.10483665832E+04 0.  0.
        4    1    3    3  502    0  0.24274416503E+03  0.18430121719E+03 -0.54589987073E+03  0.62521992137E+03  0.12699999809E+01 0.  1.
       -4    1    3    3    0  502 -0.24274416503E+03 -0.18430121719E+03  0.32565491040E+03  0.44603183954E+03  0.12699999809E+01 0. -1.
</event>
<event>
 5   0  0.9925021E-03  0.1098073E+04  0.7818609E-02  0.9207072E-01
       -2   -1    0    0    0  501  0.00000000000E+00  0.00000000000E+00  0.33119122843E+03  0.33119122844E+03  0.25500000920E-02 0.  1.
        2   -1    0    0  501    0  0.00000000000E+00  0.00000000000E+00 -0.91017167309E+03  0.91017167310E+03  0.25500000920E-02 0. -1.
    10030    2    1    2    0    0  0.00000000000E+00  0.00000000000E+00 -0.57898044466E+03  0.12413629015E+04  0.10980726287E+04 0.  0.
        4    1    3    3  502    0  0.47742121315E+02  0.14187538029E+03  0.30767454850E+03  0.34215957443E+03  0.12699999809E+01 0.  1.
       -4    1    3    3    0  502 -0.47742121315E+02 -0.14187538029E+03 -0.88665499316E+03  0.89920332711E+03  0.12699999809E+01 0. -1.
</event>
<event>
 5   0  0.1019384E-02  0.1195476E+04  0.7818609E-02  0.9116825E-01
        2   -1    0    0  501    0  0.00000000000E+00  0.00000000000E+00  0.10432952546E+04  0.10432952546E+04  0.25500000920E-02 0.  1.
       -2   -1    0    0    0  501  0.00000000000E+00  0.00000000000E+00 -0.34246391284E+03  0.34246391285E+03  0.25500000920E-02 0. -1.
    10030    2    1    2    0    0  0.00000000000E+00  0.00000000000E+00  0.70083134174E+03  0.13857591674E+04  0.11954764325E+04 0.  0.
        1    1    3    3  502    0 -0.38529457516E+03 -0.16076204166E+03  0.84628348038E+03  0.94365887527E+03  0.50400001928E-02 0.  1.
       -1    1    3    3    0  502  0.38529457516E+03  0.16076204166E+03 -0.14545213864E+03  0.44210029218E+03  0.50400001928E-02 0. -1.
</event>
<event>
 5   0  0.1028016E-02  0.1097055E+04  0.7818609E-02  0.9208067E-01
       -2   -1    0    0    0  501  0.00000000000E+00  0.00000000000E+00  0.36768732656E+03  0.36768732657E+03  0.25500000920E-02 0.  1.
        2   -1    0    0  501    0  0.00000000000E+00  0.00000000000E+00 -0.81831083256E+03  0.81831083256E+03  0.25500000920E-02 0. -1.
    10030    2    1    2    0    0  0.00000000000E+00  0.00000000000E+00 -0.45062350600E+03  0.11859981591E+04  0.10970551897E+04 0.  0.
        2    1    3    3  502    0  0.46190481893E+03 -0.28427828929E+03 -0.13674072262E+03  0.55934625478E+03  0.25500000920E-02 0. -1.
       -2    1    3    3    0  502 -0.46190481893E+03  0.28427828929E+03 -0.31388278338E+03  0.62665190434E+03  0.25500000920E-02 0.  1.
</event>
<event>
 5   0  0.5998641E-03  0.1116623E+04  0.7818609E-02  0.9189140E-01
        1   -1    0    0  501    0  0.00000000000E+00  0.00000000000E+00  0.63467281963E+03  0.63467281965E+03  0.50400001928E-02 0. -1.
       -1   -1    0    0    0  501  0.00000000000E+00  0.00000000000E+00 -0.49113789637E+03  0.49113789639E+03  0.50400001928E-02 0.  1.
    10030    2    1    2    0    0  0.00000000000E+00  0.00000000000E+00  0.14353492326E+03  0.11258107160E+04  0.11166232552E+04 0.  0.
        3    1    3    3  502    0 -0.34153033988E+03 -0.42708871339E+03 -0.41693442117E+02  0.54843969174E+03  0.10100000352E+00 0. -1.
       -3    1    3    3    0  502  0.34153033988E+03  0.42708871339E+03  0.18522836538E+03  0.57737102430E+03  0.10100000352E+00 0.  1.
</event>
<event>
 5   0  0.3949750E-03  0.1092135E+04  0.7818609E-02  0.9212891E-01
       -3   -1    0    0    0  501  0.00000000000E+00  0.00000000000E+00  0.37883562771E+03  0.37883564118E+03  0.10100000352E+00 0. -1.
        3   -1    0    0  501    0  0.00000000000E+00  0.00000000000E+00 -0.78712188243E+03  0.78712188891E+03  0.10100000352E+00 0.  1.
    10030    2    1    2    0    0  0.00000000000E+00  0.00000000000E+00 -0.40828625472E+03  0.11659575301E+04  0.10921352005E+04 0.  0.
        2    1    3    3  502    0 -0.12861033315E+03 -0.11823972484E+03  0.34819499458E+03  0.38956514806E+03  0.25500000920E-02 0. -1.
       -2    1    3    3    0  502  0.12861033315E+03  0.11823972484E+03 -0.75648124930E+03  0.77639238203E+03  0.25500000920E-02 0.  1.
</event>
<event>
 5   0  0.5854579E-03  0.1109957E+04  0.7818609E-02  0.9195541E-01
        1   -1    0    0  501    0  0.00000000000E+00  0.00000000000E+00  0.23702506258E+04  0.23702506258E+04  0.50400001928E-02 0. -1.
       -1   -1    0    0    0  501  0.00000000000E+00  0.00000000000E+00 -0.12994449571E+03  0.12994449581E+03  0.50400001928E-02 0.  1.
    10030    2    1    2    0    0  0.00000000000E+00  0.00000000000E+00  0.22403061301E+04  0.25001951217E+04  0.11099567963E+04 0.  0.
        4    1    3    3  502    0  0.39438430298E+03 -0.38171309646E+03  0.13052920859E+04  0.14159918463E+04  0.12699999809E+01 0. -1.
       -4    1    3    3    0  502 -0.39438430298E+03  0.38171309646E+03  0.93501404424E+03  0.10842032753E+04  0.12699999809E+01 0.  1.
</event>
<event>
 5   0  0.5958706E-03  0.1094092E+04  0.7818609E-02  0.9210970E-01
        1   -1    0    0  501    0  0.00000000000E+00  0.00000000000E+00  0.30805404473E+03  0.30805404477E+03  0.50400001928E-02 0.  1.
       -1   -1    0    0    0  501  0.00000000000E+00  0.00000000000E+00 -0.97145013173E+03  0.97145013174E+03  0.50400001928E-02 0. -1.
    10030    2    1    2    0    0  0.00000000000E+00  0.00000000000E+00 -0.66339608700E+03  0.12795041765E+04  0.10940916641E+04 0.  0.
        2    1    3    3  502    0 -0.47970869430E+03 -0.20006002845E+03 -0.13215153716E+03  0.53629140880E+03  0.25500000920E-02 0.  1.
       -2    1    3    3    0  502  0.47970869430E+03  0.20006002845E+03 -0.53124454984E+03  0.74321276772E+03  0.25500000920E-02 0. -1.
</event>
<event>
 5   0  0.1028016E-02  0.1073004E+04  0.7818609E-02  0.9231911E-01
       -2   -1    0    0    0  501  0.00000000000E+00  0.00000000000E+00  0.29800520321E+03  0.29800520322E+03  0.25500000920E-02 0. -1.
        2   -1    0    0  501    0  0.00000000000E+00  0.00000000000E+00 -0.96587021153E+03  0.96587021153E+03  0.25500000920E-02 0.  1.
    10030    2    1    2    0    0  0.00000000000E+00  0.00000000000E+00 -0.66786500832E+03  0.12638754148E+04  0.10730039118E+04 0.  0.
        2    1    3    3  502    0 -0.43478676508E+03  0.27642730818E+03 -0.15771064124E+03  0.53881744048E+03  0.25500000920E-02 0. -1.
       -2    1    3    3    0  502  0.43478676508E+03 -0.27642730818E+03 -0.51015436708E+03  0.72505797427E+03  0.25500000920E-02 0.  1.
</event>
<event>
 5   0  0.9692981E-03  0.1107707E+04  0.7818609E-02  0.9197713E-01
        2   -1    0    0  501    0  0.00000000000E+00  0.00000000000E+00  0.62740806930E+03  0.62740806931E+03  0.25500000920E-02 0.  1.
       -2   -1    0    0    0  501  0.00000000000E+00  0.00000000000E+00 -0.48892180986E+03  0.48892180986E+03  0.25500000920E-02 0. -1.
    10030    2    1    2    0    0  0.00000000000E+00  0.00000000000E+00  0.13848625945E+03  0.11163298792E+04  0.11077066196E+04 0.  0.
        5    1    3    3  502    0 -0.11199634599E+03 -0.29418818881E+03  0.52846747623E+03  0.61513399791E+03  0.46999998093E+01 0.  1.
       -5    1    3    3    0  502  0.11199634599E+03  0.29418818881E+03 -0.38998121679E+03  0.50119588126E+03  0.46999998093E+01 0. -1.
</event>
<event>
 5   0  0.5789905E-03  0.1115137E+04  0.7818609E-02  0.9190562E-01
       -1   -1    0    0    0  501  0.00000000000E+00  0.00000000000E+00  0.17160920431E+03  0.17160920439E+03  0.50400001928E-02 0.  1.
        1   -1    0    0  501    0  0.00000000000E+00  0.00000000000E+00 -0.18115745836E+04  0.18115745836E+04  0.50400001928E-02 0. -1.
    10030    2    1    2    0    0  0.00000000000E+00  0.00000000000E+00 -0.16399653793E+04  0.19831837880E+04  0.11151374318E+04 0.  0.
        1    1    3    3  502    0  0.47339637778E+03 -0.27613955620E+03 -0.63752599042E+03  0.84071194441E+03  0.50400001928E-02 0.  1.
       -1    1    3    3    0  502 -0.47339637778E+03  0.27613955620E+03 -0.10024393889E+04  0.11424718436E+04  0.50400001928E-02 0. -1.
</event>
<event>
 5   0  0.1019384E-02  0.1017176E+04  0.7818609E-02  0.9289905E-01
       -2   -1    0    0    0  501  0.00000000000E+00  0.00000000000E+00  0.27223473573E+03  0.27223473575E+03  0.25500000920E-02 0.  1.
        2   -1    0    0  501    0  0.00000000000E+00  0.00000000000E+00 -0.95014214247E+03  0.95014214248E+03  0.25500000920E-02 0. -1.
    10030    2    1    2    0    0  0.00000000000E+00  0.00000000000E+00 -0.67790740674E+03  0.12223768782E+04  0.10171758846E+04 0.  0.
        1    1    3    3  502    0  0.30545238097E+03  0.22569748457E+03  0.67547924258E+02  0.38575022187E+03  0.50400001928E-02 0.  1.
       -1    1    3    3    0  502 -0.30545238097E+03 -0.22569748457E+03 -0.74545533100E+03  0.83662665635E+03  0.50400001928E-02 0. -1.
</event>
<event>
 5   0  0.5854579E-03  0.1098975E+04  0.7818609E-02  0.9206191E-01
       -1   -1    0    0    0  501  0.00000000000E+00  0.00000000000E+00  0.45002792710E+03  0.45002792713E+03  0.50400001928E-02 0.  1.
        1   -1    0    0  501    0  0.00000000000E+00  0.00000000000E+00 -0.67092855041E+03  0.67092855043E+03  0.50400001928E-02 0. -1.
    10030    2    1    2    0    0  0.00000000000E+00  0.00000000000E+00 -0.22090062331E+03  0.11209564776E+04  0.10989751313E+04 0.  0.
        4    1    3    3  502    0  0.20700226553E+03 -0.38385117334E+02  0.40725617630E+03  0.45845671683E+03  0.12699999809E+01 0.  1.
       -4    1    3    3    0  502 -0.20700226553E+03  0.38385117334E+02 -0.62815679961E+03  0.66249976073E+03  0.12699999809E+01 0. -1.
</event>
<event>
 5   0  0.9692981E-03  0.1099106E+04  0.7818609E-02  0.9206063E-01
        2   -1    0    0  501    0  0.00000000000E+00  0.00000000000E+00  0.50195858289E+03  0.50195858290E+03  0.25500000920E-02 0. -1.
       -2   -1    0    0    0  501  0.00000000000E+00  0.00000000000E+00 -0.60166068520E+03  0.60166068521E+03  0.25500000920E-02 0.  1.
    10030    2    1    2    0    0  0.00000000000E+00  0.00000000000E+00 -0.99702102308E+02  0.11036192681E+04  0.10991064460E+04 0.  0.
        5    1    3    3  502    0  0.34895918285E+03  0.27423869958E+03  0.27552772581E+03  0.52241457994E+03  0.46999998093E+01 0.  1.
       -5    1    3    3    0  502 -0.34895918285E+03 -0.27423869958E+03 -0.37522982812E+03  0.58120468817E+03  0.46999998093E+01 0. -1.
</event>
<event>
 5   0  0.9925021E-03  0.1118416E+04  0.7818609E-02  0.9187426E-01
       -2   -1    0    0    0  501  0.00000000000E+00  0.00000000000E+00  0.23292163527E+03  0.23292163528E+03  0.25500000920E-02 0.  1.
        2   -1    0    0  501    0  0.00000000000E+00  0.00000000000E+00 -0.13425699626E+04  0.13425699626E+04  0.25500000920E-02 0. -1.
    10030    2    1    2    0    0  0.00000000000E+00  0.00000000000E+00 -0.11096483274E+04  0.15754915979E+04  0.11184160070E+04 0.  0.
        4    1    3    3  502    0 -0.38525361115E+03  0.12468480027E+03 -0.10981175182E+04  0.11703975141E+04  0.12699999809E+01 0. -1.
       -4    1    3    3    0  502  0.38525361115E+03 -0.12468480027E+03 -0.11530809221E+02  0.40509408387E+03  0.12699999809E+01 0.  1.
</event>
<event>
 5   0  0.9692981E-03  0.1100916E+04  0.7818609E-02  0.9204300E-01
       -2   -1    0    0    0  501  0.00000000000E+00  0.00000000000E+00  0.22192766529E+03  0.22192766531E+03  0.25500000920E-02 0. -1.
        2   -1    0    0  501    0  0.00000000000E+00  0.00000000000E+00 -0.13653272110E+04  0.13653272110E+04  0.25500000920E-02 0.  1.
    10030    2    1    2    0    0  0.00000000000E+00  0.00000000000E+00 -0.11433995458E+04  0.15872548764E+04  0.11009157648E+04 0.  0.
        5    1    3    3  502    0  0.52121457078E+03  0.80653393456E+02 -0.34459558505E+03  0.63003000397E+03  0.46999998093E+01 0. -1.
       -5    1    3    3    0  502 -0.52121457078E+03 -0.80653393456E+02 -0.79880396071E+03  0.95722487238E+03  0.46999998093E+01 0.  1.
</event>
<event>
 5   0  0.9692981E-03  0.1072104E+04  0.7818609E-02  0.9232816E-01
        2   -1    0    0  501    0  0.00000000000E+00  0.00000000000E+00  0.15158472234E+04  0.15158472234E+04  0.25500000920E-02 0.  1.
       -2   -1    0    0    0  501  0.00000000000E+00  0.00000000000E+00 -0.18956513312E+03  0.18956513314E+03  0.25500000920E-02 0. -1.
    10030    2    1    2    0    0  0.00000000000E+00  0.00000000000E+00  0.13262820902E+04  0.17054123565E+04  0.10721040634E+04 0.  0.
        5    1    3    3  502    0 -0.32979031073E+03  0.70072301089E+01  0.13352421564E+04  0.13753924736E+04  0.46999998093E+01 0.  1.
       -5    1    3    3    0  502  0.32979031073E+03 -0.70072301089E+01 -0.89600661262E+01  0.33001988290E+03  0.46999998093E+01 0. -1.
</event>
<event>
 5   0  0.9692981E-03  0.8583501E+03  0.7818609E-02  0.9479198E-01
       -2   -1    0    0    0  501  0.00000000000E+00  0.00000000000E+00  0.28319276565E+03  0.28319276566E+03  0.25500000920E-02 0. -1.
        2   -1    0    0  501    0  0.00000000000E+00  0.00000000000E+00 -0.65040929370E+03  0.65040929370E+03  0.25500000920E-02 0.  1.
    10030    2    1    2    0    0  0.00000000000E+00  0.00000000000E+00 -0.36721652805E+03  0.93360205936E+03  0.85835006074E+03 0.  0.
        5    1    3    3  502    0  0.20868933222E+03 -0.35157491853E+03 -0.41739348858E+02  0.41099929923E+03  0.46999998093E+01 0. -1.
       -5    1    3    3    0  502 -0.20868933222E+03  0.35157491853E+03 -0.32547717919E+03  0.52260276013E+03  0.46999998093E+01 0.  1.
</event>
<event>
 5   0  0.1019384E-02  0.1060403E+04  0.7818609E-02  0.9244669E-01
        2   -1    0    0  501    0  0.00000000000E+00  0.00000000000E+00  0.31949539272E+03  0.31949539273E+03  0.25500000920E-02 0.  1.
       -2   -1    0    0    0  501  0.00000000000E+00  0.00000000000E+00 -0.87986723970E+03  0.87986723970E+03  0.25500000920E-02 0. -1.
    10030    2    1    2    0    0  0.00000000000E+00  0.00000000000E+00 -0.56037184698E+03  0.11993626324E+04  0.10604028089E+04 0.  0.
        1    1    3    3  502    0  0.75036883906E+02  0.20422635513E+03 -0.82704861723E+03  0.85518907463E+03  0.50400001928E-02 0. -1.
       -1    1    3    3    0  502 -0.75036883906E+02 -0.20422635513E+03  0.26667677026E+03  0.34417355781E+03  0.50400001928E-02 0.  1.
</event>
<event>
 5   0  0.5958706E-03  0.1118150E+04  0.7818609E-02  0.9187680E-01
        1   -1    0    0  501    0  0.00000000000E+00  0.00000000000E+00  0.25556812060E+03  0.25556812065E+03  0.50400001928E-02 0. -1.
       -1   -1    0    0    0  501  0.00000000000E+00  0.00000000000E+00 -0.12230199609E+04  0.12230199610E+04  0.50400001928E-02 0.  1.
    10030    2    1    2    0    0  0.00000000000E+00  0.00000000000E+00 -0.96745184034E+03  0.14785880816E+04  0.11181501025E+04 0.  0.
        2    1    3    3  502    0 -0.86644410967E+02  0.44235128218E+03 -0.92106875193E+03  0.10254509040E+04  0.25500000920E-02 0.  1.
       -2    1    3    3    0  502  0.86644410967E+02 -0.44235128218E+03 -0.46383088410E+02  0.45313717757E+03  0.25500000920E-02 0. -1.
</event>
<event>
 5   0  0.9925021E-03  0.1083807E+04  0.7818609E-02  0.9221120E-01
        2   -1    0    0  501    0  0.00000000000E+00  0.00000000000E+00  0.96700089358E+03  0.96700089358E+03  0.25500000920E-02 0.  1.
       -2   -1    0    0    0  501  0.00000000000E+00  0.00000000000E+00 -0.30368061950E+03  0.30368061951E+03  0.25500000920E-02 0. -1.
    10030    2    1    2    0    0  0.00000000000E+00  0.00000000000E+00  0.66332027408E+03  0.12706815131E+04  0.10838070500E+04 0.  0.
        4    1    3    3  502    0 -0.11505733983E+03 -0.11064908651E+03  0.93880877164E+03  0.95228406182E+03  0.12699999809E+01 0.  1.
       -4    1    3    3    0  502  0.11505733983E+03  0.11064908651E+03 -0.27548849755E+03  0.31839745127E+03  0.12699999809E+01 0. -1.
</event>
<event>
 5   0  0.5998641E-03  0.1097725E+04  0.7818609E-02  0.9207412E-01
        1   -1    0    0  501    0  0.00000000000E+00  0.00000000000E+00  0.64941045847E+03  0.64941045849E+03  0.50400001928E-02 0. -1.
       -1   -1    0    0    0  501  0.00000000000E+00  0.00000000000E+00 -0.46388255513E+03  0.46388255516E+03  0.50400001928E-02 0.  1.
    10030    2    1    2    0    0  0.00000000000E+00  0.00000000000E+00  0.18552790334E+03  0.11132930136E+04  0.10977252531E+04 0.  0.
        3    1    3    3  502    0 -0.37554571578E+03  0.39975610287E+03  0.11331574554E+03  0.56007141939E+03  0.10100000352E+00 0. -1.
       -3    1    3    3    0  502  0.37554571578E+03 -0.39975610287E+03  0.72212157791E+02  0.55322159426E+03  0.10100000352E+00 0.  1.
</event>
<event>
 5   0  0.9719260E-03  0.1106745E+04  0.7818609E-02  0.9198643E-01
       -2   -1    0    0    0  501  0.00000000000E+00  0.00000000000E+00  0.27576122638E+03  0.27576122639E+03  0.25500000920E-02 0.  1.
        2   -1    0    0  501    0  0.00000000000E+00  0.00000000000E+00 -0.11104571672E+04  0.11104571672E+04  0.25500000920E-02 0. -1.
    10030    2    1    2    0    0  0.00000000000E+00  0.00000000000E+00 -0.83469594084E+03  0.13862183936E+04  0.11067448311E+04 0.  0.
        3    1    3    3  502    0  0.28591607190E+03  0.46727019344E+03 -0.31927020212E+03  0.63405276280E+03  0.10100000352E+00 0.  1.
       -3    1    3    3    0  502 -0.28591607190E+03 -0.46727019344E+03 -0.51542573872E+03  0.75216563082E+03  0.10100000352E+00 0. -1.
</event>
<event>
 5   0  0.5854579E-03  0.1084161E+04  0.7818609E-02  0.9220768E-01
       -1   -1    0    0    0  501  0.00000000000E+00  0.00000000000E+00  0.39121349996E+03  0.39121349999E+03  0.50400001928E-02 0.  1.
        1   -1    0    0  501    0  0.00000000000E+00  0.00000000000E+00 -0.75112811817E+03  0.75112811819E+03  0.50400001928E-02 0. -1.
    10030    2    1    2    0    0  0.00000000000E+00  0.00000000000E+00 -0.35991461821E+03  0.11423416182E+04  0.10841613534E+04 0.  0.
        4    1    3    3  502    0 -0.51236602735E+03  0.65799279255E+02 -0.68183249969E+01  0.51662035731E+03  0.12699999809E+01 0.  1.
       -4    1    3    3    0  502  0.51236602735E+03 -0.65799279255E+02 -0.35309629322E+03  0.62572126088E+03  0.12699999809E+01 0. -1.
</event>
<event>
 5   0  0.1019384E-02  0.1083208E+04  0.7818609E-02  0.9221715E-01
        2   -1    0    0  501    0  0.00000000000E+00  0.00000000000E+00  0.54129364688E+03  0.54129364689E+03  0.25500000920E-02 0. -1.
       -2   -1    0    0    0  501  0.00000000000E+00  0.00000000000E+00 -0.54191403371E+03  0.54191403372E+03  0.25500000920E-02 0.  1.
    10030    2    1    2    0    0  0.00000000000E+00  0.00000000000E+00 -0.62038682971E+00  0.10832076806E+04  0.10832075029E+04 0.  0.
        1    1    3    3  502    0 -0.30754241081E+03  0.21289021556E+03  0.39139134549E+03  0.54137950061E+03  0.50400001928E-02 0. -1.
       -1    1    3    3    0  502  0.30754241081E+03 -0.21289021556E+03 -0.39201173232E+03  0.54182817999E+03  0.50400001928E-02 0.  1.
</event>
<event>
 5   0  0.5712664E-03  0.1100303E+04  0.7818609E-02  0.9204897E-01
        1   -1    0    0  501    0  0.00000000000E+00  0.00000000000E+00  0.72581832367E+03  0.72581832368E+03  0.50400001928E-02 0.  1.
       -1   -1    0    0    0  501  0.00000000000E+00  0.00000000000E+00 -0.41700030274E+03  0.41700030277E+03  0.50400001928E-02 0. -1.
    10030    2    1    2    0    0  0.00000000000E+00  0.00000000000E+00  0.30881802093E+03  0.11428186265E+04  0.11003026142E+04 0.  0.
        5    1    3    3  502    0 -0.20067050948E+03 -0.48397735427E+03  0.32864579623E+03  0.61849242695E+03  0.46999998093E+01 0.  1.
       -5    1    3    3    0  502  0.20067050948E+03  0.48397735427E+03 -0.19827775299E+02  0.52432619951E+03  0.46999998093E+01 0. -1.
</event>
<event>
 5   0  0.5854579E-03  0.1087703E+04  0.7818609E-02  0.9217261E-01
       -1   -1    0    0    0  501  0.00000000000E+00  0.00000000000E+00  0.21312477186E+03  0.21312477192E+03  0.50400001928E-02 0. -1.
        1   -1    0    0  501    0  0.00000000000E+00  0.00000000000E+00 -0.13877985618E+04  0.13877985618E+04  0.50400001928E-02 0.  1.
    10030    2    1    2    0    0  0.00000000000E+00  0.00000000000E+00 -0.11746737900E+04  0.16009233338E+04  0.10877026284E+04 0.  0.
        4    1    3    3  502    0  0.50189141150E+03 -0.13106058867E+03 -0.82784087476E+03  0.97693090527E+03  0.12699999809E+01 0. -1.
       -4    1    3    3    0  502 -0.50189141150E+03  0.13106058867E+03 -0.34683291521E+03  0.62399242849E+03  0.12699999809E+01 0.  1.
</event>
<event>
 5   0  0.9719260E-03  0.1122908E+04  0.7818609E-02  0.9183147E-01
        2   -1    0    0  501    0  0.00000000000E+00  0.00000000000E+00  0.17246499368E+04  0.17246499368E+04  0.25500000920E-02 0.  1.
       -2   -1    0    0    0  501  0.00000000000E+00  0.00000000000E+00 -0.18277961771E+03  0.18277961773E+03  0.25500000920E-02 0. -1.
    10030    2    1    2    0    0  0.00000000000E+00  0.00000000000E+00  0.15418703191E+04  0.19074295545E+04  0.11229084667E+04 0.  0.
        3    1    3    3  502    0 -0.45853725689E+03 -0.23304301235E+03  0.38858627981E+03  0.64464313276E+03  0.10100000352E+00 0. -1.
       -3    1    3    3    0  502  0.45853725689E+03  0.23304301235E+03  0.11532840393E+04  0.12627864218E+04  0.10100000352E+00 0.  1.
</event>
<event>
 5   0  0.5712664E-03  0.1086400E+04  0.7818609E-02  0.9218549E-01
       -1   -1    0    0    0  501  0.00000000000E+00  0.00000000000E+00  0.42679383106E+03  0.42679383109E+03  0.50400001928E-02 0. -1.
        1   -1    0    0  501    0  0.00000000000E+00  0.00000000000E+00 -0.69135586724E+03  0.69135586726E+03  0.50400001928E-02 0.  1.
    10030    2    1    2    0    0  0.00000000000E+00  0.00000000000E+00 -0.26456203618E+03  0.11181496983E+04  0.10864003300E+04 0.  0.
        5    1    3    3  502    0  0.72060336960E+01 -0.16894510670E+03 -0.66355419089E+03  0.68477779626E+03  0.46999998093E+01 0.  1.
       -5    1    3    3    0  502 -0.72060336960E+01  0.16894510670E+03  0.39899215471E+03  0.43337190209E+03  0.46999998093E+01 0. -1.
</event>
<event>
 5   0  0.5998641E-03  0.1092189E+04  0.7818609E-02  0.9212838E-01
        1   -1    0    0  501    0  0.00000000000E+00  0.00000000000E+00  0.43039159829E+03  0.43039159832E+03  0.50400001928E-02 0. -1.
       -1   -1    0    0    0  501  0.00000000000E+00  0.00000000000E+00 -0.69290261014E+03  0.69290261016E+03  0.50400001928E-02 0.  1.
    10030    2    1    2    0    0  0.00000000000E+00  0.00000000000E+00 -0.26251101185E+03  0.11232942085E+04  0.10921894742E+04 0.  0.
        3    1    3    3  502    0 -0.40930523541E+03  0.67278812142E+02  0.23405336972E+03  0.47627534513E+03  0.10100000352E+00 0. -1.
       -3    1    3    3    0  502  0.40930523541E+03 -0.67278812142E+02 -0.49656438157E+03  0.64701886336E+03  0.10100000352E+00 0.  1.
</event>
<event>
 5   0  0.5958706E-03  0.1061868E+04  0.7818609E-02  0.9243176E-01
        1   -1    0    0  501    0  0.00000000000E+00  0.00000000000E+00  0.15115037462E+04  0.15115037462E+04  0.50400001928E-02 0. -1.
       -1   -1    0    0    0  501  0.00000000000E+00  0.00000000000E+00 -0.18649691685E+03  0.18649691692E+03  0.50400001928E-02 0.  1.
    10030    2    1    2    0    0  0.00000000000E+00  0.00000000000E+00  0.13250068293E+04  0.16980006631E+04  0.10618677668E+04 0.  0.
        2    1    3    3  502    0  0.13492281776E+03  0.47913620114E+03  0.95785607387E+03  0.10794739109E+04  0.25500000920E-02 0. -1.
       -2    1    3    3    0  502 -0.13492281776E+03 -0.47913620114E+03  0.36715075548E+03  0.61852675225E+03  0.25500000920E-02 0.  1.
</event>
<event>
 5   0  0.1028016E-02  0.1094307E+04  0.7818609E-02  0.9210758E-01
       -2   -1    0    0    0  501  0.00000000000E+00  0.00000000000E+00  0.53224127260E+03  0.53224127261E+03  0.25500000920E-02 0. -1.
        2   -1    0    0  501    0  0.00000000000E+00  0.00000000000E+00 -0.56248376075E+03  0.56248376075E+03  0.25500000920E-02 0.  1.
    10030    2    1    2    0    0  0.00000000000E+00  0.00000000000E+00 -0.30242488145E+02  0.10947250334E+04  0.10943072195E+04 0.  0.
        2    1    3    3  502    0 -0.35911184027E+03 -0.41259339667E+03 -0.28633726615E+02  0.54773580776E+03  0.25500000920E-02 0.  1.
       -2    1    3    3    0  502  0.35911184027E+03  0.41259339667E+03 -0.16087615301E+01  0.54698922560E+03  0.25500000920E-02 0. -1.
</event>
<event>
 5   0  0.5958706E-03  0.1090774E+04  0.7818609E-02  0.9214231E-01
        1   -1    0    0  501    0  0.00000000000E+00  0.00000000000E+00  0.17409846515E+04  0.17409846515E+04  0.50400001928E-02 0. -1.
       -1   -1    0    0    0  501  0.00000000000E+00  0.00000000000E+00 -0.17084989584E+03  0.17084989591E+03  0.50400001928E-02 0.  1.
    10030    2    1    2    0    0  0.00000000000E+00  0.00000000000E+00  0.15701347557E+04  0.19118345474E+04  0.10907741222E+04 0.  0.
        2    1    3    3  502    0 -0.18043188179E+03 -0.51051387406E+03  0.89955937044E+03  0.10499462560E+04  0.25500000920E-02 0.  1.
       -2    1    3    3    0  502  0.18043188179E+03  0.51051387406E+03  0.67057538523E+03  0.86188829140E+03  0.25500000920E-02 0. -1.
</event>
<event>
 5   0  0.5958706E-03  0.1206107E+04  0.7818609E-02  0.9107528E-01
        1   -1    0    0  501    0  0.00000000000E+00  0.00000000000E+00  0.15854165331E+04  0.15854165331E+04  0.50400001928E-02 0. -1.
       -1   -1    0    0    0  501  0.00000000000E+00  0.00000000000E+00 -0.22938677117E+03  0.22938677122E+03  0.50400001928E-02 0.  1.
    10030    2    1    2    0    0  0.00000000000E+00  0.00000000000E+00  0.13560297619E+04  0.18148033043E+04  0.12061070923E+04 0.  0.
        2    1    3    3  502    0 -0.23487482353E+03  0.54885618140E+03  0.54976993914E+03  0.81157641451E+03  0.25500000920E-02 0.  1.
       -2    1    3    3    0  502  0.23487482353E+03 -0.54885618140E+03  0.80625982275E+03  0.10032268898E+04  0.25500000920E-02 0. -1.
</event>
<event>
 5   0  0.5998641E-03  0.1079418E+04  0.7818609E-02  0.9225488E-01
        1   -1    0    0  501    0  0.00000000000E+00  0.00000000000E+00  0.56771860764E+03  0.56771860766E+03  0.50400001928E-02 0.  1.
       -1   -1    0    0    0  501  0.00000000000E+00  0.00000000000E+00 -0.51308086799E+03  0.51308086802E+03  0.50400001928E-02 0. -1.
    10030    2    1    2    0    0  0.00000000000E+00  0.00000000000E+00  0.54637739648E+02  0.10807994757E+04  0.10794175393E+04 0.  0.
        3    1    3    3  502    0  0.18003885999E+03 -0.80080410225E+01 -0.48206363127E+03  0.51464888479E+03  0.10100000352E+00 0. -1.
       -3    1    3    3    0  502 -0.18003885999E+03  0.80080410225E+01  0.53670137091E+03  0.56615059089E+03  0.10100000352E+00 0.  1.
</event>
<event>
 5   0  0.1019384E-02  0.1103327E+04  0.7818609E-02  0.9201955E-01
        2   -1    0    0  501    0  0.00000000000E+00  0.00000000000E+00  0.88482669710E+03  0.88482669711E+03  0.25500000920E-02 0. -1.
       -2   -1    0    0    0  501  0.00000000000E+00  0.00000000000E+00 -0.34394594192E+03  0.34394594193E+03  0.25500000920E-02 0.  1.
    10030    2    1    2    0    0  0.00000000000E+00  0.00000000000E+00  0.54088075518E+03  0.12287726390E+04  0.11033268814E+04 0.  0.
        1    1    3    3  502    0  0.33588634396E+03  0.14995683090E+03  0.72831219818E+03  0.81593219402E+03  0.50400001928E-02 0. -1.
       -1    1    3    3    0  502 -0.33588634396E+03 -0.14995683090E+03 -0.18743144300E+03  0.41284044502E+03  0.50400001928E-02 0.  1.
</event>
<event>
 5   0  0.3949750E-03  0.1087646E+04  0.7818609E-02  0.9217317E-01
       -3   -1    0    0    0  501  0.00000000000E+00  0.00000000000E+00  0.55578557723E+03  0.55578558641E+03  0.10100000352E+00 0. -1.
        3   -1    0    0  501    0  0.00000000000E+00  0.00000000000E+00 -0.53211779725E+03  0.53211780684E+03  0.10100000352E+00 0.  1.
    10030    2    1    2    0    0  0.00000000000E+00  0.00000000000E+00  0.23667779979E+02  0.10879033932E+04  0.10876459117E+04 0.  0.
        1    1    3    3  502    0 -0.20019341040E+03 -0.21216799286E+03  0.47090958771E+03  0.55393907480E+03  0.50400001928E-02 0. -1.
       -1    1    3    3    0  502  0.20019341040E+03  0.21216799286E+03 -0.44724180774E+03  0.53396431844E+03  0.50400001928E-02 0.  1.
</event>
<event>
 5   0  0.9925021E-03  0.1111755E+04  0.7818609E-02  0.9193810E-01
        2   -1    0    0  501    0  0.00000000000E+00  0.00000000000E+00  0.10971544393E+04  0.10971544393E+04  0.25500000920E-02 0.  1.
       -2   -1    0    0    0  501  0.00000000000E+00  0.00000000000E+00 -0.28163761671E+03  0.28163761672E+03  0.25500000920E-02 0. -1.
    10030    2    1    2    0    0  0.00000000000E+00  0.00000000000E+00  0.81551682260E+03  0.13787920560E+04  0.11117552994E+04 0.  0.
        4    1    3    3  502    0  0.27619018756E+02 -0.31437593699E+03 -0.15976180141E+03  0.35372374255E+03  0.12699999809E+01 0. -1.
       -4    1    3    3    0  502 -0.27619018756E+02  0.31437593699E+03  0.97527862401E+03  0.10250683135E+04  0.12699999809E+01 0.  1.
</event>
<event>
 5   0  0.5789905E-03  0.1110463E+04  0.7818609E-02  0.9195053E-01
       -1   -1    0    0    0  501  0.00000000000E+00  0.00000000000E+00  0.69089244467E+03  0.69089244469E+03  0.50400001928E-02 0.  1.
        1   -1    0    0  501    0  0.00000000000E+00  0.00000000000E+00 -0.44620850254E+03  0.44620850257E+03  0.50400001928E-02 0. -1.
    10030    2    1    2    0    0  0.00000000000E+00  0.00000000000E+00  0.24468394213E+03  0.11371009473E+04  0.11104631163E+04 0.  0.
        1    1    3    3  502    0  0.19992129142E+02 -0.52387582683E+03  0.30958488556E+03  0.60884182557E+03  0.50400001928E-02 0.  1.
       -1    1    3    3    0  502 -0.19992129142E+02  0.52387582683E+03 -0.64900943430E+02  0.52825912169E+03  0.50400001928E-02 0. -1.
</event>
<event>
 5   0  0.1019384E-02  0.1102179E+04  0.7818609E-02  0.9203071E-01
       -2   -1    0    0    0  501  0.00000000000E+00  0.00000000000E+00  0.10138724743E+04  0.10138724743E+04  0.25500000920E-02 0.  1.
        2   -1    0    0  501    0  0.00000000000E+00  0.00000000000E+00 -0.29954401850E+03  0.29954401851E+03  0.25500000920E-02 0. -1.
    10030    2    1    2    0    0  0.00000000000E+00  0.00000000000E+00  0.71432845582E+03  0.13134164928E+04  0.11021786338E+04 0.  0.
        1    1    3    3  502    0  0.35884212711E+03  0.40875590498E+03  0.25158083164E+03  0.59928455421E+03  0.50400001928E-02 0. -1.
       -1    1    3    3    0  502 -0.35884212711E+03 -0.40875590498E+03  0.46274762417E+03  0.71413193862E+03  0.50400001928E-02 0.  1.
</event>
<event>
 5   0  0.9925021E-03  0.1085404E+04  0.7818609E-02  0.9219536E-01
       -2   -1    0    0    0  501  0.00000000000E+00  0.00000000000E+00  0.14917777254E+03  0.14917777256E+03  0.25500000920E-02 0.  1.
        2   -1    0    0  501    0  0.00000000000E+00  0.00000000000E+00 -0.19743261552E+04  0.19743261552E+04  0.25500000920E-02 0. -1.
    10030    2    1    2    0    0  0.00000000000E+00  0.00000000000E+00 -0.18251483827E+04  0.21235039278E+04  0.10854042162E+04 0.  0.
        4    1    3    3  502    0  0.52530743669E+02 -0.48348552217E+03 -0.44138110759E+03  0.65676222807E+03  0.12699999809E+01 0. -1.
       -4    1    3    3    0  502 -0.52530743669E+02  0.48348552217E+03 -0.13837672751E+04  0.14667416997E+04  0.12699999809E+01 0.  1.
</event>
<event>
 5   0  0.9692981E-03  0.1348878E+04  0.7818609E-02  0.8991678E-01
       -2   -1    0    0    0  501  0.00000000000E+00  0.00000000000E+00  0.12288439275E+04  0.12288439275E+04  0.25500000920E-02 0. -1.
        2   -1    0    0  501    0  0.00000000000E+00  0.00000000000E+00 -0.37015914728E+03  0.37015914729E+03  0.25500000920E-02 0.  1.
    10030    2    1    2    0    0  0.00000000000E+00  0.00000000000E+00  0.85868478020E+03  0.15990030748E+04  0.13488777859E+04 0.  0.
        5    1    3    3  502    0 -0.23354086242E+03  0.10659839173E+01  0.11793596531E+04  0.12022702492E+04  0.46999998093E+01 0. -1.
       -5    1    3    3    0  502  0.23354086242E+03 -0.10659839173E+01 -0.32067487293E+03  0.39673282555E+03  0.46999998093E+01 0.  1.
</event>
<event>
 5   0  0.1019384E-02  0.1026576E+04  0.7818609E-02  0.9279868E-01
        2   -1    0    0  501    0  0.00000000000E+00  0.00000000000E+00  0.15276494063E+04  0.15276494063E+04  0.25500000920E-02 0.  1.
       -2   -1    0    0    0  501  0.00000000000E+00  0.00000000000E+00 -0.17246404268E+03  0.17246404270E+03  0.25500000920E-02 0. -1.
    10030    2    1    2    0    0  0.00000000000E+00  0.00000000000E+00  0.13551853637E+04  0.17001134491E+04  0.10265760419E+04 0.  0.
        1    1    3    3  502    0 -0.37059916990E+03 -0.35412987826E+03  0.72181017143E+03  0.88530313396E+03  0.50400001928E-02 0. -1.
       -1    1    3    3    0  502  0.37059916990E+03  0.35412987826E+03  0.63337519224E+03  0.81481031509E+03  0.50400001928E-02 0.  1.
</event>
<event>
 5   0  0.9692981E-03  0.1045097E+04  0.7818609E-02  0.9260421E-01
        2   -1    0    0  501    0  0.00000000000E+00  0.00000000000E+00  0.14014859803E+04  0.14014859803E+04  0.25500000920E-02 0. -1.
       -2   -1    0    0    0  501  0.00000000000E+00  0.00000000000E+00 -0.19483390540E+03  0.19483390542E+03  0.25500000920E-02 0.  1.
    10030    2    1    2    0    0  0.00000000000E+00  0.00000000000E+00  0.12066520749E+04  0.15963198857E+04  0.10450970996E+04 0.  0.
        5    1    3    3  502    0  0.40865226510E+03  0.40315555992E+02  0.10976562678E+03  0.42507952273E+03  0.46999998093E+01 0.  1.
       -5    1    3    3    0  502 -0.40865226510E+03 -0.40315555992E+02  0.10968864481E+04  0.11712403630E+04  0.46999998093E+01 0. -1.
</event>
<event>
 5   0  0.1019384E-02  0.1133208E+04  0.7818609E-02  0.9173416E-01
       -2   -1    0    0    0  501  0.00000000000E+00  0.00000000000E+00  0.88120699543E+03  0.88120699543E+03  0.25500000920E-02 0. -1.
        2   -1    0    0  501    0  0.00000000000E+00  0.00000000000E+00 -0.36431842516E+03  0.36431842517E+03  0.25500000920E-02 0.  1.
    10030    2    1    2    0    0  0.00000000000E+00  0.00000000000E+00  0.51688857027E+03  0.12455254206E+04  0.11332077388E+04 0.  0.
        1    1    3    3  502    0 -0.17932264781E+03  0.21865551120E+03 -0.28121224979E+03  0.39880718907E+03  0.50400001928E-02 0.  1.
       -1    1    3    3    0  502  0.17932264781E+03 -0.21865551120E+03  0.79810082006E+03  0.84671823153E+03  0.50400001928E-02 0. -1.
</event>
<event>
 5   0  0.5854579E-03  0.1116453E+04  0.7818609E-02  0.9189302E-01
        1   -1    0    0  501    0  0.00000000000E+00  0.00000000000E+00  0.11314219761E+04  0.11314219761E+04  0.50400001928E-02 0. -1.
       -1   -1    0    0    0  501  0.00000000000E+00  0.00000000000E+00 -0.27542053856E+03  0.27542053861E+03  0.50400001928E-02 0.  1.
    10030    2    1    2    0    0  0.00000000000E+00  0.00000000000E+00  0.85600143754E+03  0.14068425147E+04  0.11164530443E+04 0.  0.
        4    1    3    3  502    0  0.10063811787E+03  0.22039167684E+03 -0.20571148561E+03  0.31783541370E+03  0.12699999809E+01 0.  1.
       -4    1    3    3    0  502 -0.10063811787E+03 -0.22039167684E+03  0.10617129231E+04  0.10890071010E+04  0.12699999809E+01 0. -1.
</event>
<event>
 5   0  0.5998641E-03  0.9360683E+03  0.7818609E-02  0.9381584E-01
        1   -1    0    0  501    0  0.00000000000E+00  0.00000000000E+00  0.68584484489E+03  0.68584484491E+03  0.50400001928E-02 0.  1.
       -1   -1    0    0    0  501  0.00000000000E+00  0.00000000000E+00 -0.31939581500E+03  0.31939581504E+03  0.50400001928E-02 0. -1.
    10030    2    1    2    0    0  0.00000000000E+00  0.00000000000E+00  0.36644902989E+03  0.10052406599E+04  0.93606831636E+03 0.  0.
        3    1    3    3  502    0 -0.41128242470E+03 -0.64909970015E+02 -0.46321814032E+02  0.41894183096E+03  0.10100000352E+00 0. -1.
       -3    1    3    3    0  502  0.41128242470E+03  0.64909970015E+02  0.41277084392E+03  0.58629882898E+03  0.10100000352E+00 0.  1.
</event>
<event>
 5   0  0.1019384E-02  0.1145515E+04  0.7818609E-02  0.9161931E-01
        2   -1    0    0  501    0  0.00000000000E+00  0.00000000000E+00  0.11100335507E+04  0.11100335507E+04  0.25500000920E-02 0. -1.
       -2   -1    0    0    0  501  0.00000000000E+00  0.00000000000E+00 -0.29553270097E+03  0.29553270098E+03  0.25500000920E-02 0.  1.
    10030    2    1    2    0    0  0.00000000000E+00  0.00000000000E+00  0.81450084972E+03  0.14055662517E+04  0.11455151041E+04 0.  0.
        1    1    3    3  502    0  0.46125896027E+02  0.23281357874E+03  0.10468563304E+04  0.10734234659E+04  0.50400001928E-02 0. -1.
       -1    1    3    3    0  502 -0.46125896027E+02 -0.23281357874E+03 -0.23235548063E+03  0.33214278576E+03  0.50400001928E-02 0.  1.
</event>
<event>
 5   0  0.5958706E-03  0.1086346E+04  0.7818609E-02  0.9218603E-01
       -1   -1    0    0    0  501  0.00000000000E+00  0.00000000000E+00  0.79804770630E+03  0.79804770632E+03  0.50400001928E-02 0.  1.
        1   -1    0    0  501    0  0.00000000000E+00  0.00000000000E+00 -0.36969806097E+03  0.36969806101E+03  0.50400001928E-02 0. -1.
    10030    2    1    2    0    0  0.00000000000E+00  0.00000000000E+00  0.42834964533E+03  0.11677457673E+04  0.10863455981E+04 0.  0.
        2    1    3    3  502    0  0.46862274885E+03  0.27204763405E+03  0.17367556865E+03  0.56901704639E+03  0.25500000920E-02 0. -1.
       -2    1    3    3    0  502 -0.46862274885E+03 -0.27204763405E+03  0.25467407668E+03  0.59872872093E+03  0.25500000920E-02 0.  1.
</event>
<event>
 5   0  0.1028016E-02  0.9632741E+03  0.7818609E-02  0.9349768E-01
       -2   -1    0    0    0  501  0.00000000000E+00  0.00000000000E+00  0.25226372415E+03  0.25226372417E+03  0.25500000920E-02 0. -1.
        2   -1    0    0  501    0  0.00000000000E+00  0.00000000000E+00 -0.91957028270E+03  0.91957028270E+03  0.25500000920E-02 0.  1.
    10030    2    1    2    0    0  0.00000000000E+00  0.00000000000E+00 -0.66730655855E+03  0.11718340069E+04  0.96327405061E+03 0.  0.
        2    1    3    3  502    0 -0.92930512427E+01 -0.46024402149E+03 -0.50596604893E+03  0.68404134582E+03  0.25500000920E-02 0.  1.
       -2    1    3    3    0  502  0.92930512427E+01  0.46024402149E+03 -0.16134050962E+03  0.48779266105E+03  0.25500000920E-02 0. -1.
</event>
<event>
 5   0  0.5854579E-03  0.8552694E+03  0.7818609E-02  0.9483292E-01
        1   -1    0    0  501    0  0.00000000000E+00  0.00000000000E+00  0.40058263795E+03  0.40058263798E+03  0.50400001928E-02 0. -1.
       -1   -1    0    0    0  501  0.00000000000E+00  0.00000000000E+00 -0.45651363903E+03  0.45651363906E+03  0.50400001928E-02 0.  1.
    10030    2    1    2    0    0  0.00000000000E+00  0.00000000000E+00 -0.55931001083E+02  0.85709627704E+03  0.85526940273E+03 0.  0.
        4    1    3    3  502    0 -0.21327997780E+02  0.12904499140E+03 -0.43597436309E+03  0.45517332025E+03  0.12699999809E+01 0.  1.
       -4    1    3    3    0  502  0.21327997780E+02 -0.12904499140E+03  0.38004336200E+03  0.40192295680E+03  0.12699999809E+01 0. -1.
</event>
<event>
 5   0  0.9692981E-03  0.1125875E+04  0.7818609E-02  0.9180333E-01
        2   -1    0    0  501    0  0.00000000000E+00  0.00000000000E+00  0.14884772459E+04  0.14884772459E+04  0.25500000920E-02 0.  1.
       -2   -1    0    0    0  501  0.00000000000E+00  0.00000000000E+00 -0.21290108036E+03  0.21290108038E+03  0.25500000920E-02 0. -1.
    10030    2    1    2    0    0  0.00000000000E+00  0.00000000000E+00  0.12755761655E+04  0.17013783263E+04  0.11258746178E+04 0.  0.
        5    1    3    3  502    0  0.26970463789E+03 -0.48276177648E+03  0.79683234644E+03  0.96992958655E+03  0.46999998093E+01 0.  1.
       -5    1    3    3    0  502 -0.26970463789E+03  0.48276177648E+03  0.47874381908E+03  0.73144873972E+03  0.46999998093E+01 0. -1.
</event>
<event>
 5   0  0.5854579E-03  0.1070008E+04  0.7818609E-02  0.9234927E-01
        1   -1    0    0  501    0  0.00000000000E+00  0.00000000000E+00  0.82606567375E+03  0.82606567376E+03  0.50400001928E-02 0. -1.
       -1   -1    0    0    0  501  0.00000000000E+00  0.00000000000E+00 -0.34649701969E+03  0.34649701972E+03  0.50400001928E-02 0.  1.
    10030    2    1    2    0    0  0.00000000000E+00  0.00000000000E+00  0.47956865406E+03  0.11725626935E+04  0.10700080262E+04 0.  0.
        4    1    3    3  502    0  0.23649959711E+03  0.34876679996E+03 -0.12144131655E+03  0.43854298131E+03  0.12699999809E+01 0.  1.
       -4    1    3    3    0  502 -0.23649959711E+03 -0.34876679996E+03  0.60100997061E+03  0.73401971218E+03  0.12699999809E+01 0. -1.
</event>
<event>
 5   0  0.1019384E-02  0.9548520E+03  0.7818609E-02  0.9359497E-01
       -2   -1    0    0    0  501  0.00000000000E+00  0.00000000000E+00  0.25538682387E+03  0.25538682388E+03  0.25500000920E-02 0. -1.
        2   -1    0    0  501    0  0.00000000000E+00  0.00000000000E+00 -0.89251122506E+03  0.89251122506E+03  0.25500000920E-02 0.  1.
    10030    2    1    2    0    0  0.00000000000E+00  0.00000000000E+00 -0.63712440119E+03  0.11478980489E+04  0.95485204517E+03 0.  0.
        1    1    3    3  502    0 -0.24183927342E+02 -0.20519084396E+03 -0.83598238768E+03  0.86113570204E+03  0.50400001928E-02 0.  1.
       -1    1    3    3    0  502  0.24183927342E+02  0.20519084396E+03  0.19885798649E+03  0.28676234690E+03  0.50400001928E-02 0. -1.
</event>
<event>
 5   0  0.5958706E-03  0.1079958E+04  0.7818609E-02  0.9224950E-01
        1   -1    0    0  501    0  0.00000000000E+00  0.00000000000E+00  0.96360701111E+03  0.96360701112E+03  0.50400001928E-02 0. -1.
       -1   -1    0    0    0  501  0.00000000000E+00  0.00000000000E+00 -0.30258917639E+03  0.30258917643E+03  0.50400001928E-02 0.  1.
    10030    2    1    2    0    0  0.00000000000E+00  0.00000000000E+00  0.66101783472E+03  0.12661961876E+04  0.10799575027E+04 0.  0.
        2    1    3    3  502    0 -0.30096439119E+03  0.17684794807E+03 -0.15250959673E+03  0.38093823463E+03  0.25500000920E-02 0.  1.
       -2    1    3    3    0  502  0.30096439119E+03 -0.17684794807E+03  0.81352743144E+03  0.88525795293E+03  0.25500000920E-02 0. -1.
</event>
<event>
 5   0  0.3949750E-03  0.1082957E+04  0.7818609E-02  0.9221964E-01
       -4   -1    0    0    0  501  0.00000000000E+00  0.00000000000E+00  0.52410170065E+03  0.52410323937E+03  0.12699999809E+01 0. -1.
        4   -1    0    0  501    0  0.00000000000E+00  0.00000000000E+00 -0.55942846052E+03  0.55942990208E+03  0.12699999809E+01 0.  1.
    10030    2    1    2    0    0  0.00000000000E+00  0.00000000000E+00 -0.35326759873E+02  0.10835331415E+04  0.10829571038E+04 0.  0.
        3    1    3    3  502    0 -0.45038245569E+02  0.47970409342E+03 -0.26488700281E+03  0.54982687754E+03  0.10100000352E+00 0. -1.
       -3    1    3    3    0  502  0.45038245569E+02 -0.47970409342E+03  0.22956024294E+03  0.53370626391E+03  0.10100000352E+00 0.  1.
</event>
<event>
 5   0  0.5998641E-03  0.1088077E+04  0.7818609E-02  0.9216892E-01
        1   -1    0    0  501    0  0.00000000000E+00  0.00000000000E+00  0.11824570266E+04  0.11824570266E+04  0.50400001928E-02 0. -1.
       -1   -1    0    0    0  501  0.00000000000E+00  0.00000000000E+00 -0.25030741859E+03  0.25030741864E+03  0.50400001928E-02 0.  1.
    10030    2    1    2    0    0  0.00000000000E+00  0.00000000000E+00  0.93214960804E+03  0.14327644453E+04  0.10880767730E+04 0.  0.
        3    1    3    3  502    0  0.32153081350E+03  0.29473423226E+03  0.37911856172E+02  0.43782148272E+03  0.10100000352E+00 0.  1.
       -3    1    3    3    0  502 -0.32153081350E+03 -0.29473423226E+03  0.89423775186E+03  0.99494296256E+03  0.10100000352E+00 0. -1.
</event>
<event>
 5   0  0.5712664E-03  0.1140817E+04  0.7818609E-02  0.9166297E-01
       -1   -1    0    0    0  501  0.00000000000E+00  0.00000000000E+00  0.78412559325E+03  0.78412559327E+03  0.50400001928E-02 0.  1.
        1   -1    0    0  501    0  0.00000000000E+00  0.00000000000E+00 -0.41494107166E+03  0.41494107169E+03  0.50400001928E-02 0. -1.
    10030    2    1    2    0    0  0.00000000000E+00  0.00000000000E+00  0.36918452159E+03  0.11990666650E+04  0.11408171002E+04 0.  0.
        5    1    3    3  502    0 -0.40709134435E+03 -0.36342904243E+03  0.10167699732E+02  0.54582918907E+03  0.46999998093E+01 0.  1.
       -5    1    3    3    0  502  0.40709134435E+03  0.36342904243E+03  0.35901682186E+03  0.65323747589E+03  0.46999998093E+01 0. -1.
</event>
<event>
 5   0  0.5854579E-03  0.1099840E+04  0.7818609E-02  0.9205348E-01
       -1   -1    0    0    0  501  0.00000000000E+00  0.00000000000E+00  0.24486761598E+03  0.24486761603E+03  0.50400001928E-02 0.  1.
        1   -1    0    0  501    0  0.00000000000E+00  0.00000000000E+00 -0.12350022411E+04  0.12350022412E+04  0.50400001928E-02 0. -1.
    10030    2    1    2    0    0  0.00000000000E+00  0.00000000000E+00 -0.99013462517E+03  0.14798698572E+04  0.10998400876E+04 0.  0.
        4    1    3    3  502    0 -0.17967864737E+03  0.21120192777E+03 -0.11340458784E+04  0.11674554972E+04  0.12699999809E+01 0. -1.
       -4    1    3    3    0  502  0.17967864737E+03 -0.21120192777E+03  0.14391125327E+03  0.31241436000E+03  0.12699999809E+01 0.  1.
</event>
<event>
 5   0  0.9925021E-03  0.1074014E+04  0.7818609E-02  0.9230897E-01
       -2   -1    0    0    0  501  0.00000000000E+00  0.00000000000E+00  0.13519115105E+03  0.13519115108E+03  0.25500000920E-02 0. -1.
        2   -1    0    0  501    0  0.00000000000E+00  0.00000000000E+00 -0.21331004679E+04  0.21331004679E+04  0.25500000920E-02 0.  1.
    10030    2    1    2    0    0  0.00000000000E+00  0.00000000000E+00 -0.19979093168E+04  0.22682916190E+04  0.10740136081E+04 0.  0.
        4    1    3    3  502    0  0.93137127629E+02  0.86692874070E+02 -0.21008004357E+04  0.21046506272E+04  0.12699999809E+01 0.  1.
       -4    1    3    3    0  502 -0.93137127629E+02 -0.86692874070E+02  0.10289111885E+03  0.16364099180E+03  0.12699999809E+01 0. -1.
</event>
<event>
 5   0  0.1019384E-02  0.9683741E+03  0.7818609E-02  0.9343928E-01
        2   -1    0    0  501    0  0.00000000000E+00  0.00000000000E+00  0.32796651358E+03  0.32796651359E+03  0.25500000920E-02 0.  1.
       -2   -1    0    0    0  501  0.00000000000E+00  0.00000000000E+00 -0.71482029335E+03  0.71482029336E+03  0.25500000920E-02 0. -1.
    10030    2    1    2    0    0  0.00000000000E+00  0.00000000000E+00 -0.38685377977E+03  0.10427868069E+04  0.96837414145E+03 0.  0.
        1    1    3    3  502    0 -0.25915498457E+02 -0.18631493736E+03  0.28700949463E+03  0.34316077716E+03  0.50400001928E-02 0.  1.
       -1    1    3    3    0  502  0.25915498457E+02  0.18631493736E+03 -0.67386327440E+03  0.69962602979E+03  0.50400001928E-02 0. -1.
</event>
<event>
 5   0  0.9692981E-03  0.1038123E+04  0.7818609E-02  0.9267693E-01
       -2   -1    0    0    0  501  0.00000000000E+00  0.00000000000E+00  0.33188229297E+03  0.33188229298E+03  0.25500000920E-02 0. -1.
        2   -1    0    0  501    0  0.00000000000E+00  0.00000000000E+00 -0.81180823596E+03  0.81180823596E+03  0.25500000920E-02 0.  1.
    10030    2    1    2    0    0  0.00000000000E+00  0.00000000000E+00 -0.47992594298E+03  0.11436905289E+04  0.10381228806E+04 0.  0.
        5    1    3    3  502    0  0.51344190734E+03 -0.48767202058E+01 -0.32354867595E+03  0.60692026686E+03  0.46999998093E+01 0.  1.
       -5    1    3    3    0  502 -0.51344190734E+03  0.48767202058E+01 -0.15637726703E+03  0.53677026209E+03  0.46999998093E+01 0. -1.
</event>
<event>
 5   0  0.1028016E-02  0.1146704E+04  0.7818609E-02  0.9160829E-01
        2   -1    0    0  501    0  0.00000000000E+00  0.00000000000E+00  0.24305114802E+04  0.24305114802E+04  0.25500000920E-02 0. -1.
       -2   -1    0    0    0  501  0.00000000000E+00  0.00000000000E+00 -0.13525250880E+03  0.13525250882E+03  0.25500000920E-02 0.  1.
    10030    2    1    2    0    0  0.00000000000E+00  0.00000000000E+00  0.22952589714E+04  0.25657639891E+04  0.11467044526E+04 0.  0.
        2    1    3    3  502    0 -0.37652552913E+03  0.39954352148E+03  0.15175048704E+04  0.16137619191E+04  0.25500000920E-02 0.  1.
       -2    1    3    3    0  502  0.37652552913E+03 -0.39954352148E+03  0.77775410101E+03  0.95200207000E+03  0.25500000920E-02 0. -1.
</event>
<event>
 5   0  0.3949750E-03  0.9886725E+03  0.7818609E-02  0.9321057E-01
       -4   -1    0    0    0  501  0.00000000000E+00  0.00000000000E+00  0.66294431410E+03  0.66294553057E+03  0.12699999809E+01 0.  1.
        4   -1    0    0  501    0  0.00000000000E+00  0.00000000000E+00 -0.36860800958E+03  0.36861019740E+03  0.12699999809E+01 0. -1.
    10030    2    1    2    0    0  0.00000000000E+00  0.00000000000E+00  0.29433630452E+03  0.10315557280E+04  0.98867252401E+03 0.  0.
        5    1    3    3  502    0 -0.40736036010E+03 -0.10198792863E+03  0.41925144153E+03  0.59341205060E+03  0.46999998093E+01 0.  1.
       -5    1    3    3    0  502  0.40736036010E+03  0.10198792863E+03 -0.12491513701E+03  0.43814367737E+03  0.46999998093E+01 0. -1.
</event>
<event>
 5   0  0.5789905E-03  0.1105735E+04  0.7818609E-02  0.9199620E-01
        1   -1    0    0  501    0  0.00000000000E+00  0.00000000000E+00  0.93613036760E+03  0.93613036761E+03  0.50400001928E-02 0. -1.
       -1   -1    0    0    0  501  0.00000000000E+00  0.00000000000E+00 -0.32651714051E+03  0.32651714055E+03  0.50400001928E-02 0.  1.
    10030    2    1    2    0    0  0.00000000000E+00  0.00000000000E+00  0.60961322709E+03  0.12626475082E+04  0.11057352501E+04 0.  0.
        1    1    3    3  502    0 -0.33434266145E+03 -0.79566282772E+02  0.79932882523E+03  0.87008182344E+03  0.50400001928E-02 0. -1.
       -1    1    3    3    0  502  0.33434266145E+03  0.79566282772E+02 -0.18971559814E+03  0.39256568472E+03  0.50400001928E-02 0.  1.
</event>
<event>
 5   0  0.9692981E-03  0.1154071E+04  0.7818609E-02  0.9154036E-01
       -2   -1    0    0    0  501  0.00000000000E+00  0.00000000000E+00  0.17678398006E+03  0.17678398008E+03  0.25500000920E-02 0.  1.
        2   -1    0    0  501    0  0.00000000000E+00  0.00000000000E+00 -0.18834863736E+04  0.18834863736E+04  0.25500000920E-02 0. -1.
    10030    2    1    2    0    0  0.00000000000E+00  0.00000000000E+00 -0.17067023936E+04  0.20602703537E+04  0.11540714320E+04 0.  0.
        5    1    3    3  502    0  0.19308296667E+03  0.45347830877E+03 -0.31771252126E+03  0.58641874519E+03  0.46999998093E+01 0. -1.
       -5    1    3    3    0  502 -0.19308296667E+03 -0.45347830877E+03 -0.13889898723E+04  0.14738516085E+04  0.46999998093E+01 0.  1.
</event>
<event>
 5   0  0.1019384E-02  0.1069713E+04  0.7818609E-02  0.9235225E-01
        2   -1    0    0  501    0  0.00000000000E+00  0.00000000000E+00  0.83185687108E+03  0.83185687108E+03  0.25500000920E-02 0.  1.
       -2   -1    0    0    0  501  0.00000000000E+00  0.00000000000E+00 -0.34389518986E+03  0.34389518987E+03  0.25500000920E-02 0. -1.
    10030    2    1    2    0    0  0.00000000000E+00  0.00000000000E+00  0.48796168122E+03  0.11757520610E+04  0.10697131889E+04 0.  0.
        1    1    3    3  502    0 -0.17819395660E+03 -0.50353413764E+03  0.21344439994E+03  0.57520276932E+03  0.50400001928E-02 0.  1.
       -1    1    3    3    0  502  0.17819395660E+03  0.50353413764E+03  0.27451728128E+03  0.60054929164E+03  0.50400001928E-02 0. -1.
</event>
<event>
 5   0  0.5712664E-03  0.1132141E+04  0.7818609E-02  0.9174419E-01
        1   -1    0    0  501    0  0.00000000000E+00  0.00000000000E+00  0.12502535552E+04  0.12502535552E+04  0.50400001928E-02 0.  1.
       -1   -1    0    0    0  501  0.00000000000E+00  0.00000000000E+00 -0.25629672844E+03  0.25629672849E+03  0.50400001928E-02 0. -1.
    10030    2    1    2    0    0  0.00000000000E+00  0.00000000000E+00  0.99395682679E+03  0.15065502837E+04  0.11321411502E+04 0.  0.
        5    1    3    3  502    0  0.44362915160E+03  0.35124176888E+03  0.51742988210E+03  0.76676813786E+03  0.46999998093E+01 0.  1.
       -5    1    3    3    0  502 -0.44362915160E+03 -0.35124176888E+03  0.47652694470E+03  0.73978214589E+03  0.46999998093E+01 0. -1.
</event>
<event>
 5   0  0.5789905E-03  0.1124894E+04  0.7818609E-02  0.9181263E-01
       -1   -1    0    0    0  501  0.00000000000E+00  0.00000000000E+00  0.28215044019E+03  0.28215044024E+03  0.50400001928E-02 0. -1.
        1   -1    0    0  501    0  0.00000000000E+00  0.00000000000E+00 -0.11211979926E+04  0.11211979926E+04  0.50400001928E-02 0.  1.
    10030    2    1    2    0    0  0.00000000000E+00  0.00000000000E+00 -0.83904755242E+03  0.14033484329E+04  0.11248937856E+04 0.  0.
        1    1    3    3  502    0  0.42960801693E+03 -0.14633762812E+03 -0.83397848030E+03  0.94947240889E+03  0.50400001928E-02 0.  1.
       -1    1    3    3    0  502 -0.42960801693E+03  0.14633762812E+03 -0.50690721165E+01  0.45387602397E+03  0.50400001928E-02 0. -1.
</event>
<event>
 5   0  0.9692981E-03  0.1107049E+04  0.7818609E-02  0.9198348E-01
        2   -1    0    0  501    0  0.00000000000E+00  0.00000000000E+00  0.14665413167E+04  0.14665413167E+04  0.25500000920E-02 0.  1.
       -2   -1    0    0    0  501  0.00000000000E+00  0.00000000000E+00 -0.20891981849E+03  0.20891981851E+03  0.25500000920E-02 0. -1.
    10030    2    1    2    0    0  0.00000000000E+00  0.00000000000E+00  0.12576214982E+04  0.16754611352E+04  0.11070493136E+04 0.  0.
        5    1    3    3  502    0 -0.31608041785E+03 -0.38873997792E+03  0.98484702211E+03  0.11049757228E+04  0.46999998093E+01 0.  1.
       -5    1    3    3    0  502  0.31608041785E+03  0.38873997792E+03  0.27277447610E+03  0.57048541243E+03  0.46999998093E+01 0. -1.
</event>
<event>
 5   0  0.5998641E-03  0.1107033E+04  0.7818609E-02  0.9198364E-01
        1   -1    0    0  501    0  0.00000000000E+00  0.00000000000E+00  0.40873228540E+03  0.40873228543E+03  0.50400001928E-02 0.  1.
       -1   -1    0    0    0  501  0.00000000000E+00  0.00000000000E+00 -0.74958688615E+03  0.74958688617E+03  0.50400001928E-02 0. -1.
    10030    2    1    2    0    0  0.00000000000E+00  0.00000000000E+00 -0.34085460075E+03  0.11583191716E+04  0.11070327206E+04 0.  0.
        3    1    3    3  502    0  0.11548534488E+02  0.36042105664E+03 -0.60981479534E+03  0.70845663349E+03  0.10100000352E+00 0. -1.
       -3    1    3    3    0  502 -0.11548534488E+02 -0.36042105664E+03  0.26896019459E+03  0.44986253811E+03  0.10100000352E+00 0.  1.
</event>
<event>
 5   0  0.9719260E-03  0.1076091E+04  0.7818609E-02  0.9228813E-01
       -2   -1    0    0    0  501  0.00000000000E+00  0.00000000000E+00  0.38268205116E+03  0.38268205116E+03  0.25500000920E-02 0.  1.
        2   -1    0    0  501    0  0.00000000000E+00  0.00000000000E+00 -0.75648454907E+03  0.75648454908E+03  0.25500000920E-02 0. -1.
    10030    2    1    2    0    0  0.00000000000E+00  0.00000000000E+00 -0.37380249792E+03  0.11391666002E+04  0.10760911837E+04 0.  0.
        3    1    3    3  502    0 -0.34995207872E+03  0.19850916725E+03  0.19127890493E+03  0.44548846961E+03  0.10100000352E+00 0.  1.
       -3    1    3    3    0  502  0.34995207872E+03 -0.19850916725E+03 -0.56508140284E+03  0.69367813064E+03  0.10100000352E+00 0. -1.
</event>
<event>
 5   0  0.5958706E-03  0.1067061E+04  0.7818609E-02  0.9237905E-01
       -1   -1    0    0    0  501  0.00000000000E+00  0.00000000000E+00  0.58125978679E+03  0.58125978682E+03  0.50400001928E-02 0.  1.
        1   -1    0    0  501    0  0.00000000000E+00  0.00000000000E+00 -0.48972022985E+03  0.48972022988E+03  0.50400001928E-02 0. -1.
    10030    2    1    2    0    0  0.00000000000E+00  0.00000000000E+00  0.91539556942E+02  0.10709800167E+04  0.10670607788E+04 0.  0.
        2    1    3    3  502    0  0.23143205111E+03 -0.14324088444E+03 -0.41480120690E+03  0.49612376128E+03  0.25500000920E-02 0. -1.
       -2    1    3    3    0  502 -0.23143205111E+03  0.14324088444E+03  0.50634076384E+03  0.57485625542E+03  0.25500000920E-02 0.  1.
</event>
<event>
 5   0  0.1019384E-02  0.1098006E+04  0.7818609E-02  0.9207137E-01
       -2   -1    0    0    0  501  0.00000000000E+00  0.00000000000E+00  0.40732390604E+03  0.40732390604E+03  0.25500000920E-02 0. -1.
        2   -1    0    0  501    0  0.00000000000E+00  0.00000000000E+00 -0.73996264806E+03  0.73996264806E+03  0.25500000920E-02 0.  1.
    10030    2    1    2    0    0  0.00000000000E+00  0.00000000000E+00 -0.33263874202E+03  0.11472865541E+04  0.10980063317E+04 0.  0.
        1    1    3    3  502    0  0.39431957491E+03  0.26660177979E+03  0.11952790942E+03  0.49076609224E+03  0.50400001928E-02 0.  1.
       -1    1    3    3    0  502 -0.39431957491E+03 -0.26660177979E+03 -0.45216665144E+03  0.65652046186E+03  0.50400001928E-02 0. -1.
</event>
<event>
 5   0  0.5958706E-03  0.1183410E+04  0.7818609E-02  0.9127503E-01
       -1   -1    0    0    0  501  0.00000000000E+00  0.00000000000E+00  0.58403613910E+03  0.58403613912E+03  0.50400001928E-02 0. -1.
        1   -1    0    0  501    0  0.00000000000E+00  0.00000000000E+00 -0.59947443391E+03  0.59947443393E+03  0.50400001928E-02 0.  1.
    10030    2    1    2    0    0  0.00000000000E+00  0.00000000000E+00 -0.15438294814E+02  0.11835105731E+04  0.11834098764E+04 0.  0.
        2    1    3    3  502    0 -0.25896237325E+03 -0.44628137823E+03  0.28193656369E+03  0.58797687477E+03  0.25500000920E-02 0. -1.
       -2    1    3    3    0  502  0.25896237325E+03  0.44628137823E+03 -0.29737485850E+03  0.59553369828E+03  0.25500000920E-02 0.  1.
</event>
<event>
 5   0  0.9925021E-03  0.1118807E+04  0.7818609E-02  0.9187052E-01
       -2   -1    0    0    0  501  0.00000000000E+00  0.00000000000E+00  0.18234560148E+03  0.18234560150E+03  0.25500000920E-02 0. -1.
        2   -1    0    0  501    0  0.00000000000E+00  0.00000000000E+00 -0.17161508275E+04  0.17161508275E+04  0.25500000920E-02 0.  1.
    10030    2    1    2    0    0  0.00000000000E+00  0.00000000000E+00 -0.15338052260E+04  0.18984964290E+04  0.11188074989E+04 0.  0.
        4    1    3    3  502    0 -0.23667362439E+03  0.40157871029E+03 -0.12917092855E+04  0.13732422788E+04  0.12699999809E+01 0.  1.
       -4    1    3    3    0  502  0.23667362439E+03 -0.40157871029E+03 -0.24209594054E+03  0.52525415026E+03  0.12699999809E+01 0. -1.
</event>
<event>
 5   0  0.5958706E-03  0.1004266E+04  0.7818609E-02  0.9303878E-01
       -1   -1    0    0    0  501  0.00000000000E+00  0.00000000000E+00  0.27795790522E+03  0.27795790527E+03  0.50400001928E-02 0.  1.
        1   -1    0    0  501    0  0.00000000000E+00  0.00000000000E+00 -0.90710771538E+03  0.90710771540E+03  0.50400001928E-02 0. -1.
    10030    2    1    2    0    0  0.00000000000E+00  0.00000000000E+00 -0.62914981016E+03  0.11850656207E+04  0.10042664197E+04 0.  0.
        2    1    3    3  502    0  0.45626253119E+03 -0.12101615239E+03 -0.11252630634E+03  0.48526546975E+03  0.25500000920E-02 0. -1.
       -2    1    3    3    0  502 -0.45626253119E+03  0.12101615239E+03 -0.51662350383E+03  0.69980015091E+03  0.25500000920E-02 0.  1.
</event>
<event>
 5   0  0.9692981E-03  0.1096597E+04  0.7818609E-02  0.9208515E-01
       -2   -1    0    0    0  501  0.00000000000E+00  0.00000000000E+00  0.48309970752E+03  0.48309970752E+03  0.25500000920E-02 0.  1.
        2   -1    0    0  501    0  0.00000000000E+00  0.00000000000E+00 -0.62229670797E+03  0.62229670797E+03  0.25500000920E-02 0. -1.
    10030    2    1    2    0    0  0.00000000000E+00  0.00000000000E+00 -0.13919700045E+03  0.11053964155E+04  0.10965972052E+04 0.  0.
        5    1    3    3  502    0 -0.80388970419E+02  0.35579420582E+03 -0.48222078278E+03  0.60465765256E+03  0.46999998093E+01 0. -1.
       -5    1    3    3    0  502  0.80388970419E+02 -0.35579420582E+03  0.34302378233E+03  0.50073876293E+03  0.46999998093E+01 0.  1.
</event>
<event>
 5   0  0.5998641E-03  0.1141620E+04  0.7818609E-02  0.9165549E-01
        1   -1    0    0  501    0  0.00000000000E+00  0.00000000000E+00  0.52830942131E+03  0.52830942133E+03  0.50400001928E-02 0. -1.
       -1   -1    0    0    0  501  0.00000000000E+00  0.00000000000E+00 -0.61672951506E+03  0.61672951508E+03  0.50400001928E-02 0.  1.
    10030    2    1    2    0    0  0.00000000000E+00  0.00000000000E+00 -0.88420093759E+02  0.11450389364E+04  0.11416199249E+04 0.  0.
        3    1    3    3  502    0  0.49679746775E+03 -0.11833753791E+03 -0.29994916835E+03  0.59226768495E+03  0.10100000352E+00 0.  1.
       -3    1    3    3    0  502 -0.49679746775E+03  0.11833753791E+03  0.21152907459E+03  0.55277125146E+03  0.10100000352E+00 0. -1.
</event>
<event>
 5   0  0.5958706E-03  0.1086256E+04  0.7818609E-02  0.9218692E-01
        1   -1    0    0  501    0  0.00000000000E+00  0.00000000000E+00  0.66952018728E+03  0.66952018730E+03  0.50400001928E-02 0.  1.
       -1   -1    0    0    0  501  0.00000000000E+00  0.00000000000E+00 -0.44059650224E+03  0.44059650227E+03  0.50400001928E-02 0. -1.
    10030    2    1    2    0    0  0.00000000000E+00  0.00000000000E+00  0.22892368504E+03  0.11101166896E+04  0.10862564204E+04 0.  0.
        2    1    3    3  502    0  0.19395862747E+03 -0.17685903112E+02 -0.40368127790E+03  0.44820900758E+03  0.25500000920E-02 0. -1.
       -2    1    3    3    0  502 -0.19395862747E+03  0.17685903112E+02  0.63260496294E+03  0.66190768200E+03  0.25500000920E-02 0.  1.
</event>
<event>
 5   0  0.5789905E-03  0.1112032E+04  0.7818609E-02  0.9193543E-01
        1   -1    0    0  501    0  0.00000000000E+00  0.00000000000E+00  0.16401992728E+04  0.16401992728E+04  0.50400001928E-02 0.  1.
       -1   -1    0    0    0  501  0.00000000000E+00  0.00000000000E+00 -0.18848564487E+03  0.18848564493E+03  0.50400001928E-02 0. -1.
    10030    2    1    2    0    0  0.00000000000E+00  0.00000000000E+00  0.14517136279E+04  0.18286849177E+04  0.11120324055E+04 0.  0.
        1    1    3    3  502    0  0.11525776227E+03  0.54130362996E+03  0.63791246111E+03  0.84452725216E+03  0.50400001928E-02 0.  1.
       -1    1    3    3    0  502 -0.11525776227E+03 -0.54130362996E+03  0.81380116683E+03  0.98415766559E+03  0.50400001928E-02 0. -1.
</event>
<event>
 5   0  0.5998641E-03  0.1095264E+04  0.7818609E-02  0.9209821E-01
       -1   -1    0    0    0  501  0.00000000000E+00  0.00000000000E+00  0.42322484885E+03  0.42322484888E+03  0.50400001928E-02 0.  1.
        1   -1    0    0  501    0  0.00000000000E+00  0.00000000000E+00 -0.70860819336E+03  0.70860819338E+03  0.50400001928E-02 0. -1.
    10030    2    1    2    0    0  0.00000000000E+00  0.00000000000E+00 -0.28538334451E+03  0.11318330423E+04  0.10952636131E+04 0.  0.
        3    1    3    3  502    0 -0.66521118666E+02 -0.28232403700E+03 -0.62271008345E+03  0.68694961921E+03  0.10100000352E+00 0. -1.
       -3    1    3    3    0  502  0.66521118666E+02  0.28232403700E+03  0.33732673894E+03  0.44488342305E+03  0.10100000352E+00 0.  1.
</event>
<event>
 5   0  0.5712664E-03  0.1107221E+04  0.7818609E-02  0.9198182E-01
       -1   -1    0    0    0  501  0.00000000000E+00  0.00000000000E+00  0.52391032303E+03  0.52391032305E+03  0.50400001928E-02 0. -1.
        1   -1    0    0  501    0  0.00000000000E+00  0.00000000000E+00 -0.58499424423E+03  0.58499424425E+03  0.50400001928E-02 0.  1.
    10030    2    1    2    0    0  0.00000000000E+00  0.00000000000E+00 -0.61083921200E+02  0.11089045673E+04  0.11072208876E+04 0.  0.
        5    1    3    3  502    0 -0.15489327631E+03  0.24460798770E+03 -0.50310418351E+03  0.58048333667E+03  0.46999998093E+01 0.  1.
       -5    1    3    3    0  502  0.15489327631E+03 -0.24460798770E+03  0.44202026231E+03  0.52842123063E+03  0.46999998093E+01 0. -1.
</event>
<event>
 5   0  0.5712664E-03  0.1095552E+04  0.7818609E-02  0.9209538E-01
       -1   -1    0    0    0  501  0.00000000000E+00  0.00000000000E+00  0.96442655554E+03  0.96442655556E+03  0.50400001928E-02 0.  1.
        1   -1    0    0  501    0  0.00000000000E+00  0.00000000000E+00 -0.31112653361E+03  0.31112653365E+03  0.50400001928E-02 0. -1.
    10030    2    1    2    0    0  0.00000000000E+00  0.00000000000E+00  0.65330002193E+03  0.12755530892E+04  0.10955522647E+04 0.  0.
        5    1    3    3  502    0  0.17099836787E+03 -0.28480898492E+03  0.83372969391E+03  0.89748754432E+03  0.46999998093E+01 0.  1.
       -5    1    3    3    0  502 -0.17099836787E+03  0.28480898492E+03 -0.18042967198E+03  0.37806554489E+03  0.46999998093E+01 0. -1.
</event>
<event>
 5   0  0.9925021E-03  0.1082908E+04  0.7818609E-02  0.9222012E-01
        2   -1    0    0  501    0  0.00000000000E+00  0.00000000000E+00  0.13336861772E+04  0.13336861772E+04  0.25500000920E-02 0. -1.
       -2   -1    0    0    0  501  0.00000000000E+00  0.00000000000E+00 -0.21982131118E+03  0.21982131120E+03  0.25500000920E-02 0.  1.
    10030    2    1    2    0    0  0.00000000000E+00  0.00000000000E+00  0.11138648661E+04  0.15535074884E+04  0.10829083880E+04 0.  0.
        4    1    3    3  502    0  0.20844101669E+02  0.31076835131E+03 -0.78437123705E+02  0.32119377333E+03  0.12699999809E+01 0.  1.
       -4    1    3    3    0  502 -0.20844101669E+02 -0.31076835131E+03  0.11923019898E+04  0.12323137151E+04  0.12699999809E+01 0. -1.
</event>
<event>
 5   0  0.5854579E-03  0.1047088E+04  0.7818609E-02  0.9258356E-01
        1   -1    0    0  501    0  0.00000000000E+00  0.00000000000E+00  0.13649857142E+04  0.13649857143E+04  0.50400001928E-02 0.  1.
       -1   -1    0    0    0  501  0.00000000000E+00  0.00000000000E+00 -0.20080657328E+03  0.20080657334E+03  0.50400001928E-02 0. -1.
    10030    2    1    2    0    0  0.00000000000E+00  0.00000000000E+00  0.11641791410E+04  0.15657922876E+04  0.10470875874E+04 0.  0.
        4    1    3    3  502    0  0.43866214208E+03  0.24945871429E+03  0.37358014328E+03  0.62786771010E+03  0.12699999809E+01 0. -1.
       -4    1    3    3    0  502 -0.43866214208E+03 -0.24945871429E+03  0.79059899768E+03  0.93792457749E+03  0.12699999809E+01 0.  1.
</event>
<event>
 5   0  0.9719260E-03  0.1011141E+04  0.7818609E-02  0.9296409E-01
       -2   -1    0    0    0  501  0.00000000000E+00  0.00000000000E+00  0.11590271246E+03  0.11590271249E+03  0.25500000920E-02 0.  1.
        2   -1    0    0  501    0  0.00000000000E+00  0.00000000000E+00 -0.22053110535E+04  0.22053110535E+04  0.25500000920E-02 0. -1.
    10030    2    1    2    0    0  0.00000000000E+00  0.00000000000E+00 -0.20894083410E+04  0.23212137660E+04  0.10111410049E+04 0.  0.
        3    1    3    3  502    0  0.25084716868E+03 -0.10687250510E+03 -0.20220516508E+04  0.20403526467E+04  0.10100000352E+00 0. -1.
       -3    1    3    3    0  502 -0.25084716868E+03  0.10687250510E+03 -0.67356690247E+02  0.28086111925E+03  0.10100000352E+00 0.  1.
</event>
<event>
 5   0  0.1019384E-02  0.1105456E+04  0.7818609E-02  0.9199890E-01
       -2   -1    0    0    0  501  0.00000000000E+00  0.00000000000E+00  0.34466604669E+03  0.34466604670E+03  0.25500000920E-02 0.  1.
        2   -1    0    0  501    0  0.00000000000E+00  0.00000000000E+00 -0.88638955253E+03  0.88638955253E+03  0.25500000920E-02 0. -1.
    10030    2    1    2    0    0  0.00000000000E+00  0.00000000000E+00 -0.54172350584E+03  0.12310555992E+04  0.11054562550E+04 0.  0.
        1    1    3    3  502    0  0.15237615546E+03 -0.85091914315E+01 -0.86246161507E+03  0.87586011245E+03  0.50400001928E-02 0. -1.
       -1    1    3    3    0  502 -0.15237615546E+03  0.85091914315E+01  0.32073810923E+03  0.35519548678E+03  0.50400001928E-02 0.  1.
</event>
<event>
 5   0  0.5958706E-03  0.1088706E+04  0.7818609E-02  0.9216270E-01
        1   -1    0    0  501    0  0.00000000000E+00  0.00000000000E+00  0.77442257828E+03  0.77442257830E+03  0.50400001928E-02 0.  1.
       -1   -1    0    0    0  501  0.00000000000E+00  0.00000000000E+00 -0.38263401360E+03  0.38263401363E+03  0.50400001928E-02 0. -1.
    10030    2    1    2    0    0  0.00000000000E+00  0.00000000000E+00  0.39178856468E+03  0.11570565919E+04  0.10887064239E+04 0.  0.
        2    1    3    3  502    0  0.31785783742E+03 -0.34507459370E+03 -0.97499403532E+02  0.47918286042E+03  0.25500000920E-02 0. -1.
       -2    1    3    3    0  502 -0.31785783742E+03  0.34507459370E+03  0.48928796821E+03  0.67787373151E+03  0.25500000920E-02 0.  1.
</event>
<event>
 5   0  0.1019384E-02  0.1066127E+04  0.7818609E-02  0.9238851E-01
        2   -1    0    0  501    0  0.00000000000E+00  0.00000000000E+00  0.11898075510E+04  0.11898075510E+04  0.25500000920E-02 0.  1.
       -2   -1    0    0    0  501  0.00000000000E+00  0.00000000000E+00 -0.23882567049E+03  0.23882567050E+03  0.25500000920E-02 0. -1.
    10030    2    1    2    0    0  0.00000000000E+00  0.00000000000E+00  0.95098188054E+03  0.14286332215E+04  0.10661267957E+04 0.  0.
        1    1    3    3  502    0  0.98283108628E+01 -0.31146241297E+02 -0.23748368760E+03  0.23971897285E+03  0.50400001928E-02 0. -1.
       -1    1    3    3    0  502 -0.98283108628E+01  0.31146241297E+02  0.11884655681E+04  0.11889142487E+04  0.50400001928E-02 0.  1.
</event>
<event>
 5   0  0.9719260E-03  0.1107414E+04  0.7818609E-02  0.9197996E-01
        2   -1    0    0  501    0  0.00000000000E+00  0.00000000000E+00  0.50293740530E+03  0.50293740531E+03  0.25500000920E-02 0.  1.
       -2   -1    0    0    0  501  0.00000000000E+00  0.00000000000E+00 -0.60960167003E+03  0.60960167004E+03  0.25500000920E-02 0. -1.
    10030    2    1    2    0    0  0.00000000000E+00  0.00000000000E+00 -0.10666426473E+03  0.11125390753E+04  0.11074140729E+04 0.  0.
        3    1    3    3  502    0  0.11478937324E+03  0.29893684258E+03  0.40047913641E+03  0.51276055324E+03  0.10100000352E+00 0.  1.
       -3    1    3    3    0  502 -0.11478937324E+03 -0.29893684258E+03 -0.50714340114E+03  0.59977852211E+03  0.10100000352E+00 0. -1.
</event>
<event>
 5   0  0.5958706E-03  0.1142649E+04  0.7818609E-02  0.9164592E-01
       -1   -1    0    0    0  501  0.00000000000E+00  0.00000000000E+00  0.82590237883E+03  0.82590237885E+03  0.50400001928E-02 0. -1.
        1   -1    0    0  501    0  0.00000000000E+00  0.00000000000E+00 -0.39521835256E+03  0.39521835259E+03  0.50400001928E-02 0.  1.
    10030    2    1    2    0    0  0.00000000000E+00  0.00000000000E+00  0.43068402628E+03  0.12211207314E+04  0.11426491632E+04 0.  0.
        2    1    3    3  502    0  0.51880952619E+03 -0.23902006049E+03  0.22694409358E+03  0.61465236956E+03  0.25500000920E-02 0.  1.
       -2    1    3    3    0  502 -0.51880952619E+03  0.23902006049E+03  0.20373993270E+03  0.60646836188E+03  0.25500000920E-02 0. -1.
</event>
<event>
 5   0  0.1019384E-02  0.1087605E+04  0.7818609E-02  0.9217358E-01
        2   -1    0    0  501    0  0.00000000000E+00  0.00000000000E+00  0.34606408051E+03  0.34606408052E+03  0.25500000920E-02 0. -1.
       -2   -1    0    0    0  501  0.00000000000E+00  0.00000000000E+00 -0.85452699558E+03  0.85452699559E+03  0.25500000920E-02 0.  1.
    10030    2    1    2    0    0  0.00000000000E+00  0.00000000000E+00 -0.50846291508E+03  0.12005910761E+04  0.10876048897E+04 0.  0.
        1    1    3    3  502    0 -0.23497672691E+03  0.12129932010E+03 -0.77877275796E+03  0.82244428128E+03  0.50400001928E-02 0.  1.
       -1    1    3    3    0  502  0.23497672691E+03 -0.12129932010E+03  0.27030984289E+03  0.37814679482E+03  0.50400001928E-02 0. -1.
</event>
<event>
 5   0  0.5854579E-03  0.1077917E+04  0.7818609E-02  0.9226987E-01
        1   -1    0    0  501    0  0.00000000000E+00  0.00000000000E+00  0.15743729878E+04  0.15743729878E+04  0.50400001928E-02 0.  1.
       -1   -1    0    0    0  501  0.00000000000E+00  0.00000000000E+00 -0.18450281700E+03  0.18450281707E+03  0.50400001928E-02 0. -1.
    10030    2    1    2    0    0  0.00000000000E+00  0.00000000000E+00  0.13898701708E+04  0.17588758049E+04  0.10779169751E+04 0.  0.
        4    1    3    3  502    0  0.52442903678E+03  0.10317627557E+02  0.49282122621E+03  0.71972678285E+03  0.12699999809E+01 0. -1.
       -4    1    3    3    0  502 -0.52442903678E+03 -0.10317627557E+02  0.89704894459E+03  0.10391490220E+04  0.12699999809E+01 0.  1.
</event>
<event>
 5   0  0.3949750E-03  0.1080475E+04  0.7818609E-02  0.9224434E-01
       -4   -1    0    0    0  501  0.00000000000E+00  0.00000000000E+00  0.87458465219E+03  0.87458557429E+03  0.12699999809E+01 0. -1.
        4   -1    0    0  501    0  0.00000000000E+00  0.00000000000E+00 -0.33370622519E+03  0.33370864183E+03  0.12699999809E+01 0.  1.
    10030    2    1    2    0    0  0.00000000000E+00  0.00000000000E+00  0.54087842700E+03  0.12082942161E+04  0.10804746364E+04 0.  0.
        4    1    3    3  502    0 -0.24552872004E+03 -0.39722686326E+03 -0.33321089955E+02  0.46817244814E+03  0.12699999809E+01 0.  1.
       -4    1    3    3    0  502  0.24552872004E+03  0.39722686326E+03  0.57419951696E+03  0.74012176798E+03  0.12699999809E+01 0. -1.
</event>
<event>
 5   0  0.5854579E-03  0.1090987E+04  0.7818609E-02  0.9214022E-01
       -1   -1    0    0    0  501  0.00000000000E+00  0.00000000000E+00  0.20389151125E+03  0.20389151131E+03  0.50400001928E-02 0.  1.
        1   -1    0    0  501    0  0.00000000000E+00  0.00000000000E+00 -0.14594179423E+04  0.14594179423E+04  0.50400001928E-02 0. -1.
    10030    2    1    2    0    0  0.00000000000E+00  0.00000000000E+00 -0.12555264310E+04  0.16633094536E+04  0.10909865808E+04 0.  0.
        4    1    3    3  502    0 -0.10591529798E+03  0.34300304377E+03 -0.12539459958E+04  0.13043202489E+04  0.12699999809E+01 0. -1.
       -4    1    3    3    0  502  0.10591529798E+03 -0.34300304377E+03 -0.15804351699E+01  0.35898920465E+03  0.12699999809E+01 0.  1.
</event>
<event>
 5   0  0.1019384E-02  0.1087652E+04  0.7818609E-02  0.9217311E-01
       -2   -1    0    0    0  501  0.00000000000E+00  0.00000000000E+00  0.26205266164E+03  0.26205266165E+03  0.25500000920E-02 0. -1.
        2   -1    0    0  501    0  0.00000000000E+00  0.00000000000E+00 -0.11285781172E+04  0.11285781172E+04  0.25500000920E-02 0.  1.
    10030    2    1    2    0    0  0.00000000000E+00  0.00000000000E+00 -0.86652545553E+03  0.13906307788E+04  0.10876523332E+04 0.  0.
        1    1    3    3  502    0  0.22928390726E+03  0.16074237967E+03 -0.10293217303E+04  0.10667297911E+04  0.50400001928E-02 0.  1.
       -1    1    3    3    0  502 -0.22928390726E+03 -0.16074237967E+03  0.16279627476E+03  0.32390098773E+03  0.50400001928E-02 0. -1.
</event>
<event>
 5   0  0.5789905E-03  0.1334341E+04  0.7818609E-02  0.9002767E-01
       -1   -1    0    0    0  501  0.00000000000E+00  0.00000000000E+00  0.11151398097E+04  0.11151398097E+04  0.50400001928E-02 0.  1.
        1   -1    0    0  501    0  0.00000000000E+00  0.00000000000E+00 -0.39915757331E+03  0.39915757334E+03  0.50400001928E-02 0. -1.
    10030    2    1    2    0    0  0.00000000000E+00  0.00000000000E+00  0.71598223636E+03  0.15142973830E+04  0.13343410364E+04 0.  0.
        1    1    3    3  502    0 -0.29831320001E+03  0.28629938432E+03  0.95220816384E+03  0.10381033138E+04  0.50400001928E-02 0.  1.
       -1    1    3    3    0  502  0.29831320001E+03 -0.28629938432E+03 -0.23622592748E+03  0.47619406926E+03  0.50400001928E-02 0. -1.
</event>
<event>
 5   0  0.5958706E-03  0.1102429E+04  0.7818609E-02  0.9202828E-01
        1   -1    0    0  501    0  0.00000000000E+00  0.00000000000E+00  0.49120434407E+03  0.49120434410E+03  0.50400001928E-02 0. -1.
       -1   -1    0    0    0  501  0.00000000000E+00  0.00000000000E+00 -0.61855612687E+03  0.61855612689E+03  0.50400001928E-02 0.  1.
    10030    2    1    2    0    0  0.00000000000E+00  0.00000000000E+00 -0.12735178279E+03  0.11097604710E+04  0.11024290573E+04 0.  0.
        2    1    3    3  502    0 -0.35519567382E+03  0.10114983734E+03 -0.47559416717E+03  0.60215037005E+03  0.25500000920E-02 0.  1.
       -2    1    3    3    0  502  0.35519567382E+03 -0.10114983734E+03  0.34824238437E+03  0.50761010094E+03  0.25500000920E-02 0. -1.
</event>
<event>
 5   0  0.1028016E-02  0.1093477E+04  0.7818609E-02  0.9211573E-01
       -2   -1    0    0    0  501  0.00000000000E+00  0.00000000000E+00  0.21921111206E+03  0.21921111208E+03  0.25500000920E-02 0. -1.
        2   -1    0    0  501    0  0.00000000000E+00  0.00000000000E+00 -0.13636300198E+04  0.13636300198E+04  0.25500000920E-02 0.  1.
    10030    2    1    2    0    0  0.00000000000E+00  0.00000000000E+00 -0.11444189078E+04  0.15828411319E+04  0.10934767544E+04 0.  0.
        2    1    3    3  502    0 -0.72517285206E+02  0.50890143821E+00 -0.13566373091E+04  0.13585741805E+04  0.25500000920E-02 0.  1.
       -2    1    3    3    0  502  0.72517285206E+02 -0.50890143821E+00  0.21221840129E+03  0.22426695139E+03  0.25500000920E-02 0. -1.
</event>
<event>
 5   0  0.1028016E-02  0.1068287E+04  0.7818609E-02  0.9236665E-01
        2   -1    0    0  501    0  0.00000000000E+00  0.00000000000E+00  0.64445540001E+03  0.64445540001E+03  0.25500000920E-02 0. -1.
       -2   -1    0    0    0  501  0.00000000000E+00  0.00000000000E+00 -0.44271336980E+03  0.44271336980E+03  0.25500000920E-02 0.  1.
    10030    2    1    2    0    0  0.00000000000E+00  0.00000000000E+00  0.20174203021E+03  0.10871687698E+04  0.10682865193E+04 0.  0.
        2    1    3    3  502    0 -0.16677192994E+03  0.47817727104E+03  0.27370404556E+03  0.57565639380E+03  0.25500000920E-02 0. -1.
       -2    1    3    3    0  502  0.16677192994E+03 -0.47817727104E+03 -0.71962015352E+02  0.51151237602E+03  0.25500000920E-02 0.  1.
</event>
<event>
 5   0  0.9692981E-03  0.1120150E+04  0.7818609E-02  0.9185772E-01
       -2   -1    0    0    0  501  0.00000000000E+00  0.00000000000E+00  0.22454876202E+03  0.22454876203E+03  0.25500000920E-02 0.  1.
        2   -1    0    0  501    0  0.00000000000E+00  0.00000000000E+00 -0.13969533223E+04  0.13969533223E+04  0.25500000920E-02 0. -1.
    10030    2    1    2    0    0  0.00000000000E+00  0.00000000000E+00 -0.11724045603E+04  0.16215020844E+04  0.11201502384E+04 0.  0.
        5    1    3    3  502    0 -0.16602058370E+02  0.49750425982E+03 -0.21466309628E+03  0.54211479576E+03  0.46999998093E+01 0.  1.
       -5    1    3    3    0  502  0.16602058370E+02 -0.49750425982E+03 -0.95774146402E+03  0.10793872886E+04  0.46999998093E+01 0. -1.
</event>
<event>
 5   0  0.1019384E-02  0.7807759E+03  0.7818609E-02  0.9588268E-01
       -2   -1    0    0    0  501  0.00000000000E+00  0.00000000000E+00  0.43999395491E+03  0.43999395492E+03  0.25500000920E-02 0. -1.
        2   -1    0    0  501    0  0.00000000000E+00  0.00000000000E+00 -0.34637461046E+03  0.34637461047E+03  0.25500000920E-02 0.  1.
    10030    2    1    2    0    0  0.00000000000E+00  0.00000000000E+00  0.93619344452E+02  0.78636856539E+03  0.78077585707E+03 0.  0.
        1    1    3    3  502    0  0.29453290336E+02 -0.15313718419E+03 -0.31364247643E+03  0.35027146122E+03  0.50400001928E-02 0.  1.
       -1    1    3    3    0  502 -0.29453290336E+02  0.15313718419E+03  0.40726182089E+03  0.43609710418E+03  0.50400001928E-02 0. -1.
</event>
<event>
 5   0  0.5789905E-03  0.1102157E+04  0.7818609E-02  0.9203092E-01
        1   -1    0    0  501    0  0.00000000000E+00  0.00000000000E+00  0.80662934418E+03  0.80662934419E+03  0.50400001928E-02 0.  1.
       -1   -1    0    0    0  501  0.00000000000E+00  0.00000000000E+00 -0.37648938629E+03  0.37648938632E+03  0.50400001928E-02 0. -1.
    10030    2    1    2    0    0  0.00000000000E+00  0.00000000000E+00  0.43013995789E+03  0.11831187305E+04  0.11021567707E+04 0.  0.
        1    1    3    3  502    0  0.51802410874E+03 -0.17708370078E+03  0.14735042686E+03  0.56693894084E+03  0.50400001928E-02 0.  1.
       -1    1    3    3    0  502 -0.51802410874E+03  0.17708370078E+03  0.28278953103E+03  0.61617978967E+03  0.50400001928E-02 0. -1.
</event>
<event>
 5   0  0.9925021E-03  0.1151390E+04  0.7818609E-02  0.9156502E-01
       -2   -1    0    0    0  501  0.00000000000E+00  0.00000000000E+00  0.11366055517E+04  0.11366055517E+04  0.25500000920E-02 0.  1.
        2   -1    0    0  501    0  0.00000000000E+00  0.00000000000E+00 -0.29159158555E+03  0.29159158556E+03  0.25500000920E-02 0. -1.
    10030    2    1    2    0    0  0.00000000000E+00  0.00000000000E+00  0.84501396613E+03  0.14281971372E+04  0.11513897949E+04 0.  0.
        4    1    3    3  502    0  0.39195518672E+03  0.31639761010E+03  0.76775379864E+02  0.50954135056E+03  0.12699999809E+01 0. -1.
       -4    1    3    3    0  502 -0.39195518672E+03 -0.31639761010E+03  0.76823858627E+03  0.91865578668E+03  0.12699999809E+01 0.  1.
</event>
<event>
 5   0  0.9692981E-03  0.1086400E+04  0.7818609E-02  0.9218549E-01
        2   -1    0    0  501    0  0.00000000000E+00  0.00000000000E+00  0.84620413554E+03  0.84620413554E+03  0.25500000920E-02 0.  1.
       -2   -1    0    0    0  501  0.00000000000E+00  0.00000000000E+00 -0.34869419236E+03  0.34869419237E+03  0.25500000920E-02 0. -1.
    10030    2    1    2    0    0  0.00000000000E+00  0.00000000000E+00  0.49750994318E+03  0.11948983279E+04  0.10864004190E+04 0.  0.
        5    1    3    3  502    0 -0.26587838116E+03 -0.26886442286E+03 -0.18014462954E+03  0.41887178110E+03  0.46999998093E+01 0. -1.
       -5    1    3    3    0  502  0.26587838116E+03  0.26886442286E+03  0.67765457272E+03  0.77602654682E+03  0.46999998093E+01 0.  1.
</event>
<event>
 5   0  0.1019384E-02  0.1089571E+04  0.7818609E-02  0.9215417E-01
       -2   -1    0    0    0  501  0.00000000000E+00  0.00000000000E+00  0.55397056444E+03  0.55397056444E+03  0.25500000920E-02 0.  1.
        2   -1    0    0  501    0  0.00000000000E+00  0.00000000000E+00 -0.53575241662E+03  0.53575241663E+03  0.25500000920E-02 0. -1.
    10030    2    1    2    0    0  0.00000000000E+00  0.00000000000E+00  0.18218147815E+02  0.10897229811E+04  0.10895706836E+04 0.  0.
        1    1    3    3  502    0  0.25853017975E+03  0.47144482404E+03 -0.78612892691E+02  0.54339494190E+03  0.50400001928E-02 0. -1.
       -1    1    3    3    0  502 -0.25853017975E+03 -0.47144482404E+03  0.96831040507E+02  0.54632803917E+03  0.50400001928E-02 0.  1.
</event>
<event>
 5   0  0.5789905E-03  0.1085847E+04  0.7818609E-02  0.9219097E-01
        1   -1    0    0  501    0  0.00000000000E+00  0.00000000000E+00  0.38086227131E+03  0.38086227135E+03  0.50400001928E-02 0.  1.
       -1   -1    0    0    0  501  0.00000000000E+00  0.00000000000E+00 -0.77394351685E+03  0.77394351687E+03  0.50400001928E-02 0. -1.
    10030    2    1    2    0    0  0.00000000000E+00  0.00000000000E+00 -0.39308124554E+03  0.11548057882E+04  0.10858469242E+04 0.  0.
        1    1    3    3  502    0  0.25800797537E+03  0.40671974036E+03 -0.46300552509E+03  0.66810416766E+03  0.50400001928E-02 0. -1.
       -1    1    3    3    0  502 -0.25800797537E+03 -0.40671974036E+03  0.69924279557E+02  0.48670162055E+03  0.50400001928E-02 0.  1.
</event>
<event>
 5   0  0.9692981E-03  0.1072609E+04  0.7818609E-02  0.9232308E-01
        2   -1    0    0  501    0  0.00000000000E+00  0.00000000000E+00  0.17779903395E+04  0.17779903395E+04  0.25500000920E-02 0.  1.
       -2   -1    0    0    0  501  0.00000000000E+00  0.00000000000E+00 -0.16176840356E+03  0.16176840358E+03  0.25500000920E-02 0. -1.
    10030    2    1    2    0    0  0.00000000000E+00  0.00000000000E+00  0.16162219359E+04  0.19397587431E+04  0.10726092649E+04 0.  0.
        5    1    3    3  502    0 -0.50952029010E+03 -0.87477252574E+02  0.10660123097E+04  0.11847647573E+04  0.46999998093E+01 0.  1.
       -5    1    3    3    0  502  0.50952029010E+03  0.87477252574E+02  0.55020962624E+03  0.75499398577E+03  0.46999998093E+01 0. -1.
</event>
<event>
 5   0  0.5958706E-03  0.7560065E+03  0.7818609E-02  0.9625974E-01
       -1   -1    0    0    0  501  0.00000000000E+00  0.00000000000E+00  0.47432427412E+03  0.47432427415E+03  0.50400001928E-02 0. -1.
        1   -1    0    0  501    0  0.00000000000E+00  0.00000000000E+00 -0.30124215227E+03  0.30124215232E+03  0.50400001928E-02 0.  1.
    10030    2    1    2    0    0  0.00000000000E+00  0.00000000000E+00  0.17308212185E+03  0.77556642647E+03  0.75600652177E+03 0.  0.
        2    1    3    3  502    0  0.36307388386E+03 -0.10404157989E+03  0.10240629859E+03  0.39132383710E+03  0.25500000920E-02 0.  1.
       -2    1    3    3    0  502 -0.36307388386E+03  0.10404157989E+03  0.70675823257E+02  0.38424258937E+03  0.25500000920E-02 0. -1.
</event>
<event>
 5   0  0.1028016E-02  0.1103800E+04  0.7818609E-02  0.9201496E-01
        2   -1    0    0  501    0  0.00000000000E+00  0.00000000000E+00  0.27835042727E+04  0.27835042727E+04  0.25500000920E-02 0.  1.
       -2   -1    0    0    0  501  0.00000000000E+00  0.00000000000E+00 -0.10942807900E+03  0.10942807903E+03  0.25500000920E-02 0. -1.
    10030    2    1    2    0    0  0.00000000000E+00  0.00000000000E+00  0.26740761937E+04  0.28929323517E+04  0.11037998469E+04 0.  0.
        2    1    3    3  502    0  0.26235671111E+03 -0.29303043156E+03  0.23517493119E+04  0.23844124441E+04  0.25500000920E-02 0.  1.
       -2    1    3    3    0  502 -0.26235671111E+03  0.29303043156E+03  0.32232688176E+03  0.50851990757E+03  0.25500000920E-02 0. -1.
</event>
<event>
 5   0  0.9925021E-03  0.1100606E+04  0.7818609E-02  0.9204601E-01
        2   -1    0    0  501    0  0.00000000000E+00  0.00000000000E+00  0.14959820540E+04  0.14959820540E+04  0.25500000920E-02 0.  1.
       -2   -1    0    0    0  501  0.00000000000E+00  0.00000000000E+00 -0.20243123874E+03  0.20243123876E+03  0.25500000920E-02 0. -1.
    10030    2    1    2    0    0  0.00000000000E+00  0.00000000000E+00  0.12935508153E+04  0.16984132928E+04  0.11006061972E+04 0.  0.
        4    1    3    3  502    0 -0.26879709488E+02  0.29456608071E+03 -0.69325089239E+02  0.30380795839E+03  0.12699999809E+01 0. -1.
       -4    1    3    3    0  502  0.26879709488E+02 -0.29456608071E+03  0.13628759045E+04  0.13946053344E+04  0.12699999809E+01 0.  1.
</event>
<event>
 5   0  0.9692981E-03  0.1086218E+04  0.7818609E-02  0.9218730E-01
        2   -1    0    0  501    0  0.00000000000E+00  0.00000000000E+00  0.26993919789E+03  0.26993919790E+03  0.25500000920E-02 0. -1.
       -2   -1    0    0    0  501  0.00000000000E+00  0.00000000000E+00 -0.10927183807E+04  0.10927183807E+04  0.25500000920E-02 0.  1.
    10030    2    1    2    0    0  0.00000000000E+00  0.00000000000E+00 -0.82277918280E+03  0.13626575786E+04  0.10862182529E+04 0.  0.
        5    1    3    3  502    0 -0.43194926156E+02 -0.15258814031E+03  0.24022047964E+03  0.28788350255E+03  0.46999998093E+01 0. -1.
       -5    1    3    3    0  502  0.43194926156E+02  0.15258814031E+03 -0.10629996624E+04  0.10747740760E+04  0.46999998093E+01 0.  1.
</event>
<event>
 5   0  0.5854579E-03  0.1097938E+04  0.7818609E-02  0.9207204E-01
       -1   -1    0    0    0  501  0.00000000000E+00  0.00000000000E+00  0.64485574035E+03  0.64485574037E+03  0.50400001928E-02 0. -1.
        1   -1    0    0  501    0  0.00000000000E+00  0.00000000000E+00 -0.46733994428E+03  0.46733994431E+03  0.50400001928E-02 0.  1.
    10030    2    1    2    0    0  0.00000000000E+00  0.00000000000E+00  0.17751579607E+03  0.11121956847E+04  0.10979377866E+04 0.  0.
        4    1    3    3  502    0 -0.32381571469E+03  0.15828688240E+03  0.50820493500E+03  0.62304512122E+03  0.12699999809E+01 0. -1.
       -4    1    3    3    0  502  0.32381571469E+03 -0.15828688240E+03 -0.33068913893E+03  0.48915056345E+03  0.12699999809E+01 0.  1.
</event>
<event>
 5   0  0.5854579E-03  0.1117796E+04  0.7818609E-02  0.9188018E-01
        1   -1    0    0  501    0  0.00000000000E+00  0.00000000000E+00  0.11468415433E+04  0.11468415433E+04  0.50400001928E-02 0. -1.
       -1   -1    0    0    0  501  0.00000000000E+00  0.00000000000E+00 -0.27237173698E+03  0.27237173703E+03  0.50400001928E-02 0.  1.
    10030    2    1    2    0    0  0.00000000000E+00  0.00000000000E+00  0.87446980632E+03  0.14192132803E+04  0.11177964452E+04 0.  0.
        4    1    3    3  502    0 -0.13032094164E+03 -0.52514399393E+03  0.25945700817E+03  0.60006609151E+03  0.12699999809E+01 0.  1.
       -4    1    3    3    0  502  0.13032094164E+03  0.52514399393E+03  0.61501279815E+03  0.81914718884E+03  0.12699999809E+01 0. -1.
</event>
<event>
 5   0  0.1028016E-02  0.1090850E+04  0.7818609E-02  0.9214156E-01
       -2   -1    0    0    0  501  0.00000000000E+00  0.00000000000E+00  0.43250822473E+03  0.43250822473E+03  0.25500000920E-02 0. -1.
        2   -1    0    0  501    0  0.00000000000E+00  0.00000000000E+00 -0.68782168044E+03  0.68782168044E+03  0.25500000920E-02 0.  1.
    10030    2    1    2    0    0  0.00000000000E+00  0.00000000000E+00 -0.25531345571E+03  0.11203299052E+04  0.10908501894E+04 0.  0.
        2    1    3    3  502    0  0.41054814444E+03 -0.25878226688E+03 -0.38332291482E+03  0.61842905623E+03  0.25500000920E-02 0.  1.
       -2    1    3    3    0  502 -0.41054814444E+03  0.25878226688E+03  0.12800945911E+03  0.50190084895E+03  0.25500000920E-02 0. -1.
</event>
<event>
 5   0  0.1019384E-02  0.1098000E+04  0.7818609E-02  0.9207144E-01
        2   -1    0    0  501    0  0.00000000000E+00  0.00000000000E+00  0.97331923339E+03  0.97331923339E+03  0.25500000920E-02 0. -1.
       -2   -1    0    0    0  501  0.00000000000E+00  0.00000000000E+00 -0.30966294785E+03  0.30966294786E+03  0.25500000920E-02 0.  1.
    10030    2    1    2    0    0  0.00000000000E+00  0.00000000000E+00  0.66365628553E+03  0.12829821813E+04  0.10979998234E+04 0.  0.
        1    1    3    3  502    0  0.25909832000E+03  0.33425443704E+03 -0.77208761808E+02  0.42990599093E+03  0.50400001928E-02 0.  1.
       -1    1    3    3    0  502 -0.25909832000E+03 -0.33425443704E+03  0.74086504734E+03  0.85307619033E+03  0.50400001928E-02 0. -1.
</event>
<event>
 5   0  0.1019384E-02  0.1076817E+04  0.7818609E-02  0.9228087E-01
        2   -1    0    0  501    0  0.00000000000E+00  0.00000000000E+00  0.70215315951E+03  0.70215315951E+03  0.25500000920E-02 0.  1.
       -2   -1    0    0    0  501  0.00000000000E+00  0.00000000000E+00 -0.41284978606E+03  0.41284978607E+03  0.25500000920E-02 0. -1.
    10030    2    1    2    0    0  0.00000000000E+00  0.00000000000E+00  0.28930337344E+03  0.11150029456E+04  0.10768171278E+04 0.  0.
        1    1    3    3  502    0  0.21661875175E+03 -0.28579773635E+03 -0.27118613125E+03  0.44960643626E+03  0.50400001928E-02 0. -1.
       -1    1    3    3    0  502 -0.21661875175E+03  0.28579773635E+03  0.56048950470E+03  0.66539650932E+03  0.50400001928E-02 0.  1.
</event>
<event>
 5   0  0.3949750E-03  0.8339260E+03  0.7818609E-02  0.9512169E-01
       -4   -1    0    0    0  501  0.00000000000E+00  0.00000000000E+00  0.14235947328E+04  0.14235952993E+04  0.12699999809E+01 0. -1.
        4   -1    0    0  501    0  0.00000000000E+00  0.00000000000E+00 -0.12212225679E+03  0.12212886024E+03  0.12699999809E+01 0.  1.
    10030    2    1    2    0    0  0.00000000000E+00  0.00000000000E+00  0.13014724760E+04  0.15457241595E+04  0.83392599884E+03 0.  0.
        3    1    3    3  502    0 -0.90526667841E+02 -0.34123746975E+03  0.10619574242E+04  0.11191030646E+04  0.10100000352E+00 0. -1.
       -3    1    3    3    0  502  0.90526667841E+02  0.34123746975E+03  0.23951505186E+03  0.42662109491E+03  0.10100000352E+00 0.  1.
</event>
<event>
 5   0  0.9692981E-03  0.1087903E+04  0.7818609E-02  0.9217064E-01
        2   -1    0    0  501    0  0.00000000000E+00  0.00000000000E+00  0.72216296709E+03  0.72216296709E+03  0.25500000920E-02 0.  1.
       -2   -1    0    0    0  501  0.00000000000E+00  0.00000000000E+00 -0.40971785283E+03  0.40971785284E+03  0.25500000920E-02 0. -1.
    10030    2    1    2    0    0  0.00000000000E+00  0.00000000000E+00  0.31244511426E+03  0.11318808199E+04  0.10879026800E+04 0.  0.
        5    1    3    3  502    0  0.39901694017E+03  0.29069114324E+03  0.39380670060E+03  0.63152329073E+03  0.46999998093E+01 0.  1.
       -5    1    3    3    0  502 -0.39901694017E+03 -0.29069114324E+03 -0.81361586346E+02  0.50035752920E+03  0.46999998093E+01 0. -1.
</event>
<event>
 5   0  0.5854579E-03  0.1102648E+04  0.7818609E-02  0.9202614E-01
       -1   -1    0    0    0  501  0.00000000000E+00  0.00000000000E+00  0.72819066694E+03  0.72819066696E+03  0.50400001928E-02 0. -1.
        1   -1    0    0  501    0  0.00000000000E+00  0.00000000000E+00 -0.41741584666E+03  0.41741584669E+03  0.50400001928E-02 0.  1.
    10030    2    1    2    0    0  0.00000000000E+00  0.00000000000E+00  0.31077482029E+03  0.11456065136E+04  0.11026483098E+04 0.  0.
        4    1    3    3  502    0 -0.12365531447E+03  0.22117759965E+03 -0.35332769760E+03  0.43480138244E+03  0.12699999809E+01 0.  1.
       -4    1    3    3    0  502  0.12365531447E+03 -0.22117759965E+03  0.66410251789E+03  0.71080513121E+03  0.12699999809E+01 0. -1.
</event>
<event>
 5   0  0.5789905E-03  0.1076418E+04  0.7818609E-02  0.9228486E-01
        1   -1    0    0  501    0  0.00000000000E+00  0.00000000000E+00  0.35269662012E+03  0.35269662015E+03  0.50400001928E-02 0.  1.
       -1   -1    0    0    0  501  0.00000000000E+00  0.00000000000E+00 -0.82129774228E+03  0.82129774229E+03  0.50400001928E-02 0. -1.
    10030    2    1    2    0    0  0.00000000000E+00  0.00000000000E+00 -0.46860112216E+03  0.11739943624E+04  0.10764180189E+04 0.  0.
        1    1    3    3  502    0  0.48260951501E+03 -0.18651715193E+03 -0.39595354707E+03  0.65152114578E+03  0.50400001928E-02 0. -1.
       -1    1    3    3    0  502 -0.48260951501E+03  0.18651715193E+03 -0.72647575090E+02  0.52247321666E+03  0.50400001928E-02 0.  1.
</event>
<event>
 5   0  0.5789905E-03  0.1013804E+04  0.7818609E-02  0.9293533E-01
       -1   -1    0    0    0  501  0.00000000000E+00  0.00000000000E+00  0.18107393545E+03  0.18107393552E+03  0.50400001928E-02 0.  1.
        1   -1    0    0  501    0  0.00000000000E+00  0.00000000000E+00 -0.14190306515E+04  0.14190306515E+04  0.50400001928E-02 0. -1.
    10030    2    1    2    0    0  0.00000000000E+00  0.00000000000E+00 -0.12379567160E+04  0.16001045870E+04  0.10138036588E+04 0.  0.
        1    1    3    3  502    0  0.75150511154E+02 -0.28641075738E+03 -0.12683382589E+04  0.13024441102E+04  0.50400001928E-02 0. -1.
       -1    1    3    3    0  502 -0.75150511154E+02  0.28641075738E+03  0.30381542857E+02  0.29766047679E+03  0.50400001928E-02 0.  1.
</event>
<event>
 5   0  0.3949750E-03  0.1105374E+04  0.7818609E-02  0.9199970E-01
        4   -1    0    0  501    0  0.00000000000E+00  0.00000000000E+00  0.57333526835E+03  0.57333667494E+03  0.12699999809E+01 0. -1.
       -4   -1    0    0    0  501  0.00000000000E+00  0.00000000000E+00 -0.53277944059E+03  0.53278095426E+03  0.12699999809E+01 0.  1.
    10030    2    1    2    0    0  0.00000000000E+00  0.00000000000E+00  0.40555827754E+02  0.11061176292E+04  0.11053738890E+04 0.  0.
        1    1    3    3  502    0 -0.43853739457E+03  0.32462420397E+03  0.10846744665E+03  0.55629228580E+03  0.50400001928E-02 0.  1.
       -1    1    3    3    0  502  0.43853739457E+03 -0.32462420397E+03 -0.67911618900E+02  0.54982534340E+03  0.50400001928E-02 0. -1.
</event>
<event>
 5   0  0.3949750E-03  0.1120282E+04  0.7818609E-02  0.9185646E-01
        3   -1    0    0  501    0  0.00000000000E+00  0.00000000000E+00  0.21378625709E+03  0.21378628095E+03  0.10100000352E+00 0. -1.
       -3   -1    0    0    0  501  0.00000000000E+00  0.00000000000E+00 -0.14676240585E+04  0.14676240620E+04  0.10100000352E+00 0.  1.
    10030    2    1    2    0    0  0.00000000000E+00  0.00000000000E+00 -0.12538378015E+04  0.16814103430E+04  0.11202818882E+04 0.  0.
        1    1    3    3  502    0 -0.10973543310E+03  0.21972303283E+03 -0.13825017571E+04  0.14041478501E+04  0.50400001928E-02 0.  1.
       -1    1    3    3    0  502  0.10973543310E+03 -0.21972303283E+03  0.12866395569E+03  0.27726249286E+03  0.50400001928E-02 0. -1.
</event>
<event>
 5   0  0.5789905E-03  0.1078497E+04  0.7818609E-02  0.9226408E-01
        1   -1    0    0  501    0  0.00000000000E+00  0.00000000000E+00  0.12378334533E+04  0.12378334533E+04  0.50400001928E-02 0. -1.
       -1   -1    0    0    0  501  0.00000000000E+00  0.00000000000E+00 -0.23491750982E+03  0.23491750987E+03  0.50400001928E-02 0.  1.
    10030    2    1    2    0    0  0.00000000000E+00  0.00000000000E+00  0.10029159435E+04  0.14727509632E+04  0.10784966434E+04 0.  0.
        1    1    3    3  502    0  0.24578668833E+03  0.67607880773E+02 -0.14744394250E+03  0.29448537809E+03  0.50400001928E-02 0.  1.
       -1    1    3    3    0  502 -0.24578668833E+03 -0.67607880773E+02  0.11503598860E+04  0.11782655851E+04  0.50400001928E-02 0. -1.
</event>
<event>
 5   0  0.9719260E-03  0.1109002E+04  0.7818609E-02  0.9196462E-01
       -2   -1    0    0    0  501  0.00000000000E+00  0.00000000000E+00  0.69422230978E+03  0.69422230979E+03  0.25500000920E-02 0. -1.
        2   -1    0    0  501    0  0.00000000000E+00  0.00000000000E+00 -0.44290066229E+03  0.44290066230E+03  0.25500000920E-02 0.  1.
    10030    2    1    2    0    0  0.00000000000E+00  0.00000000000E+00  0.25132164749E+03  0.11371229721E+04  0.11090022918E+04 0.  0.
        3    1    3    3  502    0 -0.10081656831E+03  0.46879149425E+03  0.41118551524E+03  0.63166682964E+03  0.10100000352E+00 0. -1.
       -3    1    3    3    0  502  0.10081656831E+03 -0.46879149425E+03 -0.15986386774E+03  0.50545614245E+03  0.10100000352E+00 0.  1.
</event>
<event>
 5   0  0.5789905E-03  0.1102885E+04  0.7818609E-02  0.9202385E-01
       -1   -1    0    0    0  501  0.00000000000E+00  0.00000000000E+00  0.22740387050E+03  0.22740387056E+03  0.50400001928E-02 0.  1.
        1   -1    0    0  501    0  0.00000000000E+00  0.00000000000E+00 -0.13372181469E+04  0.13372181469E+04  0.50400001928E-02 0. -1.
    10030    2    1    2    0    0  0.00000000000E+00  0.00000000000E+00 -0.11098142764E+04  0.15646220175E+04  0.11028845495E+04 0.  0.
        1    1    3    3  502    0  0.74805306973E+02 -0.15138229212E+03  0.18982517689E+03  0.25405910754E+03  0.50400001928E-02 0.  1.
       -1    1    3    3    0  502 -0.74805306973E+02  0.15138229212E+03 -0.12996394533E+04  0.13105629100E+04  0.50400001928E-02 0. -1.
</event>
<event>
 5   0  0.9925021E-03  0.1058019E+04  0.7818609E-02  0.9247104E-01
       -2   -1    0    0    0  501  0.00000000000E+00  0.00000000000E+00  0.19558033019E+03  0.19558033021E+03  0.25500000920E-02 0.  1.
        2   -1    0    0  501    0  0.00000000000E+00  0.00000000000E+00 -0.14308752600E+04  0.14308752600E+04  0.25500000920E-02 0. -1.
    10030    2    1    2    0    0  0.00000000000E+00  0.00000000000E+00 -0.12352949298E+04  0.16264555902E+04  0.10580190090E+04 0.  0.
        4    1    3    3  502    0  0.35195495977E+03 -0.33886557599E+03 -0.30581648784E+03  0.57639180202E+03  0.12699999809E+01 0.  1.
       -4    1    3    3    0  502 -0.35195495977E+03  0.33886557599E+03 -0.92947844200E+03  0.10500637882E+04  0.12699999809E+01 0. -1.
</event>
<event>
 5   0  0.9719260E-03  0.8683650E+03  0.7818609E-02  0.9466014E-01
       -2   -1    0    0    0  501  0.00000000000E+00  0.00000000000E+00  0.10533391528E+04  0.10533391528E+04  0.25500000920E-02 0.  1.
        2   -1    0    0  501    0  0.00000000000E+00  0.00000000000E+00 -0.17896842292E+03  0.17896842294E+03  0.25500000920E-02 0. -1.
    10030    2    1    2    0    0  0.00000000000E+00  0.00000000000E+00  0.87437072988E+03  0.12323075757E+04  0.86836500847E+03 0.  0.
        3    1    3    3  502    0 -0.41375657075E+03 -0.60097245592E+02  0.60333826983E+03  0.73404581384E+03  0.10100000352E+00 0.  1.
       -3    1    3    3    0  502  0.41375657075E+03  0.60097245592E+02  0.27103246004E+03  0.49826176189E+03  0.10100000352E+00 0. -1.
</event>
<event>
 5   0  0.1028016E-02  0.1096513E+04  0.7818609E-02  0.9208597E-01
       -2   -1    0    0    0  501  0.00000000000E+00  0.00000000000E+00  0.25515540365E+03  0.25515540366E+03  0.25500000920E-02 0.  1.
        2   -1    0    0  501    0  0.00000000000E+00  0.00000000000E+00 -0.11780477392E+04  0.11780477392E+04  0.25500000920E-02 0. -1.
    10030    2    1    2    0    0  0.00000000000E+00  0.00000000000E+00 -0.92289233551E+03  0.14332031428E+04  0.10965131033E+04 0.  0.
        2    1    3    3  502    0  0.32452368338E+03  0.21513688121E+03 -0.96595211291E+03  0.10414715470E+04  0.25500000920E-02 0. -1.
       -2    1    3    3    0  502 -0.32452368338E+03 -0.21513688121E+03  0.43059777402E+02  0.39173159583E+03  0.25500000920E-02 0.  1.
</event>
<event>
 5   0  0.5712664E-03  0.1146309E+04  0.7818609E-02  0.9161195E-01
       -1   -1    0    0    0  501  0.00000000000E+00  0.00000000000E+00  0.99357628604E+03  0.99357628605E+03  0.50400001928E-02 0. -1.
        1   -1    0    0  501    0  0.00000000000E+00  0.00000000000E+00 -0.33063005205E+03  0.33063005209E+03  0.50400001928E-02 0.  1.
    10030    2    1    2    0    0  0.00000000000E+00  0.00000000000E+00  0.66294623399E+03  0.13242063381E+04  0.11463091716E+04 0.  0.
        5    1    3    3  502    0  0.13452899384E+03 -0.52428171313E+02  0.97220068274E+03  0.98287487548E+03  0.46999998093E+01 0. -1.
       -5    1    3    3    0  502 -0.13452899384E+03  0.52428171313E+02 -0.30925444875E+03  0.34133146266E+03  0.46999998093E+01 0.  1.
</event>
<event>
 5   0  0.5789905E-03  0.1038618E+04  0.7818609E-02  0.9267175E-01
       -1   -1    0    0    0  501  0.00000000000E+00  0.00000000000E+00  0.12377969925E+04  0.12377969925E+04  0.50400001928E-02 0. -1.
        1   -1    0    0  501    0  0.00000000000E+00  0.00000000000E+00 -0.21787224729E+03  0.21787224735E+03  0.50400001928E-02 0.  1.
    10030    2    1    2    0    0  0.00000000000E+00  0.00000000000E+00  0.10199247452E+04  0.14556692398E+04  0.10386175668E+04 0.  0.
        1    1    3    3  502    0 -0.37840823037E+03  0.35441129296E+03  0.46835137590E+03  0.69867958659E+03  0.50400001928E-02 0. -1.
       -1    1    3    3    0  502  0.37840823037E+03 -0.35441129296E+03  0.55157336927E+03  0.75698965323E+03  0.50400001928E-02 0.  1.
</event>
<event>
 5   0  0.9925021E-03  0.1093959E+04  0.7818609E-02  0.9211100E-01
       -2   -1    0    0    0  501  0.00000000000E+00  0.00000000000E+00  0.41675370548E+03  0.41675370549E+03  0.25500000920E-02 0.  1.
        2   -1    0    0  501    0  0.00000000000E+00  0.00000000000E+00 -0.71789800937E+03  0.71789800938E+03  0.25500000920E-02 0. -1.
    10030    2    1    2    0    0  0.00000000000E+00  0.00000000000E+00 -0.30114430389E+03  0.11346517149E+04  0.10939591502E+04 0.  0.
        4    1    3    3  502    0  0.46501826197E+03 -0.28713640706E+03 -0.12747866457E+03  0.56119668838E+03  0.12699999809E+01 0.  1.
       -4    1    3    3    0  502 -0.46501826197E+03  0.28713640706E+03 -0.17366563931E+03  0.57345502649E+03  0.12699999809E+01 0. -1.
</event>
<event>
 5   0  0.9925021E-03  0.1123473E+04  0.7818609E-02  0.9182611E-01
       -2   -1    0    0    0  501  0.00000000000E+00  0.00000000000E+00  0.60311776922E+03  0.60311776922E+03  0.25500000920E-02 0.  1.
        2   -1    0    0  501    0  0.00000000000E+00  0.00000000000E+00 -0.52319434140E+03  0.52319434141E+03  0.25500000920E-02 0. -1.
    10030    2    1    2    0    0  0.00000000000E+00  0.00000000000E+00  0.79923427812E+02  0.11263121106E+04  0.11234728373E+04 0.  0.
        4    1    3    3  502    0 -0.49831435739E+03  0.92789152414E+02 -0.20276411516E+03  0.54593216143E+03  0.12699999809E+01 0. -1.
       -4    1    3    3    0  502  0.49831435739E+03 -0.92789152414E+02  0.28268754297E+03  0.58037994920E+03  0.12699999809E+01 0.  1.
</event>
<event>
 5   0  0.9692981E-03  0.1054212E+04  0.7818609E-02  0.9251007E-01
       -2   -1    0    0    0  501  0.00000000000E+00  0.00000000000E+00  0.20405677050E+03  0.20405677052E+03  0.25500000920E-02 0. -1.
        2   -1    0    0  501    0  0.00000000000E+00  0.00000000000E+00 -0.13615845433E+04  0.13615845433E+04  0.25500000920E-02 0.  1.
    10030    2    1    2    0    0  0.00000000000E+00  0.00000000000E+00 -0.11575277728E+04  0.15656413138E+04  0.10542116385E+04 0.  0.
        5    1    3    3  502    0 -0.30542101758E+03 -0.41612571895E+03 -0.73716427993E+03  0.89993104045E+03  0.46999998093E+01 0.  1.
       -5    1    3    3    0  502  0.30542101758E+03  0.41612571895E+03 -0.42036349289E+03  0.66571027340E+03  0.46999998093E+01 0. -1.
</event>
<event>
 5   0  0.9719260E-03  0.1228391E+04  0.7818609E-02  0.9088363E-01
        2   -1    0    0  501    0  0.00000000000E+00  0.00000000000E+00  0.98226740294E+03  0.98226740295E+03  0.25500000920E-02 0.  1.
       -2   -1    0    0    0  501  0.00000000000E+00  0.00000000000E+00 -0.38404632132E+03  0.38404632132E+03  0.25500000920E-02 0. -1.
    10030    2    1    2    0    0  0.00000000000E+00  0.00000000000E+00  0.59822108163E+03  0.13663137243E+04  0.12283911147E+04 0.  0.
        3    1    3    3  502    0  0.55208051534E+03 -0.22125100699E+02  0.59747047437E+03  0.81378952651E+03  0.10100000352E+00 0.  1.
       -3    1    3    3    0  502 -0.55208051534E+03  0.22125100699E+02  0.75060725394E+00  0.55252419776E+03  0.10100000352E+00 0. -1.
</event>
<event>
 5   0  0.3949750E-03  0.1102017E+04  0.7818609E-02  0.9203228E-01
       -3   -1    0    0    0  501  0.00000000000E+00  0.00000000000E+00  0.73248082583E+03  0.73248083279E+03  0.10100000352E+00 0.  1.
        3   -1    0    0  501    0  0.00000000000E+00  0.00000000000E+00 -0.41449575167E+03  0.41449576398E+03  0.10100000352E+00 0. -1.
    10030    2    1    2    0    0  0.00000000000E+00  0.00000000000E+00  0.31798507416E+03  0.11469765968E+04  0.11020166996E+04 0.  0.
        5    1    3    3  502    0 -0.19356342082E+03  0.33569080088E+03  0.56667850985E+03  0.68651419155E+03  0.46999998093E+01 0.  1.
       -5    1    3    3    0  502  0.19356342082E+03 -0.33569080088E+03 -0.24869343569E+03  0.46046240523E+03  0.46999998093E+01 0. -1.
</event>
<event>
 5   0  0.9925021E-03  0.1102699E+04  0.7818609E-02  0.9202565E-01
        2   -1    0    0  501    0  0.00000000000E+00  0.00000000000E+00  0.42896393233E+03  0.42896393233E+03  0.25500000920E-02 0. -1.
       -2   -1    0    0    0  501  0.00000000000E+00  0.00000000000E+00 -0.70865268797E+03  0.70865268798E+03  0.25500000920E-02 0.  1.
    10030    2    1    2    0    0  0.00000000000E+00  0.00000000000E+00 -0.27968875565E+03  0.11376166203E+04  0.11026993129E+04 0.  0.
        4    1    3    3  502    0 -0.28195493963E+03 -0.45349492573E+03  0.17179785782E+01  0.53400449435E+03  0.12699999809E+01 0.  1.
       -4    1    3    3    0  502  0.28195493963E+03  0.45349492573E+03 -0.28140673422E+03  0.60361212596E+03  0.12699999809E+01 0. -1.
</event>
<event>
 5   0  0.3949750E-03  0.9994899E+03  0.7818609E-02  0.9309104E-01
        3   -1    0    0  501    0  0.00000000000E+00  0.00000000000E+00  0.39580980128E+03  0.39580981416E+03  0.10100000352E+00 0.  1.
       -3   -1    0    0    0  501  0.00000000000E+00  0.00000000000E+00 -0.63097230825E+03  0.63097231633E+03  0.10100000352E+00 0. -1.
    10030    2    1    2    0    0  0.00000000000E+00  0.00000000000E+00 -0.23516250697E+03  0.10267821305E+04  0.99948993933E+03 0.  0.
        3    1    3    3  502    0  0.14810560969E+03 -0.34488940516E+03  0.22136913542E+03  0.43576172127E+03  0.10100000352E+00 0.  1.
       -3    1    3    3    0  502 -0.14810560969E+03  0.34488940516E+03 -0.45653164239E+03  0.59102040922E+03  0.10100000352E+00 0. -1.
</event>
<event>
 5   0  0.5712664E-03  0.1109066E+04  0.7818609E-02  0.9196401E-01
        1   -1    0    0  501    0  0.00000000000E+00  0.00000000000E+00  0.70209445759E+03  0.70209445761E+03  0.50400001928E-02 0. -1.
       -1   -1    0    0    0  501  0.00000000000E+00  0.00000000000E+00 -0.43798461974E+03  0.43798461977E+03  0.50400001928E-02 0.  1.
    10030    2    1    2    0    0  0.00000000000E+00  0.00000000000E+00  0.26410983785E+03  0.11400790774E+04  0.11090655058E+04 0.  0.
        5    1    3    3  502    0 -0.79010719756E+02 -0.47114607045E+03 -0.15735505733E+03  0.50299504729E+03  0.46999998093E+01 0.  1.
       -5    1    3    3    0  502  0.79010719756E+02  0.47114607045E+03  0.42146489517E+03  0.63708403009E+03  0.46999998093E+01 0. -1.
</event>
<event>
 5   0  0.5958706E-03  0.1029721E+04  0.7818609E-02  0.9276535E-01
       -1   -1    0    0    0  501  0.00000000000E+00  0.00000000000E+00  0.43920028011E+03  0.43920028014E+03  0.50400001928E-02 0.  1.
        1   -1    0    0  501    0  0.00000000000E+00  0.00000000000E+00 -0.60355466216E+03  0.60355466218E+03  0.50400001928E-02 0. -1.
    10030    2    1    2    0    0  0.00000000000E+00  0.00000000000E+00 -0.16435438205E+03  0.10427549423E+04  0.10297210821E+04 0.  0.
        2    1    3    3  502    0 -0.99456559228E+02 -0.27087244265E+03  0.34962113912E+03  0.45331934471E+03  0.25500000920E-02 0.  1.
       -2    1    3    3    0  502  0.99456559228E+02  0.27087244265E+03 -0.51397552117E+03  0.58943559761E+03  0.25500000920E-02 0. -1.
</event>
<event>
 5   0  0.3949750E-03  0.1117284E+04  0.7818609E-02  0.9188507E-01
       -3   -1    0    0    0  501  0.00000000000E+00  0.00000000000E+00  0.24379948947E+03  0.24379951039E+03  0.10100000352E+00 0. -1.
        3   -1    0    0  501    0  0.00000000000E+00  0.00000000000E+00 -0.12800726404E+04  0.12800726444E+04  0.10100000352E+00 0.  1.
    10030    2    1    2    0    0  0.00000000000E+00  0.00000000000E+00 -0.10362731509E+04  0.15238721547E+04  0.11172843419E+04 0.  0.
        4    1    3    3  502    0  0.26946578566E+03 -0.47157791014E+03 -0.33987684081E+03  0.64071476867E+03  0.12699999809E+01 0. -1.
       -4    1    3    3    0  502 -0.26946578566E+03  0.47157791014E+03 -0.69639631008E+03  0.88315738607E+03  0.12699999809E+01 0.  1.
</event>
<event>
 5   0  0.9925021E-03  0.9876109E+03  0.7818609E-02  0.9322238E-01
        2   -1    0    0  501    0  0.00000000000E+00  0.00000000000E+00  0.39024008369E+03  0.39024008370E+03  0.25500000920E-02 0. -1.
       -2   -1    0    0    0  501  0.00000000000E+00  0.00000000000E+00 -0.62485592485E+03  0.62485592485E+03  0.25500000920E-02 0.  1.
    10030    2    1    2    0    0  0.00000000000E+00  0.00000000000E+00 -0.23461584116E+03  0.10150960085E+04  0.98761091208E+03 0.  0.
        4    1    3    3  502    0 -0.29562357720E+03 -0.61929963015E+02  0.28422194447E+03  0.41474371163E+03  0.12699999809E+01 0. -1.
       -4    1    3    3    0  502  0.29562357720E+03  0.61929963015E+02 -0.51883778563E+03  0.60035229692E+03  0.12699999809E+01 0.  1.
</event>
<event>
 5   0  0.9719260E-03  0.1163371E+04  0.7818609E-02  0.9145536E-01
       -2   -1    0    0    0  501  0.00000000000E+00  0.00000000000E+00  0.45061078281E+03  0.45061078282E+03  0.25500000920E-02 0.  1.
        2   -1    0    0  501    0  0.00000000000E+00  0.00000000000E+00 -0.75088785912E+03  0.75088785913E+03  0.25500000920E-02 0. -1.
    10030    2    1    2    0    0  0.00000000000E+00  0.00000000000E+00 -0.30027707631E+03  0.12014986419E+04  0.11633712494E+04 0.  0.
        3    1    3    3  502    0  0.27601391915E+03  0.49885507943E+03 -0.30952385967E+02  0.57096246307E+03  0.10100000352E+00 0.  1.
       -3    1    3    3    0  502 -0.27601391915E+03 -0.49885507943E+03 -0.26932469034E+03  0.63053617887E+03  0.10100000352E+00 0. -1.
</event>
<event>
 5   0  0.5712664E-03  0.1104058E+04  0.7818609E-02  0.9201245E-01
        1   -1    0    0  501    0  0.00000000000E+00  0.00000000000E+00  0.27782622782E+03  0.27782622786E+03  0.50400001928E-02 0.  1.
       -1   -1    0    0    0  501  0.00000000000E+00  0.00000000000E+00 -0.10968591127E+04  0.10968591127E+04  0.50400001928E-02 0. -1.
    10030    2    1    2    0    0  0.00000000000E+00  0.00000000000E+00 -0.81903288490E+03  0.13746853406E+04  0.11040583857E+04 0.  0.
        5    1    3    3  502    0 -0.28847465719E+03 -0.92113138755E+02 -0.98417909237E+03  0.10297247370E+04  0.46999998093E+01 0. -1.
       -5    1    3    3    0  502  0.28847465719E+03  0.92113138755E+02  0.16514620747E+03  0.34496060357E+03  0.46999998093E+01 0.  1.
</event>
<event>
 5   0  0.1028016E-02  0.1104113E+04  0.7818609E-02  0.9201193E-01
       -2   -1    0    0    0  501  0.00000000000E+00  0.00000000000E+00  0.30506000045E+03  0.30506000046E+03  0.25500000920E-02 0.  1.
        2   -1    0    0  501    0  0.00000000000E+00  0.00000000000E+00 -0.99903680117E+03  0.99903680117E+03  0.25500000920E-02 0. -1.
    10030    2    1    2    0    0  0.00000000000E+00  0.00000000000E+00 -0.69397680072E+03  0.13040968016E+04  0.11041126157E+04 0.  0.
        2    1    3    3  502    0  0.13407676856E+03  0.98370130320E+02  0.27477454016E+03  0.32117644735E+03  0.25500000920E-02 0.  1.
       -2    1    3    3    0  502 -0.13407676856E+03 -0.98370130320E+02 -0.96875134087E+03  0.98292035428E+03  0.25500000920E-02 0. -1.
</event>
<event>
 5   0  0.3949750E-03  0.1210985E+04  0.7818609E-02  0.9103295E-01
       -3   -1    0    0    0  501  0.00000000000E+00  0.00000000000E+00  0.78412259852E+03  0.78412260502E+03  0.10100000352E+00 0. -1.
        3   -1    0    0  501    0  0.00000000000E+00  0.00000000000E+00 -0.46755581101E+03  0.46755582192E+03  0.10100000352E+00 0.  1.
    10030    2    1    2    0    0  0.00000000000E+00  0.00000000000E+00  0.31656678751E+03  0.12516784269E+04  0.12109848692E+04 0.  0.
        5    1    3    3  502    0  0.94918775369E+02 -0.58104897625E+03  0.12213901575E+02  0.58889621845E+03  0.46999998093E+01 0.  1.
       -5    1    3    3    0  502 -0.94918775369E+02  0.58104897625E+03  0.30435288593E+03  0.66278220849E+03  0.46999998093E+01 0. -1.
</event>
<event>
 5   0  0.9925021E-03  0.1124357E+04  0.7818609E-02  0.9181772E-01
       -2   -1    0    0    0  501  0.00000000000E+00  0.00000000000E+00  0.26881274924E+03  0.26881274926E+03  0.25500000920E-02 0. -1.
        2   -1    0    0  501    0  0.00000000000E+00  0.00000000000E+00 -0.11757052914E+04  0.11757052914E+04  0.25500000920E-02 0.  1.
    10030    2    1    2    0    0  0.00000000000E+00  0.00000000000E+00 -0.90689254217E+03  0.14445180407E+04  0.11243568325E+04 0.  0.
        4    1    3    3  502    0 -0.29991252845E+03  0.38011206373E+03 -0.82046748653E+03  0.95268106681E+03  0.12699999809E+01 0.  1.
       -4    1    3    3    0  502  0.29991252845E+03 -0.38011206373E+03 -0.86425055643E+02  0.49183697386E+03  0.12699999809E+01 0. -1.
</event>
<event>
 5   0  0.5789905E-03  0.1084306E+04  0.7818609E-02  0.9220624E-01
        1   -1    0    0  501    0  0.00000000000E+00  0.00000000000E+00  0.90368843478E+03  0.90368843480E+03  0.50400001928E-02 0. -1.
       -1   -1    0    0    0  501  0.00000000000E+00  0.00000000000E+00 -0.32525591986E+03  0.32525591990E+03  0.50400001928E-02 0.  1.
    10030    2    1    2    0    0  0.00000000000E+00  0.00000000000E+00  0.57843251492E+03  0.12289443547E+04  0.10843062541E+04 0.  0.
        1    1    3    3  502    0 -0.18577650364E+03 -0.50250221525E+03  0.38342173262E+03  0.65881227274E+03  0.50400001928E-02 0.  1.
       -1    1    3    3    0  502  0.18577650364E+03  0.50250221525E+03  0.19501078230E+03  0.57013208196E+03  0.50400001928E-02 0. -1.
</event>
<event>
 5   0  0.1028016E-02  0.1084942E+04  0.7818609E-02  0.9219994E-01
        2   -1    0    0  501    0  0.00000000000E+00  0.00000000000E+00  0.49904081166E+03  0.49904081166E+03  0.25500000920E-02 0. -1.
       -2   -1    0    0    0  501  0.00000000000E+00  0.00000000000E+00 -0.58968080026E+03  0.58968080027E+03  0.25500000920E-02 0.  1.
    10030    2    1    2    0    0  0.00000000000E+00  0.00000000000E+00 -0.90639988607E+02  0.10887216119E+04  0.10849419988E+04 0.  0.
        2    1    3    3  502    0 -0.33866407202E+03  0.36542298463E+03 -0.26065430155E+03  0.56228816126E+03  0.25500000920E-02 0. -1.
       -2    1    3    3    0  502  0.33866407202E+03 -0.36542298463E+03  0.17001431294E+03  0.52643345067E+03  0.25500000920E-02 0.  1.
</event>
<event>
 5   0  0.5712664E-03  0.1056776E+04  0.7818609E-02  0.9248377E-01
        1   -1    0    0  501    0  0.00000000000E+00  0.00000000000E+00  0.60371295602E+03  0.60371295605E+03  0.50400001928E-02 0.  1.
       -1   -1    0    0    0  501  0.00000000000E+00  0.00000000000E+00 -0.46246089495E+03  0.46246089498E+03  0.50400001928E-02 0. -1.
    10030    2    1    2    0    0  0.00000000000E+00  0.00000000000E+00  0.14125206108E+03  0.10661738510E+04  0.10567755371E+04 0.  0.
        5    1    3    3  502    0  0.34395004707E+03  0.72034347510E+02  0.46869931166E+03  0.58582567104E+03  0.46999998093E+01 0.  1.
       -5    1    3    3    0  502 -0.34395004707E+03 -0.72034347510E+02 -0.32744725058E+03  0.48034817998E+03  0.46999998093E+01 0. -1.
</event>
<event>
 5   0  0.3949750E-03  0.1083083E+04  0.7818609E-02  0.9221839E-01
       -3   -1    0    0    0  501  0.00000000000E+00  0.00000000000E+00  0.15121299672E+04  0.15121299706E+04  0.10100000352E+00 0. -1.
        3   -1    0    0  501    0  0.00000000000E+00  0.00000000000E+00 -0.19394292299E+03  0.19394294929E+03  0.10100000352E+00 0.  1.
    10030    2    1    2    0    0  0.00000000000E+00  0.00000000000E+00  0.13181870442E+04  0.17060729199E+04  0.10830825104E+04 0.  0.
        2    1    3    3  502    0  0.15524517399E+03 -0.17892405565E+03  0.14261891150E+04  0.14457282848E+04  0.25500000920E-02 0. -1.
       -2    1    3    3    0  502 -0.15524517399E+03  0.17892405565E+03 -0.10800207074E+03  0.26034463511E+03  0.25500000920E-02 0.  1.
</event>
<event>
 5   0  0.5789905E-03  0.9589593E+03  0.7818609E-02  0.9354739E-01
       -1   -1    0    0    0  501  0.00000000000E+00  0.00000000000E+00  0.53108917603E+03  0.53108917605E+03  0.50400001928E-02 0.  1.
        1   -1    0    0  501    0  0.00000000000E+00  0.00000000000E+00 -0.43288538948E+03  0.43288538951E+03  0.50400001928E-02 0. -1.
    10030    2    1    2    0    0  0.00000000000E+00  0.00000000000E+00  0.98203786551E+02  0.96397456556E+03  0.95895932101E+03 0.  0.
        1    1    3    3  502    0 -0.26669318028E+03  0.22953772114E+01  0.44964560562E+03  0.52279220714E+03  0.50400001928E-02 0.  1.
       -1    1    3    3    0  502  0.26669318028E+03 -0.22953772114E+01 -0.35144181907E+03  0.44118235842E+03  0.50400001928E-02 0. -1.
</event>
<event>
 5   0  0.9692981E-03  0.1110512E+04  0.7818609E-02  0.9195007E-01
        2   -1    0    0  501    0  0.00000000000E+00  0.00000000000E+00  0.15411941697E+04  0.15411941697E+04  0.25500000920E-02 0. -1.
       -2   -1    0    0    0  501  0.00000000000E+00  0.00000000000E+00 -0.20004550187E+03  0.20004550188E+03  0.25500000920E-02 0.  1.
    10030    2    1    2    0    0  0.00000000000E+00  0.00000000000E+00  0.13411486678E+04  0.17412396715E+04  0.11105115239E+04 0.  0.
        5    1    3    3  502    0 -0.51465090937E+03 -0.18967618261E+03  0.80585826154E+03  0.97481908088E+03  0.46999998093E+01 0.  1.
       -5    1    3    3    0  502  0.51465090937E+03  0.18967618261E+03  0.53529040625E+03  0.76642059066E+03  0.46999998093E+01 0. -1.
</event>
<event>
 5   0  0.5712664E-03  0.1084016E+04  0.7818609E-02  0.9220913E-01
       -1   -1    0    0    0  501  0.00000000000E+00  0.00000000000E+00  0.24844800629E+03  0.24844800634E+03  0.50400001928E-02 0. -1.
        1   -1    0    0  501    0  0.00000000000E+00  0.00000000000E+00 -0.11824307903E+04  0.11824307903E+04  0.50400001928E-02 0.  1.
    10030    2    1    2    0    0  0.00000000000E+00  0.00000000000E+00 -0.93398278404E+03  0.14308787967E+04  0.10840158163E+04 0.  0.
        5    1    3    3  502    0 -0.51395789698E+03  0.12456389484E+03 -0.31035480510E+03  0.61319742238E+03  0.46999998093E+01 0. -1.
       -5    1    3    3    0  502  0.51395789698E+03 -0.12456389484E+03 -0.62362797894E+03  0.81768137430E+03  0.46999998093E+01 0.  1.
</event>
<event>
 5   0  0.9719260E-03  0.9043511E+03  0.7818609E-02  0.9420159E-01
        2   -1    0    0  501    0  0.00000000000E+00  0.00000000000E+00  0.29237182170E+04  0.29237182170E+04  0.25500000920E-02 0. -1.
       -2   -1    0    0    0  501  0.00000000000E+00  0.00000000000E+00 -0.69932425637E+02  0.69932425684E+02  0.25500000920E-02 0.  1.
    10030    2    1    2    0    0  0.00000000000E+00  0.00000000000E+00  0.28537857913E+04  0.29936506426E+04  0.90435105321E+03 0.  0.
        3    1    3    3  502    0 -0.18063061853E+03 -0.72029170585E+02  0.27782275552E+04  0.27850249515E+04  0.10100000352E+00 0. -1.
       -3    1    3    3    0  502  0.18063061853E+03  0.72029170585E+02  0.75558236144E+02  0.20862569117E+03  0.10100000352E+00 0.  1.
</event>
<event>
 5   0  0.5789905E-03  0.1102886E+04  0.7818609E-02  0.9202383E-01
        1   -1    0    0  501    0  0.00000000000E+00  0.00000000000E+00  0.17545054607E+04  0.17545054607E+04  0.50400001928E-02 0. -1.
       -1   -1    0    0    0  501  0.00000000000E+00  0.00000000000E+00 -0.17331927581E+03  0.17331927588E+03  0.50400001928E-02 0.  1.
    10030    2    1    2    0    0  0.00000000000E+00  0.00000000000E+00  0.15811861849E+04  0.19278247366E+04  0.11028864238E+04 0.  0.
        1    1    3    3  502    0 -0.13501358342E+03 -0.52869669933E+02 -0.13940148675E+03  0.20113837088E+03  0.50400001928E-02 0.  1.
       -1    1    3    3    0  502  0.13501358342E+03  0.52869669933E+02  0.17205876716E+04  0.17266863657E+04  0.50400001928E-02 0. -1.
</event>
<event>
 5   0  0.5998641E-03  0.1113625E+04  0.7818609E-02  0.9192012E-01
        1   -1    0    0  501    0  0.00000000000E+00  0.00000000000E+00  0.16912727580E+04  0.16912727580E+04  0.50400001928E-02 0.  1.
       -1   -1    0    0    0  501  0.00000000000E+00  0.00000000000E+00 -0.18331778834E+03  0.18331778841E+03  0.50400001928E-02 0. -1.
    10030    2    1    2    0    0  0.00000000000E+00  0.00000000000E+00  0.15079549696E+04  0.18745905464E+04  0.11136253976E+04 0.  0.
        3    1    3    3  502    0  0.35852431576E+03 -0.42404961629E+03  0.68492823961E+03  0.88175079568E+03  0.10100000352E+00 0. -1.
       -3    1    3    3    0  502 -0.35852431576E+03  0.42404961629E+03  0.82302673004E+03  0.99283975073E+03  0.10100000352E+00 0.  1.
</event>
<event>
 5   0  0.9719260E-03  0.1116327E+04  0.7818609E-02  0.9189423E-01
       -2   -1    0    0    0  501  0.00000000000E+00  0.00000000000E+00  0.21318097162E+03  0.21318097163E+03  0.25500000920E-02 0. -1.
        2   -1    0    0  501    0  0.00000000000E+00  0.00000000000E+00 -0.14614178081E+04  0.14614178081E+04  0.25500000920E-02 0.  1.
    10030    2    1    2    0    0  0.00000000000E+00  0.00000000000E+00 -0.12482368365E+04  0.16745987798E+04  0.11163269562E+04 0.  0.
        3    1    3    3  502    0  0.28215637975E+01  0.29962942021E+02 -0.14601997950E+04  0.14605099078E+04  0.10100000352E+00 0.  1.
       -3    1    3    3    0  502 -0.28215637975E+01 -0.29962942021E+02  0.21196295853E+03  0.21408887198E+03  0.10100000352E+00 0. -1.
</event>
<event>
 5   0  0.9692981E-03  0.1071889E+04  0.7818609E-02  0.9233032E-01
       -2   -1    0    0    0  501  0.00000000000E+00  0.00000000000E+00  0.28245361959E+03  0.28245361960E+03  0.25500000920E-02 0. -1.
        2   -1    0    0  501    0  0.00000000000E+00  0.00000000000E+00 -0.10169332599E+04  0.10169332599E+04  0.25500000920E-02 0.  1.
    10030    2    1    2    0    0  0.00000000000E+00  0.00000000000E+00 -0.73447964027E+03  0.12993868795E+04  0.10718889497E+04 0.  0.
        5    1    3    3  502    0  0.10589443390E+02 -0.51003094207E+03 -0.56632307283E+03  0.76222543319E+03  0.46999998093E+01 0. -1.
       -5    1    3    3    0  502 -0.10589443390E+02  0.51003094207E+03 -0.16815656744E+03  0.53716144626E+03  0.46999998093E+01 0.  1.
</event>
<event>
 5   0  0.9692981E-03  0.1149017E+04  0.7818609E-02  0.9158690E-01
       -2   -1    0    0    0  501  0.00000000000E+00  0.00000000000E+00  0.66656308101E+03  0.66656308102E+03  0.25500000920E-02 0. -1.
        2   -1    0    0  501    0  0.00000000000E+00  0.00000000000E+00 -0.49516737763E+03  0.49516737763E+03  0.25500000920E-02 0.  1.
    10030    2    1    2    0    0  0.00000000000E+00  0.00000000000E+00  0.17139570339E+03  0.11617304587E+04  0.11490174809E+04 0.  0.
        5    1    3    3  502    0 -0.18844853113E+03 -0.79360714242E+02  0.62850585794E+03  0.66094831516E+03  0.46999998093E+01 0. -1.
       -5    1    3    3    0  502  0.18844853113E+03  0.79360714242E+02 -0.45711015455E+03  0.50078214349E+03  0.46999998093E+01 0.  1.
</event>
<event>
 5   0  0.5854579E-03  0.1126919E+04  0.7818609E-02  0.9179345E-01
       -1   -1    0    0    0  501  0.00000000000E+00  0.00000000000E+00  0.48402259030E+03  0.48402259032E+03  0.50400001928E-02 0. -1.
        1   -1    0    0  501    0  0.00000000000E+00  0.00000000000E+00 -0.65593334622E+03  0.65593334624E+03  0.50400001928E-02 0.  1.
    10030    2    1    2    0    0  0.00000000000E+00  0.00000000000E+00 -0.17191075592E+03  0.11399559366E+04  0.11269189098E+04 0.  0.
        4    1    3    3  502    0 -0.20643452719E+02 -0.54095530252E+03  0.72141369175E+02  0.54613622981E+03  0.12699999809E+01 0.  1.
       -4    1    3    3    0  502  0.20643452719E+02  0.54095530252E+03 -0.24405212510E+03  0.59381970675E+03  0.12699999809E+01 0. -1.
</event>
<event>
 5   0  0.5712664E-03  0.1061730E+04  0.7818609E-02  0.9243317E-01
        1   -1    0    0  501    0  0.00000000000E+00  0.00000000000E+00  0.43903175408E+03  0.43903175411E+03  0.50400001928E-02 0. -1.
       -1   -1    0    0    0  501  0.00000000000E+00  0.00000000000E+00 -0.64190682995E+03  0.64190682997E+03  0.50400001928E-02 0.  1.
    10030    2    1    2    0    0  0.00000000000E+00  0.00000000000E+00 -0.20287507586E+03  0.10809385841E+04  0.10617296860E+04 0.  0.
        5    1    3    3  502    0 -0.31734450383E+03  0.63172008397E+02 -0.52988033981E+03  0.62088122960E+03  0.46999998093E+01 0.  1.
       -5    1    3    3    0  502  0.31734450383E+03 -0.63172008397E+02  0.32700526395E+03  0.46005735447E+03  0.46999998093E+01 0. -1.
</event>
<event>
 5   0  0.5958706E-03  0.1217368E+04  0.7818609E-02  0.9097789E-01
       -1   -1    0    0    0  501  0.00000000000E+00  0.00000000000E+00  0.27772278616E+03  0.27772278620E+03  0.50400001928E-02 0. -1.
        1   -1    0    0  501    0  0.00000000000E+00  0.00000000000E+00 -0.13340495207E+04  0.13340495207E+04  0.50400001928E-02 0.  1.
    10030    2    1    2    0    0  0.00000000000E+00  0.00000000000E+00 -0.10563267346E+04  0.16117723069E+04  0.12173675695E+04 0.  0.
        2    1    3    3  502    0  0.35797512378E+03  0.10109742551E+03 -0.11660547397E+04  0.12239487468E+04  0.25500000920E-02 0.  1.
       -2    1    3    3    0  502 -0.35797512378E+03 -0.10109742551E+03  0.10972800516E+03  0.38782356016E+03  0.25500000920E-02 0. -1.
</event>
<event>
 5   0  0.5789905E-03  0.1092821E+04  0.7818609E-02  0.9212217E-01
        1   -1    0    0  501    0  0.00000000000E+00  0.00000000000E+00  0.40813491224E+03  0.40813491227E+03  0.50400001928E-02 0. -1.
       -1   -1    0    0    0  501  0.00000000000E+00  0.00000000000E+00 -0.73153361087E+03  0.73153361089E+03  0.50400001928E-02 0.  1.
    10030    2    1    2    0    0  0.00000000000E+00  0.00000000000E+00 -0.32339869864E+03  0.11396685232E+04  0.10928209480E+04 0.  0.
        1    1    3    3  502    0 -0.20387517448E+03  0.23129866810E+03 -0.63214776566E+03  0.70333132895E+03  0.50400001928E-02 0.  1.
       -1    1    3    3    0  502  0.20387517448E+03 -0.23129866810E+03  0.30874906703E+03  0.43633719420E+03  0.50400001928E-02 0. -1.
</event>
<event>
 5   0  0.3949750E-03  0.1109115E+04  0.7818609E-02  0.9196353E-01
       -3   -1    0    0    0  501  0.00000000000E+00  0.00000000000E+00  0.10414631441E+04  0.10414631490E+04  0.10100000352E+00 0. -1.
        3   -1    0    0  501    0  0.00000000000E+00  0.00000000000E+00 -0.29529033910E+03  0.29529035637E+03  0.10100000352E+00 0.  1.
    10030    2    1    2    0    0  0.00000000000E+00  0.00000000000E+00  0.74617280503E+03  0.13367535054E+04  0.11091149982E+04 0.  0.
        1    1    3    3  502    0  0.20685810334E+03  0.27032629435E+03  0.90074002494E+03  0.96291181989E+03  0.50400001928E-02 0. -1.
       -1    1    3    3    0  502 -0.20685810334E+03 -0.27032629435E+03 -0.15456721991E+03  0.37384168551E+03  0.50400001928E-02 0.  1.
</event>
<event>
 5   0  0.5854579E-03  0.1079153E+04  0.7818609E-02  0.9225753E-01
       -1   -1    0    0    0  501  0.00000000000E+00  0.00000000000E+00  0.23158960017E+03  0.23158960023E+03  0.50400001928E-02 0.  1.
        1   -1    0    0  501    0  0.00000000000E+00  0.00000000000E+00 -0.12571487960E+04  0.12571487960E+04  0.50400001928E-02 0. -1.
    10030    2    1    2    0    0  0.00000000000E+00  0.00000000000E+00 -0.10255591958E+04  0.14887383962E+04  0.10791526066E+04 0.  0.
        4    1    3    3  502    0 -0.30417746353E+03  0.13681161563E+03  0.72348099822E+02  0.34128757366E+03  0.12699999809E+01 0.  1.
       -4    1    3    3    0  502  0.30417746353E+03 -0.13681161563E+03 -0.10979072956E+04  0.11474508226E+04  0.12699999809E+01 0. -1.
</event>
<event>
 5   0  0.9719260E-03  0.1108763E+04  0.7818609E-02  0.9196692E-01
       -2   -1    0    0    0  501  0.00000000000E+00  0.00000000000E+00  0.21016075561E+03  0.21016075563E+03  0.25500000920E-02 0.  1.
        2   -1    0    0  501    0  0.00000000000E+00  0.00000000000E+00 -0.14623999060E+04  0.14623999060E+04  0.25500000920E-02 0. -1.
    10030    2    1    2    0    0  0.00000000000E+00  0.00000000000E+00 -0.12522391504E+04  0.16725606616E+04  0.11087633999E+04 0.  0.
        3    1    3    3  502    0 -0.41834203209E+03  0.33891594229E+03 -0.42676457467E+03  0.68702407829E+03  0.10100000352E+00 0.  1.
       -3    1    3    3    0  502  0.41834203209E+03 -0.33891594229E+03 -0.82547457570E+03  0.98553658333E+03  0.10100000352E+00 0. -1.
</event>
<event>
 5   0  0.9692981E-03  0.1116715E+04  0.7818609E-02  0.9189052E-01
        2   -1    0    0  501    0  0.00000000000E+00  0.00000000000E+00  0.17347337499E+04  0.17347337499E+04  0.25500000920E-02 0.  1.
       -2   -1    0    0    0  501  0.00000000000E+00  0.00000000000E+00 -0.17971817076E+03  0.17971817078E+03  0.25500000920E-02 0. -1.
    10030    2    1    2    0    0  0.00000000000E+00  0.00000000000E+00  0.15550155791E+04  0.19144519207E+04  0.11167151406E+04 0.  0.
        5    1    3    3  502    0 -0.27035429991E+03 -0.32281155287E+03  0.14061015869E+04  0.14678019310E+04  0.46999998093E+01 0.  1.
       -5    1    3    3    0  502  0.27035429991E+03  0.32281155287E+03  0.14891399223E+03  0.44664998962E+03  0.46999998093E+01 0. -1.
</event>
<event>
 5   0  0.9692981E-03  0.1012765E+04  0.7818609E-02  0.9294654E-01
        2   -1    0    0  501    0  0.00000000000E+00  0.00000000000E+00  0.14395822914E+04  0.14395822914E+04  0.25500000920E-02 0. -1.
       -2   -1    0    0    0  501  0.00000000000E+00  0.00000000000E+00 -0.17812337328E+03  0.17812337330E+03  0.25500000920E-02 0.  1.
    10030    2    1    2    0    0  0.00000000000E+00  0.00000000000E+00  0.12614589181E+04  0.16177056646E+04  0.10127650347E+04 0.  0.
        5    1    3    3  502    0 -0.33935611556E+03 -0.14523745495E+03  0.11843893539E+04  0.12405872493E+04  0.46999998093E+01 0. -1.
       -5    1    3    3    0  502  0.33935611556E+03  0.14523745495E+03  0.77069564194E+02  0.37711841537E+03  0.46999998093E+01 0.  1.
</event>
<event>
 5   0  0.5789905E-03  0.1081574E+04  0.7818609E-02  0.9223340E-01
        1   -1    0    0  501    0  0.00000000000E+00  0.00000000000E+00  0.59921597047E+03  0.59921597049E+03  0.50400001928E-02 0.  1.
       -1   -1    0    0    0  501  0.00000000000E+00  0.00000000000E+00 -0.48805496689E+03  0.48805496692E+03  0.50400001928E-02 0. -1.
    10030    2    1    2    0    0  0.00000000000E+00  0.00000000000E+00  0.11116100357E+03  0.10872709374E+04  0.10815735401E+04 0.  0.
        1    1    3    3  502    0 -0.93664005711E+02  0.24435852061E+03 -0.42016321514E+03  0.49499612114E+03  0.50400001928E-02 0. -1.
       -1    1    3    3    0  502  0.93664005711E+02 -0.24435852061E+03  0.53132421872E+03  0.59227481626E+03  0.50400001928E-02 0.  1.
</event>
<event>
 5   0  0.1019384E-02  0.1110327E+04  0.7818609E-02  0.9195185E-01
       -2   -1    0    0    0  501  0.00000000000E+00  0.00000000000E+00  0.17588604811E+03  0.17588604813E+03  0.25500000920E-02 0. -1.
        2   -1    0    0  501    0  0.00000000000E+00  0.00000000000E+00 -0.17523077595E+04  0.17523077595E+04  0.25500000920E-02 0.  1.
    10030    2    1    2    0    0  0.00000000000E+00  0.00000000000E+00 -0.15764217114E+04  0.19281938076E+04  0.11103269553E+04 0.  0.
        1    1    3    3  502    0  0.29276057516E+03 -0.22968922820E+03 -0.72738834023E+02  0.37915278440E+03  0.50400001928E-02 0. -1.
       -1    1    3    3    0  502 -0.29276057516E+03  0.22968922820E+03 -0.15036828773E+04  0.15490410232E+04  0.50400001928E-02 0.  1.
</event>
<event>
 5   0  0.1019384E-02  0.1039241E+04  0.7818609E-02  0.9266523E-01
       -2   -1    0    0    0  501  0.00000000000E+00  0.00000000000E+00  0.23958200432E+03  0.23958200433E+03  0.25500000920E-02 0. -1.
        2   -1    0    0  501    0  0.00000000000E+00  0.00000000000E+00 -0.11269858490E+04  0.11269858490E+04  0.25500000920E-02 0.  1.
    10030    2    1    2    0    0  0.00000000000E+00  0.00000000000E+00 -0.88740384464E+03  0.13665678533E+04  0.10392411242E+04 0.  0.
        1    1    3    3  502    0 -0.32222988435E+03  0.14322516228E+03 -0.94556472059E+03  0.10091769846E+04  0.50400001928E-02 0.  1.
       -1    1    3    3    0  502  0.32222988435E+03 -0.14322516228E+03  0.58160875956E+02  0.35739086865E+03  0.50400001928E-02 0. -1.
</event>
<event>
 5   0  0.5789905E-03  0.1050051E+04  0.7818609E-02  0.9255291E-01
       -1   -1    0    0    0  501  0.00000000000E+00  0.00000000000E+00  0.46763757852E+03  0.46763757854E+03  0.50400001928E-02 0. -1.
        1   -1    0    0  501    0  0.00000000000E+00  0.00000000000E+00 -0.58945595385E+03  0.58945595387E+03  0.50400001928E-02 0.  1.
    10030    2    1    2    0    0  0.00000000000E+00  0.00000000000E+00 -0.12181837533E+03  0.10570935324E+04  0.10500509605E+04 0.  0.
        1    1    3    3  502    0  0.42490101848E+03  0.87425548658E+01  0.24943496383E+03  0.49278302424E+03  0.50400001928E-02 0. -1.
       -1    1    3    3    0  502 -0.42490101848E+03 -0.87425548658E+01 -0.37125333916E+03  0.56431050817E+03  0.50400001928E-02 0.  1.
</event>
<event>
 5   0  0.9925021E-03  0.1085037E+04  0.7818609E-02  0.9219899E-01
        2   -1    0    0  501    0  0.00000000000E+00  0.00000000000E+00  0.80432558145E+03  0.80432558145E+03  0.25500000920E-02 0. -1.
       -2   -1    0    0    0  501  0.00000000000E+00  0.00000000000E+00 -0.36592957928E+03  0.36592957929E+03  0.25500000920E-02 0.  1.
    10030    2    1    2    0    0  0.00000000000E+00  0.00000000000E+00  0.43839600217E+03  0.11702551607E+04  0.10850373664E+04 0.  0.
        4    1    3    3  502    0 -0.24565302031E+03  0.27227221701E+03 -0.21201175698E+03  0.42358961808E+03  0.12699999809E+01 0.  1.
       -4    1    3    3    0  502  0.24565302031E+03 -0.27227221701E+03  0.65040775915E+03  0.74666554267E+03  0.12699999809E+01 0. -1.
</event>
<event>
 5   0  0.5958706E-03  0.1098646E+04  0.7818609E-02  0.9206512E-01
       -1   -1    0    0    0  501  0.00000000000E+00  0.00000000000E+00  0.20858674505E+03  0.20858674511E+03  0.50400001928E-02 0.  1.
        1   -1    0    0  501    0  0.00000000000E+00  0.00000000000E+00 -0.14466689128E+04  0.14466689128E+04  0.50400001928E-02 0. -1.
    10030    2    1    2    0    0  0.00000000000E+00  0.00000000000E+00 -0.12380821678E+04  0.16552556579E+04  0.10986463667E+04 0.  0.
        2    1    3    3  502    0  0.45624929704E+03  0.74682212815E+02 -0.17206347813E+03  0.49330182898E+03  0.25500000920E-02 0.  1.
       -2    1    3    3    0  502 -0.45624929704E+03 -0.74682212815E+02 -0.10660186896E+04  0.11619538289E+04  0.25500000920E-02 0. -1.
</event>
<event>
 5   0  0.1028016E-02  0.1185404E+04  0.7818609E-02  0.9125729E-01
        2   -1    0    0  501    0  0.00000000000E+00  0.00000000000E+00  0.79480307648E+03  0.79480307649E+03  0.25500000920E-02 0.  1.
       -2   -1    0    0    0  501  0.00000000000E+00  0.00000000000E+00 -0.44199091483E+03  0.44199091484E+03  0.25500000920E-02 0. -1.
    10030    2    1    2    0    0  0.00000000000E+00  0.00000000000E+00  0.35281216165E+03  0.12367939913E+04  0.11854041317E+04 0.  0.
        2    1    3    3  502    0  0.73935629319E+02 -0.56879022182E+03  0.20576113397E+02  0.57394439640E+03  0.25500000920E-02 0. -1.
       -2    1    3    3    0  502 -0.73935629319E+02  0.56879022182E+03  0.33223604826E+03  0.66284959492E+03  0.25500000920E-02 0.  1.
</event>
<event>
 5   0  0.5789905E-03  0.1094401E+04  0.7818609E-02  0.9210666E-01
       -1   -1    0    0    0  501  0.00000000000E+00  0.00000000000E+00  0.65653592915E+03  0.65653592917E+03  0.50400001928E-02 0.  1.
        1   -1    0    0  501    0  0.00000000000E+00  0.00000000000E+00 -0.45607310850E+03  0.45607310852E+03  0.50400001928E-02 0. -1.
    10030    2    1    2    0    0  0.00000000000E+00  0.00000000000E+00  0.20046282065E+03  0.11126090377E+04  0.10944009906E+04 0.  0.
        1    1    3    3  502    0  0.26402160032E+02 -0.48615762970E+03  0.35415087076E+03  0.60205411240E+03  0.50400001928E-02 0.  1.
       -1    1    3    3    0  502 -0.26402160032E+02  0.48615762970E+03 -0.15368805011E+03  0.51055492529E+03  0.50400001928E-02 0. -1.
</event>
<event>
 5   0  0.1028016E-02  0.9711999E+03  0.7818609E-02  0.9340709E-01
       -2   -1    0    0    0  501  0.00000000000E+00  0.00000000000E+00  0.26896168760E+03  0.26896168761E+03  0.25500000920E-02 0. -1.
        2   -1    0    0  501    0  0.00000000000E+00  0.00000000000E+00 -0.87673191528E+03  0.87673191528E+03  0.25500000920E-02 0.  1.
    10030    2    1    2    0    0  0.00000000000E+00  0.00000000000E+00 -0.60777022768E+03  0.11456936029E+04  0.97119986720E+03 0.  0.
        2    1    3    3  502    0  0.28629254740E+03  0.77848022012E+02  0.14961033545E+03  0.33227547262E+03  0.25500000920E-02 0. -1.
       -2    1    3    3    0  502 -0.28629254740E+03 -0.77848022012E+02 -0.75738056313E+03  0.81341813027E+03  0.25500000920E-02 0.  1.
</event>
<event>
 5   0  0.9692981E-03  0.1112317E+04  0.7818609E-02  0.9193270E-01
       -2   -1    0    0    0  501  0.00000000000E+00  0.00000000000E+00  0.32309836566E+03  0.32309836567E+03  0.25500000920E-02 0.  1.
        2   -1    0    0  501    0  0.00000000000E+00  0.00000000000E+00 -0.95733107113E+03  0.95733107113E+03  0.25500000920E-02 0. -1.
    10030    2    1    2    0    0  0.00000000000E+00  0.00000000000E+00 -0.63423270547E+03  0.12804294368E+04  0.11123166896E+04 0.  0.
        5    1    3    3  502    0 -0.47614354854E+03 -0.15236105270E+01  0.13673002137E+02  0.47636544920E+03  0.46999998093E+01 0.  1.
       -5    1    3    3    0  502  0.47614354854E+03  0.15236105270E+01 -0.64790570761E+03  0.80406398760E+03  0.46999998093E+01 0. -1.
</event>
<event>
 5   0  0.9692981E-03  0.1195917E+04  0.7818609E-02  0.9116438E-01
        2   -1    0    0  501    0  0.00000000000E+00  0.00000000000E+00  0.72517297991E+03  0.72517297991E+03  0.25500000920E-02 0.  1.
       -2   -1    0    0    0  501  0.00000000000E+00  0.00000000000E+00 -0.49306065009E+03  0.49306065009E+03  0.25500000920E-02 0. -1.
    10030    2    1    2    0    0  0.00000000000E+00  0.00000000000E+00  0.23211232982E+03  0.12182336300E+04  0.11959168214E+04 0.  0.
        5    1    3    3  502    0 -0.29350158732E+03 -0.39735639744E+03  0.45923585374E+03  0.67450348236E+03  0.46999998093E+01 0.  1.
       -5    1    3    3    0  502  0.29350158732E+03  0.39735639744E+03 -0.22712352392E+03  0.54373014765E+03  0.46999998093E+01 0. -1.
</event>
<event>
 5   0  0.9692981E-03  0.1108180E+04  0.7818609E-02  0.9197255E-01
       -2   -1    0    0    0  501  0.00000000000E+00  0.00000000000E+00  0.28625180320E+03  0.28625180321E+03  0.25500000920E-02 0. -1.
        2   -1    0    0  501    0  0.00000000000E+00  0.00000000000E+00 -0.10725378293E+04  0.10725378293E+04  0.25500000920E-02 0.  1.
    10030    2    1    2    0    0  0.00000000000E+00  0.00000000000E+00 -0.78628602610E+03  0.13587896325E+04  0.11081802879E+04 0.  0.
        5    1    3    3  502    0  0.24025362454E+03 -0.56619924324E+02 -0.10013729124E+04  0.10313570767E+04  0.46999998093E+01 0.  1.
       -5    1    3    3    0  502 -0.24025362454E+03  0.56619924324E+02  0.21508688632E+03  0.32743255581E+03  0.46999998093E+01 0. -1.
</event>
<event>
 5   0  0.5789905E-03  0.1104201E+04  0.7818609E-02  0.9201107E-01
        1   -1    0    0  501    0  0.00000000000E+00  0.00000000000E+00  0.48565770914E+03  0.48565770917E+03  0.50400001928E-02 0. -1.
       -1   -1    0    0    0  501  0.00000000000E+00  0.00000000000E+00 -0.62763289238E+03  0.62763289240E+03  0.50400001928E-02 0.  1.
    10030    2    1    2    0    0  0.00000000000E+00  0.00000000000E+00 -0.14197518324E+03  0.11132906016E+04  0.11042006208E+04 0.  0.
        1    1    3    3  502    0  0.29841344496E+03  0.41175218627E+03  0.14578069954E+03  0.52900137941E+03  0.50400001928E-02 0. -1.
       -1    1    3    3    0  502 -0.29841344496E+03 -0.41175218627E+03 -0.28775588278E+03  0.58428922216E+03  0.50400001928E-02 0.  1.
</event>
<event>
 5   0  0.5789905E-03  0.1089610E+04  0.7818609E-02  0.9215378E-01
        1   -1    0    0  501    0  0.00000000000E+00  0.00000000000E+00  0.51454997739E+03  0.51454997742E+03  0.50400001928E-02 0. -1.
       -1   -1    0    0    0  501  0.00000000000E+00  0.00000000000E+00 -0.57683878977E+03  0.57683878979E+03  0.50400001928E-02 0.  1.
    10030    2    1    2    0    0  0.00000000000E+00  0.00000000000E+00 -0.62288812374E+02  0.10913887672E+04  0.10896098132E+04 0.  0.
        1    1    3    3  502    0 -0.10220940256E+03  0.12902517267E+03 -0.55133625531E+03  0.57538328408E+03  0.50400001928E-02 0.  1.
       -1    1    3    3    0  502  0.10220940256E+03 -0.12902517267E+03  0.48904744293E+03  0.51600548313E+03  0.50400001928E-02 0. -1.
</event>
<event>
 5   0  0.5998641E-03  0.1106332E+04  0.7818609E-02  0.9199042E-01
        1   -1    0    0  501    0  0.00000000000E+00  0.00000000000E+00  0.64914001273E+03  0.64914001275E+03  0.50400001928E-02 0.  1.
       -1   -1    0    0    0  501  0.00000000000E+00  0.00000000000E+00 -0.47138153464E+03  0.47138153467E+03  0.50400001928E-02 0. -1.
    10030    2    1    2    0    0  0.00000000000E+00  0.00000000000E+00  0.17775847809E+03  0.11205215474E+04  0.11063319853E+04 0.  0.
        3    1    3    3  502    0  0.20312911948E+03 -0.50732216903E+03  0.17574275117E+03  0.57404071909E+03  0.10100000352E+00 0. -1.
       -3    1    3    3    0  502 -0.20312911948E+03  0.50732216903E+03  0.20157269118E+01  0.54648082833E+03  0.10100000352E+00 0.  1.
</event>
<event>
 5   0  0.1019384E-02  0.1098939E+04  0.7818609E-02  0.9206227E-01
       -2   -1    0    0    0  501  0.00000000000E+00  0.00000000000E+00  0.15367504676E+03  0.15367504678E+03  0.25500000920E-02 0.  1.
        2   -1    0    0  501    0  0.00000000000E+00  0.00000000000E+00 -0.19646433974E+04  0.19646433974E+04  0.25500000920E-02 0. -1.
    10030    2    1    2    0    0  0.00000000000E+00  0.00000000000E+00 -0.18109683506E+04  0.21183184442E+04  0.10989388809E+04 0.  0.
        1    1    3    3  502    0  0.40810493545E+03  0.14065150165E+02 -0.19679372793E+03  0.45329376586E+03  0.50400001928E-02 0.  1.
       -1    1    3    3    0  502 -0.40810493545E+03 -0.14065150165E+02 -0.16141746227E+04  0.16650246783E+04  0.50400001928E-02 0. -1.
</event>
<event>
 5   0  0.5998641E-03  0.1107350E+04  0.7818609E-02  0.9198057E-01
       -1   -1    0    0    0  501  0.00000000000E+00  0.00000000000E+00  0.76804437693E+03  0.76804437695E+03  0.50400001928E-02 0.  1.
        1   -1    0    0  501    0  0.00000000000E+00  0.00000000000E+00 -0.39913872220E+03  0.39913872223E+03  0.50400001928E-02 0. -1.
    10030    2    1    2    0    0  0.00000000000E+00  0.00000000000E+00  0.36890565473E+03  0.11671830992E+04  0.11073504436E+04 0.  0.
        3    1    3    3  502    0  0.15800576294E+03 -0.36167688203E+03  0.59373812116E+03  0.71295228090E+03  0.10100000352E+00 0.  1.
       -3    1    3    3    0  502 -0.15800576294E+03  0.36167688203E+03 -0.22483246643E+03  0.45423081828E+03  0.10100000352E+00 0. -1.
</event>
<event>
 5   0  0.1019384E-02  0.1104900E+04  0.7818609E-02  0.9200429E-01
        2   -1    0    0  501    0  0.00000000000E+00  0.00000000000E+00  0.14461101087E+04  0.14461101087E+04  0.25500000920E-02 0.  1.
       -2   -1    0    0    0  501  0.00000000000E+00  0.00000000000E+00 -0.21104950033E+03  0.21104950034E+03  0.25500000920E-02 0. -1.
    10030    2    1    2    0    0  0.00000000000E+00  0.00000000000E+00  0.12350606084E+04  0.16571596090E+04  0.11048996622E+04 0.  0.
        1    1    3    3  502    0  0.38668283519E+03 -0.34449906332E+03  0.32904197224E+03  0.61357301048E+03  0.50400001928E-02 0. -1.
       -1    1    3    3    0  502 -0.38668283519E+03  0.34449906332E+03  0.90601863613E+03  0.10435865986E+04  0.50400001928E-02 0.  1.
</event>
<event>
 5   0  0.9719260E-03  0.1112841E+04  0.7818609E-02  0.9192766E-01
       -2   -1    0    0    0  501  0.00000000000E+00  0.00000000000E+00  0.30327568158E+03  0.30327568160E+03  0.25500000920E-02 0. -1.
        2   -1    0    0  501    0  0.00000000000E+00  0.00000000000E+00 -0.10208656766E+04  0.10208656766E+04  0.25500000920E-02 0.  1.
    10030    2    1    2    0    0  0.00000000000E+00  0.00000000000E+00 -0.71758999503E+03  0.13241413582E+04  0.11128409300E+04 0.  0.
        3    1    3    3  502    0 -0.52331592137E+03 -0.20894023212E+02 -0.13521372691E+03  0.54090560721E+03  0.10100000352E+00 0. -1.
       -3    1    3    3    0  502  0.52331592137E+03  0.20894023212E+02 -0.58237626813E+03  0.78323575100E+03  0.10100000352E+00 0.  1.
</event>
<event>
 5   0  0.1028016E-02  0.1095279E+04  0.7818609E-02  0.9209805E-01
        2   -1    0    0  501    0  0.00000000000E+00  0.00000000000E+00  0.15393464174E+04  0.15393464174E+04  0.25500000920E-02 0.  1.
       -2   -1    0    0    0  501  0.00000000000E+00  0.00000000000E+00 -0.19482885415E+03  0.19482885416E+03  0.25500000920E-02 0. -1.
    10030    2    1    2    0    0  0.00000000000E+00  0.00000000000E+00  0.13445175632E+04  0.17341752715E+04  0.10952791400E+04 0.  0.
        2    1    3    3  502    0 -0.18983838453E+03  0.41119926911E+03  0.11597193193E+04  0.12450190162E+04  0.25500000920E-02 0.  1.
       -2    1    3    3    0  502  0.18983838453E+03 -0.41119926911E+03  0.18479824392E+03  0.48915625533E+03  0.25500000920E-02 0. -1.
</event>
<event>
 5   0  0.5958706E-03  0.1110658E+04  0.7818609E-02  0.9194866E-01
       -1   -1    0    0    0  501  0.00000000000E+00  0.00000000000E+00  0.19261630208E+03  0.19261630215E+03  0.50400001928E-02 0. -1.
        1   -1    0    0  501    0  0.00000000000E+00  0.00000000000E+00 -0.16010603121E+04  0.16010603121E+04  0.50400001928E-02 0.  1.
    10030    2    1    2    0    0  0.00000000000E+00  0.00000000000E+00 -0.14084440100E+04  0.17936766142E+04  0.11106580334E+04 0.  0.
        2    1    3    3  502    0  0.10955938909E+03  0.30680805184E+03  0.22075175022E+02  0.32652986658E+03  0.25500000920E-02 0. -1.
       -2    1    3    3    0  502 -0.10955938909E+03 -0.30680805184E+03 -0.14305191850E+04  0.14671467476E+04  0.25500000920E-02 0.  1.
</event>
<event>
 5   0  0.9692981E-03  0.1073823E+04  0.7818609E-02  0.9231089E-01
       -2   -1    0    0    0  501  0.00000000000E+00  0.00000000000E+00  0.28589386962E+03  0.28589386963E+03  0.25500000920E-02 0.  1.
        2   -1    0    0  501    0  0.00000000000E+00  0.00000000000E+00 -0.10083242532E+04  0.10083242532E+04  0.25500000920E-02 0. -1.
    10030    2    1    2    0    0  0.00000000000E+00  0.00000000000E+00 -0.72243038362E+03  0.12942181229E+04  0.10738225600E+04 0.  0.
        5    1    3    3  502    0  0.81408838022E+02  0.52680875728E+03 -0.28407235908E+03  0.60404806170E+03  0.46999998093E+01 0. -1.
       -5    1    3    3    0  502 -0.81408838022E+02 -0.52680875728E+03 -0.43835802454E+03  0.69017006116E+03  0.46999998093E+01 0.  1.
</event>
<event>
 5   0  0.5712664E-03  0.9778873E+03  0.7818609E-02  0.9333136E-01
        1   -1    0    0  501    0  0.00000000000E+00  0.00000000000E+00  0.12769191166E+04  0.12769191166E+04  0.50400001928E-02 0. -1.
       -1   -1    0    0    0  501  0.00000000000E+00  0.00000000000E+00 -0.18722085645E+03  0.18722085652E+03  0.50400001928E-02 0.  1.
    10030    2    1    2    0    0  0.00000000000E+00  0.00000000000E+00  0.10896982601E+04  0.14641399731E+04  0.97788729552E+03 0.  0.
        5    1    3    3  502    0 -0.11334087458E+03  0.28501445156E+03 -0.25216015762E+02  0.30779429640E+03  0.46999998093E+01 0.  1.
       -5    1    3    3    0  502  0.11334087458E+03 -0.28501445156E+03  0.11149142759E+04  0.11563456767E+04  0.46999998093E+01 0. -1.
</event>
<event>
 5   0  0.9692981E-03  0.1044701E+04  0.7818609E-02  0.9260832E-01
        2   -1    0    0  501    0  0.00000000000E+00  0.00000000000E+00  0.10852982117E+04  0.10852982117E+04  0.25500000920E-02 0. -1.
       -2   -1    0    0    0  501  0.00000000000E+00  0.00000000000E+00 -0.25140568787E+03  0.25140568788E+03  0.25500000920E-02 0.  1.
    10030    2    1    2    0    0  0.00000000000E+00  0.00000000000E+00  0.83389252379E+03  0.13367038995E+04  0.10447011888E+04 0.  0.
        5    1    3    3  502    0 -0.25975708839E+03 -0.45193847445E+03  0.37439565809E+03  0.64180708040E+03  0.46999998093E+01 0.  1.
       -5    1    3    3    0  502  0.25975708839E+03  0.45193847445E+03  0.45949686570E+03  0.69489681914E+03  0.46999998093E+01 0. -1.
</event>
<event>
 5   0  0.1019384E-02  0.1057573E+04  0.7818609E-02  0.9247560E-01
        2   -1    0    0  501    0  0.00000000000E+00  0.00000000000E+00  0.62750403421E+03  0.62750403421E+03  0.25500000920E-02 0.  1.
       -2   -1    0    0    0  501  0.00000000000E+00  0.00000000000E+00 -0.44559885304E+03  0.44559885304E+03  0.25500000920E-02 0. -1.
    10030    2    1    2    0    0  0.00000000000E+00  0.00000000000E+00  0.18190518117E+03  0.10731028873E+04  0.10575728399E+04 0.  0.
        1    1    3    3  502    0 -0.31783665903E+03  0.24757050395E+02 -0.33712170007E+03  0.46398717014E+03  0.50400001928E-02 0. -1.
       -1    1    3    3    0  502  0.31783665903E+03 -0.24757050395E+02  0.51902688124E+03  0.60911571712E+03  0.50400001928E-02 0.  1.
</event>
<event>
 5   0  0.9925021E-03  0.1108988E+04  0.7818609E-02  0.9196475E-01
       -2   -1    0    0    0  501  0.00000000000E+00  0.00000000000E+00  0.28312105010E+03  0.28312105011E+03  0.25500000920E-02 0. -1.
        2   -1    0    0  501    0  0.00000000000E+00  0.00000000000E+00 -0.10859802469E+04  0.10859802469E+04  0.25500000920E-02 0.  1.
    10030    2    1    2    0    0  0.00000000000E+00  0.00000000000E+00 -0.80285919685E+03  0.13691012971E+04  0.11089884903E+04 0.  0.
        4    1    3    3  502    0 -0.43256806632E+03  0.22106302867E+03 -0.71367595986E+02  0.49099790356E+03  0.12699999809E+01 0. -1.
       -4    1    3    3    0  502  0.43256806632E+03 -0.22106302867E+03 -0.73149160086E+03  0.87810339350E+03  0.12699999809E+01 0.  1.
</event>
<event>
 5   0  0.5958706E-03  0.1099410E+04  0.7818609E-02  0.9205767E-01
       -1   -1    0    0    0  501  0.00000000000E+00  0.00000000000E+00  0.39930116880E+03  0.39930116883E+03  0.50400001928E-02 0.  1.
        1   -1    0    0  501    0  0.00000000000E+00  0.00000000000E+00 -0.75676068958E+03  0.75676068960E+03  0.50400001928E-02 0. -1.
    10030    2    1    2    0    0  0.00000000000E+00  0.00000000000E+00 -0.35745952078E+03  0.11560618584E+04  0.10994097105E+04 0.  0.
        2    1    3    3  502    0  0.29416740598E+03  0.25587651274E+03  0.22875414164E+03  0.45203507589E+03  0.25500000920E-02 0.  1.
       -2    1    3    3    0  502 -0.29416740598E+03 -0.25587651274E+03 -0.58621366242E+03  0.70402678254E+03  0.25500000920E-02 0. -1.
</event>
<event>
 5   0  0.5958706E-03  0.1139411E+04  0.7818609E-02  0.9167608E-01
        1   -1    0    0  501    0  0.00000000000E+00  0.00000000000E+00  0.66269819341E+03  0.66269819343E+03  0.50400001928E-02 0. -1.
       -1   -1    0    0    0  501  0.00000000000E+00  0.00000000000E+00 -0.48976187682E+03  0.48976187685E+03  0.50400001928E-02 0.  1.
    10030    2    1    2    0    0  0.00000000000E+00  0.00000000000E+00  0.17293631659E+03  0.11524600703E+04  0.11394109197E+04 0.  0.
        2    1    3    3  502    0 -0.13985084776E+03  0.55163202636E+03  0.59552137194E+02  0.57219106002E+03  0.25500000920E-02 0. -1.
       -2    1    3    3    0  502  0.13985084776E+03 -0.55163202636E+03  0.11338417939E+03  0.58026901026E+03  0.25500000920E-02 0.  1.
</event>
<event>
 5   0  0.9692981E-03  0.1151150E+04  0.7818609E-02  0.9156723E-01
       -2   -1    0    0    0  501  0.00000000000E+00  0.00000000000E+00  0.33427599836E+03  0.33427599837E+03  0.25500000920E-02 0.  1.
        2   -1    0    0  501    0  0.00000000000E+00  0.00000000000E+00 -0.99105728141E+03  0.99105728141E+03  0.25500000920E-02 0. -1.
    10030    2    1    2    0    0  0.00000000000E+00  0.00000000000E+00 -0.65678128305E+03  0.13253332798E+04  0.11511501417E+04 0.  0.
        5    1    3    3  502    0  0.56193884472E+03  0.87463945678E+02 -0.22645323505E+03  0.61215060620E+03  0.46999998093E+01 0.  1.
       -5    1    3    3    0  502 -0.56193884472E+03 -0.87463945678E+02 -0.43032804799E+03  0.71318267358E+03  0.46999998093E+01 0. -1.
</event>
<event>
 5   0  0.9719260E-03  0.1164951E+04  0.7818609E-02  0.9144100E-01
       -2   -1    0    0    0  501  0.00000000000E+00  0.00000000000E+00  0.71450504189E+03  0.71450504189E+03  0.25500000920E-02 0.  1.
        2   -1    0    0  501    0  0.00000000000E+00  0.00000000000E+00 -0.47484339273E+03  0.47484339274E+03  0.25500000920E-02 0. -1.
    10030    2    1    2    0    0  0.00000000000E+00  0.00000000000E+00  0.23966164916E+03  0.11893484346E+04  0.11649514981E+04 0.  0.
        3    1    3    3  502    0 -0.16788884323E+03  0.51126954035E+03  0.34742264709E+03  0.64053548886E+03  0.10100000352E+00 0.  1.
       -3    1    3    3    0  502  0.16788884323E+03 -0.51126954035E+03 -0.10776099793E+03  0.54881294577E+03  0.10100000352E+00 0. -1.
</event>
<event>
 5   0  0.3949750E-03  0.1099364E+04  0.7818609E-02  0.9205812E-01
        4   -1    0    0  501    0  0.00000000000E+00  0.00000000000E+00  0.10991648682E+04  0.10991656019E+04  0.12699999809E+01 0. -1.
       -4   -1    0    0    0  501  0.00000000000E+00  0.00000000000E+00 -0.27488864954E+03  0.27489158326E+03  0.12699999809E+01 0.  1.
    10030    2    1    2    0    0  0.00000000000E+00  0.00000000000E+00  0.82427621866E+03  0.13740571852E+04  0.10993642997E+04 0.  0.
        5    1    3    3  502    0 -0.15255453508E+03 -0.52112688297E+03  0.30547940260E+03  0.62304564018E+03  0.46999998093E+01 0. -1.
       -5    1    3    3    0  502  0.15255453508E+03  0.52112688297E+03  0.51879681606E+03  0.75101154498E+03  0.46999998093E+01 0.  1.
</event>
<event>
 5   0  0.9925021E-03  0.1108275E+04  0.7818609E-02  0.9197163E-01
       -2   -1    0    0    0  501  0.00000000000E+00  0.00000000000E+00  0.44974066797E+03  0.44974066798E+03  0.25500000920E-02 0. -1.
        2   -1    0    0  501    0  0.00000000000E+00  0.00000000000E+00 -0.68276824248E+03  0.68276824248E+03  0.25500000920E-02 0.  1.
    10030    2    1    2    0    0  0.00000000000E+00  0.00000000000E+00 -0.23302757451E+03  0.11325089105E+04  0.11082754990E+04 0.  0.
        4    1    3    3  502    0 -0.37336252168E+03 -0.33779000343E+03 -0.35301641163E+03  0.61491776588E+03  0.12699999809E+01 0.  1.
       -4    1    3    3    0  502  0.37336252168E+03  0.33779000343E+03  0.11998883713E+03  0.51759114458E+03  0.12699999809E+01 0. -1.
</event>
<event>
 5   0  0.5958706E-03  0.1069891E+04  0.7818609E-02  0.9235046E-01
       -1   -1    0    0    0  501  0.00000000000E+00  0.00000000000E+00  0.17499628269E+03  0.17499628276E+03  0.50400001928E-02 0.  1.
        1   -1    0    0  501    0  0.00000000000E+00  0.00000000000E+00 -0.16352722262E+04  0.16352722262E+04  0.50400001928E-02 0. -1.
    10030    2    1    2    0    0  0.00000000000E+00  0.00000000000E+00 -0.14602759435E+04  0.18102685089E+04  0.10698907623E+04 0.  0.
        2    1    3    3  502    0  0.11284087557E+03 -0.50501580432E+03 -0.50066879654E+03  0.72003004773E+03  0.25500000920E-02 0.  1.
       -2    1    3    3    0  502 -0.11284087557E+03  0.50501580432E+03 -0.95960714695E+03  0.10902384612E+04  0.25500000920E-02 0. -1.
</event>
<event>
 5   0  0.3949750E-03  0.1117261E+04  0.7818609E-02  0.9188530E-01
        3   -1    0    0  501    0  0.00000000000E+00  0.00000000000E+00  0.32376769318E+03  0.32376770893E+03  0.10100000352E+00 0.  1.
       -3   -1    0    0    0  501  0.00000000000E+00  0.00000000000E+00 -0.96386336123E+03  0.96386336652E+03  0.10100000352E+00 0. -1.
    10030    2    1    2    0    0  0.00000000000E+00  0.00000000000E+00 -0.64009566805E+03  0.12876310755E+04  0.11172606331E+04 0.  0.
        3    1    3    3  502    0  0.54482784521E+03  0.74805669418E+00 -0.17781980514E+03  0.57311240940E+03  0.10100000352E+00 0.  1.
       -3    1    3    3    0  502 -0.54482784521E+03 -0.74805669418E+00 -0.46227586291E+03  0.71451866605E+03  0.10100000352E+00 0. -1.
</event>
<event>
 5   0  0.5998641E-03  0.1079290E+04  0.7818609E-02  0.9225616E-01
        1   -1    0    0  501    0  0.00000000000E+00  0.00000000000E+00  0.10683053831E+04  0.10683053831E+04  0.50400001928E-02 0.  1.
       -1   -1    0    0    0  501  0.00000000000E+00  0.00000000000E+00 -0.27259674944E+03  0.27259674949E+03  0.50400001928E-02 0. -1.
    10030    2    1    2    0    0  0.00000000000E+00  0.00000000000E+00  0.79570863364E+03  0.13409021326E+04  0.10792897199E+04 0.  0.
        3    1    3    3  502    0 -0.12564097374E+03 -0.15594249272E+03 -0.22472330904E+03  0.30100546697E+03  0.10100000352E+00 0. -1.
       -3    1    3    3    0  502  0.12564097374E+03  0.15594249272E+03  0.10204319427E+04  0.10398966656E+04  0.10100000352E+00 0.  1.
</event>
<event>
 5   0  0.1019384E-02  0.1123650E+04  0.7818609E-02  0.9182443E-01
        2   -1    0    0  501    0  0.00000000000E+00  0.00000000000E+00  0.71172497344E+03  0.71172497345E+03  0.25500000920E-02 0. -1.
       -2   -1    0    0    0  501  0.00000000000E+00  0.00000000000E+00 -0.44349609291E+03  0.44349609292E+03  0.25500000920E-02 0.  1.
    10030    2    1    2    0    0  0.00000000000E+00  0.00000000000E+00  0.26822888053E+03  0.11552210664E+04  0.11236498475E+04 0.  0.
        1    1    3    3  502    0 -0.30165259216E+03  0.20906951765E+03  0.57144000991E+03  0.67915243836E+03  0.50400001928E-02 0. -1.
       -1    1    3    3    0  502  0.30165259216E+03 -0.20906951765E+03 -0.30321112938E+03  0.47606862801E+03  0.50400001928E-02 0.  1.
</event>
<event>
 5   0  0.5958706E-03  0.1068431E+04  0.7818609E-02  0.9236519E-01
       -1   -1    0    0    0  501  0.00000000000E+00  0.00000000000E+00  0.62777575057E+03  0.62777575059E+03  0.50400001928E-02 0.  1.
        1   -1    0    0  501    0  0.00000000000E+00  0.00000000000E+00 -0.45459886794E+03  0.45459886796E+03  0.50400001928E-02 0. -1.
    10030    2    1    2    0    0  0.00000000000E+00  0.00000000000E+00  0.17317688263E+03  0.10823746186E+04  0.10684308973E+04 0.  0.
        2    1    3    3  502    0  0.18083956864E+03  0.49918065910E+03  0.26639586061E+02  0.53159566172E+03  0.25500000920E-02 0. -1.
       -2    1    3    3    0  502 -0.18083956864E+03 -0.49918065910E+03  0.14653729657E+03  0.55077895684E+03  0.25500000920E-02 0.  1.
</event>
<event>
 5   0  0.1019384E-02  0.1079733E+04  0.7818609E-02  0.9225174E-01
       -2   -1    0    0    0  501  0.00000000000E+00  0.00000000000E+00  0.41622067512E+03  0.41622067513E+03  0.25500000920E-02 0. -1.
        2   -1    0    0  501    0  0.00000000000E+00  0.00000000000E+00 -0.70024322713E+03  0.70024322714E+03  0.25500000920E-02 0.  1.
    10030    2    1    2    0    0  0.00000000000E+00  0.00000000000E+00 -0.28402255201E+03  0.11164639023E+04  0.10797327609E+04 0.  0.
        1    1    3    3  502    0 -0.24050908448E+03 -0.40936809461E+02 -0.63999116268E+03  0.68491541844E+03  0.50400001928E-02 0.  1.
       -1    1    3    3    0  502  0.24050908448E+03  0.40936809461E+02  0.35596861067E+03  0.43154848383E+03  0.50400001928E-02 0. -1.
</event>
<event>
 5   0  0.9719260E-03  0.6663424E+03  0.7818609E-02  0.9776588E-01
       -2   -1    0    0    0  501  0.00000000000E+00  0.00000000000E+00  0.10143756909E+03  0.10143756912E+03  0.25500000920E-02 0.  1.
        2   -1    0    0  501    0  0.00000000000E+00  0.00000000000E+00 -0.10942991301E+04  0.10942991301E+04  0.25500000920E-02 0. -1.
    10030    2    1    2    0    0  0.00000000000E+00  0.00000000000E+00 -0.99286156099E+03  0.11957366992E+04  0.66634238536E+03 0.  0.
        3    1    3    3  502    0 -0.20658345947E+03 -0.17621973412E+02 -0.96442764246E+03  0.98646233958E+03  0.10100000352E+00 0. -1.
       -3    1    3    3    0  502  0.20658345947E+03  0.17621973412E+02 -0.28433918535E+02  0.20927435962E+03  0.10100000352E+00 0.  1.
</event>
<event>
 5   0  0.5789905E-03  0.1108603E+04  0.7818609E-02  0.9196847E-01
       -1   -1    0    0    0  501  0.00000000000E+00  0.00000000000E+00  0.13113060208E+03  0.13113060217E+03  0.50400001928E-02 0. -1.
        1   -1    0    0  501    0  0.00000000000E+00  0.00000000000E+00 -0.23430844886E+04  0.23430844886E+04  0.50400001928E-02 0.  1.
    10030    2    1    2    0    0  0.00000000000E+00  0.00000000000E+00 -0.22119538865E+04  0.24742150908E+04  0.11086028682E+04 0.  0.
        1    1    3    3  502    0 -0.29176229108E+03 -0.36139847180E+03 -0.43081190648E+03  0.63350847564E+03  0.50400001928E-02 0. -1.
       -1    1    3    3    0  502  0.29176229108E+03  0.36139847180E+03 -0.17811419800E+04  0.18407066151E+04  0.50400001928E-02 0.  1.
</event>
<event>
 5   0  0.5789905E-03  0.7035713E+03  0.7818609E-02  0.9711144E-01
        1   -1    0    0  501    0  0.00000000000E+00  0.00000000000E+00  0.58591564188E+03  0.58591564190E+03  0.50400001928E-02 0. -1.
       -1   -1    0    0    0  501  0.00000000000E+00  0.00000000000E+00 -0.21121325629E+03  0.21121325635E+03  0.50400001928E-02 0.  1.
    10030    2    1    2    0    0  0.00000000000E+00  0.00000000000E+00  0.37470238559E+03  0.79712889825E+03  0.70357132024E+03 0.  0.
        1    1    3    3  502    0  0.55338946879E+02 -0.29593284141E+03  0.39352313374E+03  0.49547865997E+03  0.50400001928E-02 0. -1.
       -1    1    3    3    0  502 -0.55338946879E+02  0.29593284141E+03 -0.18820748150E+02  0.30165023828E+03  0.50400001928E-02 0.  1.
</event>
<event>
 5   0  0.1019384E-02  0.1074458E+04  0.7818609E-02  0.9230450E-01
       -2   -1    0    0    0  501  0.00000000000E+00  0.00000000000E+00  0.11108436541E+04  0.11108436541E+04  0.25500000920E-02 0. -1.
        2   -1    0    0  501    0  0.00000000000E+00  0.00000000000E+00 -0.25981617024E+03  0.25981617026E+03  0.25500000920E-02 0.  1.
    10030    2    1    2    0    0  0.00000000000E+00  0.00000000000E+00  0.85102748381E+03  0.13706598243E+04  0.10744582708E+04 0.  0.
        1    1    3    3  502    0  0.36150154621E+03  0.38278671371E+03  0.28927241454E+03  0.60073918296E+03  0.50400001928E-02 0.  1.
       -1    1    3    3    0  502 -0.36150154621E+03 -0.38278671371E+03  0.56175506927E+03  0.76992064135E+03  0.50400001928E-02 0. -1.
</event>
<event>
 5   0  0.3949750E-03  0.1106219E+04  0.7818609E-02  0.9199152E-01
        4   -1    0    0  501    0  0.00000000000E+00  0.00000000000E+00  0.60705103213E+03  0.60705236060E+03  0.12699999809E+01 0. -1.
       -4   -1    0    0    0  501  0.00000000000E+00  0.00000000000E+00 -0.50395841085E+03  0.50396001108E+03  0.12699999809E+01 0.  1.
    10030    2    1    2    0    0  0.00000000000E+00  0.00000000000E+00  0.10309262128E+03  0.11110123717E+04  0.11062189663E+04 0.  0.
        3    1    3    3  502    0  0.45859800736E+03 -0.29023454764E+03 -0.55601798902E+02  0.54556374077E+03  0.10100000352E+00 0.  1.
       -3    1    3    3    0  502 -0.45859800736E+03  0.29023454764E+03  0.15869442018E+03  0.56544863091E+03  0.10100000352E+00 0. -1.
</event>
<event>
 5   0  0.5789905E-03  0.1107772E+04  0.7818609E-02  0.9197649E-01
        1   -1    0    0  501    0  0.00000000000E+00  0.00000000000E+00  0.67235764747E+03  0.67235764749E+03  0.50400001928E-02 0. -1.
       -1   -1    0    0    0  501  0.00000000000E+00  0.00000000000E+00 -0.45628970412E+03  0.45628970415E+03  0.50400001928E-02 0.  1.
    10030    2    1    2    0    0  0.00000000000E+00  0.00000000000E+00  0.21606794335E+03  0.11286473516E+04  0.11077723088E+04 0.  0.
        1    1    3    3  502    0  0.26747002897E+03  0.16580677875E+03 -0.35635981150E+03  0.47542025573E+03  0.50400001928E-02 0.  1.
       -1    1    3    3    0  502 -0.26747002897E+03 -0.16580677875E+03  0.57242775485E+03  0.65322709591E+03  0.50400001928E-02 0. -1.
</event>
<event>
 5   0  0.9719260E-03  0.1113920E+04  0.7818609E-02  0.9191730E-01
       -2   -1    0    0    0  501  0.00000000000E+00  0.00000000000E+00  0.17661735511E+03  0.17661735513E+03  0.25500000920E-02 0. -1.
        2   -1    0    0  501    0  0.00000000000E+00  0.00000000000E+00 -0.17563643903E+04  0.17563643903E+04  0.25500000920E-02 0.  1.
    10030    2    1    2    0    0  0.00000000000E+00  0.00000000000E+00 -0.15797470351E+04  0.19329817454E+04  0.11139199850E+04 0.  0.
        3    1    3    3  502    0 -0.40886864782E+03 -0.23863871069E+03 -0.28074082525E+03  0.55039751687E+03  0.10100000352E+00 0. -1.
       -3    1    3    3    0  502  0.40886864782E+03  0.23863871069E+03 -0.12990062099E+04  0.13825842285E+04  0.10100000352E+00 0.  1.
</event>
<event>
 5   0  0.5854579E-03  0.1125987E+04  0.7818609E-02  0.9180227E-01
       -1   -1    0    0    0  501  0.00000000000E+00  0.00000000000E+00  0.13403987222E+03  0.13403987232E+03  0.50400001928E-02 0. -1.
        1   -1    0    0  501    0  0.00000000000E+00  0.00000000000E+00 -0.23646803070E+04  0.23646803070E+04  0.50400001928E-02 0.  1.
    10030    2    1    2    0    0  0.00000000000E+00  0.00000000000E+00 -0.22306404348E+04  0.24987201794E+04  0.11259865831E+04 0.  0.
        4    1    3    3  502    0  0.17270397126E+03 -0.53583571622E+03 -0.11072403089E+04  0.12421470489E+04  0.12699999809E+01 0.  1.
       -4    1    3    3    0  502 -0.17270397126E+03  0.53583571622E+03 -0.11234001259E+04  0.12565731305E+04  0.12699999809E+01 0. -1.
</event>
<event>
 5   0  0.5854579E-03  0.1119939E+04  0.7818609E-02  0.9185973E-01
        1   -1    0    0  501    0  0.00000000000E+00  0.00000000000E+00  0.72554554632E+03  0.72554554634E+03  0.50400001928E-02 0. -1.
       -1   -1    0    0    0  501  0.00000000000E+00  0.00000000000E+00 -0.43217968960E+03  0.43217968963E+03  0.50400001928E-02 0.  1.
    10030    2    1    2    0    0  0.00000000000E+00  0.00000000000E+00  0.29336585672E+03  0.11577252360E+04  0.11199393716E+04 0.  0.
        4    1    3    3  502    0  0.54909553481E+03 -0.22782120031E+02  0.35636505487E+02  0.55072361922E+03  0.12699999809E+01 0.  1.
       -4    1    3    3    0  502 -0.54909553481E+03  0.22782120031E+02  0.25772935123E+03  0.60700161674E+03  0.12699999809E+01 0. -1.
</event>
<event>
 5   0  0.5854579E-03  0.1118458E+04  0.7818609E-02  0.9187386E-01
        1   -1    0    0  501    0  0.00000000000E+00  0.00000000000E+00  0.91225158339E+03  0.91225158340E+03  0.50400001928E-02 0. -1.
       -1   -1    0    0    0  501  0.00000000000E+00  0.00000000000E+00 -0.34281883848E+03  0.34281883852E+03  0.50400001928E-02 0.  1.
    10030    2    1    2    0    0  0.00000000000E+00  0.00000000000E+00  0.56943274490E+03  0.12550704219E+04  0.11184579174E+04 0.  0.
        4    1    3    3  502    0 -0.94804280526E+02 -0.29052436894E+03  0.81026207526E+03  0.86597835080E+03  0.12699999809E+01 0. -1.
       -4    1    3    3    0  502  0.94804280526E+02  0.29052436894E+03 -0.24082933035E+03  0.38909207112E+03  0.12699999809E+01 0.  1.
</event>
<event>
 5   0  0.1028016E-02  0.1119674E+04  0.7818609E-02  0.9186226E-01
        2   -1    0    0  501    0  0.00000000000E+00  0.00000000000E+00  0.45895392409E+03  0.45895392410E+03  0.25500000920E-02 0.  1.
       -2   -1    0    0    0  501  0.00000000000E+00  0.00000000000E+00 -0.68289543116E+03  0.68289543116E+03  0.25500000920E-02 0. -1.
    10030    2    1    2    0    0  0.00000000000E+00  0.00000000000E+00 -0.22394150707E+03  0.11418493553E+04  0.11196741274E+04 0.  0.
        2    1    3    3  502    0  0.31212785117E+03  0.32572662951E+03  0.22610025048E+03  0.50462159677E+03  0.25500000920E-02 0.  1.
       -2    1    3    3    0  502 -0.31212785117E+03 -0.32572662951E+03 -0.45004175755E+03  0.63722775849E+03  0.25500000920E-02 0. -1.
</event>
<event>
 5   0  0.9925021E-03  0.1073721E+04  0.7818609E-02  0.9231191E-01
        2   -1    0    0  501    0  0.00000000000E+00  0.00000000000E+00  0.99529031280E+03  0.99529031280E+03  0.25500000920E-02 0. -1.
       -2   -1    0    0    0  501  0.00000000000E+00  0.00000000000E+00 -0.28958287065E+03  0.28958287067E+03  0.25500000920E-02 0.  1.
    10030    2    1    2    0    0  0.00000000000E+00  0.00000000000E+00  0.70570744214E+03  0.12848731835E+04  0.10737206823E+04 0.  0.
        4    1    3    3  502    0 -0.42599888609E+03  0.25840600247E+03  0.11361638516E+03  0.51103718939E+03  0.12699999809E+01 0.  1.
       -4    1    3    3    0  502  0.42599888609E+03 -0.25840600247E+03  0.59209105698E+03  0.77383599407E+03  0.12699999809E+01 0. -1.
</event>
<event>
 5   0  0.9719260E-03  0.1084773E+04  0.7818609E-02  0.9220161E-01
        2   -1    0    0  501    0  0.00000000000E+00  0.00000000000E+00  0.10826224338E+04  0.10826224338E+04  0.25500000920E-02 0.  1.
       -2   -1    0    0    0  501  0.00000000000E+00  0.00000000000E+00 -0.27173204927E+03  0.27173204928E+03  0.25500000920E-02 0. -1.
    10030    2    1    2    0    0  0.00000000000E+00  0.00000000000E+00  0.81089038457E+03  0.13543544831E+04  0.10847731791E+04 0.  0.
        3    1    3    3  502    0  0.33476075916E+02  0.56213404370E+02 -0.26678725622E+03  0.27469263691E+03  0.10100000352E+00 0. -1.
       -3    1    3    3    0  502 -0.33476075916E+02 -0.56213404370E+02  0.10776776408E+04  0.10796618462E+04  0.10100000352E+00 0.  1.
</event>
<event>
 5   0  0.5998641E-03  0.1112932E+04  0.7818609E-02  0.9192678E-01
       -1   -1    0    0    0  501  0.00000000000E+00  0.00000000000E+00  0.70000854803E+03  0.70000854805E+03  0.50400001928E-02 0.  1.
        1   -1    0    0  501    0  0.00000000000E+00  0.00000000000E+00 -0.44235819871E+03  0.44235819874E+03  0.50400001928E-02 0. -1.
    10030    2    1    2    0    0  0.00000000000E+00  0.00000000000E+00  0.25765034932E+03  0.11423667468E+04  0.11129321999E+04 0.  0.
        3    1    3    3  502    0  0.42867569219E+03  0.13372500549E+03 -0.20851447420E+03  0.49509950749E+03  0.10100000352E+00 0. -1.
       -3    1    3    3    0  502 -0.42867569219E+03 -0.13372500549E+03  0.46616482353E+03  0.64726723929E+03  0.10100000352E+00 0.  1.
</event>
<event>
 5   0  0.9719260E-03  0.1104432E+04  0.7818609E-02  0.9200883E-01
        2   -1    0    0  501    0  0.00000000000E+00  0.00000000000E+00  0.43076989933E+03  0.43076989934E+03  0.25500000920E-02 0.  1.
       -2   -1    0    0    0  501  0.00000000000E+00  0.00000000000E+00 -0.70790087911E+03  0.70790087911E+03  0.25500000920E-02 0. -1.
    10030    2    1    2    0    0  0.00000000000E+00  0.00000000000E+00 -0.27713097978E+03  0.11386707784E+04  0.11044317823E+04 0.  0.
        3    1    3    3  502    0  0.82893052571E+02  0.42019621973E+03  0.22081839958E+03  0.48186813241E+03  0.10100000352E+00 0.  1.
       -3    1    3    3    0  502 -0.82893052571E+02 -0.42019621973E+03 -0.49794937936E+03  0.65680264604E+03  0.10100000352E+00 0. -1.
</event>
<event>
 5   0  0.3949750E-03  0.1052072E+04  0.7818609E-02  0.9253208E-01
        3   -1    0    0  501    0  0.00000000000E+00  0.00000000000E+00  0.28965057098E+03  0.28965058859E+03  0.10100000352E+00 0.  1.
       -3   -1    0    0    0  501  0.00000000000E+00  0.00000000000E+00 -0.95533600352E+03  0.95533600886E+03  0.10100000352E+00 0. -1.
    10030    2    1    2    0    0  0.00000000000E+00  0.00000000000E+00 -0.66568543255E+03  0.12449865975E+04  0.10520715435E+04 0.  0.
        1    1    3    3  502    0 -0.19109725137E+03  0.48370576458E+03 -0.42620283941E+03  0.67241228908E+03  0.50400001928E-02 0.  1.
       -1    1    3    3    0  502  0.19109725137E+03 -0.48370576458E+03 -0.23948259313E+03  0.57257430837E+03  0.50400001928E-02 0. -1.
</event>
<event>
 5   0  0.1028016E-02  0.8802273E+03  0.7818609E-02  0.9450641E-01
        2   -1    0    0  501    0  0.00000000000E+00  0.00000000000E+00  0.11683270916E+04  0.11683270916E+04  0.25500000920E-02 0.  1.
       -2   -1    0    0    0  501  0.00000000000E+00  0.00000000000E+00 -0.16579262065E+03  0.16579262067E+03  0.25500000920E-02 0. -1.
    10030    2    1    2    0    0  0.00000000000E+00  0.00000000000E+00  0.10025344709E+04  0.13341197123E+04  0.88022726681E+03 0.  0.
        2    1    3    3  502    0  0.61896971660E+01  0.13039224091E+03  0.11383099562E+04  0.11457704854E+04  0.25500000920E-02 0.  1.
       -2    1    3    3    0  502 -0.61896971660E+01 -0.13039224091E+03 -0.13577548528E+03  0.18834922684E+03  0.25500000920E-02 0. -1.
</event>
<event>
 5   0  0.5998641E-03  0.1036342E+04  0.7818609E-02  0.9269560E-01
        1   -1    0    0  501    0  0.00000000000E+00  0.00000000000E+00  0.13045115229E+04  0.13045115229E+04  0.50400001928E-02 0. -1.
       -1   -1    0    0    0  501  0.00000000000E+00  0.00000000000E+00 -0.20582493914E+03  0.20582493920E+03  0.50400001928E-02 0.  1.
    10030    2    1    2    0    0  0.00000000000E+00  0.00000000000E+00  0.10986865838E+04  0.15103364621E+04  0.10363416519E+04 0.  0.
        3    1    3    3  502    0 -0.25932409983E+02  0.23097897808E+03  0.12242773380E+04  0.12461455729E+04  0.10100000352E+00 0. -1.
       -3    1    3    3    0  502  0.25932409983E+02 -0.23097897808E+03 -0.12559075425E+03  0.26419088924E+03  0.10100000352E+00 0.  1.
</event>
<event>
 5   0  0.9692981E-03  0.1190082E+04  0.7818609E-02  0.9121582E-01
       -2   -1    0    0    0  501  0.00000000000E+00  0.00000000000E+00  0.22821385425E+03  0.22821385427E+03  0.25500000920E-02 0.  1.
        2   -1    0    0  501    0  0.00000000000E+00  0.00000000000E+00 -0.15514998953E+04  0.15514998953E+04  0.25500000920E-02 0. -1.
    10030    2    1    2    0    0  0.00000000000E+00  0.00000000000E+00 -0.13232860410E+04  0.17797137495E+04  0.11900819652E+04 0.  0.
        5    1    3    3  502    0  0.55891433636E+03  0.64973571779E+02 -0.95102368309E+03  0.11050225953E+04  0.46999998093E+01 0.  1.
       -5    1    3    3    0  502 -0.55891433636E+03 -0.64973571779E+02 -0.37226235793E+03  0.67469115420E+03  0.46999998093E+01 0. -1.
</event>
<event>
 5   0  0.5712664E-03  0.1101021E+04  0.7818609E-02  0.9204198E-01
        1   -1    0    0  501    0  0.00000000000E+00  0.00000000000E+00  0.34951804824E+03  0.34951804828E+03  0.50400001928E-02 0.  1.
       -1   -1    0    0    0  501  0.00000000000E+00  0.00000000000E+00 -0.86708433106E+03  0.86708433107E+03  0.50400001928E-02 0. -1.
    10030    2    1    2    0    0  0.00000000000E+00  0.00000000000E+00 -0.51756628282E+03  0.12166023794E+04  0.11010206594E+04 0.  0.
        5    1    3    3  502    0  0.52297956782E+03  0.15182026321E+03 -0.16981697605E+03  0.57045325490E+03  0.46999998093E+01 0.  1.
       -5    1    3    3    0  502 -0.52297956782E+03 -0.15182026321E+03 -0.34774930677E+03  0.64614912445E+03  0.46999998093E+01 0. -1.
</event>
<event>
 5   0  0.9692981E-03  0.1098641E+04  0.7818609E-02  0.9206518E-01
       -2   -1    0    0    0  501  0.00000000000E+00  0.00000000000E+00  0.16849430996E+03  0.16849430998E+03  0.25500000920E-02 0. -1.
        2   -1    0    0  501    0  0.00000000000E+00  0.00000000000E+00 -0.17908783305E+04  0.17908783305E+04  0.25500000920E-02 0.  1.
    10030    2    1    2    0    0  0.00000000000E+00  0.00000000000E+00 -0.16223840205E+04  0.19593726404E+04  0.10986406301E+04 0.  0.
        5    1    3    3  502    0  0.11215594001E+03  0.25310009726E+03 -0.16573306230E+04  0.16802992287E+04  0.46999998093E+01 0.  1.
       -5    1    3    3    0  502 -0.11215594001E+03 -0.25310009726E+03  0.34946602482E+02  0.27907341174E+03  0.46999998093E+01 0. -1.
</event>
<event>
 5   0  0.1019384E-02  0.9770286E+03  0.7818609E-02  0.9334105E-01
       -2   -1    0    0    0  501  0.00000000000E+00  0.00000000000E+00  0.24800635997E+03  0.24800635998E+03  0.25500000920E-02 0. -1.
        2   -1    0    0  501    0  0.00000000000E+00  0.00000000000E+00 -0.96225842282E+03  0.96225842283E+03  0.25500000920E-02 0.  1.
    10030    2    1    2    0    0  0.00000000000E+00  0.00000000000E+00 -0.71425206285E+03  0.12102647828E+04  0.97702857441E+03 0.  0.
        1    1    3    3  502    0  0.12285551499E+02  0.99576549736E+02  0.23510620107E+03  0.25561954119E+03  0.50400001928E-02 0. -1.
       -1    1    3    3    0  502 -0.12285551499E+02 -0.99576549736E+02 -0.94935826392E+03  0.95464524161E+03  0.50400001928E-02 0.  1.
</event>
<event>
 5   0  0.9925021E-03  0.1085033E+04  0.7818609E-02  0.9219904E-01
       -2   -1    0    0    0  501  0.00000000000E+00  0.00000000000E+00  0.10074005262E+04  0.10074005262E+04  0.25500000920E-02 0.  1.
        2   -1    0    0  501    0  0.00000000000E+00  0.00000000000E+00 -0.29216203053E+03  0.29216203054E+03  0.25500000920E-02 0. -1.
    10030    2    1    2    0    0  0.00000000000E+00  0.00000000000E+00  0.71523849570E+03  0.12995625568E+04  0.10850330563E+04 0.  0.
        4    1    3    3  502    0 -0.13373155327E+03 -0.32634411052E+03  0.85136051270E+03  0.92152099395E+03  0.12699999809E+01 0.  1.
       -4    1    3    3    0  502  0.13373155327E+03  0.32634411052E+03 -0.13612201700E+03  0.37804156282E+03  0.12699999809E+01 0. -1.
</event>
<event>
 5   0  0.5998641E-03  0.1107701E+04  0.7818609E-02  0.9197718E-01
        1   -1    0    0  501    0  0.00000000000E+00  0.00000000000E+00  0.50909995457E+03  0.50909995460E+03  0.50400001928E-02 0.  1.
       -1   -1    0    0    0  501  0.00000000000E+00  0.00000000000E+00 -0.60253476742E+03  0.60253476744E+03  0.50400001928E-02 0. -1.
    10030    2    1    2    0    0  0.00000000000E+00  0.00000000000E+00 -0.93434812845E+02  0.11116347220E+04  0.11077010838E+04 0.  0.
        3    1    3    3  502    0  0.32942404392E+02 -0.30173600254E+03  0.41819937281E+03  0.51674030504E+03  0.10100000352E+00 0.  1.
       -3    1    3    3    0  502 -0.32942404392E+02  0.30173600254E+03 -0.51163418565E+03  0.59489441699E+03  0.10100000352E+00 0. -1.
</event>
<event>
 5   0  0.5854579E-03  0.1084907E+04  0.7818609E-02  0.9220029E-01
        1   -1    0    0  501    0  0.00000000000E+00  0.00000000000E+00  0.12087964154E+04  0.12087964154E+04  0.50400001928E-02 0. -1.
       -1   -1    0    0    0  501  0.00000000000E+00  0.00000000000E+00 -0.24342870144E+03  0.24342870149E+03  0.50400001928E-02 0.  1.
    10030    2    1    2    0    0  0.00000000000E+00  0.00000000000E+00  0.96536771393E+03  0.14522251169E+04  0.10849068932E+04 0.  0.
        4    1    3    3  502    0  0.12017192929E+03 -0.47736992707E+03  0.17764586341E+03  0.52333832799E+03  0.12699999809E+01 0.  1.
       -4    1    3    3    0  502 -0.12017192929E+03  0.47736992707E+03  0.78772185052E+03  0.92888678887E+03  0.12699999809E+01 0. -1.
</event>
<event>
 5   0  0.1019384E-02  0.1137593E+04  0.7818609E-02  0.9169307E-01
       -2   -1    0    0    0  501  0.00000000000E+00  0.00000000000E+00  0.34902504973E+03  0.34902504974E+03  0.25500000920E-02 0.  1.
        2   -1    0    0  501    0  0.00000000000E+00  0.00000000000E+00 -0.92695116476E+03  0.92695116476E+03  0.25500000920E-02 0. -1.
    10030    2    1    2    0    0  0.00000000000E+00  0.00000000000E+00 -0.57792611502E+03  0.12759762145E+04  0.11375925042E+04 0.  0.
        1    1    3    3  502    0 -0.35577981120E+03  0.14859261376E+02 -0.78645971216E+03  0.86331856842E+03  0.50400001928E-02 0. -1.
       -1    1    3    3    0  502  0.35577981120E+03 -0.14859261376E+02  0.20853359714E+03  0.41265764608E+03  0.50400001928E-02 0.  1.
</event>
<event>
 5   0  0.5854579E-03  0.1109021E+04  0.7818609E-02  0.9196443E-01
        1   -1    0    0  501    0  0.00000000000E+00  0.00000000000E+00  0.52497075285E+03  0.52497075288E+03  0.50400001928E-02 0. -1.
       -1   -1    0    0    0  501  0.00000000000E+00  0.00000000000E+00 -0.58571278273E+03  0.58571278275E+03  0.50400001928E-02 0.  1.
    10030    2    1    2    0    0  0.00000000000E+00  0.00000000000E+00 -0.60742029879E+02  0.11106835356E+04  0.11090213353E+04 0.  0.
        4    1    3    3  502    0  0.22316942548E+03 -0.33222618734E+03 -0.41474520458E+03  0.57636275873E+03  0.12699999809E+01 0.  1.
       -4    1    3    3    0  502 -0.22316942548E+03  0.33222618734E+03  0.35400317470E+03  0.53432077690E+03  0.12699999809E+01 0. -1.
</event>
<event>
 5   0  0.9925021E-03  0.1070677E+04  0.7818609E-02  0.9234253E-01
       -2   -1    0    0    0  501  0.00000000000E+00  0.00000000000E+00  0.21552849693E+03  0.21552849695E+03  0.25500000920E-02 0. -1.
        2   -1    0    0  501    0  0.00000000000E+00  0.00000000000E+00 -0.13296953285E+04  0.13296953285E+04  0.25500000920E-02 0.  1.
    10030    2    1    2    0    0  0.00000000000E+00  0.00000000000E+00 -0.11141668315E+04  0.15452238254E+04  0.10706768617E+04 0.  0.
        4    1    3    3  502    0 -0.14682239977E+03 -0.19137040074E+01  0.18589554789E+03  0.23689501253E+03  0.12699999809E+01 0. -1.
       -4    1    3    3    0  502  0.14682239977E+03  0.19137040074E+01 -0.13000623794E+04  0.13083288129E+04  0.12699999809E+01 0.  1.
</event>
<event>
 5   0  0.9719260E-03  0.1005768E+04  0.7818609E-02  0.9302241E-01
       -2   -1    0    0    0  501  0.00000000000E+00  0.00000000000E+00  0.13275369909E+03  0.13275369911E+03  0.25500000920E-02 0. -1.
        2   -1    0    0  501    0  0.00000000000E+00  0.00000000000E+00 -0.19049738865E+04  0.19049738865E+04  0.25500000920E-02 0.  1.
    10030    2    1    2    0    0  0.00000000000E+00  0.00000000000E+00 -0.17722201874E+04  0.20377275856E+04  0.10057680252E+04 0.  0.
        3    1    3    3  502    0  0.48178088933E+03  0.72111156818E+02 -0.63322413355E+03  0.79892781762E+03  0.10100000352E+00 0. -1.
       -3    1    3    3    0  502 -0.48178088933E+03 -0.72111156818E+02 -0.11389960538E+04  0.12387997680E+04  0.10100000352E+00 0.  1.
</event>
<event>
 5   0  0.9692981E-03  0.1106928E+04  0.7818609E-02  0.9198466E-01
       -2   -1    0    0    0  501  0.00000000000E+00  0.00000000000E+00  0.58308628107E+03  0.58308628108E+03  0.25500000920E-02 0. -1.
        2   -1    0    0  501    0  0.00000000000E+00  0.00000000000E+00 -0.52534651900E+03  0.52534651900E+03  0.25500000920E-02 0.  1.
    10030    2    1    2    0    0  0.00000000000E+00  0.00000000000E+00  0.57739762078E+02  0.11084328001E+04  0.11069279074E+04 0.  0.
        5    1    3    3  502    0 -0.19439111680E+03 -0.33035385231E+03 -0.37089547039E+03  0.53339208279E+03  0.46999998093E+01 0.  1.
       -5    1    3    3    0  502  0.19439111680E+03  0.33035385231E+03  0.42863523247E+03  0.57504071729E+03  0.46999998093E+01 0. -1.
</event>
<event>
 5   0  0.5958706E-03  0.1109104E+04  0.7818609E-02  0.9196363E-01
        1   -1    0    0  501    0  0.00000000000E+00  0.00000000000E+00  0.27285846052E+03  0.27285846057E+03  0.50400001928E-02 0. -1.
       -1   -1    0    0    0  501  0.00000000000E+00  0.00000000000E+00 -0.11270609827E+04  0.11270609827E+04  0.50400001928E-02 0.  1.
    10030    2    1    2    0    0  0.00000000000E+00  0.00000000000E+00 -0.85420252220E+03  0.13999194433E+04  0.11091043679E+04 0.  0.
        2    1    3    3  502    0 -0.11737319608E+02  0.14258072593E+03 -0.11033676445E+04  0.11126037871E+04  0.25500000920E-02 0.  1.
       -2    1    3    3    0  502  0.11737319608E+02 -0.14258072593E+03  0.24916512235E+03  0.28731565617E+03  0.25500000920E-02 0. -1.
</event>
<event>
 5   0  0.5958706E-03  0.1121608E+04  0.7818609E-02  0.9184384E-01
       -1   -1    0    0    0  501  0.00000000000E+00  0.00000000000E+00  0.64901753945E+03  0.64901753947E+03  0.50400001928E-02 0. -1.
        1   -1    0    0  501    0  0.00000000000E+00  0.00000000000E+00 -0.48458022843E+03  0.48458022845E+03  0.50400001928E-02 0.  1.
    10030    2    1    2    0    0  0.00000000000E+00  0.00000000000E+00  0.16443731102E+03  0.11335977679E+04  0.11216078950E+04 0.  0.
        2    1    3    3  502    0 -0.37911958509E+03  0.30212213172E+03  0.36717518493E+03  0.60813407955E+03  0.25500000920E-02 0.  1.
       -2    1    3    3    0  502  0.37911958509E+03 -0.30212213172E+03 -0.20273787390E+03  0.52546368837E+03  0.25500000920E-02 0. -1.
</event>
<event>
 5   0  0.3949750E-03  0.1088238E+04  0.7818609E-02  0.9216732E-01
       -3   -1    0    0    0  501  0.00000000000E+00  0.00000000000E+00  0.26415659101E+03  0.26415661032E+03  0.10100000352E+00 0.  1.
        3   -1    0    0  501    0  0.00000000000E+00  0.00000000000E+00 -0.11207950007E+04  0.11207950053E+04  0.10100000352E+00 0. -1.
    10030    2    1    2    0    0  0.00000000000E+00  0.00000000000E+00 -0.85663840969E+03  0.13849516156E+04  0.10882378474E+04 0.  0.
        4    1    3    3  502    0 -0.29721064184E+03 -0.45509187859E+03 -0.46003378000E+03  0.71209232212E+03  0.12699999809E+01 0. -1.
       -4    1    3    3    0  502  0.29721064184E+03  0.45509187859E+03 -0.39660462970E+03  0.67285929345E+03  0.12699999809E+01 0.  1.
</event>
<event>
 5   0  0.5789905E-03  0.9588900E+03  0.7818609E-02  0.9354819E-01
        1   -1    0    0  501    0  0.00000000000E+00  0.00000000000E+00  0.92754433476E+03  0.92754433477E+03  0.50400001928E-02 0. -1.
       -1   -1    0    0    0  501  0.00000000000E+00  0.00000000000E+00 -0.24782372898E+03  0.24782372903E+03  0.50400001928E-02 0.  1.
    10030    2    1    2    0    0  0.00000000000E+00  0.00000000000E+00  0.67972060578E+03  0.11753680638E+04  0.95888997465E+03 0.  0.
        1    1    3    3  502    0 -0.12037139471E+03 -0.45710432605E+03  0.43818007284E+03  0.64454279440E+03  0.50400001928E-02 0. -1.
       -1    1    3    3    0  502  0.12037139471E+03  0.45710432605E+03  0.24154053294E+03  0.53082526940E+03  0.50400001928E-02 0.  1.
</event>
<event>
 5   0  0.9692981E-03  0.1081811E+04  0.7818609E-02  0.9223103E-01
        2   -1    0    0  501    0  0.00000000000E+00  0.00000000000E+00  0.16037059261E+04  0.16037059261E+04  0.25500000920E-02 0. -1.
       -2   -1    0    0    0  501  0.00000000000E+00  0.00000000000E+00 -0.18243921484E+03  0.18243921485E+03  0.25500000920E-02 0.  1.
    10030    2    1    2    0    0  0.00000000000E+00  0.00000000000E+00  0.14212667113E+04  0.17861451410E+04  0.10818111665E+04 0.  0.
        5    1    3    3  502    0 -0.17742350776E+02  0.48468155875E+03  0.31532118947E+03  0.57851581390E+03  0.46999998093E+01 0.  1.
       -5    1    3    3    0  502  0.17742350776E+02 -0.48468155875E+03  0.11059455218E+04  0.12076293271E+04  0.46999998093E+01 0. -1.
</event>
<event>
 5   0  0.9925021E-03  0.1070141E+04  0.7818609E-02  0.9234794E-01
       -2   -1    0    0    0  501  0.00000000000E+00  0.00000000000E+00  0.27711189918E+03  0.27711189920E+03  0.25500000920E-02 0.  1.
        2   -1    0    0  501    0  0.00000000000E+00  0.00000000000E+00 -0.10331572956E+04  0.10331572956E+04  0.25500000920E-02 0. -1.
    10030    2    1    2    0    0  0.00000000000E+00  0.00000000000E+00 -0.75604539644E+03  0.13102691948E+04  0.10701405148E+04 0.  0.
        4    1    3    3  502    0  0.42623324034E+03 -0.33667925158E+02 -0.77190772311E+03  0.88241229040E+03  0.12699999809E+01 0. -1.
       -4    1    3    3    0  502 -0.42623324034E+03  0.33667925158E+02  0.15862326671E+02  0.42785690442E+03  0.12699999809E+01 0.  1.
</event>
<event>
 5   0  0.1019384E-02  0.8999100E+03  0.7818609E-02  0.9425694E-01
       -2   -1    0    0    0  501  0.00000000000E+00  0.00000000000E+00  0.14092635985E+03  0.14092635988E+03  0.25500000920E-02 0. -1.
        2   -1    0    0  501    0  0.00000000000E+00  0.00000000000E+00 -0.14366332917E+04  0.14366332917E+04  0.25500000920E-02 0.  1.
    10030    2    1    2    0    0  0.00000000000E+00  0.00000000000E+00 -0.12957069319E+04  0.15775596516E+04  0.89990999609E+03 0.  0.
        1    1    3    3  502    0 -0.32891615739E+03  0.16670648025E+03 -0.10998558735E+04  0.11600257892E+04  0.50400001928E-02 0.  1.
       -1    1    3    3    0  502  0.32891615739E+03 -0.16670648025E+03 -0.19585105838E+03  0.41753386239E+03  0.50400001928E-02 0. -1.
</event>
<event>
 5   0  0.1019384E-02  0.1171049E+04  0.7818609E-02  0.9138582E-01
        2   -1    0    0  501    0  0.00000000000E+00  0.00000000000E+00  0.94074164326E+03  0.94074164327E+03  0.25500000920E-02 0.  1.
       -2   -1    0    0    0  501  0.00000000000E+00  0.00000000000E+00 -0.36443481112E+03  0.36443481113E+03  0.25500000920E-02 0. -1.
    10030    2    1    2    0    0  0.00000000000E+00  0.00000000000E+00  0.57630683214E+03  0.13051764544E+04  0.11710491076E+04 0.  0.
        1    1    3    3  502    0  0.45705580341E+03  0.46493231851E+02 -0.11643602937E+03  0.47393984534E+03  0.50400001928E-02 0. -1.
       -1    1    3    3    0  502 -0.45705580341E+03 -0.46493231851E+02  0.69274286151E+03  0.83123660906E+03  0.50400001928E-02 0.  1.
</event>
<event>
 5   0  0.5958706E-03  0.1053761E+04  0.7818609E-02  0.9251469E-01
        1   -1    0    0  501    0  0.00000000000E+00  0.00000000000E+00  0.67427721214E+03  0.67427721216E+03  0.50400001928E-02 0.  1.
       -1   -1    0    0    0  501  0.00000000000E+00  0.00000000000E+00 -0.41170501407E+03  0.41170501410E+03  0.50400001928E-02 0. -1.
    10030    2    1    2    0    0  0.00000000000E+00  0.00000000000E+00  0.26257219808E+03  0.10859822263E+04  0.10537614704E+04 0.  0.
        2    1    3    3  502    0 -0.46887685342E+03 -0.14532868045E+03 -0.65975526426E+02  0.49529657694E+03  0.25500000920E-02 0. -1.
       -2    1    3    3    0  502  0.46887685342E+03  0.14532868045E+03  0.32854772450E+03  0.59068564932E+03  0.25500000920E-02 0.  1.
</event>
<event>
 5   0  0.5712664E-03  0.1080247E+04  0.7818609E-02  0.9224662E-01
        1   -1    0    0  501    0  0.00000000000E+00  0.00000000000E+00  0.77964456602E+03  0.77964456603E+03  0.50400001928E-02 0. -1.
       -1   -1    0    0    0  501  0.00000000000E+00  0.00000000000E+00 -0.37418740414E+03  0.37418740418E+03  0.50400001928E-02 0.  1.
    10030    2    1    2    0    0  0.00000000000E+00  0.00000000000E+00  0.40545716187E+03  0.11538319702E+04  0.10802465947E+04 0.  0.
        5    1    3    3  502    0  0.48552110610E+03 -0.17171502171E+03  0.37658704205E+03  0.63800993988E+03  0.46999998093E+01 0. -1.
       -5    1    3    3    0  502 -0.48552110610E+03  0.17171502171E+03  0.28870119828E+02  0.51582203033E+03  0.46999998093E+01 0.  1.
</event>
<event>
 5   0  0.9692981E-03  0.1111298E+04  0.7818609E-02  0.9194250E-01
        2   -1    0    0  501    0  0.00000000000E+00  0.00000000000E+00  0.11769842658E+04  0.11769842658E+04  0.25500000920E-02 0. -1.
       -2   -1    0    0    0  501  0.00000000000E+00  0.00000000000E+00 -0.26231937253E+03  0.26231937254E+03  0.25500000920E-02 0.  1.
    10030    2    1    2    0    0  0.00000000000E+00  0.00000000000E+00  0.91466489330E+03  0.14393036384E+04  0.11112979332E+04 0.  0.
        5    1    3    3  502    0 -0.45268918308E+03  0.94225364363E+00  0.87459629614E+03  0.98481935173E+03  0.46999998093E+01 0. -1.
       -5    1    3    3    0  502  0.45268918308E+03 -0.94225364363E+00  0.40068597160E+02  0.45448428664E+03  0.46999998093E+01 0.  1.
</event>
<event>
 5   0  0.5854579E-03  0.1168164E+04  0.7818609E-02  0.9141188E-01
        1   -1    0    0  501    0  0.00000000000E+00  0.00000000000E+00  0.64506045832E+03  0.64506045834E+03  0.50400001928E-02 0.  1.
       -1   -1    0    0    0  501  0.00000000000E+00  0.00000000000E+00 -0.52886787305E+03  0.52886787307E+03  0.50400001928E-02 0. -1.
    10030    2    1    2    0    0  0.00000000000E+00  0.00000000000E+00  0.11619258527E+03  0.11739283314E+04  0.11681639484E+04 0.  0.
        4    1    3    3  502    0 -0.26455166792E+03 -0.49312835817E+03 -0.11002231361E+03  0.57032419292E+03  0.12699999809E+01 0.  1.
       -4    1    3    3    0  502  0.26455166792E+03  0.49312835817E+03  0.22621489888E+03  0.60360413849E+03  0.12699999809E+01 0. -1.
</event>
<event>
 5   0  0.1028016E-02  0.1170557E+04  0.7818609E-02  0.9139026E-01
       -2   -1    0    0    0  501  0.00000000000E+00  0.00000000000E+00  0.19636573500E+03  0.19636573502E+03  0.25500000920E-02 0.  1.
        2   -1    0    0  501    0  0.00000000000E+00  0.00000000000E+00 -0.17444529073E+04  0.17444529073E+04  0.25500000920E-02 0. -1.
    10030    2    1    2    0    0  0.00000000000E+00  0.00000000000E+00 -0.15480871723E+04  0.19408186423E+04  0.11705567519E+04 0.  0.
        2    1    3    3  502    0 -0.90449438175E+02  0.48364686361E+02 -0.17294353486E+04  0.17324742044E+04  0.25500000920E-02 0. -1.
       -2    1    3    3    0  502  0.90449438175E+02 -0.48364686361E+02  0.18134817634E+03  0.20834443794E+03  0.25500000920E-02 0.  1.
</event>
<event>
 5   0  0.5789905E-03  0.1128495E+04  0.7818609E-02  0.9177856E-01
       -1   -1    0    0    0  501  0.00000000000E+00  0.00000000000E+00  0.24514918496E+03  0.24514918501E+03  0.50400001928E-02 0.  1.
        1   -1    0    0  501    0  0.00000000000E+00  0.00000000000E+00 -0.12986993921E+04  0.12986993921E+04  0.50400001928E-02 0. -1.
    10030    2    1    2    0    0  0.00000000000E+00  0.00000000000E+00 -0.10535502071E+04  0.15438485771E+04  0.11284947453E+04 0.  0.
        1    1    3    3  502    0 -0.41798496559E+03  0.35693080095E+03 -0.35230550183E+03  0.65286307505E+03  0.50400001928E-02 0.  1.
       -1    1    3    3    0  502  0.41798496559E+03 -0.35693080095E+03 -0.70124470530E+03  0.89098550205E+03  0.50400001928E-02 0. -1.
</event>
<event>
 5   0  0.9719260E-03  0.1247979E+04  0.7818609E-02  0.9071867E-01
       -2   -1    0    0    0  501  0.00000000000E+00  0.00000000000E+00  0.24221261581E+03  0.24221261583E+03  0.25500000920E-02 0. -1.
        2   -1    0    0  501    0  0.00000000000E+00  0.00000000000E+00 -0.16075246068E+04  0.16075246068E+04  0.25500000920E-02 0.  1.
    10030    2    1    2    0    0  0.00000000000E+00  0.00000000000E+00 -0.13653119910E+04  0.18497372227E+04  0.12479787498E+04 0.  0.
        3    1    3    3  502    0  0.31092857727E+03 -0.17297990211E+03  0.77120515772E+02  0.36406896442E+03  0.10100000352E+00 0. -1.
       -3    1    3    3    0  502 -0.31092857727E+03  0.17297990211E+03 -0.14424325068E+04  0.14856682582E+04  0.10100000352E+00 0.  1.
</event>
<event>
 5   0  0.9692981E-03  0.1081271E+04  0.7818609E-02  0.9223641E-01
        2   -1    0    0  501    0  0.00000000000E+00  0.00000000000E+00  0.18996945454E+04  0.18996945454E+04  0.25500000920E-02 0.  1.
       -2   -1    0    0    0  501  0.00000000000E+00  0.00000000000E+00 -0.15385991463E+03  0.15385991465E+03  0.25500000920E-02 0. -1.
    10030    2    1    2    0    0  0.00000000000E+00  0.00000000000E+00  0.17458346308E+04  0.20535544601E+04  0.10812711789E+04 0.  0.
        5    1    3    3  502    0 -0.13583486731E+03 -0.15398957689E+03  0.18227107894E+04  0.18342466063E+04  0.46999998093E+01 0.  1.
       -5    1    3    3    0  502  0.13583486731E+03  0.15398957689E+03 -0.76876158603E+02  0.21930785377E+03  0.46999998093E+01 0. -1.
</event>
<event>
 5   0  0.5789905E-03  0.7036042E+03  0.7818609E-02  0.9711088E-01
       -1   -1    0    0    0  501  0.00000000000E+00  0.00000000000E+00  0.14364938093E+03  0.14364938102E+03  0.50400001928E-02 0. -1.
        1   -1    0    0  501    0  0.00000000000E+00  0.00000000000E+00 -0.86157501095E+03  0.86157501097E+03  0.50400001928E-02 0.  1.
    10030    2    1    2    0    0  0.00000000000E+00  0.00000000000E+00 -0.71792563002E+03  0.10052243920E+04  0.70360419841E+03 0.  0.
        1    1    3    3  502    0 -0.29533003150E+03 -0.36411799338E+02 -0.90846315881E+02  0.31112489417E+03  0.50400001928E-02 0. -1.
       -1    1    3    3    0  502  0.29533003150E+03  0.36411799338E+02 -0.62707931414E+03  0.69409949782E+03  0.50400001928E-02 0.  1.
</event>
<event>
 5   0  0.5854579E-03  0.1139693E+04  0.7818609E-02  0.9167345E-01
       -1   -1    0    0    0  501  0.00000000000E+00  0.00000000000E+00  0.70428934387E+03  0.70428934389E+03  0.50400001928E-02 0. -1.
        1   -1    0    0  501    0  0.00000000000E+00  0.00000000000E+00 -0.46106797684E+03  0.46106797687E+03  0.50400001928E-02 0.  1.
    10030    2    1    2    0    0  0.00000000000E+00  0.00000000000E+00  0.24322136702E+03  0.11653573208E+04  0.11396934025E+04 0.  0.
        4    1    3    3  502    0 -0.22559549670E+03 -0.25191739985E+03  0.59059774054E+03  0.68056080442E+03  0.12699999809E+01 0. -1.
       -4    1    3    3    0  502  0.22559549670E+03  0.25191739985E+03 -0.34737637352E+03  0.48479651634E+03  0.12699999809E+01 0.  1.
</event>
<event>
 5   0  0.5712664E-03  0.1121831E+04  0.7818609E-02  0.9184171E-01
       -1   -1    0    0    0  501  0.00000000000E+00  0.00000000000E+00  0.47970354725E+03  0.47970354728E+03  0.50400001928E-02 0. -1.
        1   -1    0    0  501    0  0.00000000000E+00  0.00000000000E+00 -0.65587652148E+03  0.65587652150E+03  0.50400001928E-02 0.  1.
    10030    2    1    2    0    0  0.00000000000E+00  0.00000000000E+00 -0.17617297422E+03  0.11355800688E+04  0.11218311708E+04 0.  0.
        5    1    3    3  502    0 -0.33187814073E+03 -0.26769293825E+03  0.28079928346E+03  0.51056139403E+03  0.46999998093E+01 0. -1.
       -5    1    3    3    0  502  0.33187814073E+03  0.26769293825E+03 -0.45697225769E+03  0.62501867474E+03  0.46999998093E+01 0.  1.
</event>
<event>
 5   0  0.5712664E-03  0.1105685E+04  0.7818609E-02  0.9199669E-01
        1   -1    0    0  501    0  0.00000000000E+00  0.00000000000E+00  0.10982296499E+04  0.10982296499E+04  0.50400001928E-02 0. -1.
       -1   -1    0    0    0  501  0.00000000000E+00  0.00000000000E+00 -0.27829760866E+03  0.27829760870E+03  0.50400001928E-02 0.  1.
    10030    2    1    2    0    0  0.00000000000E+00  0.00000000000E+00  0.81993204120E+03  0.13765272586E+04  0.11056847387E+04 0.  0.
        5    1    3    3  502    0 -0.34492912038E+02  0.46314268480E+03  0.78328986187E+03  0.91063494616E+03  0.46999998093E+01 0. -1.
       -5    1    3    3    0  502  0.34492912038E+02 -0.46314268480E+03  0.36642179334E+02  0.46589231241E+03  0.46999998093E+01 0.  1.
</event>
<event>
 5   0  0.9692981E-03  0.1158374E+04  0.7818609E-02  0.9150093E-01
        2   -1    0    0  501    0  0.00000000000E+00  0.00000000000E+00  0.26059395444E+04  0.26059395444E+04  0.25500000920E-02 0.  1.
       -2   -1    0    0    0  501  0.00000000000E+00  0.00000000000E+00 -0.12872803958E+03  0.12872803961E+03  0.25500000920E-02 0. -1.
    10030    2    1    2    0    0  0.00000000000E+00  0.00000000000E+00  0.24772115048E+04  0.27346675840E+04  0.11583738410E+04 0.  0.
        5    1    3    3  502    0  0.25373918035E+03  0.46977444817E+03  0.70880200575E+03  0.88740857397E+03  0.46999998093E+01 0. -1.
       -5    1    3    3    0  502 -0.25373918035E+03 -0.46977444817E+03  0.17684094991E+04  0.18472590101E+04  0.46999998093E+01 0.  1.
</event>
<event>
 5   0  0.9692981E-03  0.1097227E+04  0.7818609E-02  0.9207899E-01
        2   -1    0    0  501    0  0.00000000000E+00  0.00000000000E+00  0.17018313017E+04  0.17018313017E+04  0.25500000920E-02 0.  1.
       -2   -1    0    0    0  501  0.00000000000E+00  0.00000000000E+00 -0.17685475462E+03  0.17685475464E+03  0.25500000920E-02 0. -1.
    10030    2    1    2    0    0  0.00000000000E+00  0.00000000000E+00  0.15249765471E+04  0.18786860564E+04  0.10972273370E+04 0.  0.
        5    1    3    3  502    0  0.42201054124E+03 -0.35051581790E+03  0.76384921184E+03  0.94044773589E+03  0.46999998093E+01 0.  1.
       -5    1    3    3    0  502 -0.42201054124E+03  0.35051581790E+03  0.76112733527E+03  0.93823832047E+03  0.46999998093E+01 0. -1.
</event>
<event>
 5   0  0.9719260E-03  0.1100674E+04  0.7818609E-02  0.9204535E-01
       -2   -1    0    0    0  501  0.00000000000E+00  0.00000000000E+00  0.71324944877E+03  0.71324944878E+03  0.25500000920E-02 0.  1.
        2   -1    0    0  501    0  0.00000000000E+00  0.00000000000E+00 -0.42463501759E+03  0.42463501760E+03  0.25500000920E-02 0. -1.
    10030    2    1    2    0    0  0.00000000000E+00  0.00000000000E+00  0.28861443119E+03  0.11378844664E+04  0.11006737795E+04 0.  0.
        3    1    3    3  502    0 -0.82892641633E+02  0.17038664698E+03 -0.38984994720E+03  0.43345794611E+03  0.10100000352E+00 0. -1.
       -3    1    3    3    0  502  0.82892641633E+02 -0.17038664698E+03  0.67846437839E+03  0.70442652027E+03  0.10100000352E+00 0.  1.
</event>
<event>
 5   0  0.9692981E-03  0.1094126E+04  0.7818609E-02  0.9210936E-01
       -2   -1    0    0    0  501  0.00000000000E+00  0.00000000000E+00  0.12349249155E+03  0.12349249157E+03  0.25500000920E-02 0.  1.
        2   -1    0    0  501    0  0.00000000000E+00  0.00000000000E+00 -0.24234509400E+04  0.24234509400E+04  0.25500000920E-02 0. -1.
    10030    2    1    2    0    0  0.00000000000E+00  0.00000000000E+00 -0.22999584484E+04  0.25469434315E+04  0.10941261257E+04 0.  0.
        5    1    3    3  502    0 -0.43809226095E+02 -0.45829154251E+03 -0.18377959920E+04  0.18945887639E+04  0.46999998093E+01 0. -1.
       -5    1    3    3    0  502  0.43809226095E+02  0.45829154251E+03 -0.46216245642E+03  0.65235466760E+03  0.46999998093E+01 0.  1.
</event>
<event>
 5   0  0.5958706E-03  0.1218804E+04  0.7818609E-02  0.9096555E-01
        1   -1    0    0  501    0  0.00000000000E+00  0.00000000000E+00  0.13858332576E+04  0.13858332576E+04  0.50400001928E-02 0. -1.
       -1   -1    0    0    0  501  0.00000000000E+00  0.00000000000E+00 -0.26797654713E+03  0.26797654718E+03  0.50400001928E-02 0.  1.
    10030    2    1    2    0    0  0.00000000000E+00  0.00000000000E+00  0.11178567105E+04  0.16538098048E+04  0.12188040225E+04 0.  0.
        2    1    3    3  502    0 -0.29976757803E+03 -0.31535253259E+03  0.11379069658E+04  0.12182528816E+04  0.25500000920E-02 0. -1.
       -2    1    3    3    0  502  0.29976757803E+03  0.31535253259E+03 -0.20050255293E+02  0.43555692325E+03  0.25500000920E-02 0.  1.
</event>
<event>
 5   0  0.9719260E-03  0.1106041E+04  0.7818609E-02  0.9199323E-01
       -2   -1    0    0    0  501  0.00000000000E+00  0.00000000000E+00  0.24726212958E+03  0.24726212959E+03  0.25500000920E-02 0.  1.
        2   -1    0    0  501    0  0.00000000000E+00  0.00000000000E+00 -0.12368731918E+04  0.12368731918E+04  0.25500000920E-02 0. -1.
    10030    2    1    2    0    0  0.00000000000E+00  0.00000000000E+00 -0.98961106224E+03  0.14841353214E+04  0.11060414087E+04 0.  0.
        3    1    3    3  502    0  0.47961884549E+03 -0.19157057612E+03 -0.22947854616E+03  0.56514948105E+03  0.10100000352E+00 0.  1.
       -3    1    3    3    0  502 -0.47961884549E+03  0.19157057612E+03 -0.76013251608E+03  0.91898584036E+03  0.10100000352E+00 0. -1.
</event>
<event>
 5   0  0.9925021E-03  0.1115116E+04  0.7818609E-02  0.9190583E-01
        2   -1    0    0  501    0  0.00000000000E+00  0.00000000000E+00  0.19043537370E+04  0.19043537370E+04  0.25500000920E-02 0. -1.
       -2   -1    0    0    0  501  0.00000000000E+00  0.00000000000E+00 -0.16324210784E+03  0.16324210786E+03  0.25500000920E-02 0.  1.
    10030    2    1    2    0    0  0.00000000000E+00  0.00000000000E+00  0.17411116292E+04  0.20675958449E+04  0.11151156319E+04 0.  0.
        4    1    3    3  502    0 -0.40962113806E+03  0.34151406660E+03  0.11720925877E+04  0.12877204594E+04  0.12699999809E+01 0. -1.
       -4    1    3    3    0  502  0.40962113806E+03 -0.34151406660E+03  0.56901904142E+03  0.77987538545E+03  0.12699999809E+01 0.  1.
</event>
<event>
 5   0  0.9719260E-03  0.1112899E+04  0.7818609E-02  0.9192710E-01
        2   -1    0    0  501    0  0.00000000000E+00  0.00000000000E+00  0.95873674053E+03  0.95873674054E+03  0.25500000920E-02 0. -1.
       -2   -1    0    0    0  501  0.00000000000E+00  0.00000000000E+00 -0.32296280261E+03  0.32296280263E+03  0.25500000920E-02 0.  1.
    10030    2    1    2    0    0  0.00000000000E+00  0.00000000000E+00  0.63577393792E+03  0.12816995432E+04  0.11128994648E+04 0.  0.
        3    1    3    3  502    0 -0.20624704076E+03  0.38253492279E+03  0.71810966373E+03  0.83937614234E+03  0.10100000352E+00 0. -1.
       -3    1    3    3    0  502  0.20624704076E+03 -0.38253492279E+03 -0.82335725814E+02  0.44232340083E+03  0.10100000352E+00 0.  1.
</event>
<event>
 5   0  0.3949750E-03  0.9713570E+03  0.7818609E-02  0.9340530E-01
        4   -1    0    0  501    0  0.00000000000E+00  0.00000000000E+00  0.77970148474E+03  0.77970251905E+03  0.12699999809E+01 0. -1.
       -4   -1    0    0    0  501  0.00000000000E+00  0.00000000000E+00 -0.30252807378E+03  0.30253073947E+03  0.12699999809E+01 0.  1.
    10030    2    1    2    0    0  0.00000000000E+00  0.00000000000E+00  0.47717341096E+03  0.10822332585E+04  0.97135696925E+03 0.  0.
        1    1    3    3  502    0  0.30181954467E+03 -0.37632631688E+03  0.17588636592E+03  0.51347107812E+03  0.50400001928E-02 0.  1.
       -1    1    3    3    0  502 -0.30181954467E+03  0.37632631688E+03  0.30128704504E+03  0.56876218040E+03  0.50400001928E-02 0. -1.
</event>
<event>
 5   0  0.1028016E-02  0.1035368E+04  0.7818609E-02  0.9270582E-01
        2   -1    0    0  501    0  0.00000000000E+00  0.00000000000E+00  0.10292534289E+04  0.10292534289E+04  0.25500000920E-02 0. -1.
       -2   -1    0    0    0  501  0.00000000000E+00  0.00000000000E+00 -0.26037994781E+03  0.26037994782E+03  0.25500000920E-02 0.  1.
    10030    2    1    2    0    0  0.00000000000E+00  0.00000000000E+00  0.76887348113E+03  0.12896333768E+04  0.10353684448E+04 0.  0.
        2    1    3    3  502    0 -0.80832056686E+02 -0.41866609854E+03  0.75009820757E+03  0.86282237133E+03  0.25500000920E-02 0.  1.
       -2    1    3    3    0  502  0.80832056686E+02  0.41866609854E+03  0.18775273565E+02  0.42681100544E+03  0.25500000920E-02 0. -1.
</event>
<event>
 5   0  0.5958706E-03  0.1078342E+04  0.7818609E-02  0.9226562E-01
        1   -1    0    0  501    0  0.00000000000E+00  0.00000000000E+00  0.11376325286E+04  0.11376325286E+04  0.50400001928E-02 0.  1.
       -1   -1    0    0    0  501  0.00000000000E+00  0.00000000000E+00 -0.25553560652E+03  0.25553560657E+03  0.50400001928E-02 0. -1.
    10030    2    1    2    0    0  0.00000000000E+00  0.00000000000E+00  0.88209692210E+03  0.13931681352E+04  0.10783424655E+04 0.  0.
        2    1    3    3  502    0 -0.22695103765E+03  0.46466104750E+03  0.24388708904E+03  0.57174957347E+03  0.25500000920E-02 0. -1.
       -2    1    3    3    0  502  0.22695103765E+03 -0.46466104750E+03  0.63820983306E+03  0.82141856174E+03  0.25500000920E-02 0.  1.
</event>
<event>
 5   0  0.5958706E-03  0.1123763E+04  0.7818609E-02  0.9182336E-01
       -1   -1    0    0    0  501  0.00000000000E+00  0.00000000000E+00  0.12198101106E+04  0.12198101106E+04  0.50400001928E-02 0.  1.
        1   -1    0    0  501    0  0.00000000000E+00  0.00000000000E+00 -0.25881942281E+03  0.25881942286E+03  0.50400001928E-02 0. -1.
    10030    2    1    2    0    0  0.00000000000E+00  0.00000000000E+00  0.96099068782E+03  0.14786295335E+04  0.11237625173E+04 0.  0.
        2    1    3    3  502    0  0.18029447735E+03  0.43888323823E+03  0.87651365198E+03  0.99669492698E+03  0.25500000920E-02 0.  1.
       -2    1    3    3    0  502 -0.18029447735E+03 -0.43888323823E+03  0.84477035845E+02  0.48193460652E+03  0.25500000920E-02 0. -1.
</event>
<event>
 5   0  0.9925021E-03  0.1099040E+04  0.7818609E-02  0.9206128E-01
        2   -1    0    0  501    0  0.00000000000E+00  0.00000000000E+00  0.46232987651E+03  0.46232987652E+03  0.25500000920E-02 0. -1.
       -2   -1    0    0    0  501  0.00000000000E+00  0.00000000000E+00 -0.65315285083E+03  0.65315285084E+03  0.25500000920E-02 0.  1.
    10030    2    1    2    0    0  0.00000000000E+00  0.00000000000E+00 -0.19082297432E+03  0.11154827274E+04  0.10990397206E+04 0.  0.
        4    1    3    3  502    0  0.47090766095E+03  0.25606163038E+03 -0.21825484417E+03  0.57875588428E+03  0.12699999809E+01 0. -1.
       -4    1    3    3    0  502 -0.47090766095E+03 -0.25606163038E+03  0.27431869846E+02  0.53672684307E+03  0.12699999809E+01 0.  1.
</event>
<event>
 5   0  0.5998641E-03  0.1239027E+04  0.7818609E-02  0.9079366E-01
       -1   -1    0    0    0  501  0.00000000000E+00  0.00000000000E+00  0.76095047507E+03  0.76095047509E+03  0.50400001928E-02 0. -1.
        1   -1    0    0  501    0  0.00000000000E+00  0.00000000000E+00 -0.50436504033E+03  0.50436504036E+03  0.50400001928E-02 0.  1.
    10030    2    1    2    0    0  0.00000000000E+00  0.00000000000E+00  0.25658543474E+03  0.12653155154E+04  0.12390267424E+04 0.  0.
        3    1    3    3  502    0  0.55095962740E+03 -0.87797667424E+01 -0.16084563862E+03  0.57402519544E+03  0.10100000352E+00 0.  1.
       -3    1    3    3    0  502 -0.55095962740E+03  0.87797667424E+01  0.41743107336E+03  0.69129032001E+03  0.10100000352E+00 0. -1.
</event>
<event>
 5   0  0.9692981E-03  0.1106702E+04  0.7818609E-02  0.9198684E-01
       -2   -1    0    0    0  501  0.00000000000E+00  0.00000000000E+00  0.45793721573E+03  0.45793721574E+03  0.25500000920E-02 0. -1.
        2   -1    0    0  501    0  0.00000000000E+00  0.00000000000E+00 -0.66864515529E+03  0.66864515529E+03  0.25500000920E-02 0.  1.
    10030    2    1    2    0    0  0.00000000000E+00  0.00000000000E+00 -0.21070793956E+03  0.11265823710E+04  0.11067023100E+04 0.  0.
        5    1    3    3  502    0 -0.55100603230E+03 -0.49629858998E+02 -0.94940836951E+02  0.56134358734E+03  0.46999998093E+01 0.  1.
       -5    1    3    3    0  502  0.55100603230E+03  0.49629858998E+02 -0.11576710261E+03  0.56523878368E+03  0.46999998093E+01 0. -1.
</event>
<event>
 5   0  0.1019384E-02  0.1092441E+04  0.7818609E-02  0.9212591E-01
       -2   -1    0    0    0  501  0.00000000000E+00  0.00000000000E+00  0.39048100736E+03  0.39048100737E+03  0.25500000920E-02 0.  1.
        2   -1    0    0  501    0  0.00000000000E+00  0.00000000000E+00 -0.76407461519E+03  0.76407461520E+03  0.25500000920E-02 0. -1.
    10030    2    1    2    0    0  0.00000000000E+00  0.00000000000E+00 -0.37359360783E+03  0.11545556226E+04  0.10924406171E+04 0.  0.
        1    1    3    3  502    0 -0.34265058060E+03  0.37874593857E+03 -0.39145316036E+03  0.64350095816E+03  0.50400001928E-02 0. -1.
       -1    1    3    3    0  502  0.34265058060E+03 -0.37874593857E+03  0.17859552532E+02  0.51105466441E+03  0.50400001928E-02 0.  1.
</event>
<event>
 5   0  0.9719260E-03  0.1090351E+04  0.7818609E-02  0.9214647E-01
        2   -1    0    0  501    0  0.00000000000E+00  0.00000000000E+00  0.15466540970E+04  0.15466540970E+04  0.25500000920E-02 0.  1.
       -2   -1    0    0    0  501  0.00000000000E+00  0.00000000000E+00 -0.19216742264E+03  0.19216742266E+03  0.25500000920E-02 0. -1.
    10030    2    1    2    0    0  0.00000000000E+00  0.00000000000E+00  0.13544866743E+04  0.17388215196E+04  0.10903513774E+04 0.  0.
        3    1    3    3  502    0  0.39502822928E+03 -0.23413940938E+03  0.20863008984E+03  0.50437594068E+03  0.10100000352E+00 0. -1.
       -3    1    3    3    0  502 -0.39502822928E+03  0.23413940938E+03  0.11458565845E+04  0.12344455789E+04  0.10100000352E+00 0.  1.
</event>
<event>
 5   0  0.9925021E-03  0.1101369E+04  0.7818609E-02  0.9203858E-01
       -2   -1    0    0    0  501  0.00000000000E+00  0.00000000000E+00  0.24085454738E+03  0.24085454739E+03  0.25500000920E-02 0.  1.
        2   -1    0    0  501    0  0.00000000000E+00  0.00000000000E+00 -0.12590731246E+04  0.12590731246E+04  0.25500000920E-02 0. -1.
    10030    2    1    2    0    0  0.00000000000E+00  0.00000000000E+00 -0.10182185772E+04  0.14999276720E+04  0.11013691253E+04 0.  0.
        4    1    3    3  502    0  0.23310590492E+03  0.18988376686E+03 -0.11374310023E+04  0.11764969638E+04  0.12699999809E+01 0. -1.
       -4    1    3    3    0  502 -0.23310590492E+03 -0.18988376686E+03  0.11921242509E+03  0.32343070822E+03  0.12699999809E+01 0.  1.
</event>
<event>
 5   0  0.5789905E-03  0.1054441E+04  0.7818609E-02  0.9250771E-01
       -1   -1    0    0    0  501  0.00000000000E+00  0.00000000000E+00  0.19449202733E+03  0.19449202739E+03  0.50400001928E-02 0.  1.
        1   -1    0    0  501    0  0.00000000000E+00  0.00000000000E+00 -0.14291653989E+04  0.14291653989E+04  0.50400001928E-02 0. -1.
    10030    2    1    2    0    0  0.00000000000E+00  0.00000000000E+00 -0.12346733716E+04  0.16236574263E+04  0.10544406591E+04 0.  0.
        1    1    3    3  502    0 -0.25383959888E+02 -0.42512415189E+03 -0.10958898777E+04  0.11757336067E+04  0.50400001928E-02 0. -1.
       -1    1    3    3    0  502  0.25383959888E+02  0.42512415189E+03 -0.13878349387E+03  0.44792381956E+03  0.50400001928E-02 0.  1.
</event>
<event>
 5   0  0.9925021E-03  0.1121909E+04  0.7818609E-02  0.9184097E-01
       -2   -1    0    0    0  501  0.00000000000E+00  0.00000000000E+00  0.23837296222E+03  0.23837296223E+03  0.25500000920E-02 0. -1.
        2   -1    0    0  501    0  0.00000000000E+00  0.00000000000E+00 -0.13200733527E+04  0.13200733527E+04  0.25500000920E-02 0.  1.
    10030    2    1    2    0    0  0.00000000000E+00  0.00000000000E+00 -0.10817003905E+04  0.15584463150E+04  0.11219087226E+04 0.  0.
        4    1    3    3  502    0 -0.21912652358E+03  0.80385235376E+01 -0.12580727071E+04  0.12770393887E+04  0.12699999809E+01 0.  1.
       -4    1    3    3    0  502  0.21912652358E+03 -0.80385235376E+01  0.17637231655E+03  0.28140692625E+03  0.12699999809E+01 0. -1.
</event>
<event>
 5   0  0.5789905E-03  0.1018599E+04  0.7818609E-02  0.9288377E-01
        1   -1    0    0  501    0  0.00000000000E+00  0.00000000000E+00  0.50034431442E+03  0.50034431445E+03  0.50400001928E-02 0. -1.
       -1   -1    0    0    0  501  0.00000000000E+00  0.00000000000E+00 -0.51841523757E+03  0.51841523759E+03  0.50400001928E-02 0.  1.
    10030    2    1    2    0    0  0.00000000000E+00  0.00000000000E+00 -0.18070923145E+02  0.10187595520E+04  0.10185992669E+04 0.  0.
        1    1    3    3  502    0  0.46203178208E+03 -0.17659423907E+03 -0.13041033118E+03  0.51153274326E+03  0.50400001928E-02 0. -1.
       -1    1    3    3    0  502 -0.46203178208E+03  0.17659423907E+03  0.11233940803E+03  0.50722680878E+03  0.50400001928E-02 0.  1.
</event>
<event>
 5   0  0.9719260E-03  0.1106667E+04  0.7818609E-02  0.9198718E-01
       -2   -1    0    0    0  501  0.00000000000E+00  0.00000000000E+00  0.26704402957E+03  0.26704402959E+03  0.25500000920E-02 0. -1.
        2   -1    0    0  501    0  0.00000000000E+00  0.00000000000E+00 -0.11465446111E+04  0.11465446111E+04  0.25500000920E-02 0.  1.
    10030    2    1    2    0    0  0.00000000000E+00  0.00000000000E+00 -0.87950058150E+03  0.14135886407E+04  0.11066668750E+04 0.  0.
        3    1    3    3  502    0 -0.24084930008E+03  0.31763152991E+03  0.50454548361E+02  0.40180075385E+03  0.10100000352E+00 0. -1.
       -3    1    3    3    0  502  0.24084930008E+03 -0.31763152991E+03 -0.92995512986E+03  0.10117878868E+04  0.10100000352E+00 0.  1.
</event>
<event>
 5   0  0.9719260E-03  0.7836641E+03  0.7818609E-02  0.9583968E-01
       -2   -1    0    0    0  501  0.00000000000E+00  0.00000000000E+00  0.47632990264E+03  0.47632990264E+03  0.25500000920E-02 0. -1.
        2   -1    0    0  501    0  0.00000000000E+00  0.00000000000E+00 -0.32232355571E+03  0.32232355572E+03  0.25500000920E-02 0.  1.
    10030    2    1    2    0    0  0.00000000000E+00  0.00000000000E+00  0.15400634692E+03  0.79865345836E+03  0.78366408088E+03 0.  0.
        3    1    3    3  502    0 -0.34957716762E+03  0.13939487707E+03 -0.34157455651E+02  0.37789134662E+03  0.10100000352E+00 0. -1.
       -3    1    3    3    0  502  0.34957716762E+03 -0.13939487707E+03  0.18816380257E+03  0.42076211174E+03  0.10100000352E+00 0.  1.
</event>
<event>
 5   0  0.5854579E-03  0.1120613E+04  0.7818609E-02  0.9185331E-01
        1   -1    0    0  501    0  0.00000000000E+00  0.00000000000E+00  0.70013159074E+03  0.70013159076E+03  0.50400001928E-02 0.  1.
       -1   -1    0    0    0  501  0.00000000000E+00  0.00000000000E+00 -0.44840616989E+03  0.44840616992E+03  0.50400001928E-02 0. -1.
    10030    2    1    2    0    0  0.00000000000E+00  0.00000000000E+00  0.25172542084E+03  0.11485377607E+04  0.11206129127E+04 0.  0.
        4    1    3    3  502    0  0.27492603015E+03  0.87786466927E+02 -0.36636635796E+03  0.46638686406E+03  0.12699999809E+01 0. -1.
       -4    1    3    3    0  502 -0.27492603015E+03 -0.87786466927E+02  0.61809177880E+03  0.68215089661E+03  0.12699999809E+01 0.  1.
</event>
<event>
 5   0  0.5789905E-03  0.1095497E+04  0.7818609E-02  0.9209592E-01
        1   -1    0    0  501    0  0.00000000000E+00  0.00000000000E+00  0.38712718596E+03  0.38712718599E+03  0.50400001928E-02 0.  1.
       -1   -1    0    0    0  501  0.00000000000E+00  0.00000000000E+00 -0.77501202602E+03  0.77501202603E+03  0.50400001928E-02 0. -1.
    10030    2    1    2    0    0  0.00000000000E+00  0.00000000000E+00 -0.38788484005E+03  0.11621392120E+04  0.10954966449E+04 0.  0.
        1    1    3    3  502    0  0.46588926652E+03 -0.22855830047E+03 -0.79589072806E+01  0.51899426741E+03  0.50400001928E-02 0. -1.
       -1    1    3    3    0  502 -0.46588926652E+03  0.22855830047E+03 -0.37992593277E+03  0.64314494462E+03  0.50400001928E-02 0.  1.
</event>
<event>
 5   0  0.1019384E-02  0.1094801E+04  0.7818609E-02  0.9210274E-01
        2   -1    0    0  501    0  0.00000000000E+00  0.00000000000E+00  0.18293943841E+04  0.18293943841E+04  0.25500000920E-02 0. -1.
       -2   -1    0    0    0  501  0.00000000000E+00  0.00000000000E+00 -0.16379602370E+03  0.16379602372E+03  0.25500000920E-02 0.  1.
    10030    2    1    2    0    0  0.00000000000E+00  0.00000000000E+00  0.16655983604E+04  0.19931904079E+04  0.10948013992E+04 0.  0.
        1    1    3    3  502    0 -0.65036774211E+02 -0.27481511038E+03  0.16865291520E+04  0.17100098560E+04  0.50400001928E-02 0. -1.
       -1    1    3    3    0  502  0.65036774211E+02  0.27481511038E+03 -0.20930791601E+02  0.28318055187E+03  0.50400001928E-02 0.  1.
</event>
<event>
 5   0  0.5958706E-03  0.9471631E+03  0.7818609E-02  0.9368473E-01
        1   -1    0    0  501    0  0.00000000000E+00  0.00000000000E+00  0.34331895487E+03  0.34331895490E+03  0.50400001928E-02 0.  1.
       -1   -1    0    0    0  501  0.00000000000E+00  0.00000000000E+00 -0.65326855669E+03  0.65326855671E+03  0.50400001928E-02 0. -1.
    10030    2    1    2    0    0  0.00000000000E+00  0.00000000000E+00 -0.30994960182E+03  0.99658751161E+03  0.94716308661E+03 0.  0.
        2    1    3    3  502    0 -0.24211265443E+03 -0.29863220970E+03 -0.44595530334E+03  0.58879187044E+03  0.25500000920E-02 0. -1.
       -2    1    3    3    0  502  0.24211265443E+03  0.29863220970E+03  0.13600570152E+03  0.40779564117E+03  0.25500000920E-02 0.  1.
</event>
<event>
 5   0  0.9692981E-03  0.1052907E+04  0.7818609E-02  0.9252348E-01
        2   -1    0    0  501    0  0.00000000000E+00  0.00000000000E+00  0.14791518096E+04  0.14791518096E+04  0.25500000920E-02 0.  1.
       -2   -1    0    0    0  501  0.00000000000E+00  0.00000000000E+00 -0.18737314420E+03  0.18737314422E+03  0.25500000920E-02 0. -1.
    10030    2    1    2    0    0  0.00000000000E+00  0.00000000000E+00  0.12917786654E+04  0.16665249538E+04  0.10529070715E+04 0.  0.
        5    1    3    3  502    0  0.47707771530E+03  0.22252071982E+03  0.64026696232E+03  0.82890439149E+03  0.46999998093E+01 0. -1.
       -5    1    3    3    0  502 -0.47707771530E+03 -0.22252071982E+03  0.65151170304E+03  0.83762056230E+03  0.46999998093E+01 0.  1.
</event>
<event>
 5   0  0.5958706E-03  0.1050245E+04  0.7818609E-02  0.9255091E-01
        1   -1    0    0  501    0  0.00000000000E+00  0.00000000000E+00  0.21627458905E+03  0.21627458911E+03  0.50400001928E-02 0.  1.
       -1   -1    0    0    0  501  0.00000000000E+00  0.00000000000E+00 -0.12750175565E+04  0.12750175565E+04  0.50400001928E-02 0. -1.
    10030    2    1    2    0    0  0.00000000000E+00  0.00000000000E+00 -0.10587429674E+04  0.14912921456E+04  0.10502454915E+04 0.  0.
        2    1    3    3  502    0 -0.77181441919E+02 -0.51909123838E+03 -0.55560052267E+03  0.76426738092E+03  0.25500000920E-02 0. -1.
       -2    1    3    3    0  502  0.77181441919E+02  0.51909123838E+03 -0.50314244475E+03  0.72702476468E+03  0.25500000920E-02 0.  1.
</event>
<event>
 5   0  0.5712664E-03  0.1110015E+04  0.7818609E-02  0.9195485E-01
        1   -1    0    0  501    0  0.00000000000E+00  0.00000000000E+00  0.54681266739E+03  0.54681266741E+03  0.50400001928E-02 0.  1.
       -1   -1    0    0    0  501  0.00000000000E+00  0.00000000000E+00 -0.56332508226E+03  0.56332508229E+03  0.50400001928E-02 0. -1.
    10030    2    1    2    0    0  0.00000000000E+00  0.00000000000E+00 -0.16512414875E+02  0.11101377497E+04  0.11100149384E+04 0.  0.
        5    1    3    3  502    0 -0.15592446218E+03  0.13417059748E+03 -0.52377129942E+03  0.56273675127E+03  0.46999998093E+01 0. -1.
       -5    1    3    3    0  502  0.15592446218E+03 -0.13417059748E+03  0.50725888455E+03  0.54740099843E+03  0.46999998093E+01 0.  1.
</event>
<event>
 5   0  0.5789905E-03  0.1066640E+04  0.7818609E-02  0.9238331E-01
       -1   -1    0    0    0  501  0.00000000000E+00  0.00000000000E+00  0.55283345534E+03  0.55283345536E+03  0.50400001928E-02 0. -1.
        1   -1    0    0  501    0  0.00000000000E+00  0.00000000000E+00 -0.51449526823E+03  0.51449526825E+03  0.50400001928E-02 0.  1.
    10030    2    1    2    0    0  0.00000000000E+00  0.00000000000E+00  0.38338187112E+02  0.10673287236E+04  0.10666399522E+04 0.  0.
        1    1    3    3  502    0 -0.41968998507E+03  0.31803155814E+03  0.10376030944E+03  0.53670285762E+03  0.50400001928E-02 0.  1.
       -1    1    3    3    0  502  0.41968998507E+03 -0.31803155814E+03 -0.65422122332E+02  0.53062586599E+03  0.50400001928E-02 0. -1.
</event>
<event>
 5   0  0.9692981E-03  0.9387052E+03  0.7818609E-02  0.9378451E-01
       -2   -1    0    0    0  501  0.00000000000E+00  0.00000000000E+00  0.12787646979E+03  0.12787646982E+03  0.25500000920E-02 0. -1.
        2   -1    0    0  501    0  0.00000000000E+00  0.00000000000E+00 -0.17226927599E+04  0.17226927599E+04  0.25500000920E-02 0.  1.
    10030    2    1    2    0    0  0.00000000000E+00  0.00000000000E+00 -0.15948162901E+04  0.18505692297E+04  0.93870521187E+03 0.  0.
        5    1    3    3  502    0 -0.93639972012E+02 -0.27551108906E+03 -0.15233434259E+04  0.15508939640E+04  0.46999998093E+01 0.  1.
       -5    1    3    3    0  502  0.93639972012E+02  0.27551108906E+03 -0.71472864269E+02  0.29967526571E+03  0.46999998093E+01 0. -1.
</event>
<event>
 5   0  0.5958706E-03  0.1108596E+04  0.7818609E-02  0.9196854E-01
       -1   -1    0    0    0  501  0.00000000000E+00  0.00000000000E+00  0.77922815556E+03  0.77922815558E+03  0.50400001928E-02 0. -1.
        1   -1    0    0  501    0  0.00000000000E+00  0.00000000000E+00 -0.39429590107E+03  0.39429590110E+03  0.50400001928E-02 0.  1.
    10030    2    1    2    0    0  0.00000000000E+00  0.00000000000E+00  0.38493225449E+03  0.11735240567E+04  0.11085963517E+04 0.  0.
        2    1    3    3  502    0  0.40227091779E+03 -0.17355575199E+03  0.55191639612E+03  0.70466672879E+03  0.25500000920E-02 0. -1.
       -2    1    3    3    0  502 -0.40227091779E+03  0.17355575199E+03 -0.16698414163E+03  0.46885732788E+03  0.25500000920E-02 0.  1.
</event>
<event>
 5   0  0.5998641E-03  0.1092070E+04  0.7818609E-02  0.9212955E-01
       -1   -1    0    0    0  501  0.00000000000E+00  0.00000000000E+00  0.74448417440E+03  0.74448417442E+03  0.50400001928E-02 0.  1.
        1   -1    0    0  501    0  0.00000000000E+00  0.00000000000E+00 -0.40048464673E+03  0.40048464677E+03  0.50400001928E-02 0. -1.
    10030    2    1    2    0    0  0.00000000000E+00  0.00000000000E+00  0.34399952767E+03  0.11449688212E+04  0.10920704769E+04 0.  0.
        3    1    3    3  502    0 -0.18529432663E+03 -0.95603895339E+02  0.70110338988E+03  0.73145065848E+03  0.10100000352E+00 0.  1.
       -3    1    3    3    0  502  0.18529432663E+03  0.95603895339E+02 -0.35710386221E+03  0.41351816271E+03  0.10100000352E+00 0. -1.
</event>
<event>
 5   0  0.9719260E-03  0.1082219E+04  0.7818609E-02  0.9222698E-01
       -2   -1    0    0    0  501  0.00000000000E+00  0.00000000000E+00  0.16297742350E+04  0.16297742350E+04  0.25500000920E-02 0. -1.
        2   -1    0    0  501    0  0.00000000000E+00  0.00000000000E+00 -0.17965637872E+03  0.17965637874E+03  0.25500000920E-02 0.  1.
    10030    2    1    2    0    0  0.00000000000E+00  0.00000000000E+00  0.14501178563E+04  0.18094306138E+04  0.10822187158E+04 0.  0.
        3    1    3    3  502    0  0.51364371677E+03 -0.56477866374E+02  0.99351047212E+03  0.11198583328E+04  0.10100000352E+00 0. -1.
       -3    1    3    3    0  502 -0.51364371677E+03  0.56477866374E+02  0.45660738417E+03  0.68957228094E+03  0.10100000352E+00 0.  1.
</event>
<event>
 5   0  0.9692981E-03  0.1120813E+04  0.7818609E-02  0.9185141E-01
        2   -1    0    0  501    0  0.00000000000E+00  0.00000000000E+00  0.11501699391E+04  0.11501699391E+04  0.25500000920E-02 0.  1.
       -2   -1    0    0    0  501  0.00000000000E+00  0.00000000000E+00 -0.27305113662E+03  0.27305113663E+03  0.25500000920E-02 0. -1.
    10030    2    1    2    0    0  0.00000000000E+00  0.00000000000E+00  0.87711880245E+03  0.14232210757E+04  0.11208125788E+04 0.  0.
        5    1    3    3  502    0  0.42593563413E+03 -0.27261957128E+03  0.74513553999E+03  0.90055075261E+03  0.46999998093E+01 0.  1.
       -5    1    3    3    0  502 -0.42593563413E+03  0.27261957128E+03  0.13198326246E+03  0.52267032308E+03  0.46999998093E+01 0. -1.
</event>
<event>
 5   0  0.1019384E-02  0.1081876E+04  0.7818609E-02  0.9223039E-01
       -2   -1    0    0    0  501  0.00000000000E+00  0.00000000000E+00  0.29228554562E+03  0.29228554564E+03  0.25500000920E-02 0.  1.
        2   -1    0    0  501    0  0.00000000000E+00  0.00000000000E+00 -0.10011232106E+04  0.10011232106E+04  0.25500000920E-02 0. -1.
    10030    2    1    2    0    0  0.00000000000E+00  0.00000000000E+00 -0.70883766499E+03  0.12934087563E+04  0.10818758595E+04 0.  0.
        1    1    3    3  502    0  0.48108679369E+03  0.18210495607E+03 -0.55449374567E+03  0.75635311337E+03  0.50400001928E-02 0. -1.
       -1    1    3    3    0  502 -0.48108679369E+03 -0.18210495607E+03 -0.15434391932E+03  0.53705564288E+03  0.50400001928E-02 0.  1.
</event>
<event>
 5   0  0.5854579E-03  0.1086983E+04  0.7818609E-02  0.9217973E-01
       -1   -1    0    0    0  501  0.00000000000E+00  0.00000000000E+00  0.90486369254E+03  0.90486369256E+03  0.50400001928E-02 0. -1.
        1   -1    0    0  501    0  0.00000000000E+00  0.00000000000E+00 -0.32643893899E+03  0.32643893903E+03  0.50400001928E-02 0.  1.
    10030    2    1    2    0    0  0.00000000000E+00  0.00000000000E+00  0.57842475355E+03  0.12313026316E+04  0.10869825091E+04 0.  0.
        4    1    3    3  502    0 -0.21120887313E+03 -0.40851590755E+03  0.61729920627E+03  0.76977552428E+03  0.12699999809E+01 0. -1.
       -4    1    3    3    0  502  0.21120887313E+03  0.40851590755E+03 -0.38874452719E+02  0.46152710731E+03  0.12699999809E+01 0.  1.
</event>
<event>
 5   0  0.5998641E-03  0.1399706E+04  0.7818609E-02  0.8954031E-01
       -1   -1    0    0    0  501  0.00000000000E+00  0.00000000000E+00  0.37482619801E+03  0.37482619804E+03  0.50400001928E-02 0.  1.
        1   -1    0    0  501    0  0.00000000000E+00  0.00000000000E+00 -0.13067244104E+04  0.13067244104E+04  0.50400001928E-02 0. -1.
    10030    2    1    2    0    0  0.00000000000E+00  0.00000000000E+00 -0.93189821235E+03  0.16815506084E+04  0.13997064587E+04 0.  0.
        3    1    3    3  502    0  0.68947319871E+03  0.50716436592E+02 -0.33517692719E+03  0.76830269517E+03  0.10100000352E+00 0. -1.
       -3    1    3    3    0  502 -0.68947319871E+03 -0.50716436592E+02 -0.59672128516E+03  0.91324791324E+03  0.10100000352E+00 0.  1.
</event>
<event>
 5   0  0.5789905E-03  0.1165771E+04  0.7818609E-02  0.9143356E-01
        1   -1    0    0  501    0  0.00000000000E+00  0.00000000000E+00  0.18879456706E+03  0.18879456713E+03  0.50400001928E-02 0.  1.
       -1   -1    0    0    0  501  0.00000000000E+00  0.00000000000E+00 -0.17996047574E+04  0.17996047574E+04  0.50400001928E-02 0. -1.
    10030    2    1    2    0    0  0.00000000000E+00  0.00000000000E+00 -0.16108101903E+04  0.19883993245E+04  0.11657711630E+04 0.  0.
        1    1    3    3  502    0  0.50121627368E+03 -0.30836227671E+01 -0.29791045767E+03  0.58307624076E+03  0.50400001928E-02 0.  1.
       -1    1    3    3    0  502 -0.50121627368E+03  0.30836227671E+01 -0.13128997326E+04  0.14053230838E+04  0.50400001928E-02 0. -1.
</event>
<event>
 5   0  0.1028016E-02  0.1092989E+04  0.7818609E-02  0.9212052E-01
        2   -1    0    0  501    0  0.00000000000E+00  0.00000000000E+00  0.16973086377E+04  0.16973086377E+04  0.25500000920E-02 0.  1.
       -2   -1    0    0    0  501  0.00000000000E+00  0.00000000000E+00 -0.17595878229E+03  0.17595878231E+03  0.25500000920E-02 0. -1.
    10030    2    1    2    0    0  0.00000000000E+00  0.00000000000E+00  0.15213498554E+04  0.18732674200E+04  0.10929892243E+04 0.  0.
        2    1    3    3  502    0  0.15371364254E+03  0.12736374815E+03 -0.11123549533E+03  0.22852296093E+03  0.25500000920E-02 0. -1.
       -2    1    3    3    0  502 -0.15371364254E+03 -0.12736374815E+03  0.16325853507E+04  0.16447444591E+04  0.25500000920E-02 0.  1.
</event>
<event>
 5   0  0.5789905E-03  0.1107330E+04  0.7818609E-02  0.9198077E-01
        1   -1    0    0  501    0  0.00000000000E+00  0.00000000000E+00  0.37455622077E+03  0.37455622080E+03  0.50400001928E-02 0.  1.
       -1   -1    0    0    0  501  0.00000000000E+00  0.00000000000E+00 -0.81842211893E+03  0.81842211895E+03  0.50400001928E-02 0. -1.
    10030    2    1    2    0    0  0.00000000000E+00  0.00000000000E+00 -0.44386589816E+03  0.11929783397E+04  0.11073302956E+04 0.  0.
        1    1    3    3  502    0 -0.95834846245E+01 -0.39531103434E+03 -0.63944109446E+03  0.75182948224E+03  0.50400001928E-02 0. -1.
       -1    1    3    3    0  502  0.95834846245E+01  0.39531103434E+03  0.19557519630E+03  0.44114885751E+03  0.50400001928E-02 0.  1.
</event>
<event>
 5   0  0.9692981E-03  0.1093184E+04  0.7818609E-02  0.9211861E-01
        2   -1    0    0  501    0  0.00000000000E+00  0.00000000000E+00  0.88671633416E+03  0.88671633416E+03  0.25500000920E-02 0.  1.
       -2   -1    0    0    0  501  0.00000000000E+00  0.00000000000E+00 -0.33693143027E+03  0.33693143028E+03  0.25500000920E-02 0. -1.
    10030    2    1    2    0    0  0.00000000000E+00  0.00000000000E+00  0.54978490389E+03  0.12236477644E+04  0.10931836126E+04 0.  0.
        5    1    3    3  502    0  0.29449523911E+03 -0.45985254166E+03  0.30111249959E+03  0.62360454884E+03  0.46999998093E+01 0. -1.
       -5    1    3    3    0  502 -0.29449523911E+03  0.45985254166E+03  0.24867240430E+03  0.60004321560E+03  0.46999998093E+01 0.  1.
</event>
<event>
 5   0  0.5854579E-03  0.1092425E+04  0.7818609E-02  0.9212606E-01
        1   -1    0    0  501    0  0.00000000000E+00  0.00000000000E+00  0.13253845188E+04  0.13253845188E+04  0.50400001928E-02 0. -1.
       -1   -1    0    0    0  501  0.00000000000E+00  0.00000000000E+00 -0.22510324254E+03  0.22510324259E+03  0.50400001928E-02 0.  1.
    10030    2    1    2    0    0  0.00000000000E+00  0.00000000000E+00  0.11002812763E+04  0.15504877614E+04  0.10924254718E+04 0.  0.
        4    1    3    3  502    0  0.24570255670E+03  0.31828419507E+03  0.25433996738E+02  0.40289338080E+03  0.12699999809E+01 0.  1.
       -4    1    3    3    0  502 -0.24570255670E+03 -0.31828419507E+03  0.10748472795E+04  0.11475943806E+04  0.12699999809E+01 0. -1.
</event>
<event>
 5   0  0.1019384E-02  0.1085051E+04  0.7818609E-02  0.9219886E-01
       -2   -1    0    0    0  501  0.00000000000E+00  0.00000000000E+00  0.18761832443E+03  0.18761832445E+03  0.25500000920E-02 0. -1.
        2   -1    0    0  501    0  0.00000000000E+00  0.00000000000E+00 -0.15687899287E+04  0.15687899287E+04  0.25500000920E-02 0.  1.
    10030    2    1    2    0    0  0.00000000000E+00  0.00000000000E+00 -0.13811716042E+04  0.17564082531E+04  0.10850506676E+04 0.  0.
        1    1    3    3  502    0 -0.20644418347E+03 -0.91633610706E+02 -0.14890627959E+04  0.15060955911E+04  0.50400001928E-02 0.  1.
       -1    1    3    3    0  502  0.20644418347E+03  0.91633610706E+02  0.10789119163E+03  0.25031266200E+03  0.50400001928E-02 0. -1.
</event>
<event>
 5   0  0.9719260E-03  0.1334080E+04  0.7818609E-02  0.9002968E-01
        2   -1    0    0  501    0  0.00000000000E+00  0.00000000000E+00  0.14338904157E+04  0.14338904157E+04  0.25500000920E-02 0.  1.
       -2   -1    0    0    0  501  0.00000000000E+00  0.00000000000E+00 -0.31030431310E+03  0.31030431311E+03  0.25500000920E-02 0. -1.
    10030    2    1    2    0    0  0.00000000000E+00  0.00000000000E+00  0.11235861026E+04  0.17441947288E+04  0.13340800283E+04 0.  0.
        3    1    3    3  502    0  0.26211138079E+02 -0.64587602967E+03  0.34656754763E+03  0.73345207391E+03  0.10100000352E+00 0.  1.
       -3    1    3    3    0  502 -0.26211138079E+02  0.64587602967E+03  0.77701855493E+03  0.10107426549E+04  0.10100000352E+00 0. -1.
</event>
<event>
 5   0  0.3949750E-03  0.1076484E+04  0.7818609E-02  0.9228420E-01
        4   -1    0    0  501    0  0.00000000000E+00  0.00000000000E+00  0.69437091055E+03  0.69437207196E+03  0.12699999809E+01 0.  1.
       -4   -1    0    0    0  501  0.00000000000E+00  0.00000000000E+00 -0.41721636274E+03  0.41721829566E+03  0.12699999809E+01 0. -1.
    10030    2    1    2    0    0  0.00000000000E+00  0.00000000000E+00  0.27715454782E+03  0.11115903676E+04  0.10764843250E+04 0.  0.
        5    1    3    3  502    0  0.21363524668E+03 -0.26397132633E+03 -0.29260664631E+03  0.44828742923E+03  0.46999998093E+01 0. -1.
       -5    1    3    3    0  502 -0.21363524668E+03  0.26397132633E+03  0.56976119412E+03  0.66330293839E+03  0.46999998093E+01 0.  1.
</event>
<event>
 5   0  0.5712664E-03  0.1109460E+04  0.7818609E-02  0.9196020E-01
       -1   -1    0    0    0  501  0.00000000000E+00  0.00000000000E+00  0.23365599503E+03  0.23365599509E+03  0.50400001928E-02 0. -1.
        1   -1    0    0  501    0  0.00000000000E+00  0.00000000000E+00 -0.13170014681E+04  0.13170014681E+04  0.50400001928E-02 0.  1.
    10030    2    1    2    0    0  0.00000000000E+00  0.00000000000E+00 -0.10833454731E+04  0.15506574632E+04  0.11094598479E+04 0.  0.
        5    1    3    3  502    0 -0.11318492320E+03  0.22135988651E+03 -0.12347419955E+04  0.12595320209E+04  0.46999998093E+01 0.  1.
       -5    1    3    3    0  502  0.11318492320E+03 -0.22135988651E+03  0.15139652238E+03  0.29112544235E+03  0.46999998093E+01 0. -1.
</event>
<event>
 5   0  0.5712664E-03  0.8779367E+03  0.7818609E-02  0.9453590E-01
       -1   -1    0    0    0  501  0.00000000000E+00  0.00000000000E+00  0.49158523751E+03  0.49158523754E+03  0.50400001928E-02 0.  1.
        1   -1    0    0  501    0  0.00000000000E+00  0.00000000000E+00 -0.39198331180E+03  0.39198331183E+03  0.50400001928E-02 0. -1.
    10030    2    1    2    0    0  0.00000000000E+00  0.00000000000E+00  0.99601925709E+02  0.88356854937E+03  0.87793669352E+03 0.  0.
        5    1    3    3  502    0 -0.33574210012E+03  0.16661063251E+03  0.27971612495E+03  0.46770189354E+03  0.46999998093E+01 0.  1.
       -5    1    3    3    0  502  0.33574210012E+03 -0.16661063251E+03 -0.18011419924E+03  0.41586665583E+03  0.46999998093E+01 0. -1.
</event>
<event>
 5   0  0.9692981E-03  0.1067412E+04  0.7818609E-02  0.9237549E-01
       -2   -1    0    0    0  501  0.00000000000E+00  0.00000000000E+00  0.33131005773E+03  0.33131005774E+03  0.25500000920E-02 0. -1.
        2   -1    0    0  501    0  0.00000000000E+00  0.00000000000E+00 -0.85974549171E+03  0.85974549171E+03  0.25500000920E-02 0.  1.
    10030    2    1    2    0    0  0.00000000000E+00  0.00000000000E+00 -0.52843543398E+03  0.11910555494E+04  0.10674124386E+04 0.  0.
        5    1    3    3  502    0  0.42713241449E+03 -0.15071685081E+03  0.50721623594E+02  0.45579868552E+03  0.46999998093E+01 0.  1.
       -5    1    3    3    0  502 -0.42713241449E+03  0.15071685081E+03 -0.57915705757E+03  0.73525686393E+03  0.46999998093E+01 0. -1.
</event>
<event>
 5   0  0.1019384E-02  0.1113891E+04  0.7818609E-02  0.9191758E-01
       -2   -1    0    0    0  501  0.00000000000E+00  0.00000000000E+00  0.23665673638E+03  0.23665673639E+03  0.25500000920E-02 0.  1.
        2   -1    0    0  501    0  0.00000000000E+00  0.00000000000E+00 -0.13107090475E+04  0.13107090475E+04  0.25500000920E-02 0. -1.
    10030    2    1    2    0    0  0.00000000000E+00  0.00000000000E+00 -0.10740523111E+04  0.15473657839E+04  0.11138907048E+04 0.  0.
        1    1    3    3  502    0  0.33522848670E+03 -0.48016866764E+02 -0.11512527857E+04  0.12000278057E+04  0.50400001928E-02 0. -1.
       -1    1    3    3    0  502 -0.33522848670E+03  0.48016866764E+02  0.77200474610E+02  0.34733797819E+03  0.50400001928E-02 0.  1.
</event>
<event>
 5   0  0.5712664E-03  0.1096500E+04  0.7818609E-02  0.9208610E-01
       -1   -1    0    0    0  501  0.00000000000E+00  0.00000000000E+00  0.36765645485E+03  0.36765645488E+03  0.50400001928E-02 0.  1.
        1   -1    0    0  501    0  0.00000000000E+00  0.00000000000E+00 -0.81755167598E+03  0.81755167599E+03  0.50400001928E-02 0. -1.
    10030    2    1    2    0    0  0.00000000000E+00  0.00000000000E+00 -0.44989522113E+03  0.11852081309E+04  0.10965001612E+04 0.  0.
        5    1    3    3  502    0  0.38819681509E+03  0.36248391957E+01 -0.64336403407E+03  0.75143148526E+03  0.46999998093E+01 0. -1.
       -5    1    3    3    0  502 -0.38819681509E+03 -0.36248391957E+01  0.19346881294E+03  0.43377664562E+03  0.46999998093E+01 0.  1.
</event>
<event>
 5   0  0.5958706E-03  0.1096476E+04  0.7818609E-02  0.9208634E-01
        1   -1    0    0  501    0  0.00000000000E+00  0.00000000000E+00  0.60434531837E+03  0.60434531839E+03  0.50400001928E-02 0.  1.
       -1   -1    0    0    0  501  0.00000000000E+00  0.00000000000E+00 -0.49733939407E+03  0.49733939410E+03  0.50400001928E-02 0. -1.
    10030    2    1    2    0    0  0.00000000000E+00  0.00000000000E+00  0.10700592429E+03  0.11016847125E+04  0.10964756896E+04 0.  0.
        2    1    3    3  502    0 -0.22488305383E+03 -0.49460264587E+03 -0.20060772986E+02  0.54369715818E+03  0.25500000920E-02 0. -1.
       -2    1    3    3    0  502  0.22488305383E+03  0.49460264587E+03  0.12706669728E+03  0.55798755431E+03  0.25500000920E-02 0.  1.
</event>
<event>
 5   0  0.9925021E-03  0.7826548E+03  0.7818609E-02  0.9585469E-01
        2   -1    0    0  501    0  0.00000000000E+00  0.00000000000E+00  0.41078453266E+03  0.41078453266E+03  0.25500000920E-02 0.  1.
       -2   -1    0    0    0  501  0.00000000000E+00  0.00000000000E+00 -0.37279182664E+03  0.37279182665E+03  0.25500000920E-02 0. -1.
    10030    2    1    2    0    0  0.00000000000E+00  0.00000000000E+00  0.37992706016E+02  0.78357635931E+03  0.78265475477E+03 0.  0.
        4    1    3    3  502    0 -0.38764170847E+03 -0.41573251882E+02 -0.14823210430E+02  0.39014839469E+03  0.12699999809E+01 0.  1.
       -4    1    3    3    0  502  0.38764170847E+03  0.41573251882E+02  0.52815916446E+02  0.39342796462E+03  0.12699999809E+01 0. -1.
</event>
<event>
 5   0  0.1019384E-02  0.1088184E+04  0.7818609E-02  0.9216785E-01
       -2   -1    0    0    0  501  0.00000000000E+00  0.00000000000E+00  0.10030954734E+04  0.10030954734E+04  0.25500000920E-02 0.  1.
        2   -1    0    0  501    0  0.00000000000E+00  0.00000000000E+00 -0.29512273076E+03  0.29512273077E+03  0.25500000920E-02 0. -1.
    10030    2    1    2    0    0  0.00000000000E+00  0.00000000000E+00  0.70797274269E+03  0.12982182042E+04  0.10881843141E+04 0.  0.
        1    1    3    3  502    0  0.29891839287E+03 -0.12620002388E+03  0.87504451177E+03  0.93326392260E+03  0.50400001928E-02 0.  1.
       -1    1    3    3    0  502 -0.29891839287E+03  0.12620002388E+03 -0.16707176908E+03  0.36495428162E+03  0.50400001928E-02 0. -1.
</event>
<event>
 5   0  0.9692981E-03  0.1094232E+04  0.7818609E-02  0.9210832E-01
       -2   -1    0    0    0  501  0.00000000000E+00  0.00000000000E+00  0.38137590599E+03  0.38137590600E+03  0.25500000920E-02 0.  1.
        2   -1    0    0  501    0  0.00000000000E+00  0.00000000000E+00 -0.78488404984E+03  0.78488404984E+03  0.25500000920E-02 0. -1.
    10030    2    1    2    0    0  0.00000000000E+00  0.00000000000E+00 -0.40350814385E+03  0.11662599558E+04  0.10942319052E+04 0.  0.
        5    1    3    3  502    0  0.15665054692E+03  0.57260042096E+02  0.35359678171E+03  0.39098705900E+03  0.46999998093E+01 0.  1.
       -5    1    3    3    0  502 -0.15665054692E+03 -0.57260042096E+02 -0.75710492556E+03  0.77527289684E+03  0.46999998093E+01 0. -1.
</event>
<event>
 5   0  0.9692981E-03  0.8982989E+03  0.7818609E-02  0.9427710E-01
       -2   -1    0    0    0  501  0.00000000000E+00  0.00000000000E+00  0.13003839773E+03  0.13003839775E+03  0.25500000920E-02 0. -1.
        2   -1    0    0  501    0  0.00000000000E+00  0.00000000000E+00 -0.15513512564E+04  0.15513512564E+04  0.25500000920E-02 0.  1.
    10030    2    1    2    0    0  0.00000000000E+00  0.00000000000E+00 -0.14213128587E+04  0.16813896542E+04  0.89829890731E+03 0.  0.
        5    1    3    3  502    0  0.26882445326E+03  0.21390326997E+03 -0.12521450481E+04  0.12984261655E+04  0.46999998093E+01 0.  1.
       -5    1    3    3    0  502 -0.26882445326E+03 -0.21390326997E+03 -0.16916781058E+03  0.38296348874E+03  0.46999998093E+01 0. -1.
</event>
<event>
 5   0  0.9692981E-03  0.9914047E+03  0.7818609E-02  0.9318023E-01
        2   -1    0    0  501    0  0.00000000000E+00  0.00000000000E+00  0.10653316344E+04  0.10653316344E+04  0.25500000920E-02 0.  1.
       -2   -1    0    0    0  501  0.00000000000E+00  0.00000000000E+00 -0.23065194492E+03  0.23065194494E+03  0.25500000920E-02 0. -1.
    10030    2    1    2    0    0  0.00000000000E+00  0.00000000000E+00  0.83467968950E+03  0.12959835794E+04  0.99140468726E+03 0.  0.
        5    1    3    3  502    0 -0.28158432552E+03 -0.39801959125E+03  0.30049608926E+03  0.57273843686E+03  0.46999998093E+01 0. -1.
       -5    1    3    3    0  502  0.28158432552E+03  0.39801959125E+03  0.53418360024E+03  0.72324514251E+03  0.46999998093E+01 0.  1.
</event>
<event>
 5   0  0.5712664E-03  0.8064671E+03  0.7818609E-02  0.9550703E-01
        1   -1    0    0  501    0  0.00000000000E+00  0.00000000000E+00  0.10728046054E+04  0.10728046054E+04  0.50400001928E-02 0. -1.
       -1   -1    0    0    0  501  0.00000000000E+00  0.00000000000E+00 -0.15156282779E+03  0.15156282788E+03  0.50400001928E-02 0.  1.
    10030    2    1    2    0    0  0.00000000000E+00  0.00000000000E+00  0.92124177757E+03  0.12243674333E+04  0.80646710961E+03 0.  0.
        5    1    3    3  502    0 -0.11658875342E+03 -0.17492365097E+03 -0.61741132072E+02  0.21914670538E+03  0.46999998093E+01 0.  1.
       -5    1    3    3    0  502  0.11658875342E+03  0.17492365097E+03  0.98298290964E+03  0.10052207279E+04  0.46999998093E+01 0. -1.
</event>
<event>
 5   0  0.1019384E-02  0.1142009E+04  0.7818609E-02  0.9165187E-01
       -2   -1    0    0    0  501  0.00000000000E+00  0.00000000000E+00  0.29820864377E+03  0.29820864378E+03  0.25500000920E-02 0. -1.
        2   -1    0    0  501    0  0.00000000000E+00  0.00000000000E+00 -0.10933492600E+04  0.10933492600E+04  0.25500000920E-02 0.  1.
    10030    2    1    2    0    0  0.00000000000E+00  0.00000000000E+00 -0.79514061621E+03  0.13915579038E+04  0.11420091068E+04 0.  0.
        1    1    3    3  502    0 -0.18208278910E+03 -0.17508206815E+02 -0.10566806563E+04  0.10723967031E+04  0.50400001928E-02 0.  1.
       -1    1    3    3    0  502  0.18208278910E+03  0.17508206815E+02  0.26154004011E+03  0.31916120065E+03  0.50400001928E-02 0. -1.
</event>
<event>
 5   0  0.3949750E-03  0.1048098E+04  0.7818609E-02  0.9257309E-01
       -4   -1    0    0    0  501  0.00000000000E+00  0.00000000000E+00  0.24637740300E+03  0.24638067621E+03  0.12699999809E+01 0. -1.
        4   -1    0    0  501    0  0.00000000000E+00  0.00000000000E+00 -0.11146512382E+04  0.11146519617E+04  0.12699999809E+01 0.  1.
    10030    2    1    2    0    0  0.00000000000E+00  0.00000000000E+00 -0.86827383524E+03  0.13610326379E+04  0.10480984632E+04 0.  0.
        5    1    3    3  502    0 -0.39795609188E+03 -0.33964283921E+03 -0.47264126490E+03  0.70508025400E+03  0.46999998093E+01 0.  1.
       -5    1    3    3    0  502  0.39795609188E+03  0.33964283921E+03 -0.39563257033E+03  0.65595238394E+03  0.46999998093E+01 0. -1.
</event>
<event>
 5   0  0.5958706E-03  0.1098223E+04  0.7818609E-02  0.9206925E-01
       -1   -1    0    0    0  501  0.00000000000E+00  0.00000000000E+00  0.23783001092E+03  0.23783001097E+03  0.50400001928E-02 0. -1.
        1   -1    0    0  501    0  0.00000000000E+00  0.00000000000E+00 -0.12678117944E+04  0.12678117944E+04  0.50400001928E-02 0.  1.
    10030    2    1    2    0    0  0.00000000000E+00  0.00000000000E+00 -0.10299817835E+04  0.15056418054E+04  0.10982234617E+04 0.  0.
        2    1    3    3  502    0  0.50382886792E+03 -0.13499761453E+03 -0.27969387336E+03  0.59185855310E+03  0.25500000920E-02 0. -1.
       -2    1    3    3    0  502 -0.50382886792E+03  0.13499761453E+03 -0.75028791014E+03  0.91378325230E+03  0.25500000920E-02 0.  1.
</event>
<event>
 5   0  0.5998641E-03  0.6576531E+03  0.7818609E-02  0.9792524E-01
       -1   -1    0    0    0  501  0.00000000000E+00  0.00000000000E+00  0.28244973444E+03  0.28244973448E+03  0.50400001928E-02 0.  1.
        1   -1    0    0  501    0  0.00000000000E+00  0.00000000000E+00 -0.38281817573E+03  0.38281817576E+03  0.50400001928E-02 0. -1.
    10030    2    1    2    0    0  0.00000000000E+00  0.00000000000E+00 -0.10036844129E+03  0.66526791024E+03  0.65765307601E+03 0.  0.
        3    1    3    3  502    0 -0.19596410927E+03  0.17960249465E+03  0.14562329592E+03  0.30309263060E+03  0.10100000352E+00 0.  1.
       -3    1    3    3    0  502  0.19596410927E+03 -0.17960249465E+03 -0.24599173722E+03  0.36217527964E+03  0.10100000352E+00 0. -1.
</event>
<event>
 5   0  0.1019384E-02  0.9544855E+03  0.7818609E-02  0.9359923E-01
       -2   -1    0    0    0  501  0.00000000000E+00  0.00000000000E+00  0.37491984377E+03  0.37491984378E+03  0.25500000920E-02 0.  1.
        2   -1    0    0  501    0  0.00000000000E+00  0.00000000000E+00 -0.60749154605E+03  0.60749154606E+03  0.25500000920E-02 0. -1.
    10030    2    1    2    0    0  0.00000000000E+00  0.00000000000E+00 -0.23257170228E+03  0.98241138984E+03  0.95448548558E+03 0.  0.
        1    1    3    3  502    0  0.38466799823E+03  0.26546558212E+03 -0.21564621547E+03  0.51472782558E+03  0.50400001928E-02 0. -1.
       -1    1    3    3    0  502 -0.38466799823E+03 -0.26546558212E+03 -0.16925486812E+02  0.46768356426E+03  0.50400001928E-02 0.  1.
</event>
<event>
 5   0  0.5854579E-03  0.1081713E+04  0.7818609E-02  0.9223201E-01
       -1   -1    0    0    0  501  0.00000000000E+00  0.00000000000E+00  0.20298127438E+03  0.20298127444E+03  0.50400001928E-02 0. -1.
        1   -1    0    0  501    0  0.00000000000E+00  0.00000000000E+00 -0.14411469026E+04  0.14411469026E+04  0.50400001928E-02 0.  1.
    10030    2    1    2    0    0  0.00000000000E+00  0.00000000000E+00 -0.12381656282E+04  0.16441281770E+04  0.10817131503E+04 0.  0.
        4    1    3    3  502    0 -0.20324263739E+03 -0.39900269257E+03 -0.15803141220E+03  0.47485393383E+03  0.12699999809E+01 0. -1.
       -4    1    3    3    0  502  0.20324263739E+03  0.39900269257E+03 -0.10801342160E+04  0.11692742432E+04  0.12699999809E+01 0.  1.
</event>
<event>
 5   0  0.5854579E-03  0.1150337E+04  0.7818609E-02  0.9157473E-01
        1   -1    0    0  501    0  0.00000000000E+00  0.00000000000E+00  0.57651160013E+03  0.57651160015E+03  0.50400001928E-02 0. -1.
       -1   -1    0    0    0  501  0.00000000000E+00  0.00000000000E+00 -0.57382841456E+03  0.57382841458E+03  0.50400001928E-02 0.  1.
    10030    2    1    2    0    0  0.00000000000E+00  0.00000000000E+00  0.26831855726E+01  0.11503400147E+04  0.11503368854E+04 0.  0.
        4    1    3    3  502    0  0.50046662654E+03 -0.24806284410E+03 -0.13582694611E+03  0.57485005966E+03  0.12699999809E+01 0.  1.
       -4    1    3    3    0  502 -0.50046662654E+03  0.24806284410E+03  0.13851013169E+03  0.57548995507E+03  0.12699999809E+01 0. -1.
</event>
<event>
 5   0  0.5998641E-03  0.1113180E+04  0.7818609E-02  0.9192440E-01
       -1   -1    0    0    0  501  0.00000000000E+00  0.00000000000E+00  0.11038666733E+04  0.11038666733E+04  0.50400001928E-02 0.  1.
        1   -1    0    0  501    0  0.00000000000E+00  0.00000000000E+00 -0.28064287405E+03  0.28064287409E+03  0.50400001928E-02 0. -1.
    10030    2    1    2    0    0  0.00000000000E+00  0.00000000000E+00  0.82322379924E+03  0.13845095474E+04  0.11131797982E+04 0.  0.
        3    1    3    3  502    0  0.14104821069E+03 -0.12755810550E+02 -0.25785809540E+03  0.29419061169E+03  0.10100000352E+00 0. -1.
       -3    1    3    3    0  502 -0.14104821069E+03  0.12755810550E+02  0.10810818946E+04  0.10903189357E+04  0.10100000352E+00 0.  1.
</event>
<event>
 5   0  0.1028016E-02  0.1111211E+04  0.7818609E-02  0.9194333E-01
       -2   -1    0    0    0  501  0.00000000000E+00  0.00000000000E+00  0.31335968197E+03  0.31335968198E+03  0.25500000920E-02 0. -1.
        2   -1    0    0  501    0  0.00000000000E+00  0.00000000000E+00 -0.98512231455E+03  0.98512231455E+03  0.25500000920E-02 0.  1.
    10030    2    1    2    0    0  0.00000000000E+00  0.00000000000E+00 -0.67176263258E+03  0.12984819965E+04  0.11112112584E+04 0.  0.
        2    1    3    3  502    0  0.12127892107E+03  0.25187953971E+02  0.29701964456E+03  0.32181311189E+03  0.25500000920E-02 0. -1.
       -2    1    3    3    0  502 -0.12127892107E+03 -0.25187953971E+02 -0.96878227714E+03  0.97666888464E+03  0.25500000920E-02 0.  1.
</event>
<event>
 5   0  0.9925021E-03  0.1119181E+04  0.7818609E-02  0.9186696E-01
       -2   -1    0    0    0  501  0.00000000000E+00  0.00000000000E+00  0.60283071736E+03  0.60283071737E+03  0.25500000920E-02 0.  1.
        2   -1    0    0  501    0  0.00000000000E+00  0.00000000000E+00 -0.51945146508E+03  0.51945146509E+03  0.25500000920E-02 0. -1.
    10030    2    1    2    0    0  0.00000000000E+00  0.00000000000E+00  0.83379252282E+02  0.11222821825E+04  0.11191805919E+04 0.  0.
        4    1    3    3  502    0 -0.28452625806E+03 -0.41180331534E+03 -0.20920873283E+03  0.54250075469E+03  0.12699999809E+01 0. -1.
       -4    1    3    3    0  502  0.28452625806E+03  0.41180331534E+03  0.29258798511E+03  0.57978142776E+03  0.12699999809E+01 0.  1.
</event>
<event>
 5   0  0.9692981E-03  0.1024537E+04  0.7818609E-02  0.9282035E-01
        2   -1    0    0  501    0  0.00000000000E+00  0.00000000000E+00  0.45834965612E+03  0.45834965612E+03  0.25500000920E-02 0.  1.
       -2   -1    0    0    0  501  0.00000000000E+00  0.00000000000E+00 -0.57253012687E+03  0.57253012688E+03  0.25500000920E-02 0. -1.
    10030    2    1    2    0    0  0.00000000000E+00  0.00000000000E+00 -0.11418047076E+03  0.10308797830E+04  0.10245369428E+04 0.  0.
        5    1    3    3  502    0  0.34317278927E+02 -0.10950361157E+03  0.44522803304E+03  0.45980300997E+03  0.46999998093E+01 0.  1.
       -5    1    3    3    0  502 -0.34317278927E+02  0.10950361157E+03 -0.55940850379E+03  0.57107677303E+03  0.46999998093E+01 0. -1.
</event>
<event>
 5   0  0.9719260E-03  0.1090817E+04  0.7818609E-02  0.9214189E-01
       -2   -1    0    0    0  501  0.00000000000E+00  0.00000000000E+00  0.26368952879E+03  0.26368952880E+03  0.25500000920E-02 0.  1.
        2   -1    0    0  501    0  0.00000000000E+00  0.00000000000E+00 -0.11281080252E+04  0.11281080252E+04  0.25500000920E-02 0. -1.
    10030    2    1    2    0    0  0.00000000000E+00  0.00000000000E+00 -0.86441849645E+03  0.13917975540E+04  0.10908167098E+04 0.  0.
        3    1    3    3  502    0 -0.26552917263E+03 -0.93171107555E+02 -0.10283309148E+04  0.10661383950E+04  0.10100000352E+00 0. -1.
       -3    1    3    3    0  502  0.26552917263E+03  0.93171107555E+02  0.16391241832E+03  0.32565915906E+03  0.10100000352E+00 0.  1.
</event>
<event>
 5   0  0.9692981E-03  0.1082757E+04  0.7818609E-02  0.9222163E-01
       -2   -1    0    0    0  501  0.00000000000E+00  0.00000000000E+00  0.30159355293E+03  0.30159355294E+03  0.25500000920E-02 0. -1.
        2   -1    0    0  501    0  0.00000000000E+00  0.00000000000E+00 -0.97180644740E+03  0.97180644740E+03  0.25500000920E-02 0.  1.
    10030    2    1    2    0    0  0.00000000000E+00  0.00000000000E+00 -0.67021289446E+03  0.12734000003E+04  0.10827567765E+04 0.  0.
        5    1    3    3  502    0 -0.24183594633E+03  0.45388060925E+03 -0.53391563619E+03  0.74133678511E+03  0.46999998093E+01 0.  1.
       -5    1    3    3    0  502  0.24183594633E+03 -0.45388060925E+03 -0.13629725828E+03  0.53206321523E+03  0.46999998093E+01 0. -1.
</event>
<event>
 5   0  0.1028016E-02  0.1110774E+04  0.7818609E-02  0.9194754E-01
       -2   -1    0    0    0  501  0.00000000000E+00  0.00000000000E+00  0.16122553890E+03  0.16122553892E+03  0.25500000920E-02 0.  1.
        2   -1    0    0  501    0  0.00000000000E+00  0.00000000000E+00 -0.19131887051E+04  0.19131887052E+04  0.25500000920E-02 0. -1.
    10030    2    1    2    0    0  0.00000000000E+00  0.00000000000E+00 -0.17519631662E+04  0.20744142441E+04  0.11107742886E+04 0.  0.
        2    1    3    3  502    0 -0.51079546005E+03  0.99646443499E+02 -0.51378751362E+03  0.73131321940E+03  0.25500000920E-02 0.  1.
       -2    1    3    3    0  502  0.51079546005E+03 -0.99646443499E+02 -0.12381756526E+04  0.13431010247E+04  0.25500000920E-02 0. -1.
</event>
<event>
 5   0  0.5789905E-03  0.1095546E+04  0.7818609E-02  0.9209544E-01
        1   -1    0    0  501    0  0.00000000000E+00  0.00000000000E+00  0.99378669267E+03  0.99378669268E+03  0.50400001928E-02 0.  1.
       -1   -1    0    0    0  501  0.00000000000E+00  0.00000000000E+00 -0.30193105343E+03  0.30193105347E+03  0.50400001928E-02 0. -1.
    10030    2    1    2    0    0  0.00000000000E+00  0.00000000000E+00  0.69185563924E+03  0.12957177462E+04  0.10955456413E+04 0.  0.
        1    1    3    3  502    0 -0.11468251114E+03  0.17166443319E+02 -0.28724798590E+03  0.30977115839E+03  0.50400001928E-02 0. -1.
       -1    1    3    3    0  502  0.11468251114E+03 -0.17166443319E+02  0.97910362514E+03  0.98594658777E+03  0.50400001928E-02 0.  1.
</event>
<event>
 5   0  0.5854579E-03  0.1087209E+04  0.7818609E-02  0.9217749E-01
        1   -1    0    0  501    0  0.00000000000E+00  0.00000000000E+00  0.65894524406E+03  0.65894524408E+03  0.50400001928E-02 0. -1.
       -1   -1    0    0    0  501  0.00000000000E+00  0.00000000000E+00 -0.44845313849E+03  0.44845313852E+03  0.50400001928E-02 0.  1.
    10030    2    1    2    0    0  0.00000000000E+00  0.00000000000E+00  0.21049210557E+03  0.11073983826E+04  0.10872093870E+04 0.  0.
        4    1    3    3  502    0  0.30211093414E+03 -0.45187236655E+03  0.11206345231E+03  0.55499502918E+03  0.12699999809E+01 0. -1.
       -4    1    3    3    0  502 -0.30211093414E+03  0.45187236655E+03  0.98428653262E+02  0.55240335341E+03  0.12699999809E+01 0.  1.
</event>
<event>
 5   0  0.9925021E-03  0.1053841E+04  0.7818609E-02  0.9251387E-01
        2   -1    0    0  501    0  0.00000000000E+00  0.00000000000E+00  0.88161525284E+03  0.88161525284E+03  0.25500000920E-02 0. -1.
       -2   -1    0    0    0  501  0.00000000000E+00  0.00000000000E+00 -0.31492796843E+03  0.31492796844E+03  0.25500000920E-02 0.  1.
    10030    2    1    2    0    0  0.00000000000E+00  0.00000000000E+00  0.56668728441E+03  0.11965432213E+04  0.10538411655E+04 0.  0.
        4    1    3    3  502    0 -0.29874401708E+03  0.17788190302E+03 -0.16618997138E+03  0.38537083264E+03  0.12699999809E+01 0.  1.
       -4    1    3    3    0  502  0.29874401708E+03 -0.17788190302E+03  0.73287725579E+03  0.81117238865E+03  0.12699999809E+01 0. -1.
</event>
<event>
 5   0  0.9925021E-03  0.1118327E+04  0.7818609E-02  0.9187511E-01
       -2   -1    0    0    0  501  0.00000000000E+00  0.00000000000E+00  0.32046925788E+03  0.32046925789E+03  0.25500000920E-02 0. -1.
        2   -1    0    0  501    0  0.00000000000E+00  0.00000000000E+00 -0.97564427270E+03  0.97564427270E+03  0.25500000920E-02 0.  1.
    10030    2    1    2    0    0  0.00000000000E+00  0.00000000000E+00 -0.65517501482E+03  0.12961135306E+04  0.11183273153E+04 0.  0.
        4    1    3    3  502    0 -0.10352982844E+03  0.16354055179E+03 -0.93557843668E+03  0.95539131331E+03  0.12699999809E+01 0.  1.
       -4    1    3    3    0  502  0.10352982844E+03 -0.16354055179E+03  0.28040342186E+03  0.34072221728E+03  0.12699999809E+01 0. -1.
</event>
<event>
 5   0  0.5958706E-03  0.1134134E+04  0.7818609E-02  0.9172546E-01
       -1   -1    0    0    0  501  0.00000000000E+00  0.00000000000E+00  0.22396335318E+03  0.22396335323E+03  0.50400001928E-02 0.  1.
        1   -1    0    0  501    0  0.00000000000E+00  0.00000000000E+00 -0.14357934055E+04  0.14357934055E+04  0.50400001928E-02 0. -1.
    10030    2    1    2    0    0  0.00000000000E+00  0.00000000000E+00 -0.12118300523E+04  0.16597567588E+04  0.11341342171E+04 0.  0.
        2    1    3    3  502    0  0.21070166890E+03 -0.44358072191E+03 -0.19093769714E+03  0.52689301981E+03  0.25500000920E-02 0.  1.
       -2    1    3    3    0  502 -0.21070166890E+03  0.44358072191E+03 -0.10208923552E+04  0.11328637390E+04  0.25500000920E-02 0. -1.
</event>
<event>
 5   0  0.3949750E-03  0.1097615E+04  0.7818609E-02  0.9207519E-01
       -4   -1    0    0    0  501  0.00000000000E+00  0.00000000000E+00  0.20471461111E+03  0.20471855046E+03  0.12699999809E+01 0.  1.
        4   -1    0    0  501    0  0.00000000000E+00  0.00000000000E+00 -0.14712487710E+04  0.14712493191E+04  0.12699999809E+01 0. -1.
    10030    2    1    2    0    0  0.00000000000E+00  0.00000000000E+00 -0.12665341599E+04  0.16759678696E+04  0.10976153797E+04 0.  0.
        4    1    3    3  502    0  0.43132791403E+03 -0.20203494174E+03 -0.10495484705E+04  0.11525690834E+04  0.12699999809E+01 0. -1.
       -4    1    3    3    0  502 -0.43132791403E+03  0.20203494174E+03 -0.21698568936E+03  0.52339878620E+03  0.12699999809E+01 0.  1.
</event>
<event>
 5   0  0.1028016E-02  0.1010707E+04  0.7818609E-02  0.9296879E-01
       -2   -1    0    0    0  501  0.00000000000E+00  0.00000000000E+00  0.35346236827E+03  0.35346236828E+03  0.25500000920E-02 0. -1.
        2   -1    0    0  501    0  0.00000000000E+00  0.00000000000E+00 -0.72251517213E+03  0.72251517213E+03  0.25500000920E-02 0.  1.
    10030    2    1    2    0    0  0.00000000000E+00  0.00000000000E+00 -0.36905280385E+03  0.10759775404E+04  0.10107065328E+04 0.  0.
        2    1    3    3  502    0 -0.39054117857E+03  0.19509085032E+03  0.86469376716E+02  0.44503910519E+03  0.25500000920E-02 0. -1.
       -2    1    3    3    0  502  0.39054117857E+03 -0.19509085032E+03 -0.45552218057E+03  0.63093843522E+03  0.25500000920E-02 0.  1.
</event>
<event>
 5   0  0.9719260E-03  0.9957747E+03  0.7818609E-02  0.9313191E-01
        2   -1    0    0  501    0  0.00000000000E+00  0.00000000000E+00  0.56969826761E+03  0.56969826761E+03  0.25500000920E-02 0.  1.
       -2   -1    0    0    0  501  0.00000000000E+00  0.00000000000E+00 -0.43512824921E+03  0.43512824921E+03  0.25500000920E-02 0. -1.
    10030    2    1    2    0    0  0.00000000000E+00  0.00000000000E+00  0.13457001840E+03  0.10048265168E+04  0.99577469292E+03 0.  0.
        3    1    3    3  502    0  0.14956042880E+02 -0.43579509844E+03  0.30978337231E+03  0.53488952037E+03  0.10100000352E+00 0.  1.
       -3    1    3    3    0  502 -0.14956042880E+02  0.43579509844E+03 -0.17521335391E+03  0.46993699645E+03  0.10100000352E+00 0. -1.
</event>
<event>
 5   0  0.3949750E-03  0.1076273E+04  0.7818609E-02  0.9228631E-01
        3   -1    0    0  501    0  0.00000000000E+00  0.00000000000E+00  0.87958545175E+03  0.87958545755E+03  0.10100000352E+00 0.  1.
       -3   -1    0    0    0  501  0.00000000000E+00  0.00000000000E+00 -0.32923557482E+03  0.32923559031E+03  0.10100000352E+00 0. -1.
    10030    2    1    2    0    0  0.00000000000E+00  0.00000000000E+00  0.55034987693E+03  0.12088210479E+04  0.10762728923E+04 0.  0.
        1    1    3    3  502    0  0.37816794770E+03 -0.63440344418E+02  0.69923862380E+03  0.79747747743E+03  0.50400001928E-02 0.  1.
       -1    1    3    3    0  502 -0.37816794770E+03  0.63440344418E+02 -0.14888874687E+03  0.41134357043E+03  0.50400001928E-02 0. -1.
</event>
<event>
 5   0  0.1028016E-02  0.1185423E+04  0.7818609E-02  0.9125712E-01
       -2   -1    0    0    0  501  0.00000000000E+00  0.00000000000E+00  0.12338712279E+04  0.12338712279E+04  0.25500000920E-02 0.  1.
        2   -1    0    0  501    0  0.00000000000E+00  0.00000000000E+00 -0.28471922038E+03  0.28471922039E+03  0.25500000920E-02 0. -1.
    10030    2    1    2    0    0  0.00000000000E+00  0.00000000000E+00  0.94915200752E+03  0.15185904483E+04  0.11854228850E+04 0.  0.
        2    1    3    3  502    0  0.62078753098E+02 -0.37592610823E+03  0.10561978937E+04  0.11228215357E+04  0.25500000920E-02 0.  1.
       -2    1    3    3    0  502 -0.62078753098E+02  0.37592610823E+03 -0.10704588614E+03  0.39576891260E+03  0.25500000920E-02 0. -1.
</event>
<event>
 5   0  0.1019384E-02  0.7021655E+03  0.7818609E-02  0.9713536E-01
        2   -1    0    0  501    0  0.00000000000E+00  0.00000000000E+00  0.40945301612E+03  0.40945301613E+03  0.25500000920E-02 0. -1.
       -2   -1    0    0    0  501  0.00000000000E+00  0.00000000000E+00 -0.30103359386E+03  0.30103359387E+03  0.25500000920E-02 0.  1.
    10030    2    1    2    0    0  0.00000000000E+00  0.00000000000E+00  0.10841942226E+03  0.71048661000E+03  0.70216554449E+03 0.  0.
        1    1    3    3  502    0  0.51122579246E+02 -0.34578011871E+03  0.87488741844E+02  0.36032164600E+03  0.50400001928E-02 0. -1.
       -1    1    3    3    0  502 -0.51122579246E+02  0.34578011871E+03  0.20930680413E+02  0.35016496400E+03  0.50400001928E-02 0.  1.
</event>
<event>
 5   0  0.5998641E-03  0.1049415E+04  0.7818609E-02  0.9255949E-01
       -1   -1    0    0    0  501  0.00000000000E+00  0.00000000000E+00  0.46383650944E+03  0.46383650947E+03  0.50400001928E-02 0. -1.
        1   -1    0    0  501    0  0.00000000000E+00  0.00000000000E+00 -0.59356637908E+03  0.59356637910E+03  0.50400001928E-02 0.  1.
    10030    2    1    2    0    0  0.00000000000E+00  0.00000000000E+00 -0.12972986964E+03  0.10574028886E+04  0.10494146129E+04 0.  0.
        3    1    3    3  502    0  0.21148894770E+03 -0.47966378592E+03 -0.87682949169E+02  0.53150092408E+03  0.10100000352E+00 0.  1.
       -3    1    3    3    0  502 -0.21148894770E+03  0.47966378592E+03 -0.42046920467E+02  0.52590196448E+03  0.10100000352E+00 0. -1.
</event>
<event>
 5   0  0.9692981E-03  0.1046312E+04  0.7818609E-02  0.9259160E-01
       -2   -1    0    0    0  501  0.00000000000E+00  0.00000000000E+00  0.42080805681E+03  0.42080805682E+03  0.25500000920E-02 0. -1.
        2   -1    0    0  501    0  0.00000000000E+00  0.00000000000E+00 -0.65039716940E+03  0.65039716941E+03  0.25500000920E-02 0.  1.
    10030    2    1    2    0    0  0.00000000000E+00  0.00000000000E+00 -0.22958911259E+03  0.10712052262E+04  0.10463123224E+04 0.  0.
        5    1    3    3  502    0  0.18411723379E+03  0.29010608203E+03 -0.51865332257E+03  0.62216079402E+03  0.46999998093E+01 0.  1.
       -5    1    3    3    0  502 -0.18411723379E+03 -0.29010608203E+03  0.28906420997E+03  0.44904443221E+03  0.46999998093E+01 0. -1.
</event>
<event>
 5   0  0.9925021E-03  0.1153881E+04  0.7818609E-02  0.9154211E-01
       -2   -1    0    0    0  501  0.00000000000E+00  0.00000000000E+00  0.36301818952E+03  0.36301818953E+03  0.25500000920E-02 0. -1.
        2   -1    0    0  501    0  0.00000000000E+00  0.00000000000E+00 -0.91692401765E+03  0.91692401765E+03  0.25500000920E-02 0.  1.
    10030    2    1    2    0    0  0.00000000000E+00  0.00000000000E+00 -0.55390582813E+03  0.12799422072E+04  0.11538805776E+04 0.  0.
        4    1    3    3  502    0  0.22764413843E+03  0.13597011534E+03 -0.84532727811E+03  0.88593992237E+03  0.12699999809E+01 0.  1.
       -4    1    3    3    0  502 -0.22764413843E+03 -0.13597011534E+03  0.29142144998E+03  0.39400228481E+03  0.12699999809E+01 0. -1.
</event>
<event>
 5   0  0.1028016E-02  0.1119337E+04  0.7818609E-02  0.9186547E-01
        2   -1    0    0  501    0  0.00000000000E+00  0.00000000000E+00  0.10546018683E+04  0.10546018683E+04  0.25500000920E-02 0.  1.
       -2   -1    0    0    0  501  0.00000000000E+00  0.00000000000E+00 -0.29701158423E+03  0.29701158424E+03  0.25500000920E-02 0. -1.
    10030    2    1    2    0    0  0.00000000000E+00  0.00000000000E+00  0.75759028412E+03  0.13516134526E+04  0.11193372533E+04 0.  0.
        2    1    3    3  502    0  0.16129505166E+03 -0.29228184527E+03  0.92121443376E+03  0.97983713123E+03  0.25500000920E-02 0.  1.
       -2    1    3    3    0  502 -0.16129505166E+03  0.29228184527E+03 -0.16362414965E+03  0.37177632135E+03  0.25500000920E-02 0. -1.
</event>
<event>
 5   0  0.5998641E-03  0.1102599E+04  0.7818609E-02  0.9202662E-01
       -1   -1    0    0    0  501  0.00000000000E+00  0.00000000000E+00  0.70503941673E+03  0.70503941675E+03  0.50400001928E-02 0.  1.
        1   -1    0    0  501    0  0.00000000000E+00  0.00000000000E+00 -0.43108403838E+03  0.43108403841E+03  0.50400001928E-02 0. -1.
    10030    2    1    2    0    0  0.00000000000E+00  0.00000000000E+00  0.27395537836E+03  0.11361234552E+04  0.11025991819E+04 0.  0.
        3    1    3    3  502    0  0.18342864716E+03  0.14698880028E+02 -0.39850484629E+03  0.43893991433E+03  0.10100000352E+00 0. -1.
       -3    1    3    3    0  502 -0.18342864716E+03 -0.14698880028E+02  0.67246022465E+03  0.69718354083E+03  0.10100000352E+00 0.  1.
</event>
<event>
 5   0  0.5712664E-03  0.8446639E+03  0.7818609E-02  0.9497527E-01
       -1   -1    0    0    0  501  0.00000000000E+00  0.00000000000E+00  0.24575830709E+03  0.24575830714E+03  0.50400001928E-02 0. -1.
        1   -1    0    0  501    0  0.00000000000E+00  0.00000000000E+00 -0.72577115904E+03  0.72577115905E+03  0.50400001928E-02 0.  1.
    10030    2    1    2    0    0  0.00000000000E+00  0.00000000000E+00 -0.48001285194E+03  0.97152946620E+03  0.84466393652E+03 0.  0.
        5    1    3    3  502    0  0.20243515239E+03 -0.64396146810E+02 -0.65981292235E+03  0.69318254244E+03  0.46999998093E+01 0.  1.
       -5    1    3    3    0  502 -0.20243515239E+03  0.64396146810E+02  0.17980007041E+03  0.27834692375E+03  0.46999998093E+01 0. -1.
</event>
<event>
 5   0  0.1019384E-02  0.1103962E+04  0.7818609E-02  0.9201339E-01
        2   -1    0    0  501    0  0.00000000000E+00  0.00000000000E+00  0.37532169551E+03  0.37532169552E+03  0.25500000920E-02 0. -1.
       -2   -1    0    0    0  501  0.00000000000E+00  0.00000000000E+00 -0.81179155394E+03  0.81179155394E+03  0.25500000920E-02 0.  1.
    10030    2    1    2    0    0  0.00000000000E+00  0.00000000000E+00 -0.43646985843E+03  0.11871132495E+04  0.11039619240E+04 0.  0.
        1    1    3    3  502    0  0.79849785164E+02 -0.56689364803E+02 -0.80237599606E+03  0.80832970460E+03  0.50400001928E-02 0.  1.
       -1    1    3    3    0  502 -0.79849785164E+02  0.56689364803E+02  0.36590613763E+03  0.37878354485E+03  0.50400001928E-02 0. -1.
</event>
<event>
 5   0  0.9692981E-03  0.1136831E+04  0.7818609E-02  0.9170019E-01
       -2   -1    0    0    0  501  0.00000000000E+00  0.00000000000E+00  0.43067929516E+03  0.43067929516E+03  0.25500000920E-02 0. -1.
        2   -1    0    0  501    0  0.00000000000E+00  0.00000000000E+00 -0.75020168728E+03  0.75020168728E+03  0.25500000920E-02 0.  1.
    10030    2    1    2    0    0  0.00000000000E+00  0.00000000000E+00 -0.31952239212E+03  0.11808809824E+04  0.11368312696E+04 0.  0.
        5    1    3    3  502    0 -0.51578481764E+03 -0.11852180185E+02  0.88018351584E+02  0.52339638182E+03  0.46999998093E+01 0.  1.
       -5    1    3    3    0  502  0.51578481764E+03  0.11852180185E+02 -0.40754074370E+03  0.65748460063E+03  0.46999998093E+01 0. -1.
</event>
<event>
 5   0  0.9692981E-03  0.1122659E+04  0.7818609E-02  0.9183384E-01
        2   -1    0    0  501    0  0.00000000000E+00  0.00000000000E+00  0.15977171892E+04  0.15977171892E+04  0.25500000920E-02 0.  1.
       -2   -1    0    0    0  501  0.00000000000E+00  0.00000000000E+00 -0.19721303088E+03  0.19721303090E+03  0.25500000920E-02 0. -1.
    10030    2    1    2    0    0  0.00000000000E+00  0.00000000000E+00  0.14005041584E+04  0.17949302201E+04  0.11226587182E+04 0.  0.
        5    1    3    3  502    0  0.84504893352E+02 -0.51520361761E+03  0.10298292000E+04  0.11546194680E+04  0.46999998093E+01 0.  1.
       -5    1    3    3    0  502 -0.84504893352E+02  0.51520361761E+03  0.37067495831E+03  0.64031075214E+03  0.46999998093E+01 0. -1.
</event>
<event>
 5   0  0.5854579E-03  0.1135090E+04  0.7818609E-02  0.9171649E-01
       -1   -1    0    0    0  501  0.00000000000E+00  0.00000000000E+00  0.51488843862E+03  0.51488843864E+03  0.50400001928E-02 0.  1.
        1   -1    0    0  501    0  0.00000000000E+00  0.00000000000E+00 -0.62558717662E+03  0.62558717664E+03  0.50400001928E-02 0. -1.
    10030    2    1    2    0    0  0.00000000000E+00  0.00000000000E+00 -0.11069873800E+03  0.11404756153E+04  0.11350904891E+04 0.  0.
        4    1    3    3  502    0  0.49540187594E+03 -0.18400534542E+03  0.15257444595E+03  0.55005596105E+03  0.12699999809E+01 0.  1.
       -4    1    3    3    0  502 -0.49540187594E+03  0.18400534542E+03 -0.26327318395E+03  0.59041965424E+03  0.12699999809E+01 0. -1.
</event>
<event>
 5   0  0.5854579E-03  0.1095992E+04  0.7818609E-02  0.9209107E-01
        1   -1    0    0  501    0  0.00000000000E+00  0.00000000000E+00  0.76583713762E+03  0.76583713764E+03  0.50400001928E-02 0. -1.
       -1   -1    0    0    0  501  0.00000000000E+00  0.00000000000E+00 -0.39211947436E+03  0.39211947439E+03  0.50400001928E-02 0.  1.
    10030    2    1    2    0    0  0.00000000000E+00  0.00000000000E+00  0.37371766326E+03  0.11579566120E+04  0.10959920727E+04 0.  0.
        4    1    3    3  502    0  0.53097135172E+03 -0.25457190852E+02  0.32749899309E+03  0.62436835946E+03  0.12699999809E+01 0. -1.
       -4    1    3    3    0  502 -0.53097135172E+03  0.25457190852E+02  0.46218670169E+02  0.53358825258E+03  0.12699999809E+01 0.  1.
</event>
<event>
 5   0  0.5958706E-03  0.1089344E+04  0.7818609E-02  0.9215641E-01
       -1   -1    0    0    0  501  0.00000000000E+00  0.00000000000E+00  0.16383162659E+03  0.16383162667E+03  0.50400001928E-02 0. -1.
        1   -1    0    0  501    0  0.00000000000E+00  0.00000000000E+00 -0.18108065761E+04  0.18108065761E+04  0.50400001928E-02 0.  1.
    10030    2    1    2    0    0  0.00000000000E+00  0.00000000000E+00 -0.16469749495E+04  0.19746382027E+04  0.10893436315E+04 0.  0.
        2    1    3    3  502    0  0.30595859895E+03 -0.29426775339E+03 -0.14420975909E+04  0.15032796269E+04  0.25500000920E-02 0.  1.
       -2    1    3    3    0  502 -0.30595859895E+03  0.29426775339E+03 -0.20487735856E+03  0.47135857583E+03  0.25500000920E-02 0. -1.
</event>
<event>
 5   0  0.1019384E-02  0.1041103E+04  0.7818609E-02  0.9264579E-01
        2   -1    0    0  501    0  0.00000000000E+00  0.00000000000E+00  0.16525895118E+04  0.16525895118E+04  0.25500000920E-02 0.  1.
       -2   -1    0    0    0  501  0.00000000000E+00  0.00000000000E+00 -0.16396912688E+03  0.16396912690E+03  0.25500000920E-02 0. -1.
    10030    2    1    2    0    0  0.00000000000E+00  0.00000000000E+00  0.14886203849E+04  0.18165586387E+04  0.10411026066E+04 0.  0.
        1    1    3    3  502    0 -0.49987437382E+03 -0.14453486541E+03  0.76953159195E+03  0.92894757008E+03  0.50400001928E-02 0. -1.
       -1    1    3    3    0  502  0.49987437382E+03  0.14453486541E+03  0.71908879293E+03  0.88761106858E+03  0.50400001928E-02 0.  1.
</event>
<event>
 5   0  0.9692981E-03  0.1119056E+04  0.7818609E-02  0.9186815E-01
        2   -1    0    0  501    0  0.00000000000E+00  0.00000000000E+00  0.11845391176E+04  0.11845391176E+04  0.25500000920E-02 0.  1.
       -2   -1    0    0    0  501  0.00000000000E+00  0.00000000000E+00 -0.26429839244E+03  0.26429839245E+03  0.25500000920E-02 0. -1.
    10030    2    1    2    0    0  0.00000000000E+00  0.00000000000E+00  0.92024072512E+03  0.14488375100E+04  0.11190563606E+04 0.  0.
        5    1    3    3  502    0  0.21718837323E+03 -0.20075787338E+03 -0.15479221850E+03  0.33385211411E+03  0.46999998093E+01 0. -1.
       -5    1    3    3    0  502 -0.21718837323E+03  0.20075787338E+03  0.10750329436E+04  0.11149853959E+04  0.46999998093E+01 0.  1.
</event>
<event>
 5   0  0.9719260E-03  0.1104098E+04  0.7818609E-02  0.9201207E-01
        2   -1    0    0  501    0  0.00000000000E+00  0.00000000000E+00  0.16515663720E+04  0.16515663720E+04  0.25500000920E-02 0.  1.
       -2   -1    0    0    0  501  0.00000000000E+00  0.00000000000E+00 -0.18452667182E+03  0.18452667184E+03  0.25500000920E-02 0. -1.
    10030    2    1    2    0    0  0.00000000000E+00  0.00000000000E+00  0.14670397002E+04  0.18360930439E+04  0.11040979050E+04 0.  0.
        3    1    3    3  502    0 -0.53448919169E+03  0.12557391190E+03  0.63783657820E+03  0.84159551691E+03  0.10100000352E+00 0.  1.
       -3    1    3    3    0  502  0.53448919169E+03 -0.12557391190E+03  0.82920312202E+03  0.99449752697E+03  0.10100000352E+00 0. -1.
</event>
<event>
 5   0  0.5854579E-03  0.1099078E+04  0.7818609E-02  0.9206091E-01
       -1   -1    0    0    0  501  0.00000000000E+00  0.00000000000E+00  0.92643211263E+03  0.92643211265E+03  0.50400001928E-02 0.  1.
        1   -1    0    0  501    0  0.00000000000E+00  0.00000000000E+00 -0.32597413114E+03  0.32597413118E+03  0.50400001928E-02 0. -1.
    10030    2    1    2    0    0  0.00000000000E+00  0.00000000000E+00  0.60045798149E+03  0.12524062438E+04  0.10990776188E+04 0.  0.
        4    1    3    3  502    0  0.82354999291E+02  0.38645659752E+03 -0.13496744067E+03  0.41755103954E+03  0.12699999809E+01 0. -1.
       -4    1    3    3    0  502 -0.82354999291E+02 -0.38645659752E+03  0.73542542216E+03  0.83485520429E+03  0.12699999809E+01 0.  1.
</event>
<event>
 5   0  0.1019384E-02  0.1086980E+04  0.7818609E-02  0.9217976E-01
       -2   -1    0    0    0  501  0.00000000000E+00  0.00000000000E+00  0.76714828620E+03  0.76714828621E+03  0.25500000920E-02 0. -1.
        2   -1    0    0  501    0  0.00000000000E+00  0.00000000000E+00 -0.38503788492E+03  0.38503788493E+03  0.25500000920E-02 0.  1.
    10030    2    1    2    0    0  0.00000000000E+00  0.00000000000E+00  0.38211040129E+03  0.11521861711E+04  0.10869795832E+04 0.  0.
        1    1    3    3  502    0  0.28614317069E+03  0.14140285823E+03  0.65734000483E+03  0.73073152691E+03  0.50400001928E-02 0. -1.
       -1    1    3    3    0  502 -0.28614317069E+03 -0.14140285823E+03 -0.27522960355E+03  0.42145464423E+03  0.50400001928E-02 0.  1.
</event>
<event>
 5   0  0.5854579E-03  0.1089871E+04  0.7818609E-02  0.9215121E-01
       -1   -1    0    0    0  501  0.00000000000E+00  0.00000000000E+00  0.62062272217E+03  0.62062272219E+03  0.50400001928E-02 0. -1.
        1   -1    0    0  501    0  0.00000000000E+00  0.00000000000E+00 -0.47847829005E+03  0.47847829008E+03  0.50400001928E-02 0.  1.
    10030    2    1    2    0    0  0.00000000000E+00  0.00000000000E+00  0.14214443212E+03  0.10991010123E+04  0.10898706325E+04 0.  0.
        4    1    3    3  502    0 -0.24564677008E+03 -0.29795878829E+03 -0.31667222273E+03  0.49940432990E+03  0.12699999809E+01 0.  1.
       -4    1    3    3    0  502  0.24564677008E+03  0.29795878829E+03  0.45881665485E+03  0.59969668237E+03  0.12699999809E+01 0. -1.
</event>
<event>
 5   0  0.9719260E-03  0.1312357E+04  0.7818609E-02  0.9019823E-01
       -2   -1    0    0    0  501  0.00000000000E+00  0.00000000000E+00  0.65673946812E+03  0.65673946812E+03  0.25500000920E-02 0.  1.
        2   -1    0    0  501    0  0.00000000000E+00  0.00000000000E+00 -0.65561795221E+03  0.65561795221E+03  0.25500000920E-02 0. -1.
    10030    2    1    2    0    0  0.00000000000E+00  0.00000000000E+00  0.11215159105E+01  0.13123574203E+04  0.13123569411E+04 0.  0.
        3    1    3    3  502    0 -0.15422581876E+01 -0.65059164187E+03  0.85990947733E+02  0.65625171720E+03  0.10100000352E+00 0.  1.
       -3    1    3    3    0  502  0.15422581876E+01  0.65059164187E+03 -0.84869431823E+02  0.65610570314E+03  0.10100000352E+00 0. -1.
</event>
<event>
 5   0  0.9925021E-03  0.1095961E+04  0.7818609E-02  0.9209137E-01
       -2   -1    0    0    0  501  0.00000000000E+00  0.00000000000E+00  0.26245381807E+03  0.26245381808E+03  0.25500000920E-02 0. -1.
        2   -1    0    0  501    0  0.00000000000E+00  0.00000000000E+00 -0.11441355075E+04  0.11441355075E+04  0.25500000920E-02 0.  1.
    10030    2    1    2    0    0  0.00000000000E+00  0.00000000000E+00 -0.88168168943E+03  0.14065893256E+04  0.10959611897E+04 0.  0.
        4    1    3    3  502    0 -0.12699011199E+02  0.54079095766E+03 -0.55320507228E+03  0.77372707699E+03  0.12699999809E+01 0.  1.
       -4    1    3    3    0  502  0.12699011199E+02 -0.54079095766E+03 -0.32847661715E+03  0.63286224859E+03  0.12699999809E+01 0. -1.
</event>
<event>
 5   0  0.5789905E-03  0.1068000E+04  0.7818609E-02  0.9236955E-01
       -1   -1    0    0    0  501  0.00000000000E+00  0.00000000000E+00  0.62588818182E+03  0.62588818184E+03  0.50400001928E-02 0. -1.
        1   -1    0    0  501    0  0.00000000000E+00  0.00000000000E+00 -0.45560200753E+03  0.45560200756E+03  0.50400001928E-02 0.  1.
    10030    2    1    2    0    0  0.00000000000E+00  0.00000000000E+00  0.17028617428E+03  0.10814901894E+04  0.10679998355E+04 0.  0.
        1    1    3    3  502    0  0.46432875636E+03  0.17131553842E+03  0.28818946017E+03  0.57271578699E+03  0.50400001928E-02 0. -1.
       -1    1    3    3    0  502 -0.46432875636E+03 -0.17131553842E+03 -0.11790328589E+03  0.50877440240E+03  0.50400001928E-02 0.  1.
</event>
<event>
 5   0  0.1019384E-02  0.1140935E+04  0.7818609E-02  0.9166187E-01
       -2   -1    0    0    0  501  0.00000000000E+00  0.00000000000E+00  0.32919804737E+03  0.32919804738E+03  0.25500000920E-02 0. -1.
        2   -1    0    0  501    0  0.00000000000E+00  0.00000000000E+00 -0.98856386949E+03  0.98856386950E+03  0.25500000920E-02 0.  1.
    10030    2    1    2    0    0  0.00000000000E+00  0.00000000000E+00 -0.65936582213E+03  0.13177619169E+04  0.11409352226E+04 0.  0.
        1    1    3    3  502    0 -0.17218605759E+03  0.50641264286E+03 -0.55874128667E+03  0.77349442709E+03  0.50400001928E-02 0.  1.
       -1    1    3    3    0  502  0.17218605759E+03 -0.50641264286E+03 -0.10062453545E+03  0.54426748979E+03  0.50400001928E-02 0. -1.
</event>
<event>
 5   0  0.5998641E-03  0.1086603E+04  0.7818609E-02  0.9218349E-01
       -1   -1    0    0    0  501  0.00000000000E+00  0.00000000000E+00  0.64740165951E+03  0.64740165953E+03  0.50400001928E-02 0. -1.
        1   -1    0    0  501    0  0.00000000000E+00  0.00000000000E+00 -0.45594012187E+03  0.45594012190E+03  0.50400001928E-02 0.  1.
    10030    2    1    2    0    0  0.00000000000E+00  0.00000000000E+00  0.19146153764E+03  0.11033417814E+04  0.10866027638E+04 0.  0.
        3    1    3    3  502    0 -0.26664155818E+02 -0.54139902190E+03  0.13307370108E+03  0.55815096366E+03  0.10100000352E+00 0. -1.
       -3    1    3    3    0  502  0.26664155818E+02  0.54139902190E+03  0.58387836561E+02  0.54519081777E+03  0.10100000352E+00 0.  1.
</event>
<event>
 5   0  0.5712664E-03  0.1113453E+04  0.7818609E-02  0.9192178E-01
       -1   -1    0    0    0  501  0.00000000000E+00  0.00000000000E+00  0.92138056125E+03  0.92138056126E+03  0.50400001928E-02 0.  1.
        1   -1    0    0  501    0  0.00000000000E+00  0.00000000000E+00 -0.33639120882E+03  0.33639120886E+03  0.50400001928E-02 0. -1.
    10030    2    1    2    0    0  0.00000000000E+00  0.00000000000E+00  0.58498935243E+03  0.12577717701E+04  0.11134528653E+04 0.  0.
        5    1    3    3  502    0 -0.30758380889E+03  0.23477485110E+03  0.74461575603E+03  0.83916729221E+03  0.46999998093E+01 0.  1.
       -5    1    3    3    0  502  0.30758380889E+03 -0.23477485110E+03 -0.15962640360E+03  0.41860447791E+03  0.46999998093E+01 0. -1.
</event>
<event>
 5   0  0.5854579E-03  0.1019535E+04  0.7818609E-02  0.9287375E-01
        1   -1    0    0  501    0  0.00000000000E+00  0.00000000000E+00  0.93708883662E+03  0.93708883664E+03  0.50400001928E-02 0.  1.
       -1   -1    0    0    0  501  0.00000000000E+00  0.00000000000E+00 -0.27730869935E+03  0.27730869940E+03  0.50400001928E-02 0. -1.
    10030    2    1    2    0    0  0.00000000000E+00  0.00000000000E+00  0.65978013727E+03  0.12143975360E+04  0.10195349656E+04 0.  0.
        4    1    3    3  502    0 -0.35070303387E+02  0.30828208742E+03  0.81166231441E+03  0.86894481823E+03  0.12699999809E+01 0.  1.
       -4    1    3    3    0  502  0.35070303387E+02 -0.30828208742E+03 -0.15188217714E+03  0.34545271780E+03  0.12699999809E+01 0. -1.
</event>
<event>
 5   0  0.5998641E-03  0.1102594E+04  0.7818609E-02  0.9202667E-01
        1   -1    0    0  501    0  0.00000000000E+00  0.00000000000E+00  0.10919362185E+04  0.10919362185E+04  0.50400001928E-02 0.  1.
       -1   -1    0    0    0  501  0.00000000000E+00  0.00000000000E+00 -0.27833893546E+03  0.27833893551E+03  0.50400001928E-02 0. -1.
    10030    2    1    2    0    0  0.00000000000E+00  0.00000000000E+00  0.81359728305E+03  0.13702751540E+04  0.11025939682E+04 0.  0.
        3    1    3    3  502    0  0.26970254566E+03  0.56579326728E+02 -0.18660178204E+03  0.33280763003E+03  0.10100000352E+00 0. -1.
       -3    1    3    3    0  502 -0.26970254566E+03 -0.56579326728E+02  0.10001990651E+04  0.10374675240E+04  0.10100000352E+00 0.  1.
</event>
<event>
 5   0  0.5998641E-03  0.1178003E+04  0.7818609E-02  0.9132331E-01
        1   -1    0    0  501    0  0.00000000000E+00  0.00000000000E+00  0.21203061708E+04  0.21203061708E+04  0.50400001928E-02 0.  1.
       -1   -1    0    0    0  501  0.00000000000E+00  0.00000000000E+00 -0.16361930557E+03  0.16361930564E+03  0.50400001928E-02 0. -1.
    10030    2    1    2    0    0  0.00000000000E+00  0.00000000000E+00  0.19566868652E+04  0.22839254764E+04  0.11780034352E+04 0.  0.
        3    1    3    3  502    0 -0.17697671338E+03 -0.55522641748E+03  0.81239799619E+03  0.99979380183E+03  0.10100000352E+00 0. -1.
       -3    1    3    3    0  502  0.17697671338E+03  0.55522641748E+03  0.11442888690E+04  0.12841316746E+04  0.10100000352E+00 0.  1.
</event>
<event>
 5   0  0.5854579E-03  0.1098657E+04  0.7818609E-02  0.9206502E-01
       -1   -1    0    0    0  501  0.00000000000E+00  0.00000000000E+00  0.99704447132E+03  0.99704447133E+03  0.50400001928E-02 0. -1.
        1   -1    0    0  501    0  0.00000000000E+00  0.00000000000E+00 -0.30265644075E+03  0.30265644079E+03  0.50400001928E-02 0.  1.
    10030    2    1    2    0    0  0.00000000000E+00  0.00000000000E+00  0.69438803057E+03  0.12997009121E+04  0.10986572368E+04 0.  0.
        4    1    3    3  502    0 -0.16586311883E+03 -0.61789632219E+02  0.96238515309E+03  0.97852712207E+03  0.12699999809E+01 0. -1.
       -4    1    3    3    0  502  0.16586311883E+03  0.61789632219E+02 -0.26799712252E+03  0.32117379005E+03  0.12699999809E+01 0.  1.
</event>
<event>
 5   0  0.5998641E-03  0.1139370E+04  0.7818609E-02  0.9167647E-01
        1   -1    0    0  501    0  0.00000000000E+00  0.00000000000E+00  0.54938460611E+03  0.54938460613E+03  0.50400001928E-02 0. -1.
       -1   -1    0    0    0  501  0.00000000000E+00  0.00000000000E+00 -0.59073535193E+03  0.59073535195E+03  0.50400001928E-02 0.  1.
    10030    2    1    2    0    0  0.00000000000E+00  0.00000000000E+00 -0.41350745820E+02  0.11401199581E+04  0.11393698410E+04 0.  0.
        3    1    3    3  502    0 -0.53447487469E+03  0.13849044717E+03  0.11976624501E+03  0.56496633464E+03  0.10100000352E+00 0. -1.
       -3    1    3    3    0  502  0.53447487469E+03 -0.13849044717E+03 -0.16111699083E+03  0.57515362345E+03  0.10100000352E+00 0.  1.
</event>
<event>
 5   0  0.5789905E-03  0.1123059E+04  0.7818609E-02  0.9183004E-01
        1   -1    0    0  501    0  0.00000000000E+00  0.00000000000E+00  0.25445643078E+03  0.25445643083E+03  0.50400001928E-02 0. -1.
       -1   -1    0    0    0  501  0.00000000000E+00  0.00000000000E+00 -0.12391728184E+04  0.12391728184E+04  0.50400001928E-02 0.  1.
    10030    2    1    2    0    0  0.00000000000E+00  0.00000000000E+00 -0.98471638762E+03  0.14936292492E+04  0.11230592015E+04 0.  0.
        1    1    3    3  502    0 -0.20439047395E+03 -0.24899154576E+03 -0.11040599562E+04  0.11500959276E+04  0.50400001928E-02 0.  1.
       -1    1    3    3    0  502  0.20439047395E+03  0.24899154576E+03  0.11934356859E+03  0.34353332166E+03  0.50400001928E-02 0. -1.
</event>
<event>
 5   0  0.5998641E-03  0.1059759E+04  0.7818609E-02  0.9245326E-01
        1   -1    0    0  501    0  0.00000000000E+00  0.00000000000E+00  0.76776241480E+03  0.76776241482E+03  0.50400001928E-02 0.  1.
       -1   -1    0    0    0  501  0.00000000000E+00  0.00000000000E+00 -0.36570199788E+03  0.36570199791E+03  0.50400001928E-02 0. -1.
    10030    2    1    2    0    0  0.00000000000E+00  0.00000000000E+00  0.40206041692E+03  0.11334644127E+04  0.10597589330E+04 0.  0.
        3    1    3    3  502    0 -0.44118348251E+03  0.29202084782E+03  0.16978915126E+03  0.55565043587E+03  0.10100000352E+00 0. -1.
       -3    1    3    3    0  502  0.44118348251E+03 -0.29202084782E+03  0.23227126566E+03  0.57781397686E+03  0.10100000352E+00 0.  1.
</event>
<event>
 5   0  0.9719260E-03  0.1099983E+04  0.7818609E-02  0.9205209E-01
       -2   -1    0    0    0  501  0.00000000000E+00  0.00000000000E+00  0.16228646079E+03  0.16228646081E+03  0.25500000920E-02 0. -1.
        2   -1    0    0  501    0  0.00000000000E+00  0.00000000000E+00 -0.18639285984E+04  0.18639285984E+04  0.25500000920E-02 0.  1.
    10030    2    1    2    0    0  0.00000000000E+00  0.00000000000E+00 -0.17016421376E+04  0.20262150592E+04  0.10999825006E+04 0.  0.
        3    1    3    3  502    0 -0.38533058716E+03 -0.32498059231E+03 -0.44557864991E+03  0.67277960005E+03  0.10100000352E+00 0. -1.
       -3    1    3    3    0  502  0.38533058716E+03  0.32498059231E+03 -0.12560634877E+04  0.13534354591E+04  0.10100000352E+00 0.  1.
</event>
<event>
 5   0  0.1028016E-02  0.1094880E+04  0.7818609E-02  0.9210196E-01
       -2   -1    0    0    0  501  0.00000000000E+00  0.00000000000E+00  0.22799122568E+03  0.22799122570E+03  0.25500000920E-02 0.  1.
        2   -1    0    0  501    0  0.00000000000E+00  0.00000000000E+00 -0.13144838394E+04  0.13144838394E+04  0.25500000920E-02 0. -1.
    10030    2    1    2    0    0  0.00000000000E+00  0.00000000000E+00 -0.10864926137E+04  0.15424750651E+04  0.10948804167E+04 0.  0.
        2    1    3    3  502    0 -0.10053195272E+03 -0.11201164045E+03  0.19827006537E+03  0.24892629420E+03  0.25500000920E-02 0.  1.
       -2    1    3    3    0  502  0.10053195272E+03  0.11201164045E+03 -0.12847626791E+04  0.12935487709E+04  0.25500000920E-02 0. -1.
</event>
<event>
 5   0  0.5712664E-03  0.1108019E+04  0.7818609E-02  0.9197411E-01
        1   -1    0    0  501    0  0.00000000000E+00  0.00000000000E+00  0.16619765084E+04  0.16619765084E+04  0.50400001928E-02 0.  1.
       -1   -1    0    0    0  501  0.00000000000E+00  0.00000000000E+00 -0.18467556643E+03  0.18467556649E+03  0.50400001928E-02 0. -1.
    10030    2    1    2    0    0  0.00000000000E+00  0.00000000000E+00  0.14773009420E+04  0.18466520749E+04  0.11080188683E+04 0.  0.
        5    1    3    3  502    0 -0.16465500379E+03  0.51258135443E+03  0.52100781230E+03  0.74921435228E+03  0.46999998093E+01 0. -1.
       -5    1    3    3    0  502  0.16465500379E+03 -0.51258135443E+03  0.95629312966E+03  0.10974377226E+04  0.46999998093E+01 0.  1.
</event>
<event>
 5   0  0.9719260E-03  0.8623178E+03  0.7818609E-02  0.9473952E-01
       -2   -1    0    0    0  501  0.00000000000E+00  0.00000000000E+00  0.70427350766E+02  0.70427350812E+02  0.25500000920E-02 0.  1.
        2   -1    0    0  501    0  0.00000000000E+00  0.00000000000E+00 -0.26395711296E+04  0.26395711296E+04  0.25500000920E-02 0. -1.
    10030    2    1    2    0    0  0.00000000000E+00  0.00000000000E+00 -0.25691437789E+04  0.27099984805E+04  0.86231781121E+03 0.  0.
        3    1    3    3  502    0  0.20759635429E+03  0.33634507540E+03 -0.74320984659E+03  0.84177499507E+03  0.10100000352E+00 0.  1.
       -3    1    3    3    0  502 -0.20759635429E+03 -0.33634507540E+03 -0.18259339323E+04  0.18682234854E+04  0.10100000352E+00 0. -1.
</event>
<event>
 5   0  0.1019384E-02  0.1082033E+04  0.7818609E-02  0.9222883E-01
        2   -1    0    0  501    0  0.00000000000E+00  0.00000000000E+00  0.54507751488E+03  0.54507751489E+03  0.25500000920E-02 0.  1.
       -2   -1    0    0    0  501  0.00000000000E+00  0.00000000000E+00 -0.53698549526E+03  0.53698549526E+03  0.25500000920E-02 0. -1.
    10030    2    1    2    0    0  0.00000000000E+00  0.00000000000E+00  0.80920196269E+01  0.10820630102E+04  0.10820327524E+04 0.  0.
        1    1    3    3  502    0 -0.25486180050E+03 -0.34036736970E+03  0.33856132132E+03  0.54353311953E+03  0.50400001928E-02 0.  1.
       -1    1    3    3    0  502  0.25486180050E+03  0.34036736970E+03 -0.33046930169E+03  0.53852989062E+03  0.50400001928E-02 0. -1.
</event>
<event>
 5   0  0.9925021E-03  0.1090409E+04  0.7818609E-02  0.9214591E-01
        2   -1    0    0  501    0  0.00000000000E+00  0.00000000000E+00  0.12048923850E+04  0.12048923851E+04  0.25500000920E-02 0. -1.
       -2   -1    0    0    0  501  0.00000000000E+00  0.00000000000E+00 -0.24670064304E+03  0.24670064306E+03  0.25500000920E-02 0.  1.
    10030    2    1    2    0    0  0.00000000000E+00  0.00000000000E+00  0.95819174201E+03  0.14515930281E+04  0.10904085953E+04 0.  0.
        4    1    3    3  502    0 -0.32162327795E+03  0.12553442840E+03  0.10408177463E+04  0.10965872604E+04  0.12699999809E+01 0. -1.
       -4    1    3    3    0  502  0.32162327795E+03 -0.12553442840E+03 -0.82626004328E+02  0.35500576773E+03  0.12699999809E+01 0.  1.
</event>
<event>
 5   0  0.1028016E-02  0.1051645E+04  0.7818609E-02  0.9253647E-01
        2   -1    0    0  501    0  0.00000000000E+00  0.00000000000E+00  0.38822654217E+03  0.38822654218E+03  0.25500000920E-02 0. -1.
       -2   -1    0    0    0  501  0.00000000000E+00  0.00000000000E+00 -0.71218582590E+03  0.71218582591E+03  0.25500000920E-02 0.  1.
    10030    2    1    2    0    0  0.00000000000E+00  0.00000000000E+00 -0.32395928373E+03  0.11004123681E+04  0.10516452645E+04 0.  0.
        2    1    3    3  502    0 -0.19894782706E+03  0.33815257113E+03 -0.52830264026E+03  0.65805096988E+03  0.25500000920E-02 0.  1.
       -2    1    3    3    0  502  0.19894782706E+03 -0.33815257113E+03  0.20434335652E+03  0.44236139820E+03  0.25500000920E-02 0. -1.
</event>
<event>
 5   0  0.5712664E-03  0.1126770E+04  0.7818609E-02  0.9179486E-01
        1   -1    0    0  501    0  0.00000000000E+00  0.00000000000E+00  0.77992136236E+03  0.77992136238E+03  0.50400001928E-02 0.  1.
       -1   -1    0    0    0  501  0.00000000000E+00  0.00000000000E+00 -0.40696769709E+03  0.40696769712E+03  0.50400001928E-02 0. -1.
    10030    2    1    2    0    0  0.00000000000E+00  0.00000000000E+00  0.37295366527E+03  0.11868890595E+04  0.11267702530E+04 0.  0.
        5    1    3    3  502    0 -0.27974063595E+03  0.32130590483E+03 -0.20182188013E+03  0.47143023786E+03  0.46999998093E+01 0. -1.
       -5    1    3    3    0  502  0.27974063595E+03 -0.32130590483E+03  0.57477554540E+03  0.71545882164E+03  0.46999998093E+01 0.  1.
</event>
<event>
 5   0  0.1028016E-02  0.1120128E+04  0.7818609E-02  0.9185793E-01
        2   -1    0    0  501    0  0.00000000000E+00  0.00000000000E+00  0.53676168933E+03  0.53676168933E+03  0.25500000920E-02 0. -1.
       -2   -1    0    0    0  501  0.00000000000E+00  0.00000000000E+00 -0.58437783288E+03  0.58437783289E+03  0.25500000920E-02 0.  1.
    10030    2    1    2    0    0  0.00000000000E+00  0.00000000000E+00 -0.47616143557E+02  0.11211395222E+04  0.11201279084E+04 0.  0.
        2    1    3    3  502    0 -0.41727135984E+03  0.36924350529E+03 -0.80564475921E+02  0.56298027384E+03  0.25500000920E-02 0. -1.
       -2    1    3    3    0  502  0.41727135984E+03 -0.36924350529E+03  0.32948332363E+02  0.55815924838E+03  0.25500000920E-02 0.  1.
</event>
<event>
 5   0  0.5712664E-03  0.1083521E+04  0.7818609E-02  0.9221404E-01
        1   -1    0    0  501    0  0.00000000000E+00  0.00000000000E+00  0.72591793334E+03  0.72591793335E+03  0.50400001928E-02 0. -1.
       -1   -1    0    0    0  501  0.00000000000E+00  0.00000000000E+00 -0.40432157436E+03  0.40432157439E+03  0.50400001928E-02 0.  1.
    10030    2    1    2    0    0  0.00000000000E+00  0.00000000000E+00  0.32159635898E+03  0.11302395077E+04  0.10835207090E+04 0.  0.
        5    1    3    3  502    0  0.18167675216E+02  0.49712615740E+03  0.38456504248E+03  0.62878998297E+03  0.46999998093E+01 0. -1.
       -5    1    3    3    0  502 -0.18167675216E+02 -0.49712615740E+03 -0.62968683498E+02  0.50144952477E+03  0.46999998093E+01 0.  1.
</event>
<event>
 5   0  0.5958706E-03  0.1078201E+04  0.7818609E-02  0.9226703E-01
       -1   -1    0    0    0  501  0.00000000000E+00  0.00000000000E+00  0.23116214693E+03  0.23116214698E+03  0.50400001928E-02 0. -1.
        1   -1    0    0  501    0  0.00000000000E+00  0.00000000000E+00 -0.12572520854E+04  0.12572520854E+04  0.50400001928E-02 0.  1.
    10030    2    1    2    0    0  0.00000000000E+00  0.00000000000E+00 -0.10260899385E+04  0.14884142324E+04  0.10782005219E+04 0.  0.
        2    1    3    3  502    0  0.47934192938E+03  0.19984449237E+03 -0.71272376376E+03  0.88186261392E+03  0.25500000920E-02 0.  1.
       -2    1    3    3    0  502 -0.47934192938E+03 -0.19984449237E+03 -0.31336617469E+03  0.60655161845E+03  0.25500000920E-02 0. -1.
</event>
<event>
 5   0  0.5958706E-03  0.1049820E+04  0.7818609E-02  0.9255529E-01
       -1   -1    0    0    0  501  0.00000000000E+00  0.00000000000E+00  0.69810297702E+03  0.69810297704E+03  0.50400001928E-02 0.  1.
        1   -1    0    0  501    0  0.00000000000E+00  0.00000000000E+00 -0.39468492924E+03  0.39468492927E+03  0.50400001928E-02 0. -1.
    10030    2    1    2    0    0  0.00000000000E+00  0.00000000000E+00  0.30341804778E+03  0.10927879063E+04  0.10498204115E+04 0.  0.
        2    1    3    3  502    0 -0.21388835221E+02  0.15517440481E+03 -0.36978899606E+03  0.40159741009E+03  0.25500000920E-02 0. -1.
       -2    1    3    3    0  502  0.21388835221E+02 -0.15517440481E+03  0.67320704384E+03  0.69119049622E+03  0.25500000920E-02 0.  1.
</event>
<event>
 5   0  0.5958706E-03  0.1082215E+04  0.7818609E-02  0.9222701E-01
       -1   -1    0    0    0  501  0.00000000000E+00  0.00000000000E+00  0.22778242121E+03  0.22778242126E+03  0.50400001928E-02 0. -1.
        1   -1    0    0  501    0  0.00000000000E+00  0.00000000000E+00 -0.12854263275E+04  0.12854263275E+04  0.50400001928E-02 0.  1.
    10030    2    1    2    0    0  0.00000000000E+00  0.00000000000E+00 -0.10576439063E+04  0.15132087487E+04  0.10822153597E+04 0.  0.
        2    1    3    3  502    0 -0.42674481890E+03 -0.11163408669E+02 -0.99375200621E+03  0.10815631336E+04  0.25500000920E-02 0.  1.
       -2    1    3    3    0  502  0.42674481890E+03  0.11163408669E+02 -0.63891900046E+02  0.43164561511E+03  0.25500000920E-02 0. -1.
</event>
<event>
 5   0  0.1019384E-02  0.1101216E+04  0.7818609E-02  0.9204008E-01
        2   -1    0    0  501    0  0.00000000000E+00  0.00000000000E+00  0.35377751904E+03  0.35377751905E+03  0.25500000920E-02 0. -1.
       -2   -1    0    0    0  501  0.00000000000E+00  0.00000000000E+00 -0.85694808038E+03  0.85694808038E+03  0.25500000920E-02 0.  1.
    10030    2    1    2    0    0  0.00000000000E+00  0.00000000000E+00 -0.50317056134E+03  0.12107255994E+04  0.11012156298E+04 0.  0.
        1    1    3    3  502    0  0.21765143383E+03  0.10456596179E+03  0.29245962152E+03  0.37926088285E+03  0.50400001928E-02 0. -1.
       -1    1    3    3    0  502 -0.21765143383E+03 -0.10456596179E+03 -0.79563018286E+03  0.83146471658E+03  0.50400001928E-02 0.  1.
</event>
<event>
 5   0  0.9925021E-03  0.1108308E+04  0.7818609E-02  0.9197132E-01
       -2   -1    0    0    0  501  0.00000000000E+00  0.00000000000E+00  0.16011356904E+03  0.16011356906E+03  0.25500000920E-02 0. -1.
        2   -1    0    0  501    0  0.00000000000E+00  0.00000000000E+00 -0.19179287436E+04  0.19179287436E+04  0.25500000920E-02 0.  1.
    10030    2    1    2    0    0  0.00000000000E+00  0.00000000000E+00 -0.17578151746E+04  0.20780423127E+04  0.11083075680E+04 0.  0.
        4    1    3    3  502    0 -0.40751141158E+03 -0.31663769626E+03 -0.50036893833E+03  0.71881546214E+03  0.12699999809E+01 0. -1.
       -4    1    3    3    0  502  0.40751141158E+03  0.31663769626E+03 -0.12574462362E+04  0.13592268505E+04  0.12699999809E+01 0.  1.
</event>
<event>
 5   0  0.5998641E-03  0.1266911E+04  0.7818609E-02  0.9056224E-01
       -1   -1    0    0    0  501  0.00000000000E+00  0.00000000000E+00  0.28425487569E+03  0.28425487574E+03  0.50400001928E-02 0.  1.
        1   -1    0    0  501    0  0.00000000000E+00  0.00000000000E+00 -0.14116418263E+04  0.14116418263E+04  0.50400001928E-02 0. -1.
    10030    2    1    2    0    0  0.00000000000E+00  0.00000000000E+00 -0.11273869506E+04  0.16958967020E+04  0.12669113180E+04 0.  0.
        3    1    3    3  502    0 -0.36431506007E+03 -0.21742650309E+03  0.65973376237E+02  0.42936260178E+03  0.10100000352E+00 0.  1.
       -3    1    3    3    0  502  0.36431506007E+03  0.21742650309E+03 -0.11933603268E+04  0.12665341003E+04  0.10100000352E+00 0. -1.
</event>
<event>
 5   0  0.9719260E-03  0.1061629E+04  0.7818609E-02  0.9243420E-01
        2   -1    0    0  501    0  0.00000000000E+00  0.00000000000E+00  0.17166011856E+04  0.17166011856E+04  0.25500000920E-02 0. -1.
       -2   -1    0    0    0  501  0.00000000000E+00  0.00000000000E+00 -0.16414059224E+03  0.16414059226E+03  0.25500000920E-02 0.  1.
    10030    2    1    2    0    0  0.00000000000E+00  0.00000000000E+00  0.15524605934E+04  0.18807417779E+04  0.10616288151E+04 0.  0.
        3    1    3    3  502    0  0.44240912004E+03 -0.98068895023E+02  0.12659658796E+04  0.13446237229E+04  0.10100000352E+00 0. -1.
       -3    1    3    3    0  502 -0.44240912004E+03  0.98068895023E+02  0.28649471380E+03  0.53611805500E+03  0.10100000352E+00 0.  1.
</event>
<event>
 5   0  0.5998641E-03  0.6778085E+03  0.7818609E-02  0.9755954E-01
       -1   -1    0    0    0  501  0.00000000000E+00  0.00000000000E+00  0.10762320840E+03  0.10762320851E+03  0.50400001928E-02 0.  1.
        1   -1    0    0  501    0  0.00000000000E+00  0.00000000000E+00 -0.10672054876E+04  0.10672054876E+04  0.50400001928E-02 0. -1.
    10030    2    1    2    0    0  0.00000000000E+00  0.00000000000E+00 -0.95958227918E+03  0.11748286961E+04  0.67780846459E+03 0.  0.
        3    1    3    3  502    0 -0.26644693969E+03 -0.15575298277E+03 -0.23711337118E+03  0.38919882362E+03  0.10100000352E+00 0.  1.
       -3    1    3    3    0  502  0.26644693969E+03  0.15575298277E+03 -0.72246890801E+03  0.78562987249E+03  0.10100000352E+00 0. -1.
</event>
<event>
 5   0  0.5958706E-03  0.1099535E+04  0.7818609E-02  0.9205645E-01
        1   -1    0    0  501    0  0.00000000000E+00  0.00000000000E+00  0.15795106851E+04  0.15795106851E+04  0.50400001928E-02 0.  1.
       -1   -1    0    0    0  501  0.00000000000E+00  0.00000000000E+00 -0.19135328394E+03  0.19135328401E+03  0.50400001928E-02 0. -1.
    10030    2    1    2    0    0  0.00000000000E+00  0.00000000000E+00  0.13881574012E+04  0.17708639691E+04  0.10995354595E+04 0.  0.
        2    1    3    3  502    0 -0.52979499677E+03 -0.14682307522E+03  0.69054917547E+03  0.88266523540E+03  0.25500000920E-02 0. -1.
       -2    1    3    3    0  502  0.52979499677E+03  0.14682307522E+03  0.69760822568E+03  0.88819873371E+03  0.25500000920E-02 0.  1.
</event>
<event>
 5   0  0.1028016E-02  0.8839995E+03  0.7818609E-02  0.9445807E-01
        2   -1    0    0  501    0  0.00000000000E+00  0.00000000000E+00  0.18811342550E+03  0.18811342552E+03  0.25500000920E-02 0.  1.
       -2   -1    0    0    0  501  0.00000000000E+00  0.00000000000E+00 -0.10385423434E+04  0.10385423434E+04  0.25500000920E-02 0. -1.
    10030    2    1    2    0    0  0.00000000000E+00  0.00000000000E+00 -0.85042891793E+03  0.12266557689E+04  0.88399945194E+03 0.  0.
        2    1    3    3  502    0 -0.90299052857E+02  0.40842828007E+03 -0.62338774724E+03  0.75071956303E+03  0.25500000920E-02 0.  1.
       -2    1    3    3    0  502  0.90299052857E+02 -0.40842828007E+03 -0.22704117069E+03  0.47593620591E+03  0.25500000920E-02 0. -1.
</event>
<event>
 5   0  0.5712664E-03  0.1095481E+04  0.7818609E-02  0.9209608E-01
        1   -1    0    0  501    0  0.00000000000E+00  0.00000000000E+00  0.11381363850E+04  0.11381363850E+04  0.50400001928E-02 0.  1.
       -1   -1    0    0    0  501  0.00000000000E+00  0.00000000000E+00 -0.26360592729E+03  0.26360592734E+03  0.50400001928E-02 0. -1.
    10030    2    1    2    0    0  0.00000000000E+00  0.00000000000E+00  0.87453045769E+03  0.14017423123E+04  0.10954807113E+04 0.  0.
        5    1    3    3  502    0 -0.16003305730E+03  0.19331504301E+03 -0.18568362595E+03  0.31222072998E+03  0.46999998093E+01 0. -1.
       -5    1    3    3    0  502  0.16003305730E+03 -0.19331504301E+03  0.10602140836E+04  0.10895215824E+04  0.46999998093E+01 0.  1.
</event>
<event>
 5   0  0.5854579E-03  0.1084365E+04  0.7818609E-02  0.9220566E-01
        1   -1    0    0  501    0  0.00000000000E+00  0.00000000000E+00  0.14324665105E+04  0.14324665106E+04  0.50400001928E-02 0.  1.
       -1   -1    0    0    0  501  0.00000000000E+00  0.00000000000E+00 -0.20521395024E+03  0.20521395030E+03  0.50400001928E-02 0. -1.
    10030    2    1    2    0    0  0.00000000000E+00  0.00000000000E+00  0.12272525603E+04  0.16376804609E+04  0.10843654573E+04 0.  0.
        4    1    3    3  502    0  0.31344122944E+02 -0.20966104573E+03 -0.14002572744E+03  0.25406500229E+03  0.12699999809E+01 0. -1.
       -4    1    3    3    0  502 -0.31344122944E+02  0.20966104573E+03  0.13672782877E+04  0.13836154586E+04  0.12699999809E+01 0.  1.
</event>
<event>
 5   0  0.9925021E-03  0.1107456E+04  0.7818609E-02  0.9197955E-01
       -2   -1    0    0    0  501  0.00000000000E+00  0.00000000000E+00  0.27697616595E+03  0.27697616596E+03  0.25500000920E-02 0. -1.
        2   -1    0    0  501    0  0.00000000000E+00  0.00000000000E+00 -0.11070083587E+04  0.11070083587E+04  0.25500000920E-02 0.  1.
    10030    2    1    2    0    0  0.00000000000E+00  0.00000000000E+00 -0.83003219272E+03  0.13839845246E+04  0.11074564206E+04 0.  0.
        4    1    3    3  502    0  0.13500489708E+03  0.24023136885E+02  0.25542008122E+03  0.28990423269E+03  0.12699999809E+01 0. -1.
       -4    1    3    3    0  502 -0.13500489708E+03 -0.24023136885E+02 -0.10854522739E+04  0.10940802919E+04  0.12699999809E+01 0.  1.
</event>
<event>
 5   0  0.5789905E-03  0.1082551E+04  0.7818609E-02  0.9222368E-01
        1   -1    0    0  501    0  0.00000000000E+00  0.00000000000E+00  0.55585644887E+03  0.55585644890E+03  0.50400001928E-02 0.  1.
       -1   -1    0    0    0  501  0.00000000000E+00  0.00000000000E+00 -0.52707677856E+03  0.52707677859E+03  0.50400001928E-02 0. -1.
    10030    2    1    2    0    0  0.00000000000E+00  0.00000000000E+00  0.28779670310E+02  0.10829332275E+04  0.10825507405E+04 0.  0.
        1    1    3    3  502    0 -0.35713534528E+02 -0.26604868905E+03  0.48457895099E+03  0.55396220201E+03  0.50400001928E-02 0.  1.
       -1    1    3    3    0  502  0.35713534528E+02  0.26604868905E+03 -0.45579928068E+03  0.52897102547E+03  0.50400001928E-02 0. -1.
</event>
<event>
 5   0  0.9925021E-03  0.1087741E+04  0.7818609E-02  0.9217223E-01
        2   -1    0    0  501    0  0.00000000000E+00  0.00000000000E+00  0.60931545877E+03  0.60931545877E+03  0.25500000920E-02 0. -1.
       -2   -1    0    0    0  501  0.00000000000E+00  0.00000000000E+00 -0.48545520875E+03  0.48545520876E+03  0.25500000920E-02 0.  1.
    10030    2    1    2    0    0  0.00000000000E+00  0.00000000000E+00  0.12386025002E+03  0.10947706675E+04  0.10877414458E+04 0.  0.
        4    1    3    3  502    0 -0.39760971604E+03 -0.19054414009E+03 -0.25855057436E+03  0.51112676316E+03  0.12699999809E+01 0.  1.
       -4    1    3    3    0  502  0.39760971604E+03  0.19054414009E+03  0.38241082438E+03  0.58364390437E+03  0.12699999809E+01 0. -1.
</event>
<event>
 5   0  0.9692981E-03  0.1109659E+04  0.7818609E-02  0.9195829E-01
        2   -1    0    0  501    0  0.00000000000E+00  0.00000000000E+00  0.14469648031E+04  0.14469648031E+04  0.25500000920E-02 0. -1.
       -2   -1    0    0    0  501  0.00000000000E+00  0.00000000000E+00 -0.21274572017E+03  0.21274572019E+03  0.25500000920E-02 0.  1.
    10030    2    1    2    0    0  0.00000000000E+00  0.00000000000E+00  0.12342190830E+04  0.16597105233E+04  0.11096586306E+04 0.  0.
        5    1    3    3  502    0 -0.12273659358E+01 -0.24346695281E+03 -0.12854461553E+03  0.27536062122E+03  0.46999998093E+01 0.  1.
       -5    1    3    3    0  502  0.12273659358E+01  0.24346695281E+03  0.13627636985E+04  0.13843499021E+04  0.46999998093E+01 0. -1.
</event>
<event>
 5   0  0.5854579E-03  0.1090232E+04  0.7818609E-02  0.9214765E-01
        1   -1    0    0  501    0  0.00000000000E+00  0.00000000000E+00  0.81236163968E+03  0.81236163970E+03  0.50400001928E-02 0. -1.
       -1   -1    0    0    0  501  0.00000000000E+00  0.00000000000E+00 -0.36578733999E+03  0.36578734003E+03  0.50400001928E-02 0.  1.
    10030    2    1    2    0    0  0.00000000000E+00  0.00000000000E+00  0.44657429969E+03  0.11781489797E+04  0.10902322749E+04 0.  0.
        4    1    3    3  502    0 -0.34051907222E+03 -0.36128069824E+03  0.46654648956E+03  0.68128130848E+03  0.12699999809E+01 0. -1.
       -4    1    3    3    0  502  0.34051907222E+03  0.36128069824E+03 -0.19972189870E+02  0.49686767125E+03  0.12699999809E+01 0.  1.
</event>
<event>
 5   0  0.9692981E-03  0.1091250E+04  0.7818609E-02  0.9213762E-01
        2   -1    0    0  501    0  0.00000000000E+00  0.00000000000E+00  0.49110326626E+03  0.49110326627E+03  0.25500000920E-02 0. -1.
       -2   -1    0    0    0  501  0.00000000000E+00  0.00000000000E+00 -0.60619967137E+03  0.60619967137E+03  0.25500000920E-02 0.  1.
    10030    2    1    2    0    0  0.00000000000E+00  0.00000000000E+00 -0.11509640510E+03  0.10973029376E+04  0.10912499963E+04 0.  0.
        5    1    3    3  502    0 -0.30074088824E+03  0.38234543274E+02  0.39859511952E+03  0.50080647107E+03  0.46999998093E+01 0. -1.
       -5    1    3    3    0  502  0.30074088824E+03 -0.38234543274E+02 -0.51369152463E+03  0.59649646657E+03  0.46999998093E+01 0.  1.
</event>
<event>
 5   0  0.3949750E-03  0.1105669E+04  0.7818609E-02  0.9199684E-01
       -4   -1    0    0    0  501  0.00000000000E+00  0.00000000000E+00  0.72753342759E+03  0.72753453606E+03  0.12699999809E+01 0.  1.
        4   -1    0    0  501    0  0.00000000000E+00  0.00000000000E+00 -0.42008251323E+03  0.42008443297E+03  0.12699999809E+01 0. -1.
    10030    2    1    2    0    0  0.00000000000E+00  0.00000000000E+00  0.30745091436E+03  0.11476189690E+04  0.11056686815E+04 0.  0.
        2    1    3    3  502    0 -0.52769115583E+03  0.16173130314E+03  0.12072549178E+03  0.56496868473E+03  0.25500000920E-02 0. -1.
       -2    1    3    3    0  502  0.52769115583E+03 -0.16173130314E+03  0.18672542258E+03  0.58265028431E+03  0.25500000920E-02 0.  1.
</event>
<event>
 5   0  0.1028016E-02  0.1082325E+04  0.7818609E-02  0.9222592E-01
       -2   -1    0    0    0  501  0.00000000000E+00  0.00000000000E+00  0.14002441911E+03  0.14002441913E+03  0.25500000920E-02 0.  1.
        2   -1    0    0  501    0  0.00000000000E+00  0.00000000000E+00 -0.20914700625E+04  0.20914700625E+04  0.25500000920E-02 0. -1.
    10030    2    1    2    0    0  0.00000000000E+00  0.00000000000E+00 -0.19514456434E+04  0.22314944817E+04  0.10823250540E+04 0.  0.
        2    1    3    3  502    0 -0.40589234212E+03 -0.85957836511E+02 -0.16920754968E+04  0.17421988491E+04  0.25500000920E-02 0. -1.
       -2    1    3    3    0  502  0.40589234212E+03  0.85957836511E+02 -0.25937014665E+03  0.48929563255E+03  0.25500000920E-02 0.  1.
</event>
<event>
 5   0  0.5998641E-03  0.1102969E+04  0.7818609E-02  0.9202303E-01
        1   -1    0    0  501    0  0.00000000000E+00  0.00000000000E+00  0.85063606622E+03  0.85063606623E+03  0.50400001928E-02 0.  1.
       -1   -1    0    0    0  501  0.00000000000E+00  0.00000000000E+00 -0.35753844664E+03  0.35753844667E+03  0.50400001928E-02 0. -1.
    10030    2    1    2    0    0  0.00000000000E+00  0.00000000000E+00  0.49309761958E+03  0.12081745129E+04  0.11029688986E+04 0.  0.
        3    1    3    3  502    0 -0.70789208586E+02 -0.24310846105E+03  0.78320007332E+03  0.82311311552E+03  0.10100000352E+00 0.  1.
       -3    1    3    3    0  502  0.70789208586E+02  0.24310846105E+03 -0.29010245375E+03  0.38506139739E+03  0.10100000352E+00 0. -1.
</event>
</LesHouchesEvents>
