<LesHouchesEvents version="3.0">
<header>
<!--
#*********************************************************************
#                                                                    *
#                        MadGraph5_aMC@NLO                           *
#                                                                    *
#                           Going Beyond                             *
#                                                                    *
#                   http://madgraph.hep.uiuc.edu                     *
#                   http://madgraph.phys.ucl.ac.be                   *
#                   http://amcatnlo.cern.ch                          *
#                                                                    *
#                     The MadGraph5_aMC@NLO team                     *
#                                                                    *
#....................................................................*
#                                                                    *
# This file contains all the information necessary to reproduce      *
# the events generated:                                              *
#                                                                    *
# 1. software version                                                *
# 2. proc_card          : code generation info including model       *
# 3. param_card         : model primary parameters in the LH format  *
# 4. run_card           : running parameters (collider and cuts)     *
# 5. pythia_card        : present only if pythia has been run        *
# 6. pgs_card           : present only if pgs has been run           *
# 7. delphes_cards      : present only if delphes has been run       *
#                                                                    *
#                                                                    *
#*********************************************************************
-->
<MGVersion>
#5.2.2.3
</MGVersion>
<MG5ProcCard>
#************************************************************
#*                     MadGraph5_aMC@NLO                    *
#*                                                          *
#*                *                       *                 *
#*                  *        * *        *                   *
#*                    * * * * 5 * * * *                     *
#*                  *        * *        *                   *
#*                *                       *                 *
#*                                                          *
#*                                                          *
#*         VERSION 2.2.3                 2015-02-10         *
#*                                                          *
#*    The MadGraph5_aMC@NLO Development Team - Find us at   *
#*    https://server06.fynu.ucl.ac.be/projects/madgraph     *
#*                                                          *
#************************************************************
#*                                                          *
#*               Command File for MadGraph5_aMC@NLO         *
#*                                                          *
#*     run as ./bin/mg5_aMC  filename                       *
#*                                                          *
#************************************************************
set group_subprocesses Auto
set ignore_six_quark_processes False
set loop_optimized_output True
set gauge unitary
set complex_mass_scheme False
import model sm
define p = g u c d s u~ c~ d~ s~
define j = g u c d s u~ c~ d~ s~
define l+ = e+ mu+
define l- = e- mu-
define vl = ve vm vt
define vl~ = ve~ vm~ vt~
import model Zprime_UFO
generate p p > zph, zph > j j
add process p p > zph, zph > b b~
output Dijet_signal
</MG5ProcCard>
<MGProcCard>
#*********************************************************************
#                        MadGraph/MadEvent                           *
#                   http://madgraph.hep.uiuc.edu                     *
#                                                                    *
#                          proc_card.dat                             *
#*********************************************************************
#                                                                    *
#            This Files is generated by MADGRAPH 5                   *
#                                                                    *
# WARNING: This Files is generated for MADEVENT (compatibility issue)*
#          This files is NOT a valid MG4 proc_card.dat               *
#          Running this in MG4 will NEVER reproduce the result of MG5*
#                                                                    *
#*********************************************************************
#*********************************************************************
# Process(es) requested : mg2 input                                  *
#*********************************************************************
# Begin PROCESS # This is TAG. Do not modify this line
p p > zph , zph > j j           #Process
# Be carefull the coupling are here in MG5 convention
          
end_coup           # End the couplings input

done               # this tells MG there are no more procs
# End PROCESS  # This is TAG. Do not modify this line
#*********************************************************************
# Model information                                                  *
#*********************************************************************
# Begin MODEL  # This is TAG. Do not modify this line
Zprime_UFO
# End   MODEL  # This is TAG. Do not modify this line
#*********************************************************************
# Start multiparticle definitions                                    *
#*********************************************************************
# Begin MULTIPARTICLES # This is TAG. Do not modify this line

# End  MULTIPARTICLES # This is TAG. Do not modify this line
</MGProcCard>
<MGRunCard>
#*********************************************************************
#                       MadGraph5_aMC@NLO                            *
#                                                                    *
#                     run_card.dat MadEvent                          *
#                                                                    *
#  This file is used to set the parameters of the run.               *
#                                                                    *
#  Some notation/conventions:                                        *
#                                                                    *
#   Lines starting with a '# ' are info or comments                  *
#                                                                    *
#   mind the format:   value    = variable     ! comment             *
#*********************************************************************
#
#*******************                                                 
# Running parameters
#*******************                                                 
#                                                                    
#*********************************************************************
# Tag name for the run (one word)                                    *
#*********************************************************************
  tag_1     = run_tag ! name of the run 
#*********************************************************************
# Run to generate the grid pack                                      *
#*********************************************************************
  .false.     = gridpack  !True = setting up the grid pack
#*********************************************************************
# Number of events and rnd seed                                      *
# Warning: Do not generate more than 1M events in a single run       *
# If you want to run Pythia, avoid more than 50k events in a run.    *
#*********************************************************************
  2000 = nevents ! Number of unweighted events requested 
 1911 = iseed   ! rnd seed (0=assigned automatically=default))
#*********************************************************************
# Collider type and energy                                           *
# lpp: 0=No PDF, 1=proton, -1=antiproton, 2=photon from proton,      *
#                                         3=photon from electron     *
#*********************************************************************
        1     = lpp1    ! beam 1 type 
        1     = lpp2    ! beam 2 type
     4000     = ebeam1  ! beam 1 total energy in GeV
     4000     = ebeam2  ! beam 2 total energy in GeV
#*********************************************************************
# Beam polarization from -100 (left-handed) to 100 (right-handed)    *
#*********************************************************************
        0     = polbeam1 ! beam polarization for beam 1
        0     = polbeam2 ! beam polarization for beam 2
#*********************************************************************
# PDF CHOICE: this automatically fixes also alpha_s and its evol.    *
#*********************************************************************
 'nn23lo1'    = pdlabel     ! PDF set                                     
 230000    = lhaid     ! if pdlabel=lhapdf, this is the lhapdf number
#*********************************************************************
# Renormalization and factorization scales                           *
#*********************************************************************
 F        = fixed_ren_scale  ! if .true. use fixed ren scale
 F        = fixed_fac_scale  ! if .true. use fixed fac scale
 91.1880  = scale            ! fixed ren scale
 91.1880  = dsqrt_q2fact1    ! fixed fact scale for pdf1
 91.1880  = dsqrt_q2fact2    ! fixed fact scale for pdf2
 1        = scalefact        ! scale factor for event-by-event scales
#*********************************************************************
# Matching - Warning! ickkw > 1 is still beta
#*********************************************************************
 0        = ickkw            ! 0 no matching, 1 MLM, 2 CKKW matching
 1        = highestmult      ! for ickkw=2, highest mult group
 1        = ktscheme         ! for ickkw=1, 1 Durham kT, 2 Pythia pTE
 1        = alpsfact         ! scale factor for QCD emission vx
 F        = chcluster        ! cluster only according to channel diag
 T        = pdfwgt           ! for ickkw=1, perform pdf reweighting
 5        = asrwgtflavor     ! highest quark flavor for a_s reweight
 T        = clusinfo         ! include clustering tag in output
 3.0      = lhe_version       ! Change the way clustering information pass to shower.        
#*********************************************************************
#**********************************************************
#
#**********************************************************
# Automatic ptj and mjj cuts if xqcut > 0
# (turn off for VBF and single top processes)
#**********************************************************
   T  = auto_ptj_mjj  ! Automatic setting of ptj and mjj
#**********************************************************
#                                                                    
#**********************************
# BW cutoff (M+/-bwcutoff*Gamma)
#**********************************
  15  = bwcutoff      ! (M+/-bwcutoff*Gamma)
#**********************************************************
# Apply pt/E/eta/dr/mij cuts on decay products or not
# (note that etmiss/ptll/ptheavy/ht/sorted cuts always apply)
#**********************************************************
   T  = cut_decays    ! Cut decay products 
#*************************************************************
# Number of helicities to sum per event (0 = all helicities)
# 0 gives more stable result, but longer run time (needed for
# long decay chains e.g.).
# Use >=2 if most helicities contribute, e.g. pure QCD.
#*************************************************************
   0  = nhel          ! Number of helicities used per event
#*******************                                                 
# Standard Cuts
#*******************                                                 
#                                                                    
#*********************************************************************
# Minimum and maximum pt's (for max, -1 means no cut)                *
#*********************************************************************
 20  = ptj       ! minimum pt for the jets 
  0  = ptb       ! minimum pt for the b 
 10  = pta       ! minimum pt for the photons 
 10  = ptl       ! minimum pt for the charged leptons 
  0  = misset    ! minimum missing Et (sum of neutrino's momenta)
  0  = ptheavy   ! minimum pt for one heavy final state
 1.0 = ptonium   ! minimum pt for the quarkonium states
 -1  = ptjmax    ! maximum pt for the jets
 -1  = ptbmax    ! maximum pt for the b
 -1  = ptamax    ! maximum pt for the photons
 -1  = ptlmax    ! maximum pt for the charged leptons
 -1  = missetmax ! maximum missing Et (sum of neutrino's momenta)
#*********************************************************************
# Minimum and maximum E's (in the center of mass frame)              *
#*********************************************************************
  0  = ej     ! minimum E for the jets 
  0  = eb     ! minimum E for the b 
  0  = ea     ! minimum E for the photons 
  0  = el     ! minimum E for the charged leptons 
 -1   = ejmax ! maximum E for the jets
 -1   = ebmax ! maximum E for the b
 -1   = eamax ! maximum E for the photons
 -1   = elmax ! maximum E for the charged leptons
#*********************************************************************
# Maximum and minimum absolute rapidity (for max, -1 means no cut)   *
#*********************************************************************
   5  = etaj    ! max rap for the jets 
  -1  = etab    ! max rap for the b
 2.5  = etaa    ! max rap for the photons 
 2.5  = etal    ! max rap for the charged leptons 
 0.6  = etaonium ! max rap for the quarkonium states
   0  = etajmin ! min rap for the jets
   0  = etabmin ! min rap for the b
   0  = etaamin ! min rap for the photons
   0  = etalmin ! main rap for the charged leptons
#*********************************************************************
# Minimum and maximum DeltaR distance                                *
#*********************************************************************
 0.4 = drjj    ! min distance between jets 
 0   = drbb    ! min distance between b's 
 0.4 = drll    ! min distance between leptons 
 0.4 = draa    ! min distance between gammas 
 0   = drbj    ! min distance between b and jet 
 0.4 = draj    ! min distance between gamma and jet 
 0.4 = drjl    ! min distance between jet and lepton 
 0   = drab    ! min distance between gamma and b 
 0   = drbl    ! min distance between b and lepton 
 0.4 = dral    ! min distance between gamma and lepton 
 -1  = drjjmax ! max distance between jets
 -1  = drbbmax ! max distance between b's
 -1  = drllmax ! max distance between leptons
 -1  = draamax ! max distance between gammas
 -1  = drbjmax ! max distance between b and jet
 -1  = drajmax ! max distance between gamma and jet
 -1  = drjlmax ! max distance between jet and lepton
 -1  = drabmax ! max distance between gamma and b
 -1  = drblmax ! max distance between b and lepton
 -1  = dralmax ! maxdistance between gamma and lepton
#*********************************************************************
# Minimum and maximum invariant mass for pairs                       *
# WARNING: for four lepton final state mmll cut require to have      *
#          different lepton masses for each flavor!                  *           
#*********************************************************************
 0   = mmjj    ! min invariant mass of a jet pair 
 0   = mmbb    ! min invariant mass of a b pair 
 0   = mmaa    ! min invariant mass of gamma gamma pair
 0   = mmll    ! min invariant mass of l+l- (same flavour) lepton pair
 -1  = mmjjmax ! max invariant mass of a jet pair
 -1  = mmbbmax ! max invariant mass of a b pair
 -1  = mmaamax ! max invariant mass of gamma gamma pair
 -1  = mmllmax ! max invariant mass of l+l- (same flavour) lepton pair
#*********************************************************************
# Minimum and maximum invariant mass for all letpons                 *
#*********************************************************************
 0   = mmnl    ! min invariant mass for all letpons (l+- and vl) 
 -1  = mmnlmax ! max invariant mass for all letpons (l+- and vl) 
#*********************************************************************
# Minimum and maximum pt for 4-momenta sum of leptons                *
#*********************************************************************
 0   = ptllmin  ! Minimum pt for 4-momenta sum of leptons(l and vl)
 -1  = ptllmax  ! Maximum pt for 4-momenta sum of leptons(l and vl)
#*********************************************************************
# Inclusive cuts                                                     *
#*********************************************************************
 0  = xptj ! minimum pt for at least one jet  
 0  = xptb ! minimum pt for at least one b 
 0  = xpta ! minimum pt for at least one photon 
 0  = xptl ! minimum pt for at least one charged lepton 
#*********************************************************************
# Control the pt's of the jets sorted by pt                          *
#*********************************************************************
 0   = ptj1min ! minimum pt for the leading jet in pt
 0   = ptj2min ! minimum pt for the second jet in pt
 0   = ptj3min ! minimum pt for the third jet in pt
 0   = ptj4min ! minimum pt for the fourth jet in pt
 -1  = ptj1max ! maximum pt for the leading jet in pt 
 -1  = ptj2max ! maximum pt for the second jet in pt
 -1  = ptj3max ! maximum pt for the third jet in pt
 -1  = ptj4max ! maximum pt for the fourth jet in pt
 0   = cutuse  ! reject event if fails any (0) / all (1) jet pt cuts
#*********************************************************************
# Control the pt's of leptons sorted by pt                           *
#*********************************************************************
 0   = ptl1min ! minimum pt for the leading lepton in pt
 0   = ptl2min ! minimum pt for the second lepton in pt
 0   = ptl3min ! minimum pt for the third lepton in pt
 0   = ptl4min ! minimum pt for the fourth lepton in pt
 -1  = ptl1max ! maximum pt for the leading lepton in pt 
 -1  = ptl2max ! maximum pt for the second lepton in pt
 -1  = ptl3max ! maximum pt for the third lepton in pt
 -1  = ptl4max ! maximum pt for the fourth lepton in pt
#*********************************************************************
# Control the Ht(k)=Sum of k leading jets                            *
#*********************************************************************
 0   = htjmin ! minimum jet HT=Sum(jet pt)
 -1  = htjmax ! maximum jet HT=Sum(jet pt)
 0   = ihtmin  !inclusive Ht for all partons (including b)
 -1  = ihtmax  !inclusive Ht for all partons (including b)
 0   = ht2min ! minimum Ht for the two leading jets
 0   = ht3min ! minimum Ht for the three leading jets
 0   = ht4min ! minimum Ht for the four leading jets
 -1  = ht2max ! maximum Ht for the two leading jets
 -1  = ht3max ! maximum Ht for the three leading jets
 -1  = ht4max ! maximum Ht for the four leading jets
#***********************************************************************
# Photon-isolation cuts, according to hep-ph/9801442                   *
# When ptgmin=0, all the other parameters are ignored                  *
# When ptgmin>0, pta and draj are not going to be used                 *
#***********************************************************************
   0 = ptgmin ! Min photon transverse momentum
 0.4 = R0gamma ! Radius of isolation code
 1.0 = xn ! n parameter of eq.(3.4) in hep-ph/9801442
 1.0 = epsgamma ! epsilon_gamma parameter of eq.(3.4) in hep-ph/9801442
 .true. = isoEM ! isolate photons from EM energy (photons and leptons)
#*********************************************************************
# WBF cuts                                                           *
#*********************************************************************
 0   = xetamin ! minimum rapidity for two jets in the WBF case  
 0   = deltaeta ! minimum rapidity for two jets in the WBF case 
#*********************************************************************
# KT DURHAM CUT                                                      *
#*********************************************************************
 -1    =  ktdurham        
 0.4  =  dparameter 
#*********************************************************************
# maximal pdg code for quark to be considered as a light jet         *
# (otherwise b cuts are applied)                                     *
#*********************************************************************
 4 = maxjetflavor    ! Maximum jet pdg code
#*********************************************************************
# Jet measure cuts                                                   *
#*********************************************************************
 0   = xqcut   ! minimum kt jet measure between partons
#*********************************************************************
#
#*********************************************************************
# Store info for systematics studies                                 *
# WARNING: If use_syst is T, matched Pythia output is                *
#          meaningful ONLY if plotted taking matchscale              *
#          reweighting into account!                                 *
#*********************************************************************
   F  = use_syst      ! Enable systematics studies
#
#**************************************
# Parameter of the systematics study
#  will be used by SysCalc (if installed)
#**************************************                                  
#
0.5 1 2 = sys_scalefact  # factorization/renormalization scale factor
0.5 1 2 = sys_alpsfact  # \alpha_s emission scale factors
30 50 = sys_matchscale # variation of merging scale
# PDF sets and number of members (0 or none for all members).
CT10nlo.LHgrid = sys_pdf # matching scales
# MSTW2008nlo68cl.LHgrid 1  = sys_pdf
</MGRunCard>
<slha>
######################################################################
## PARAM_CARD AUTOMATICALY GENERATED BY MG5 FOLLOWING UFO MODEL   ####
######################################################################
##                                                                  ##
##  Width set on Auto will be computed following the information    ##
##        present in the decay.py files of the model.               ##
##        See  arXiv:1402.1178 for more details.                    ##
##                                                                  ##
######################################################################

###################################
## INFORMATION FOR CKMBLOCK
###################################
Block ckmblock 
    1 2.277360e-01 # cabi 

###################################
## INFORMATION FOR FRBLOCK
###################################
Block frblock 
    1 1.000000e+00 # gz 

###################################
## INFORMATION FOR MASS
###################################
Block mass 
    1 5.040000e-03 # MD 
    2 2.550000e-03 # MU 
    3 1.010000e-01 # MS 
    4 1.270000e+00 # MC 
    5 4.700000e+00 # MB 
    6 1.720000e+02 # MT 
   11 5.110000e-04 # Me 
   13 1.056600e-01 # MM 
   15 1.777000e+00 # MTA 
   23 9.118760e+01 # MZ 
   25 1.200000e+02 # MH 
  10030 1.800000e+03 # MZph 
  10031 3.000000e+02 # MZpl 
## Dependent parameters, given by model restrictions.
## Those values should be edited following the 
## analytical expression. MG5 ignores those values 
## but they are important for interfacing the output of MG5
## to external program such as Pythia.
  12 0.000000 # ve : 0.0 
  14 0.000000 # vm : 0.0 
  16 0.000000 # vt : 0.0 
  21 0.000000 # g : 0.0 
  22 0.000000 # a : 0.0 
  24 79.824360 # w+ : cmath.sqrt(MZ__exp__2/2. + cmath.sqrt(MZ__exp__4/4. - (aEW*cmath.pi*MZ__exp__2)/(Gf*sqrt__2))) 

###################################
## INFORMATION FOR SMINPUTS
###################################
Block sminputs 
    1 1.279000e+02 # aEWM1 
    2 1.166370e-05 # Gf 
    3 1.184000e-01 # aS 

###################################
## INFORMATION FOR YUKAWA
###################################
Block yukawa 
    1 5.040000e-03 # ymdo 
    2 2.550000e-03 # ymup 
    3 1.010000e-01 # yms 
    4 1.270000e+00 # ymc 
    5 4.700000e+00 # ymb 
    6 1.720000e+02 # ymt 
   11 5.110000e-04 # yme 
   13 1.056600e-01 # ymm 
   15 1.777000e+00 # ymtau 

###################################
## INFORMATION FOR DECAY
###################################
DECAY   6 1.508336e+00 # WT 
DECAY  23 2.495200e+00 # WZ 
DECAY  24 2.085000e+00 # WW 
DECAY  25 5.753088e-03 # WH 
## Dependent parameters, given by model restrictions.
## Those values should be edited following the 
## analytical expression. MG5 ignores those values 
## but they are important for interfacing the output of MG5
## to external program such as Pythia.
DECAY  1 0.000000 # d : 0.0 
DECAY  2 0.000000 # u : 0.0 
DECAY  3 0.000000 # s : 0.0 
DECAY  4 0.000000 # c : 0.0 
DECAY  5 0.000000 # b : 0.0 
DECAY  11 0.000000 # e- : 0.0 
DECAY  12 0.000000 # ve : 0.0 
DECAY  13 0.000000 # mu- : 0.0 
DECAY  14 0.000000 # vm : 0.0 
DECAY  15 0.000000 # ta- : 0.0 
DECAY  16 0.000000 # vt : 0.0 
DECAY  21 0.000000 # g : 0.0 
DECAY  22 0.000000 # a : 0.0 
DECAY  10030 0.308725 # zph : (gz__exp__2*MZph*(5 + cmath.sqrt(1 - (4*MT__exp__2)/MZph__exp__2)))/(144.*cmath.pi) 
DECAY  10031 0.132629 # zpl : (5*gz__exp__2*MZpl)/(144.*cmath.pi) 
#===========================================================
# QUANTUM NUMBERS OF NEW STATE(S) (NON SM PDG CODE)
#===========================================================

Block QNUMBERS 10030  # zph 
        1 0  # 3 times electric charge
        2 3  # number of spin states (2S+1)
        3 1  # colour rep (1: singlet, 3: triplet, 8: octet)
        4 0  # Particle/Antiparticle distinction (0=own anti)
Block QNUMBERS 10031  # zpl 
        1 0  # 3 times electric charge
        2 3  # number of spin states (2S+1)
        3 1  # colour rep (1: singlet, 3: triplet, 8: octet)
        4 0  # Particle/Antiparticle distinction (0=own anti)
</slha>
## END BANNER##
<MGGenerationInfo>
#  Number of Events        :         3984
#  Integrated weight (pb)  :  0.73159E-01
#  Max wgt                 :  0.25694E-04
#  Average wgt             :  0.18363E-04
</MGGenerationInfo>
</header>
<init>
     2212     2212  0.40000000000E+04  0.40000000000E+04 0 0  247000  247000 2   1
  0.73209544830E-01  0.14829238301E-03  0.25694050000E-04   0
</init>
<event>
 5   0  0.2550616E-04  0.1800028E+04  0.7818609E-02  0.8706285E-01
        2   -1    0    0  501    0  0.00000000000E+00  0.00000000000E+00  0.17902089161E+04  0.17902089161E+04  0.25500000920E-02 0.  1.
       -2   -1    0    0    0  501  0.00000000000E+00  0.00000000000E+00 -0.45247506705E+03  0.45247506706E+03  0.25500000920E-02 0. -1.
    10030    2    1    2    0    0  0.00000000000E+00  0.00000000000E+00  0.13377338491E+04  0.22426839832E+04  0.18000276657E+04 0.  0.
        1    1    3    3  502    0 -0.79275401734E+03  0.42450029375E+03  0.62282752469E+03  0.10938800469E+04  0.50400001928E-02 0. -1.
       -1    1    3    3    0  502  0.79275401734E+03 -0.42450029375E+03  0.71490632437E+03  0.11488039363E+04  0.50400001928E-02 0.  1.
</event>
<event>
 5   0  0.2550616E-04  0.1781278E+04  0.7818609E-02  0.8716320E-01
       -2   -1    0    0    0  501  0.00000000000E+00  0.00000000000E+00  0.44856530301E+03  0.44856530302E+03  0.25500000920E-02 0.  1.
        2   -1    0    0  501    0  0.00000000000E+00  0.00000000000E+00 -0.17683877546E+04  0.17683877546E+04  0.25500000920E-02 0. -1.
    10030    2    1    2    0    0  0.00000000000E+00  0.00000000000E+00 -0.13198224516E+04  0.22169530576E+04  0.17812775067E+04 0.  0.
        1    1    3    3  502    0  0.81263679438E+03  0.11986473801E+03 -0.10883296090E+04  0.13635275768E+04  0.50400001928E-02 0.  1.
       -1    1    3    3    0  502 -0.81263679438E+03 -0.11986473801E+03 -0.23149284260E+03  0.85342548076E+03  0.50400001928E-02 0. -1.
</event>
<event>
 5   0  0.2431811E-04  0.1800948E+04  0.7818609E-02  0.8705796E-01
        2   -1    0    0  501    0  0.00000000000E+00  0.00000000000E+00  0.14221248228E+04  0.14221248228E+04  0.25500000920E-02 0. -1.
       -2   -1    0    0    0  501  0.00000000000E+00  0.00000000000E+00 -0.57017011511E+03  0.57017011512E+03  0.25500000920E-02 0.  1.
    10030    2    1    2    0    0  0.00000000000E+00  0.00000000000E+00  0.85195470768E+03  0.19922949379E+04  0.18009476105E+04 0.  0.
        3    1    3    3  502    0  0.84735206024E+03  0.15871338585E+01  0.88898208385E+02  0.85200406962E+03  0.10100000352E+00 0.  1.
       -3    1    3    3    0  502 -0.84735206024E+03 -0.15871338585E+01  0.76305649929E+03  0.11402908683E+04  0.10100000352E+00 0. -1.
</event>
<event>
 5   0  0.2550616E-04  0.1790218E+04  0.7818609E-02  0.8711519E-01
        2   -1    0    0  501    0  0.00000000000E+00  0.00000000000E+00  0.87943172324E+03  0.87943172324E+03  0.25500000920E-02 0.  1.
       -2   -1    0    0    0  501  0.00000000000E+00  0.00000000000E+00 -0.91106582797E+03  0.91106582797E+03  0.25500000920E-02 0. -1.
    10030    2    1    2    0    0  0.00000000000E+00  0.00000000000E+00 -0.31634104729E+02  0.17904975512E+04  0.17902180773E+04 0.  0.
        1    1    3    3  502    0  0.25944358061E+03  0.63875159760E+03 -0.58678761147E+03  0.90533655397E+03  0.50400001928E-02 0.  1.
       -1    1    3    3    0  502 -0.25944358061E+03 -0.63875159760E+03  0.55515350674E+03  0.88516099724E+03  0.50400001928E-02 0. -1.
</event>
<event>
 5   0  0.2431811E-04  0.1792372E+04  0.7818609E-02  0.8710367E-01
       -2   -1    0    0    0  501  0.00000000000E+00  0.00000000000E+00  0.48876835492E+03  0.48876835493E+03  0.25500000920E-02 0. -1.
        2   -1    0    0  501    0  0.00000000000E+00  0.00000000000E+00 -0.16432105268E+04  0.16432105268E+04  0.25500000920E-02 0.  1.
    10030    2    1    2    0    0  0.00000000000E+00  0.00000000000E+00 -0.11544421718E+04  0.21319788817E+04  0.17923719547E+04 0.  0.
        3    1    3    3  502    0 -0.41842439306E+03  0.10721747344E+03  0.35678051706E+03  0.56023825902E+03  0.10100000352E+00 0. -1.
       -3    1    3    3    0  502  0.41842439306E+03 -0.10721747344E+03 -0.15112226889E+04  0.15717406227E+04  0.10100000352E+00 0.  1.
</event>
<event>
 5   0  0.1214723E-04  0.1790389E+04  0.7818609E-02  0.8711427E-01
       -1   -1    0    0    0  501  0.00000000000E+00  0.00000000000E+00  0.32893635401E+03  0.32893635405E+03  0.50400001928E-02 0. -1.
        1   -1    0    0  501    0  0.00000000000E+00  0.00000000000E+00 -0.24362573322E+04  0.24362573322E+04  0.50400001928E-02 0.  1.
    10030    2    1    2    0    0  0.00000000000E+00  0.00000000000E+00 -0.21073209782E+04  0.27651936862E+04  0.17903894597E+04 0.  0.
        1    1    3    3  502    0  0.76370329651E+03 -0.41736616487E+02 -0.33521211226E+03  0.83507594295E+03  0.50400001928E-02 0. -1.
       -1    1    3    3    0  502 -0.76370329651E+03  0.41736616487E+02 -0.17721088659E+04  0.19301177433E+04  0.50400001928E-02 0.  1.
</event>
<event>
 5   0  0.1330225E-04  0.1789115E+04  0.7818609E-02  0.8712110E-01
        1   -1    0    0  501    0  0.00000000000E+00  0.00000000000E+00  0.15008693071E+04  0.15008693071E+04  0.50400001928E-02 0. -1.
       -1   -1    0    0    0  501  0.00000000000E+00  0.00000000000E+00 -0.53317963541E+03  0.53317963543E+03  0.50400001928E-02 0.  1.
    10030    2    1    2    0    0  0.00000000000E+00  0.00000000000E+00  0.96768967165E+03  0.20340489425E+04  0.17891148090E+04 0.  0.
        3    1    3    3  502    0 -0.37317899545E+03  0.81212174960E+03  0.44087291811E+03  0.99658077391E+03  0.10100000352E+00 0.  1.
       -3    1    3    3    0  502  0.37317899545E+03 -0.81212174960E+03  0.52681675354E+03  0.10374681686E+04  0.10100000352E+00 0. -1.
</event>
<event>
 5   0  0.2550616E-04  0.1796401E+04  0.7818609E-02  0.8708216E-01
        2   -1    0    0  501    0  0.00000000000E+00  0.00000000000E+00  0.76001336576E+03  0.76001336576E+03  0.25500000920E-02 0. -1.
       -2   -1    0    0    0  501  0.00000000000E+00  0.00000000000E+00 -0.10615125916E+04  0.10615125916E+04  0.25500000920E-02 0.  1.
    10030    2    1    2    0    0  0.00000000000E+00  0.00000000000E+00 -0.30149922581E+03  0.18215259573E+04  0.17964005762E+04 0.  0.
        1    1    3    3  502    0 -0.57903045156E+03  0.63387660928E+03 -0.41842656931E+03  0.95506890513E+03  0.50400001928E-02 0. -1.
       -1    1    3    3    0  502  0.57903045156E+03 -0.63387660928E+03  0.11692734350E+03  0.86645705220E+03  0.50400001928E-02 0.  1.
</event>
<event>
 5   0  0.1253925E-04  0.1785986E+04  0.7818609E-02  0.8713788E-01
       -1   -1    0    0    0  501  0.00000000000E+00  0.00000000000E+00  0.10622701382E+04  0.10622701382E+04  0.50400001928E-02 0.  1.
        1   -1    0    0  501    0  0.00000000000E+00  0.00000000000E+00 -0.75069059377E+03  0.75069059379E+03  0.50400001928E-02 0. -1.
    10030    2    1    2    0    0  0.00000000000E+00  0.00000000000E+00  0.31157954443E+03  0.18129607320E+04  0.17859856672E+04 0.  0.
        2    1    3    3  502    0 -0.50672373015E+03 -0.64283685401E+03 -0.20657246472E+03  0.84420396988E+03  0.25500000920E-02 0.  1.
       -2    1    3    3    0  502  0.50672373015E+03  0.64283685401E+03  0.51815200915E+03  0.96875676212E+03  0.25500000920E-02 0. -1.
</event>
<event>
 5   0  0.2550616E-04  0.1793120E+04  0.7818609E-02  0.8709967E-01
       -2   -1    0    0    0  501  0.00000000000E+00  0.00000000000E+00  0.43641011166E+03  0.43641011166E+03  0.25500000920E-02 0.  1.
        2   -1    0    0  501    0  0.00000000000E+00  0.00000000000E+00 -0.18418906773E+04  0.18418906773E+04  0.25500000920E-02 0. -1.
    10030    2    1    2    0    0  0.00000000000E+00  0.00000000000E+00 -0.14054805656E+04  0.22783007890E+04  0.17931198690E+04 0.  0.
        1    1    3    3  502    0  0.46485532338E+03  0.63573621460E+03 -0.15836165626E+03  0.80332398223E+03  0.50400001928E-02 0.  1.
       -1    1    3    3    0  502 -0.46485532338E+03 -0.63573621460E+03 -0.12471189094E+04  0.14749768067E+04  0.50400001928E-02 0. -1.
</event>
<event>
 5   0  0.2393421E-04  0.1783582E+04  0.7818609E-02  0.8715079E-01
       -2   -1    0    0    0  501  0.00000000000E+00  0.00000000000E+00  0.55107045997E+03  0.55107045997E+03  0.25500000920E-02 0. -1.
        2   -1    0    0  501    0  0.00000000000E+00  0.00000000000E+00 -0.14431752999E+04  0.14431752999E+04  0.25500000920E-02 0.  1.
    10030    2    1    2    0    0  0.00000000000E+00  0.00000000000E+00 -0.89210483993E+03  0.19942457599E+04  0.17835820994E+04 0.  0.
        5    1    3    3  502    0 -0.89001042919E+02  0.53238486948E+03 -0.12397662285E+04  0.13521823938E+04  0.46999998093E+01 0.  1.
       -5    1    3    3    0  502  0.89001042919E+02 -0.53238486948E+03  0.34766138857E+03  0.64206336603E+03  0.46999998093E+01 0. -1.
</event>
<event>
 5   0  0.2393421E-04  0.1815131E+04  0.7818609E-02  0.8698294E-01
        2   -1    0    0  501    0  0.00000000000E+00  0.00000000000E+00  0.27034286211E+04  0.27034286211E+04  0.25500000920E-02 0. -1.
       -2   -1    0    0    0  501  0.00000000000E+00  0.00000000000E+00 -0.30467813332E+03  0.30467813333E+03  0.25500000920E-02 0.  1.
    10030    2    1    2    0    0  0.00000000000E+00  0.00000000000E+00  0.23987504878E+04  0.30081067544E+04  0.18151314948E+04 0.  0.
        5    1    3    3  502    0  0.39391488487E+03  0.40810894493E+03  0.25268878608E+02  0.56778733138E+03  0.46999998093E+01 0.  1.
       -5    1    3    3    0  502 -0.39391488487E+03 -0.40810894493E+03  0.23734816092E+04  0.24403194231E+04  0.46999998093E+01 0. -1.
</event>
<event>
 5   0  0.1239119E-04  0.1797190E+04  0.7818609E-02  0.8707795E-01
        1   -1    0    0  501    0  0.00000000000E+00  0.00000000000E+00  0.64384045876E+03  0.64384045878E+03  0.50400001928E-02 0.  1.
       -1   -1    0    0    0  501  0.00000000000E+00  0.00000000000E+00 -0.12541509226E+04  0.12541509226E+04  0.50400001928E-02 0. -1.
    10030    2    1    2    0    0  0.00000000000E+00  0.00000000000E+00 -0.61031046382E+03  0.18979913814E+04  0.17971901462E+04 0.  0.
        5    1    3    3  502    0  0.55743963639E+03  0.15107241190E+03 -0.10321622610E+04  0.11827691427E+04  0.46999998093E+01 0. -1.
       -5    1    3    3    0  502 -0.55743963639E+03 -0.15107241190E+03  0.42185179721E+03  0.71522223866E+03  0.46999998093E+01 0.  1.
</event>
<event>
 5   0  0.9144875E-05  0.1668217E+04  0.7818609E-02  0.8779702E-01
        3   -1    0    0  501    0  0.00000000000E+00  0.00000000000E+00  0.13477135624E+04  0.13477135661E+04  0.10100000352E+00 0. -1.
       -3   -1    0    0    0  501  0.00000000000E+00  0.00000000000E+00 -0.51623502605E+03  0.51623503593E+03  0.10100000352E+00 0.  1.
    10030    2    1    2    0    0  0.00000000000E+00  0.00000000000E+00  0.83147853630E+03  0.18639486021E+04  0.16682169627E+04 0.  0.
        5    1    3    3  502    0 -0.22305495411E+03 -0.69379733847E+03 -0.37580892754E+02  0.72975521438E+03  0.46999998093E+01 0.  1.
       -5    1    3    3    0  502  0.22305495411E+03  0.69379733847E+03  0.86905942906E+03  0.11341933877E+04  0.46999998093E+01 0. -1.
</event>
<event>
 5   0  0.1214723E-04  0.1701658E+04  0.7818609E-02  0.8760419E-01
       -1   -1    0    0    0  501  0.00000000000E+00  0.00000000000E+00  0.57572312242E+03  0.57572312244E+03  0.50400001928E-02 0. -1.
        1   -1    0    0  501    0  0.00000000000E+00  0.00000000000E+00 -0.12573927208E+04  0.12573927208E+04  0.50400001928E-02 0.  1.
    10030    2    1    2    0    0  0.00000000000E+00  0.00000000000E+00 -0.68166959837E+03  0.18331158432E+04  0.17016580895E+04 0.  0.
        1    1    3    3  502    0  0.68470864993E+03 -0.13891534369E+03  0.18225616637E+03  0.72203927747E+03  0.50400001928E-02 0. -1.
       -1    1    3    3    0  502 -0.68470864993E+03  0.13891534369E+03 -0.86392576474E+03  0.11110765658E+04  0.50400001928E-02 0.  1.
</event>
<event>
 5   0  0.1330225E-04  0.1742345E+04  0.7818609E-02  0.8737575E-01
       -1   -1    0    0    0  501  0.00000000000E+00  0.00000000000E+00  0.74336837934E+03  0.74336837936E+03  0.50400001928E-02 0. -1.
        1   -1    0    0  501    0  0.00000000000E+00  0.00000000000E+00 -0.10209489829E+04  0.10209489829E+04  0.50400001928E-02 0.  1.
    10030    2    1    2    0    0  0.00000000000E+00  0.00000000000E+00 -0.27758060358E+03  0.17643173623E+04  0.17423446167E+04 0.  0.
        3    1    3    3  502    0  0.44755137554E+03 -0.32417844321E+03 -0.82074250262E+03  0.98945043464E+03  0.10100000352E+00 0.  1.
       -3    1    3    3    0  502 -0.44755137554E+03  0.32417844321E+03  0.54316189904E+03  0.77486692765E+03  0.10100000352E+00 0. -1.
</event>
<event>
 5   0  0.1330225E-04  0.1791859E+04  0.7818609E-02  0.8710641E-01
       -1   -1    0    0    0  501  0.00000000000E+00  0.00000000000E+00  0.64106768145E+03  0.64106768147E+03  0.50400001928E-02 0. -1.
        1   -1    0    0  501    0  0.00000000000E+00  0.00000000000E+00 -0.12521141996E+04  0.12521141996E+04  0.50400001928E-02 0.  1.
    10030    2    1    2    0    0  0.00000000000E+00  0.00000000000E+00 -0.61104651814E+03  0.18931818811E+04  0.17918593102E+04 0.  0.
        3    1    3    3  502    0 -0.76818721204E+03 -0.65711087876E+02  0.17663740614E+03  0.79096796601E+03  0.10100000352E+00 0. -1.
       -3    1    3    3    0  502  0.76818721204E+03  0.65711087876E+02 -0.78768392428E+03  0.11022139151E+04  0.10100000352E+00 0.  1.
</event>
<event>
 5   0  0.2550616E-04  0.1805758E+04  0.7818609E-02  0.8703243E-01
       -2   -1    0    0    0  501  0.00000000000E+00  0.00000000000E+00  0.56337668089E+03  0.56337668090E+03  0.25500000920E-02 0. -1.
        2   -1    0    0  501    0  0.00000000000E+00  0.00000000000E+00 -0.14469725578E+04  0.14469725578E+04  0.25500000920E-02 0.  1.
    10030    2    1    2    0    0  0.00000000000E+00  0.00000000000E+00 -0.88359587695E+03  0.20103492387E+04  0.18057581200E+04 0.  0.
        1    1    3    3  502    0 -0.80575847464E+02 -0.37796280797E+03  0.46664490190E+03  0.60589257785E+03  0.50400001928E-02 0. -1.
       -1    1    3    3    0  502  0.80575847464E+02  0.37796280797E+03 -0.13502407788E+04  0.14044566609E+04  0.50400001928E-02 0.  1.
</event>
<event>
 5   0  0.1308893E-04  0.1797546E+04  0.7818609E-02  0.8707606E-01
       -1   -1    0    0    0  501  0.00000000000E+00  0.00000000000E+00  0.59928604117E+03  0.59928604119E+03  0.50400001928E-02 0.  1.
        1   -1    0    0  501    0  0.00000000000E+00  0.00000000000E+00 -0.13479247476E+04  0.13479247476E+04  0.50400001928E-02 0. -1.
    10030    2    1    2    0    0  0.00000000000E+00  0.00000000000E+00 -0.74863870647E+03  0.19472107888E+04  0.17975455330E+04 0.  0.
        4    1    3    3  502    0  0.35791479201E+03  0.35112358560E+03 -0.11823478318E+04  0.12842658522E+04  0.12699999809E+01 0. -1.
       -4    1    3    3    0  502 -0.35791479201E+03 -0.35112358560E+03  0.43370912538E+03  0.66294493666E+03  0.12699999809E+01 0.  1.
</event>
<event>
 5   0  0.1214723E-04  0.1790237E+04  0.7818609E-02  0.8711508E-01
        1   -1    0    0  501    0  0.00000000000E+00  0.00000000000E+00  0.10360350421E+04  0.10360350421E+04  0.50400001928E-02 0.  1.
       -1   -1    0    0    0  501  0.00000000000E+00  0.00000000000E+00 -0.77336908017E+03  0.77336908019E+03  0.50400001928E-02 0. -1.
    10030    2    1    2    0    0  0.00000000000E+00  0.00000000000E+00  0.26266596188E+03  0.18094041223E+04  0.17902373781E+04 0.  0.
        1    1    3    3  502    0 -0.39234313337E+03  0.52803048939E+03  0.74486426090E+03  0.99376662211E+03  0.50400001928E-02 0.  1.
       -1    1    3    3    0  502  0.39234313337E+03 -0.52803048939E+03 -0.48219829902E+03  0.81563750014E+03  0.50400001928E-02 0. -1.
</event>
<event>
 5   0  0.2569405E-04  0.1805104E+04  0.7818609E-02  0.8703590E-01
        2   -1    0    0  501    0  0.00000000000E+00  0.00000000000E+00  0.76852192324E+03  0.76852192325E+03  0.25500000920E-02 0.  1.
       -2   -1    0    0    0  501  0.00000000000E+00  0.00000000000E+00 -0.10599567554E+04  0.10599567554E+04  0.25500000920E-02 0. -1.
    10030    2    1    2    0    0  0.00000000000E+00  0.00000000000E+00 -0.29143483212E+03  0.18284786786E+04  0.18051038798E+04 0.  0.
        2    1    3    3  502    0 -0.86751891307E+03  0.23309137718E+03 -0.56950747933E+02  0.90009113002E+03  0.25500000920E-02 0. -1.
       -2    1    3    3    0  502  0.86751891307E+03 -0.23309137718E+03 -0.23448408419E+03  0.92838754860E+03  0.25500000920E-02 0.  1.
</event>
<event>
 5   0  0.1330225E-04  0.1808080E+04  0.7818609E-02  0.8702015E-01
       -1   -1    0    0    0  501  0.00000000000E+00  0.00000000000E+00  0.71159488973E+03  0.71159488975E+03  0.50400001928E-02 0. -1.
        1   -1    0    0  501    0  0.00000000000E+00  0.00000000000E+00 -0.11485299132E+04  0.11485299133E+04  0.50400001928E-02 0.  1.
    10030    2    1    2    0    0  0.00000000000E+00  0.00000000000E+00 -0.43693502351E+03  0.18601248030E+04  0.18080796631E+04 0.  0.
        3    1    3    3  502    0 -0.71003474051E+03  0.53839640086E+03 -0.37539678117E+03  0.96692438727E+03  0.10100000352E+00 0.  1.
       -3    1    3    3    0  502  0.71003474051E+03 -0.53839640086E+03 -0.61538242336E+02  0.89320041573E+03  0.10100000352E+00 0. -1.
</event>
<event>
 5   0  0.2431811E-04  0.1800778E+04  0.7818609E-02  0.8705886E-01
       -2   -1    0    0    0  501  0.00000000000E+00  0.00000000000E+00  0.67200657734E+03  0.67200657734E+03  0.25500000920E-02 0.  1.
        2   -1    0    0  501    0  0.00000000000E+00  0.00000000000E+00 -0.12063880837E+04  0.12063880837E+04  0.25500000920E-02 0. -1.
    10030    2    1    2    0    0  0.00000000000E+00  0.00000000000E+00 -0.53438150637E+03  0.18783946610E+04  0.18007784173E+04 0.  0.
        3    1    3    3  502    0 -0.13218415629E+03  0.18758721977E+03 -0.11753716702E+04  0.11975642736E+04  0.10100000352E+00 0. -1.
       -3    1    3    3    0  502  0.13218415629E+03 -0.18758721977E+03  0.64099016379E+03  0.68083038745E+03  0.10100000352E+00 0.  1.
</event>
<event>
 5   0  0.1214723E-04  0.1811165E+04  0.7818609E-02  0.8700384E-01
       -1   -1    0    0    0  501  0.00000000000E+00  0.00000000000E+00  0.80726842999E+03  0.80726843000E+03  0.50400001928E-02 0. -1.
        1   -1    0    0  501    0  0.00000000000E+00  0.00000000000E+00 -0.10158700584E+04  0.10158700585E+04  0.50400001928E-02 0.  1.
    10030    2    1    2    0    0  0.00000000000E+00  0.00000000000E+00 -0.20860162845E+03  0.18231384885E+04  0.18111651798E+04 0.  0.
        1    1    3    3  502    0  0.84702111851E+03  0.17697633158E+03 -0.37311383862E+03  0.94232655366E+03  0.50400001928E-02 0.  1.
       -1    1    3    3    0  502 -0.84702111851E+03 -0.17697633158E+03  0.16451221017E+03  0.88081193479E+03  0.50400001928E-02 0. -1.
</event>
<event>
 5   0  0.2569405E-04  0.1799524E+04  0.7818609E-02  0.8706553E-01
        2   -1    0    0  501    0  0.00000000000E+00  0.00000000000E+00  0.78156834744E+03  0.78156834744E+03  0.25500000920E-02 0.  1.
       -2   -1    0    0    0  501  0.00000000000E+00  0.00000000000E+00 -0.10358296324E+04  0.10358296324E+04  0.25500000920E-02 0. -1.
    10030    2    1    2    0    0  0.00000000000E+00  0.00000000000E+00 -0.25426128499E+03  0.18173979799E+04  0.17995239971E+04 0.  0.
        2    1    3    3  502    0 -0.83692913028E+03  0.24992789707E+03  0.91017914868E+02  0.87817912961E+03  0.25500000920E-02 0.  1.
       -2    1    3    3    0  502  0.83692913028E+03 -0.24992789707E+03 -0.34527919986E+03  0.93921885027E+03  0.25500000920E-02 0. -1.
</event>
<event>
 5   0  0.1253925E-04  0.1797548E+04  0.7818609E-02  0.8707605E-01
        1   -1    0    0  501    0  0.00000000000E+00  0.00000000000E+00  0.83084836660E+03  0.83084836662E+03  0.50400001928E-02 0.  1.
       -1   -1    0    0    0  501  0.00000000000E+00  0.00000000000E+00 -0.97225234469E+03  0.97225234471E+03  0.50400001928E-02 0. -1.
    10030    2    1    2    0    0  0.00000000000E+00  0.00000000000E+00 -0.14140397809E+03  0.18031007113E+04  0.17975475210E+04 0.  0.
        2    1    3    3  502    0  0.11061810169E+03 -0.60988768966E+03 -0.72355434066E+03  0.95274878237E+03  0.25500000920E-02 0. -1.
       -2    1    3    3    0  502 -0.11061810169E+03  0.60988768966E+03  0.58215036257E+03  0.85035192895E+03  0.25500000920E-02 0.  1.
</event>
<event>
 5   0  0.2431811E-04  0.1808063E+04  0.7818609E-02  0.8702023E-01
       -2   -1    0    0    0  501  0.00000000000E+00  0.00000000000E+00  0.32140034980E+03  0.32140034981E+03  0.25500000920E-02 0. -1.
        2   -1    0    0  501    0  0.00000000000E+00  0.00000000000E+00 -0.25428511238E+04  0.25428511238E+04  0.25500000920E-02 0.  1.
    10030    2    1    2    0    0  0.00000000000E+00  0.00000000000E+00 -0.22214507740E+04  0.28642514736E+04  0.18080633183E+04 0.  0.
        3    1    3    3  502    0  0.39411898467E+02 -0.19438546763E+03  0.28650798038E+03  0.34846210811E+03  0.10100000352E+00 0. -1.
       -3    1    3    3    0  502 -0.39411898467E+02  0.19438546763E+03 -0.25079587544E+04  0.25157893655E+04  0.10100000352E+00 0.  1.
</event>
<event>
 5   0  0.2393421E-04  0.1801163E+04  0.7818609E-02  0.8705681E-01
       -2   -1    0    0    0  501  0.00000000000E+00  0.00000000000E+00  0.11025235127E+04  0.11025235127E+04  0.25500000920E-02 0. -1.
        2   -1    0    0  501    0  0.00000000000E+00  0.00000000000E+00 -0.73562805689E+03  0.73562805689E+03  0.25500000920E-02 0.  1.
    10030    2    1    2    0    0  0.00000000000E+00  0.00000000000E+00  0.36689545585E+03  0.18381515696E+04  0.18011632123E+04 0.  0.
        5    1    3    3  502    0  0.61408079347E+03  0.65763319155E+03  0.22228851956E+03  0.92682841533E+03  0.46999998093E+01 0.  1.
       -5    1    3    3    0  502 -0.61408079347E+03 -0.65763319155E+03  0.14460693629E+03  0.91132315430E+03  0.46999998093E+01 0. -1.
</event>
<event>
 5   0  0.1253925E-04  0.1789230E+04  0.7818609E-02  0.8712048E-01
        1   -1    0    0  501    0  0.00000000000E+00  0.00000000000E+00  0.14041885363E+04  0.14041885363E+04  0.50400001928E-02 0.  1.
       -1   -1    0    0    0  501  0.00000000000E+00  0.00000000000E+00 -0.56996321938E+03  0.56996321941E+03  0.50400001928E-02 0. -1.
    10030    2    1    2    0    0  0.00000000000E+00  0.00000000000E+00  0.83422531690E+03  0.19741517557E+04  0.17892297994E+04 0.  0.
        2    1    3    3  502    0 -0.58396176794E+03 -0.36163949077E+03 -0.21531292652E+03  0.71982923254E+03  0.25500000920E-02 0. -1.
       -2    1    3    3    0  502  0.58396176794E+03  0.36163949077E+03  0.10495382434E+04  0.12543225232E+04  0.25500000920E-02 0.  1.
</event>
<event>
 5   0  0.2431811E-04  0.1726265E+04  0.7818609E-02  0.8746525E-01
       -2   -1    0    0    0  501  0.00000000000E+00  0.00000000000E+00  0.32434201841E+03  0.32434201842E+03  0.25500000920E-02 0. -1.
        2   -1    0    0  501    0  0.00000000000E+00  0.00000000000E+00 -0.22969497578E+04  0.22969497578E+04  0.25500000920E-02 0.  1.
    10030    2    1    2    0    0  0.00000000000E+00  0.00000000000E+00 -0.19726077394E+04  0.26212917762E+04  0.17262645460E+04 0.  0.
        3    1    3    3  502    0  0.51661307579E+03  0.37338196986E+03 -0.10258961904E+03  0.64562203001E+03  0.10100000352E+00 0. -1.
       -3    1    3    3    0  502 -0.51661307579E+03 -0.37338196986E+03 -0.18700181203E+04  0.19756697462E+04  0.10100000352E+00 0.  1.
</event>
<event>
 5   0  0.2550616E-04  0.1781954E+04  0.7818609E-02  0.8715955E-01
       -2   -1    0    0    0  501  0.00000000000E+00  0.00000000000E+00  0.10612863691E+04  0.10612863691E+04  0.25500000920E-02 0.  1.
        2   -1    0    0  501    0  0.00000000000E+00  0.00000000000E+00 -0.74799793136E+03  0.74799793136E+03  0.25500000920E-02 0. -1.
    10030    2    1    2    0    0  0.00000000000E+00  0.00000000000E+00  0.31328843777E+03  0.18092843005E+04  0.17819539934E+04 0.  0.
        1    1    3    3  502    0  0.22690086077E+03 -0.14709629098E+03 -0.70532790215E+03  0.75538650307E+03  0.50400001928E-02 0. -1.
       -1    1    3    3    0  502 -0.22690086077E+03  0.14709629098E+03  0.10186163399E+04  0.10538977974E+04  0.50400001928E-02 0.  1.
</event>
<event>
 5   0  0.1239119E-04  0.1787980E+04  0.7818609E-02  0.8712718E-01
       -1   -1    0    0    0  501  0.00000000000E+00  0.00000000000E+00  0.61708733232E+03  0.61708733234E+03  0.50400001928E-02 0.  1.
        1   -1    0    0  501    0  0.00000000000E+00  0.00000000000E+00 -0.12951461233E+04  0.12951461233E+04  0.50400001928E-02 0. -1.
    10030    2    1    2    0    0  0.00000000000E+00  0.00000000000E+00 -0.67805879099E+03  0.19122334557E+04  0.17879801635E+04 0.  0.
        5    1    3    3  502    0 -0.17396832328E+03  0.32083180004E+03  0.53377058700E+03  0.64663061401E+03  0.46999998093E+01 0.  1.
       -5    1    3    3    0  502  0.17396832328E+03 -0.32083180004E+03 -0.12118293780E+04  0.12656028416E+04  0.46999998093E+01 0. -1.
</event>
<event>
 5   0  0.2431811E-04  0.1742423E+04  0.7818609E-02  0.8737532E-01
        2   -1    0    0  501    0  0.00000000000E+00  0.00000000000E+00  0.95835733529E+03  0.95835733529E+03  0.25500000920E-02 0. -1.
       -2   -1    0    0    0  501  0.00000000000E+00  0.00000000000E+00 -0.79199012778E+03  0.79199012778E+03  0.25500000920E-02 0.  1.
    10030    2    1    2    0    0  0.00000000000E+00  0.00000000000E+00  0.16636720751E+03  0.17503474631E+04  0.17424230812E+04 0.  0.
        3    1    3    3  502    0 -0.66574750527E+02  0.61289347348E+01  0.95577660181E+03  0.95811204147E+03  0.10100000352E+00 0. -1.
       -3    1    3    3    0  502  0.66574750527E+02 -0.61289347348E+01 -0.78940939429E+03  0.79223542161E+03  0.10100000352E+00 0.  1.
</event>
<event>
 5   0  0.1308893E-04  0.1762966E+04  0.7818609E-02  0.8726246E-01
        1   -1    0    0  501    0  0.00000000000E+00  0.00000000000E+00  0.70393878761E+03  0.70393878762E+03  0.50400001928E-02 0.  1.
       -1   -1    0    0    0  501  0.00000000000E+00  0.00000000000E+00 -0.11038062157E+04  0.11038062157E+04  0.50400001928E-02 0. -1.
    10030    2    1    2    0    0  0.00000000000E+00  0.00000000000E+00 -0.39986742811E+03  0.18077450034E+04  0.17629656937E+04 0.  0.
        4    1    3    3  502    0 -0.19580562445E+03  0.25482117687E+03 -0.10415970673E+04  0.10900457505E+04  0.12699999809E+01 0. -1.
       -4    1    3    3    0  502  0.19580562445E+03 -0.25482117687E+03  0.64172963920E+03  0.71769925281E+03  0.12699999809E+01 0.  1.
</event>
<event>
 5   0  0.1214723E-04  0.1793749E+04  0.7818609E-02  0.8709631E-01
       -1   -1    0    0    0  501  0.00000000000E+00  0.00000000000E+00  0.70441068718E+03  0.70441068719E+03  0.50400001928E-02 0. -1.
        1   -1    0    0  501    0  0.00000000000E+00  0.00000000000E+00 -0.11419240269E+04  0.11419240269E+04  0.50400001928E-02 0.  1.
    10030    2    1    2    0    0  0.00000000000E+00  0.00000000000E+00 -0.43751333968E+03  0.18463347141E+04  0.17937485760E+04 0.  0.
        1    1    3    3  502    0 -0.48143696537E+03 -0.12387620888E+03 -0.98713743523E+03  0.11052453044E+04  0.50400001928E-02 0.  1.
       -1    1    3    3    0  502  0.48143696537E+03  0.12387620888E+03  0.54962409555E+03  0.74108940971E+03  0.50400001928E-02 0. -1.
</event>
<event>
 5   0  0.1330225E-04  0.1829053E+04  0.7818609E-02  0.8691000E-01
        1   -1    0    0  501    0  0.00000000000E+00  0.00000000000E+00  0.22495876208E+04  0.22495876208E+04  0.50400001928E-02 0.  1.
       -1   -1    0    0    0  501  0.00000000000E+00  0.00000000000E+00 -0.37178327081E+03  0.37178327085E+03  0.50400001928E-02 0. -1.
    10030    2    1    2    0    0  0.00000000000E+00  0.00000000000E+00  0.18778043499E+04  0.26213708916E+04  0.18290533548E+04 0.  0.
        3    1    3    3  502    0  0.35035982656E+03 -0.58490197216E+03  0.18124357121E+04  0.19364363005E+04  0.10100000352E+00 0.  1.
       -3    1    3    3    0  502 -0.35035982656E+03  0.58490197216E+03  0.65368637831E+02  0.68493459112E+03  0.10100000352E+00 0. -1.
</event>
<event>
 5   0  0.2417106E-04  0.1802917E+04  0.7818609E-02  0.8704750E-01
        2   -1    0    0  501    0  0.00000000000E+00  0.00000000000E+00  0.10511331735E+04  0.10511331735E+04  0.25500000920E-02 0. -1.
       -2   -1    0    0    0  501  0.00000000000E+00  0.00000000000E+00 -0.77309613213E+03  0.77309613213E+03  0.25500000920E-02 0.  1.
    10030    2    1    2    0    0  0.00000000000E+00  0.00000000000E+00  0.27803704136E+03  0.18242293056E+04  0.18029165158E+04 0.  0.
        4    1    3    3  502    0  0.67185561599E+03 -0.15761329650E+03  0.72586915949E+03  0.10015585702E+04  0.12699999809E+01 0. -1.
       -4    1    3    3    0  502 -0.67185561599E+03  0.15761329650E+03 -0.44783211813E+03  0.82267073541E+03  0.12699999809E+01 0.  1.
</event>
<event>
 5   0  0.2417106E-04  0.1799416E+04  0.7818609E-02  0.8706610E-01
        2   -1    0    0  501    0  0.00000000000E+00  0.00000000000E+00  0.17280326300E+04  0.17280326300E+04  0.25500000920E-02 0. -1.
       -2   -1    0    0    0  501  0.00000000000E+00  0.00000000000E+00 -0.46843716376E+03  0.46843716377E+03  0.25500000920E-02 0.  1.
    10030    2    1    2    0    0  0.00000000000E+00  0.00000000000E+00  0.12595954663E+04  0.21964697938E+04  0.17994162432E+04 0.  0.
        4    1    3    3  502    0 -0.73632661341E+02  0.53318758265E+03 -0.25022926605E+03  0.59357144945E+03  0.12699999809E+01 0.  1.
       -4    1    3    3    0  502  0.73632661341E+02 -0.53318758265E+03  0.15098247323E+04  0.16028983443E+04  0.12699999809E+01 0. -1.
</event>
<event>
 5   0  0.9144875E-05  0.1777444E+04  0.7818609E-02  0.8718388E-01
        4   -1    0    0  501    0  0.00000000000E+00  0.00000000000E+00  0.71737703495E+03  0.71737815911E+03  0.12699999809E+01 0. -1.
       -4   -1    0    0    0  501  0.00000000000E+00  0.00000000000E+00 -0.11009896328E+04  0.11009903652E+04  0.12699999809E+01 0.  1.
    10030    2    1    2    0    0  0.00000000000E+00  0.00000000000E+00 -0.38361259782E+03  0.18183685244E+04  0.17774435195E+04 0.  0.
        4    1    3    3  502    0  0.83570030844E+03  0.20757380610E+03  0.33126236617E+02  0.86173131019E+03  0.12699999809E+01 0. -1.
       -4    1    3    3    0  502 -0.83570030844E+03 -0.20757380610E+03 -0.41673883444E+03  0.95663721417E+03  0.12699999809E+01 0.  1.
</event>
<event>
 5   0  0.1330225E-04  0.1611988E+04  0.7818609E-02  0.8813217E-01
       -1   -1    0    0    0  501  0.00000000000E+00  0.00000000000E+00  0.13468524398E+04  0.13468524399E+04  0.50400001928E-02 0.  1.
        1   -1    0    0  501    0  0.00000000000E+00  0.00000000000E+00 -0.48232914448E+03  0.48232914451E+03  0.50400001928E-02 0. -1.
    10030    2    1    2    0    0  0.00000000000E+00  0.00000000000E+00  0.86452329536E+03  0.18291815844E+04  0.16119878226E+04 0.  0.
        3    1    3    3  502    0  0.88330079606E+02  0.39472660466E+03 -0.35881733513E+03  0.54070434211E+03  0.10100000352E+00 0. -1.
       -3    1    3    3    0  502 -0.88330079606E+02 -0.39472660466E+03  0.12233406305E+04  0.12884772423E+04  0.10100000352E+00 0.  1.
</event>
<event>
 5   0  0.1239119E-04  0.1761068E+04  0.7818609E-02  0.8727282E-01
       -1   -1    0    0    0  501  0.00000000000E+00  0.00000000000E+00  0.11880101443E+04  0.11880101443E+04  0.50400001928E-02 0. -1.
        1   -1    0    0  501    0  0.00000000000E+00  0.00000000000E+00 -0.65263750356E+03  0.65263750358E+03  0.50400001928E-02 0.  1.
    10030    2    1    2    0    0  0.00000000000E+00  0.00000000000E+00  0.53537264076E+03  0.18406476479E+04  0.17610678293E+04 0.  0.
        5    1    3    3  502    0 -0.56945686886E+03 -0.67149295790E+03  0.27978375244E+03  0.92384249530E+03  0.46999998093E+01 0.  1.
       -5    1    3    3    0  502  0.56945686886E+03  0.67149295790E+03  0.25558888833E+03  0.91680515260E+03  0.46999998093E+01 0. -1.
</event>
<event>
 5   0  0.2569405E-04  0.1760606E+04  0.7818609E-02  0.8727534E-01
        2   -1    0    0  501    0  0.00000000000E+00  0.00000000000E+00  0.18135448875E+04  0.18135448875E+04  0.25500000920E-02 0. -1.
       -2   -1    0    0    0  501  0.00000000000E+00  0.00000000000E+00 -0.42730296023E+03  0.42730296024E+03  0.25500000920E-02 0.  1.
    10030    2    1    2    0    0  0.00000000000E+00  0.00000000000E+00  0.13862419273E+04  0.22408478478E+04  0.17606056901E+04 0.  0.
        2    1    3    3  502    0  0.73953360301E+03 -0.45056857633E+03  0.89440842626E+03  0.12449451494E+04  0.25500000920E-02 0. -1.
       -2    1    3    3    0  502 -0.73953360301E+03  0.45056857633E+03  0.49183350106E+03  0.99590269842E+03  0.25500000920E-02 0.  1.
</event>
<event>
 5   0  0.2431811E-04  0.1802433E+04  0.7818609E-02  0.8705007E-01
        2   -1    0    0  501    0  0.00000000000E+00  0.00000000000E+00  0.17994107468E+04  0.17994107468E+04  0.25500000920E-02 0. -1.
       -2   -1    0    0    0  501  0.00000000000E+00  0.00000000000E+00 -0.45136493989E+03  0.45136493990E+03  0.25500000920E-02 0.  1.
    10030    2    1    2    0    0  0.00000000000E+00  0.00000000000E+00  0.13480458069E+04  0.22507756867E+04  0.18024327156E+04 0.  0.
        3    1    3    3  502    0  0.37612638686E+03  0.11465685165E+03  0.16866402394E+04  0.17318696717E+04  0.10100000352E+00 0. -1.
       -3    1    3    3    0  502 -0.37612638686E+03 -0.11465685165E+03 -0.33859443245E+03  0.51890601501E+03  0.10100000352E+00 0.  1.
</event>
<event>
 5   0  0.2550616E-04  0.1797948E+04  0.7818609E-02  0.8707391E-01
       -2   -1    0    0    0  501  0.00000000000E+00  0.00000000000E+00  0.71496158199E+03  0.71496158199E+03  0.25500000920E-02 0.  1.
        2   -1    0    0  501    0  0.00000000000E+00  0.00000000000E+00 -0.11303465428E+04  0.11303465428E+04  0.25500000920E-02 0. -1.
    10030    2    1    2    0    0  0.00000000000E+00  0.00000000000E+00 -0.41538496084E+03  0.18453081248E+04  0.17979481110E+04 0.  0.
        1    1    3    3  502    0 -0.57533340600E+03 -0.68972744580E+03 -0.24639350224E+03  0.93136579040E+03  0.50400001928E-02 0. -1.
       -1    1    3    3    0  502  0.57533340600E+03  0.68972744580E+03 -0.16899145860E+03  0.91394233443E+03  0.50400001928E-02 0.  1.
</event>
<event>
 5   0  0.2569405E-04  0.1803526E+04  0.7818609E-02  0.8704426E-01
       -2   -1    0    0    0  501  0.00000000000E+00  0.00000000000E+00  0.88968863049E+03  0.88968863050E+03  0.25500000920E-02 0. -1.
        2   -1    0    0  501    0  0.00000000000E+00  0.00000000000E+00 -0.91400162914E+03  0.91400162914E+03  0.25500000920E-02 0.  1.
    10030    2    1    2    0    0  0.00000000000E+00  0.00000000000E+00 -0.24312998647E+02  0.18036902596E+04  0.18035263876E+04 0.  0.
        2    1    3    3  502    0  0.21919047357E+03  0.28415203587E+03  0.81519734895E+03  0.89069274216E+03  0.25500000920E-02 0. -1.
       -2    1    3    3    0  502 -0.21919047357E+03 -0.28415203587E+03 -0.83951034760E+03  0.91299751748E+03  0.25500000920E-02 0.  1.
</event>
<event>
 5   0  0.2431811E-04  0.1794754E+04  0.7818609E-02  0.8709094E-01
       -2   -1    0    0    0  501  0.00000000000E+00  0.00000000000E+00  0.92307569885E+03  0.92307569885E+03  0.25500000920E-02 0. -1.
        2   -1    0    0  501    0  0.00000000000E+00  0.00000000000E+00 -0.87239409097E+03  0.87239409097E+03  0.25500000920E-02 0.  1.
    10030    2    1    2    0    0  0.00000000000E+00  0.00000000000E+00  0.50681607879E+02  0.17954697898E+04  0.17947543400E+04 0.  0.
        3    1    3    3  502    0  0.35464803961E+03  0.79594383970E+03  0.23986496543E+03  0.90379037381E+03  0.10100000352E+00 0.  1.
       -3    1    3    3    0  502 -0.35464803961E+03 -0.79594383970E+03 -0.18918335755E+03  0.89167941601E+03  0.10100000352E+00 0. -1.
</event>
<event>
 5   0  0.1330225E-04  0.1816095E+04  0.7818609E-02  0.8697787E-01
       -1   -1    0    0    0  501  0.00000000000E+00  0.00000000000E+00  0.40475438344E+03  0.40475438347E+03  0.50400001928E-02 0.  1.
        1   -1    0    0  501    0  0.00000000000E+00  0.00000000000E+00 -0.20371620609E+04  0.20371620609E+04  0.50400001928E-02 0. -1.
    10030    2    1    2    0    0  0.00000000000E+00  0.00000000000E+00 -0.16324076775E+04  0.24419164444E+04  0.18160950129E+04 0.  0.
        3    1    3    3  502    0  0.51568118046E+03  0.57269798002E+03 -0.14619468934E+04  0.16526338934E+04  0.10100000352E+00 0. -1.
       -3    1    3    3    0  502 -0.51568118046E+03 -0.57269798002E+03 -0.17046078404E+03  0.78928255099E+03  0.10100000352E+00 0.  1.
</event>
<event>
 5   0  0.2393421E-04  0.1817672E+04  0.7818609E-02  0.8696958E-01
        2   -1    0    0  501    0  0.00000000000E+00  0.00000000000E+00  0.67450881507E+03  0.67450881507E+03  0.25500000920E-02 0.  1.
       -2   -1    0    0    0  501  0.00000000000E+00  0.00000000000E+00 -0.12245690934E+04  0.12245690934E+04  0.25500000920E-02 0. -1.
    10030    2    1    2    0    0  0.00000000000E+00  0.00000000000E+00 -0.55006027836E+03  0.18990779085E+04  0.18176717506E+04 0.  0.
        5    1    3    3  502    0 -0.80150016710E+03  0.18683153875E+03  0.12779143889E+03  0.83286330426E+03  0.46999998093E+01 0.  1.
       -5    1    3    3    0  502  0.80150016710E+03 -0.18683153875E+03 -0.67785171725E+03  0.10662146042E+04  0.46999998093E+01 0. -1.
</event>
<event>
 5   0  0.1239119E-04  0.1814072E+04  0.7818609E-02  0.8698852E-01
        1   -1    0    0  501    0  0.00000000000E+00  0.00000000000E+00  0.84492811311E+03  0.84492811313E+03  0.50400001928E-02 0.  1.
       -1   -1    0    0    0  501  0.00000000000E+00  0.00000000000E+00 -0.97370911300E+03  0.97370911302E+03  0.50400001928E-02 0. -1.
    10030    2    1    2    0    0  0.00000000000E+00  0.00000000000E+00 -0.12878099989E+03  0.18186372261E+04  0.18140718879E+04 0.  0.
        5    1    3    3  502    0  0.88513320634E+03 -0.17562123903E+03 -0.15620975487E+03  0.91582050102E+03  0.46999998093E+01 0. -1.
       -5    1    3    3    0  502 -0.88513320634E+03  0.17562123903E+03  0.27428754981E+02  0.90281672513E+03  0.46999998093E+01 0.  1.
</event>
<event>
 5   0  0.1330225E-04  0.1849062E+04  0.7818609E-02  0.8680635E-01
        1   -1    0    0  501    0  0.00000000000E+00  0.00000000000E+00  0.65833505162E+03  0.65833505164E+03  0.50400001928E-02 0.  1.
       -1   -1    0    0    0  501  0.00000000000E+00  0.00000000000E+00 -0.12983626012E+04  0.12983626012E+04  0.50400001928E-02 0. -1.
    10030    2    1    2    0    0  0.00000000000E+00  0.00000000000E+00 -0.64002754960E+03  0.19566976529E+04  0.18490620434E+04 0.  0.
        3    1    3    3  502    0  0.66347352191E+03  0.21402159708E+03  0.32258714294E+03  0.76815677650E+03  0.10100000352E+00 0.  1.
       -3    1    3    3    0  502 -0.66347352191E+03 -0.21402159708E+03 -0.96261469254E+03  0.11885408764E+04  0.10100000352E+00 0. -1.
</event>
<event>
 5   0  0.2431811E-04  0.1773345E+04  0.7818609E-02  0.8720604E-01
       -2   -1    0    0    0  501  0.00000000000E+00  0.00000000000E+00  0.50241903449E+03  0.50241903450E+03  0.25500000920E-02 0. -1.
        2   -1    0    0  501    0  0.00000000000E+00  0.00000000000E+00 -0.15648061156E+04  0.15648061156E+04  0.25500000920E-02 0.  1.
    10030    2    1    2    0    0  0.00000000000E+00  0.00000000000E+00 -0.10623870811E+04  0.20672251501E+04  0.17733452882E+04 0.  0.
        3    1    3    3  502    0  0.78754505590E+03  0.87322569090E+02 -0.67336447945E+02  0.79522742255E+03  0.10100000352E+00 0. -1.
       -3    1    3    3    0  502 -0.78754505590E+03 -0.87322569090E+02 -0.99505063320E+03  0.12719977276E+04  0.10100000352E+00 0.  1.
</event>
<event>
 5   0  0.1214723E-04  0.1811350E+04  0.7818609E-02  0.8700287E-01
       -1   -1    0    0    0  501  0.00000000000E+00  0.00000000000E+00  0.55553734992E+03  0.55553734994E+03  0.50400001928E-02 0. -1.
        1   -1    0    0  501    0  0.00000000000E+00  0.00000000000E+00 -0.14764932626E+04  0.14764932626E+04  0.50400001928E-02 0.  1.
    10030    2    1    2    0    0  0.00000000000E+00  0.00000000000E+00 -0.92095591271E+03  0.20320306126E+04  0.18113499434E+04 0.  0.
        1    1    3    3  502    0 -0.26180036009E+03  0.84718042869E+03 -0.25364347966E+03  0.92227388671E+03  0.50400001928E-02 0. -1.
       -1    1    3    3    0  502  0.26180036009E+03 -0.84718042869E+03 -0.66731243304E+03  0.11097567259E+04  0.50400001928E-02 0.  1.
</event>
<event>
 5   0  0.1330225E-04  0.1808975E+04  0.7818609E-02  0.8701541E-01
        1   -1    0    0  501    0  0.00000000000E+00  0.00000000000E+00  0.67192018495E+03  0.67192018497E+03  0.50400001928E-02 0.  1.
       -1   -1    0    0    0  501  0.00000000000E+00  0.00000000000E+00 -0.12175524160E+04  0.12175524160E+04  0.50400001928E-02 0. -1.
    10030    2    1    2    0    0  0.00000000000E+00  0.00000000000E+00 -0.54563223101E+03  0.18894726009E+04  0.18089754499E+04 0.  0.
        3    1    3    3  502    0 -0.80560116070E+03  0.99237352428E+02 -0.68964408512E+03  0.10651057490E+04  0.10100000352E+00 0. -1.
       -3    1    3    3    0  502  0.80560116070E+03 -0.99237352428E+02  0.14401185411E+03  0.82436685193E+03  0.10100000352E+00 0.  1.
</event>
<event>
 5   0  0.1253925E-04  0.1797975E+04  0.7818609E-02  0.8707377E-01
       -1   -1    0    0    0  501  0.00000000000E+00  0.00000000000E+00  0.10321805529E+04  0.10321805530E+04  0.50400001928E-02 0. -1.
        1   -1    0    0  501    0  0.00000000000E+00  0.00000000000E+00 -0.78298196417E+03  0.78298196418E+03  0.50400001928E-02 0.  1.
    10030    2    1    2    0    0  0.00000000000E+00  0.00000000000E+00  0.24919858878E+03  0.18151625171E+04  0.17979752576E+04 0.  0.
        2    1    3    3  502    0 -0.47080351152E+03 -0.27168391683E+03 -0.59828364847E+03  0.80833867973E+03  0.25500000920E-02 0.  1.
       -2    1    3    3    0  502  0.47080351152E+03  0.27168391683E+03  0.84748223725E+03  0.10068238374E+04  0.25500000920E-02 0. -1.
</event>
<event>
 5   0  0.1239119E-04  0.1799362E+04  0.7818609E-02  0.8706639E-01
        1   -1    0    0  501    0  0.00000000000E+00  0.00000000000E+00  0.13975832745E+04  0.13975832745E+04  0.50400001928E-02 0.  1.
       -1   -1    0    0    0  501  0.00000000000E+00  0.00000000000E+00 -0.57916115742E+03  0.57916115744E+03  0.50400001928E-02 0. -1.
    10030    2    1    2    0    0  0.00000000000E+00  0.00000000000E+00  0.81842211707E+03  0.19767444319E+04  0.17993620501E+04 0.  0.
        5    1    3    3  502    0  0.54066288138E+03  0.59969931710E+03  0.84512510678E+03  0.11688516409E+04  0.46999998093E+01 0.  1.
       -5    1    3    3    0  502 -0.54066288138E+03 -0.59969931710E+03 -0.26702989711E+02  0.80789279109E+03  0.46999998093E+01 0. -1.
</event>
<event>
 5   0  0.2417106E-04  0.1595022E+04  0.7818609E-02  0.8823612E-01
        2   -1    0    0  501    0  0.00000000000E+00  0.00000000000E+00  0.21018729071E+04  0.21018729071E+04  0.25500000920E-02 0. -1.
       -2   -1    0    0    0  501  0.00000000000E+00  0.00000000000E+00 -0.30259860727E+03  0.30259860728E+03  0.25500000920E-02 0.  1.
    10030    2    1    2    0    0  0.00000000000E+00  0.00000000000E+00  0.17992742998E+04  0.24044715144E+04  0.15950220241E+04 0.  0.
        4    1    3    3  502    0  0.68145239217E+03  0.29690273082E+03  0.46404548173E+03  0.87628101450E+03  0.12699999809E+01 0. -1.
       -4    1    3    3    0  502 -0.68145239217E+03 -0.29690273082E+03  0.13352288181E+04  0.15281904999E+04  0.12699999809E+01 0.  1.
</event>
<event>
 5   0  0.2550616E-04  0.1751964E+04  0.7818609E-02  0.8732270E-01
       -2   -1    0    0    0  501  0.00000000000E+00  0.00000000000E+00  0.46765463907E+03  0.46765463908E+03  0.25500000920E-02 0. -1.
        2   -1    0    0  501    0  0.00000000000E+00  0.00000000000E+00 -0.16408351172E+04  0.16408351172E+04  0.25500000920E-02 0.  1.
    10030    2    1    2    0    0  0.00000000000E+00  0.00000000000E+00 -0.11731804782E+04  0.21084897563E+04  0.17519636464E+04 0.  0.
        1    1    3    3  502    0 -0.23896279706E+03 -0.29327310790E+03  0.36427584435E+03  0.52517542307E+03  0.50400001928E-02 0. -1.
       -1    1    3    3    0  502  0.23896279706E+03  0.29327310790E+03 -0.15374563225E+04  0.15833143332E+04  0.50400001928E-02 0.  1.
</event>
<event>
 5   0  0.1308893E-04  0.1802137E+04  0.7818609E-02  0.8705164E-01
       -1   -1    0    0    0  501  0.00000000000E+00  0.00000000000E+00  0.71507841385E+03  0.71507841387E+03  0.50400001928E-02 0.  1.
        1   -1    0    0  501    0  0.00000000000E+00  0.00000000000E+00 -0.11354345775E+04  0.11354345776E+04  0.50400001928E-02 0. -1.
    10030    2    1    2    0    0  0.00000000000E+00  0.00000000000E+00 -0.42035616370E+03  0.18505129914E+04  0.18021373497E+04 0.  0.
        4    1    3    3  502    0 -0.81457220687E+03 -0.38481363521E+03 -0.19199019881E+03  0.92112499878E+03  0.12699999809E+01 0. -1.
       -4    1    3    3    0  502  0.81457220687E+03  0.38481363521E+03 -0.22836596489E+03  0.92938799264E+03  0.12699999809E+01 0.  1.
</event>
<event>
 5   0  0.2569405E-04  0.1806548E+04  0.7818609E-02  0.8702825E-01
        2   -1    0    0  501    0  0.00000000000E+00  0.00000000000E+00  0.12968299991E+04  0.12968299991E+04  0.25500000920E-02 0.  1.
       -2   -1    0    0    0  501  0.00000000000E+00  0.00000000000E+00 -0.62915256385E+03  0.62915256385E+03  0.25500000920E-02 0. -1.
    10030    2    1    2    0    0  0.00000000000E+00  0.00000000000E+00  0.66767743524E+03  0.19259825629E+04  0.18065479997E+04 0.  0.
        2    1    3    3  502    0 -0.13379828343E+03  0.30061808970E+03  0.12306605649E+04  0.12738911423E+04  0.25500000920E-02 0.  1.
       -2    1    3    3    0  502  0.13379828343E+03 -0.30061808970E+03 -0.56298312968E+03  0.65209142059E+03  0.25500000920E-02 0. -1.
</event>
<event>
 5   0  0.1239119E-04  0.1809116E+04  0.7818609E-02  0.8701467E-01
       -1   -1    0    0    0  501  0.00000000000E+00  0.00000000000E+00  0.13585844537E+04  0.13585844537E+04  0.50400001928E-02 0. -1.
        1   -1    0    0  501    0  0.00000000000E+00  0.00000000000E+00 -0.60226284935E+03  0.60226284938E+03  0.50400001928E-02 0.  1.
    10030    2    1    2    0    0  0.00000000000E+00  0.00000000000E+00  0.75632160434E+03  0.19608473031E+04  0.18091157444E+04 0.  0.
        5    1    3    3  502    0  0.24871021425E+03 -0.67107581298E+03 -0.22141003809E+03  0.74916220700E+03  0.46999998093E+01 0.  1.
       -5    1    3    3    0  502 -0.24871021425E+03  0.67107581298E+03  0.97773164244E+03  0.12116850961E+04  0.46999998093E+01 0. -1.
</event>
<event>
 5   0  0.2569405E-04  0.1800992E+04  0.7818609E-02  0.8705772E-01
       -2   -1    0    0    0  501  0.00000000000E+00  0.00000000000E+00  0.66548056801E+03  0.66548056802E+03  0.25500000920E-02 0. -1.
        2   -1    0    0  501    0  0.00000000000E+00  0.00000000000E+00 -0.12185076058E+04  0.12185076058E+04  0.25500000920E-02 0.  1.
    10030    2    1    2    0    0  0.00000000000E+00  0.00000000000E+00 -0.55302703782E+03  0.18839881739E+04  0.18009920973E+04 0.  0.
        2    1    3    3  502    0  0.82051447808E+03  0.36118256118E+03 -0.36525373142E+03  0.96804294304E+03  0.25500000920E-02 0.  1.
       -2    1    3    3    0  502 -0.82051447808E+03 -0.36118256118E+03 -0.18777330640E+03  0.91594523081E+03  0.25500000920E-02 0. -1.
</event>
<event>
 5   0  0.1308893E-04  0.1766932E+04  0.7818609E-02  0.8724085E-01
       -1   -1    0    0    0  501  0.00000000000E+00  0.00000000000E+00  0.40600312711E+03  0.40600312714E+03  0.50400001928E-02 0. -1.
        1   -1    0    0  501    0  0.00000000000E+00  0.00000000000E+00 -0.19224296524E+04  0.19224296524E+04  0.50400001928E-02 0.  1.
    10030    2    1    2    0    0  0.00000000000E+00  0.00000000000E+00 -0.15164265253E+04  0.23284327796E+04  0.17669323140E+04 0.  0.
        4    1    3    3  502    0 -0.20429068673E+03  0.46865962569E+03  0.19126200595E+03  0.54585648046E+03  0.12699999809E+01 0. -1.
       -4    1    3    3    0  502  0.20429068673E+03 -0.46865962569E+03 -0.17076885313E+04  0.17825762991E+04  0.12699999809E+01 0.  1.
</event>
<event>
 5   0  0.1253925E-04  0.1800897E+04  0.7818609E-02  0.8705822E-01
        1   -1    0    0  501    0  0.00000000000E+00  0.00000000000E+00  0.56401473035E+03  0.56401473037E+03  0.50400001928E-02 0.  1.
       -1   -1    0    0    0  501  0.00000000000E+00  0.00000000000E+00 -0.14375647191E+04  0.14375647191E+04  0.50400001928E-02 0. -1.
    10030    2    1    2    0    0  0.00000000000E+00  0.00000000000E+00 -0.87354998874E+03  0.20015794495E+04  0.18008971958E+04 0.  0.
        2    1    3    3  502    0  0.64698031228E+03  0.40140090092E+03  0.97525117689E+02  0.76760494808E+03  0.25500000920E-02 0.  1.
       -2    1    3    3    0  502 -0.64698031228E+03 -0.40140090092E+03 -0.97107510643E+03  0.12339745014E+04  0.25500000920E-02 0. -1.
</event>
<event>
 5   0  0.1253925E-04  0.1778119E+04  0.7818609E-02  0.8718023E-01
       -1   -1    0    0    0  501  0.00000000000E+00  0.00000000000E+00  0.10082528126E+04  0.10082528126E+04  0.50400001928E-02 0.  1.
        1   -1    0    0  501    0  0.00000000000E+00  0.00000000000E+00 -0.78395730960E+03  0.78395730961E+03  0.50400001928E-02 0. -1.
    10030    2    1    2    0    0  0.00000000000E+00  0.00000000000E+00  0.22429550296E+03  0.17922101222E+04  0.17781194137E+04 0.  0.
        2    1    3    3  502    0  0.51917314097E+03  0.51707780242E+03 -0.39534694718E+03  0.83259198454E+03  0.25500000920E-02 0. -1.
       -2    1    3    3    0  502 -0.51917314097E+03 -0.51707780242E+03  0.61964245015E+03  0.95961813764E+03  0.25500000920E-02 0.  1.
</event>
<event>
 5   0  0.2417106E-04  0.1799689E+04  0.7818609E-02  0.8706465E-01
       -2   -1    0    0    0  501  0.00000000000E+00  0.00000000000E+00  0.78370568805E+03  0.78370568806E+03  0.25500000920E-02 0. -1.
        2   -1    0    0  501    0  0.00000000000E+00  0.00000000000E+00 -0.10331936007E+04  0.10331936007E+04  0.25500000920E-02 0.  1.
    10030    2    1    2    0    0  0.00000000000E+00  0.00000000000E+00 -0.24948791268E+03  0.18168992888E+04  0.17996885306E+04 0.  0.
        4    1    3    3  502    0 -0.30152767781E+03 -0.72189276598E+03  0.32410877085E+03  0.84681533660E+03  0.12699999809E+01 0.  1.
       -4    1    3    3    0  502  0.30152767781E+03  0.72189276598E+03 -0.57359668353E+03  0.97008395220E+03  0.12699999809E+01 0. -1.
</event>
<event>
 5   0  0.1239119E-04  0.1806089E+04  0.7818609E-02  0.8703068E-01
       -1   -1    0    0    0  501  0.00000000000E+00  0.00000000000E+00  0.12125141121E+04  0.12125141121E+04  0.50400001928E-02 0. -1.
        1   -1    0    0  501    0  0.00000000000E+00  0.00000000000E+00 -0.67256079197E+03  0.67256079199E+03  0.50400001928E-02 0.  1.
    10030    2    1    2    0    0  0.00000000000E+00  0.00000000000E+00  0.53995332014E+03  0.18850749041E+04  0.18060890914E+04 0.  0.
        5    1    3    3  502    0 -0.35468238244E+02  0.88039969435E+03  0.63576648357E+02  0.88341705776E+03  0.46999998093E+01 0.  1.
       -5    1    3    3    0  502  0.35468238244E+02 -0.88039969435E+03  0.47637667178E+03  0.10016578463E+04  0.46999998093E+01 0. -1.
</event>
<event>
 5   0  0.2393421E-04  0.1781785E+04  0.7818609E-02  0.8716046E-01
        2   -1    0    0  501    0  0.00000000000E+00  0.00000000000E+00  0.17065756243E+04  0.17065756243E+04  0.25500000920E-02 0. -1.
       -2   -1    0    0    0  501  0.00000000000E+00  0.00000000000E+00 -0.46507747411E+03  0.46507747412E+03  0.25500000920E-02 0.  1.
    10030    2    1    2    0    0  0.00000000000E+00  0.00000000000E+00  0.12414981501E+04  0.21716530984E+04  0.17817854873E+04 0.  0.
        5    1    3    3  502    0 -0.82826953493E+02  0.65492672346E+03  0.13498754740E+04  0.15026560493E+04  0.46999998093E+01 0. -1.
       -5    1    3    3    0  502  0.82826953493E+02 -0.65492672346E+03 -0.10837732382E+03  0.66899704906E+03  0.46999998093E+01 0.  1.
</event>
<event>
 5   0  0.2393421E-04  0.1806845E+04  0.7818609E-02  0.8702668E-01
       -2   -1    0    0    0  501  0.00000000000E+00  0.00000000000E+00  0.83681084027E+03  0.83681084028E+03  0.25500000920E-02 0. -1.
        2   -1    0    0  501    0  0.00000000000E+00  0.00000000000E+00 -0.97533642471E+03  0.97533642471E+03  0.25500000920E-02 0.  1.
    10030    2    1    2    0    0  0.00000000000E+00  0.00000000000E+00 -0.13852558444E+03  0.18121472650E+04  0.18068448667E+04 0.  0.
        5    1    3    3  502    0  0.54913812655E+03  0.45369299760E+03  0.48802961653E+03  0.86347264850E+03  0.46999998093E+01 0. -1.
       -5    1    3    3    0  502 -0.54913812655E+03 -0.45369299760E+03 -0.62655520097E+03  0.94867461648E+03  0.46999998093E+01 0.  1.
</event>
<event>
 5   0  0.2417106E-04  0.1808640E+04  0.7818609E-02  0.8701718E-01
       -2   -1    0    0    0  501  0.00000000000E+00  0.00000000000E+00  0.48873180627E+03  0.48873180628E+03  0.25500000920E-02 0.  1.
        2   -1    0    0  501    0  0.00000000000E+00  0.00000000000E+00 -0.16732996263E+04  0.16732996263E+04  0.25500000920E-02 0. -1.
    10030    2    1    2    0    0  0.00000000000E+00  0.00000000000E+00 -0.11845678201E+04  0.21620314326E+04  0.18086400956E+04 0.  0.
        4    1    3    3  502    0 -0.47559261801E+03 -0.46523475167E+03  0.13989790239E+03  0.67985641753E+03  0.12699999809E+01 0. -1.
       -4    1    3    3    0  502  0.47559261801E+03  0.46523475167E+03 -0.13244657225E+04  0.14821750151E+04  0.12699999809E+01 0.  1.
</event>
<event>
 5   0  0.1308893E-04  0.1794436E+04  0.7818609E-02  0.8709264E-01
        1   -1    0    0  501    0  0.00000000000E+00  0.00000000000E+00  0.62307268215E+03  0.62307268217E+03  0.50400001928E-02 0. -1.
       -1   -1    0    0    0  501  0.00000000000E+00  0.00000000000E+00 -0.12919843285E+04  0.12919843285E+04  0.50400001928E-02 0.  1.
    10030    2    1    2    0    0  0.00000000000E+00  0.00000000000E+00 -0.66891164633E+03  0.19150570107E+04  0.17944360015E+04 0.  0.
        4    1    3    3  502    0  0.42938441257E+03 -0.75077513360E+03 -0.79740579360E+02  0.86855883386E+03  0.12699999809E+01 0. -1.
       -4    1    3    3    0  502 -0.42938441257E+03  0.75077513360E+03 -0.58917106697E+03  0.10464981768E+04  0.12699999809E+01 0.  1.
</event>
<event>
 5   0  0.1253925E-04  0.1790900E+04  0.7818609E-02  0.8711154E-01
        1   -1    0    0  501    0  0.00000000000E+00  0.00000000000E+00  0.83397665158E+03  0.83397665159E+03  0.50400001928E-02 0.  1.
       -1   -1    0    0    0  501  0.00000000000E+00  0.00000000000E+00 -0.96145466356E+03  0.96145466357E+03  0.50400001928E-02 0. -1.
    10030    2    1    2    0    0  0.00000000000E+00  0.00000000000E+00 -0.12747801198E+03  0.17954313152E+04  0.17909000430E+04 0.  0.
        2    1    3    3  502    0  0.86538322577E+03 -0.10965904850E+03 -0.26653157149E+03  0.91211419952E+03  0.25500000920E-02 0.  1.
       -2    1    3    3    0  502 -0.86538322577E+03  0.10965904850E+03  0.13905355951E+03  0.88331711564E+03  0.25500000920E-02 0. -1.
</event>
<event>
 5   0  0.2569405E-04  0.1726357E+04  0.7818609E-02  0.8746473E-01
       -2   -1    0    0    0  501  0.00000000000E+00  0.00000000000E+00  0.12144873389E+04  0.12144873389E+04  0.25500000920E-02 0.  1.
        2   -1    0    0  501    0  0.00000000000E+00  0.00000000000E+00 -0.61349095337E+03  0.61349095337E+03  0.25500000920E-02 0. -1.
    10030    2    1    2    0    0  0.00000000000E+00  0.00000000000E+00  0.60099638552E+03  0.18279782923E+04  0.17263568523E+04 0.  0.
        2    1    3    3  502    0 -0.24889190141E+03  0.12228981759E+03  0.11660350733E+04  0.11985573705E+04  0.25500000920E-02 0.  1.
       -2    1    3    3    0  502  0.24889190141E+03 -0.12228981759E+03 -0.56503868780E+03  0.62942092179E+03  0.25500000920E-02 0. -1.
</event>
<event>
 5   0  0.1253925E-04  0.1804408E+04  0.7818609E-02  0.8703959E-01
        1   -1    0    0  501    0  0.00000000000E+00  0.00000000000E+00  0.10819571027E+04  0.10819571028E+04  0.50400001928E-02 0. -1.
       -1   -1    0    0    0  501  0.00000000000E+00  0.00000000000E+00 -0.75231429280E+03  0.75231429282E+03  0.50400001928E-02 0.  1.
    10030    2    1    2    0    0  0.00000000000E+00  0.00000000000E+00  0.32964280994E+03  0.18342713956E+04  0.18044077063E+04 0.  0.
        2    1    3    3  502    0 -0.48672219787E+03 -0.88181885011E+02  0.93182687860E+03  0.10549767175E+04  0.25500000920E-02 0. -1.
       -2    1    3    3    0  502  0.48672219787E+03  0.88181885011E+02 -0.60218406867E+03  0.77929467809E+03  0.25500000920E-02 0.  1.
</event>
<event>
 5   0  0.2431811E-04  0.1803657E+04  0.7818609E-02  0.8704357E-01
        2   -1    0    0  501    0  0.00000000000E+00  0.00000000000E+00  0.49135318698E+03  0.49135318699E+03  0.25500000920E-02 0.  1.
       -2   -1    0    0    0  501  0.00000000000E+00  0.00000000000E+00 -0.16552131079E+04  0.16552131079E+04  0.25500000920E-02 0. -1.
    10030    2    1    2    0    0  0.00000000000E+00  0.00000000000E+00 -0.11638599209E+04  0.21465662949E+04  0.18036565479E+04 0.  0.
        3    1    3    3  502    0 -0.79383555637E+03  0.41873616399E+03 -0.68689928330E+03  0.11301971072E+04  0.10100000352E+00 0.  1.
       -3    1    3    3    0  502  0.79383555637E+03 -0.41873616399E+03 -0.47696063760E+03  0.10163691877E+04  0.10100000352E+00 0. -1.
</event>
<event>
 5   0  0.2393421E-04  0.1809160E+04  0.7818609E-02  0.8701443E-01
        2   -1    0    0  501    0  0.00000000000E+00  0.00000000000E+00  0.99833089485E+03  0.99833089485E+03  0.25500000920E-02 0.  1.
       -2   -1    0    0    0  501  0.00000000000E+00  0.00000000000E+00 -0.81963328078E+03  0.81963328078E+03  0.25500000920E-02 0. -1.
    10030    2    1    2    0    0  0.00000000000E+00  0.00000000000E+00  0.17869761407E+03  0.18179641756E+04  0.18091602766E+04 0.  0.
        5    1    3    3  502    0  0.50186464063E+03  0.47050903878E+03 -0.50087330136E+03  0.85096593769E+03  0.46999998093E+01 0. -1.
       -5    1    3    3    0  502 -0.50186464063E+03 -0.47050903878E+03  0.67957091543E+03  0.96699823794E+03  0.46999998093E+01 0.  1.
</event>
<event>
 5   0  0.1239119E-04  0.1791728E+04  0.7818609E-02  0.8710711E-01
       -1   -1    0    0    0  501  0.00000000000E+00  0.00000000000E+00  0.46211237576E+03  0.46211237579E+03  0.50400001928E-02 0.  1.
        1   -1    0    0  501    0  0.00000000000E+00  0.00000000000E+00 -0.17367468656E+04  0.17367468656E+04  0.50400001928E-02 0. -1.
    10030    2    1    2    0    0  0.00000000000E+00  0.00000000000E+00 -0.12746344899E+04  0.21988592414E+04  0.17917279037E+04 0.  0.
        5    1    3    3  502    0 -0.51846459680E+03  0.71559654251E+03 -0.45667615305E+03  0.99471561190E+03  0.46999998093E+01 0.  1.
       -5    1    3    3    0  502  0.51846459680E+03 -0.71559654251E+03 -0.81795833682E+03  0.12041436295E+04  0.46999998093E+01 0. -1.
</event>
<event>
 5   0  0.1330225E-04  0.1892520E+04  0.7818609E-02  0.8658588E-01
        1   -1    0    0  501    0  0.00000000000E+00  0.00000000000E+00  0.11212437307E+04  0.11212437307E+04  0.50400001928E-02 0. -1.
       -1   -1    0    0    0  501  0.00000000000E+00  0.00000000000E+00 -0.79858498564E+03  0.79858498566E+03  0.50400001928E-02 0.  1.
    10030    2    1    2    0    0  0.00000000000E+00  0.00000000000E+00  0.32265874502E+03  0.19198287163E+04  0.18925204449E+04 0.  0.
        3    1    3    3  502    0 -0.15478039586E+03 -0.33952963446E+03 -0.72079927892E+03  0.81165815114E+03  0.10100000352E+00 0.  1.
       -3    1    3    3    0  502  0.15478039586E+03  0.33952963446E+03  0.10434580239E+04  0.11081705652E+04  0.10100000352E+00 0. -1.
</event>
<event>
 5   0  0.2431811E-04  0.1787807E+04  0.7818609E-02  0.8712811E-01
       -2   -1    0    0    0  501  0.00000000000E+00  0.00000000000E+00  0.58096276292E+03  0.58096276292E+03  0.25500000920E-02 0.  1.
        2   -1    0    0  501    0  0.00000000000E+00  0.00000000000E+00 -0.13754122871E+04  0.13754122871E+04  0.25500000920E-02 0. -1.
    10030    2    1    2    0    0  0.00000000000E+00  0.00000000000E+00 -0.79444952414E+03  0.19563750500E+04  0.17878068379E+04 0.  0.
        3    1    3    3  502    0  0.36751508877E+03 -0.79933061150E+03 -0.22397256015E+03  0.90783285073E+03  0.10100000352E+00 0.  1.
       -3    1    3    3    0  502 -0.36751508877E+03  0.79933061150E+03 -0.57047696399E+03  0.10485421992E+04  0.10100000352E+00 0. -1.
</event>
<event>
 5   0  0.2550616E-04  0.1790022E+04  0.7818609E-02  0.8711623E-01
       -2   -1    0    0    0  501  0.00000000000E+00  0.00000000000E+00  0.49542172547E+03  0.49542172548E+03  0.25500000920E-02 0.  1.
        2   -1    0    0  501    0  0.00000000000E+00  0.00000000000E+00 -0.16168954529E+04  0.16168954529E+04  0.25500000920E-02 0. -1.
    10030    2    1    2    0    0  0.00000000000E+00  0.00000000000E+00 -0.11214737275E+04  0.21123171784E+04  0.17900224973E+04 0.  0.
        1    1    3    3  502    0 -0.73596767843E+03  0.50551406172E+03 -0.63397842366E+03  0.10950440776E+04  0.50400001928E-02 0.  1.
       -1    1    3    3    0  502  0.73596767843E+03 -0.50551406172E+03 -0.48749530379E+03  0.10172731008E+04  0.50400001928E-02 0. -1.
</event>
<event>
 5   0  0.2550616E-04  0.1788820E+04  0.7818609E-02  0.8712268E-01
        2   -1    0    0  501    0  0.00000000000E+00  0.00000000000E+00  0.93621337248E+03  0.93621337249E+03  0.25500000920E-02 0.  1.
       -2   -1    0    0    0  501  0.00000000000E+00  0.00000000000E+00 -0.85447282450E+03  0.85447282451E+03  0.25500000920E-02 0. -1.
    10030    2    1    2    0    0  0.00000000000E+00  0.00000000000E+00  0.81740547978E+02  0.17906861970E+04  0.17888195937E+04 0.  0.
        1    1    3    3  502    0 -0.20082513025E+02  0.27147569436E+02 -0.85383447348E+03  0.85450196371E+03  0.50400001928E-02 0. -1.
       -1    1    3    3    0  502  0.20082513025E+02 -0.27147569436E+02  0.93557502146E+03  0.93618423329E+03  0.50400001928E-02 0.  1.
</event>
<event>
 5   0  0.2569405E-04  0.1720460E+04  0.7818609E-02  0.8749781E-01
        2   -1    0    0  501    0  0.00000000000E+00  0.00000000000E+00  0.13641787343E+04  0.13641787343E+04  0.25500000920E-02 0. -1.
       -2   -1    0    0    0  501  0.00000000000E+00  0.00000000000E+00 -0.54244773696E+03  0.54244773696E+03  0.25500000920E-02 0.  1.
    10030    2    1    2    0    0  0.00000000000E+00  0.00000000000E+00  0.82173099730E+03  0.19066264712E+04  0.17204600166E+04 0.  0.
        2    1    3    3  502    0 -0.13870842153E+03  0.60093829273E+03 -0.25371603843E+03  0.66688731134E+03  0.25500000920E-02 0.  1.
       -2    1    3    3    0  502  0.13870842153E+03 -0.60093829273E+03  0.10754470357E+04  0.12397391599E+04  0.25500000920E-02 0. -1.
</event>
<event>
 5   0  0.1214723E-04  0.1803742E+04  0.7818609E-02  0.8704312E-01
       -1   -1    0    0    0  501  0.00000000000E+00  0.00000000000E+00  0.12520384560E+04  0.12520384560E+04  0.50400001928E-02 0.  1.
        1   -1    0    0  501    0  0.00000000000E+00  0.00000000000E+00 -0.64963799380E+03  0.64963799382E+03  0.50400001928E-02 0. -1.
    10030    2    1    2    0    0  0.00000000000E+00  0.00000000000E+00  0.60240046223E+03  0.19016764499E+04  0.18037424991E+04 0.  0.
        1    1    3    3  502    0 -0.79036228352E+02  0.89026439070E+03  0.42839180697E+03  0.99112912935E+03  0.50400001928E-02 0. -1.
       -1    1    3    3    0  502  0.79036228352E+02 -0.89026439070E+03  0.17400865526E+03  0.91054732050E+03  0.50400001928E-02 0.  1.
</event>
<event>
 5   0  0.2550616E-04  0.1797612E+04  0.7818609E-02  0.8707570E-01
        2   -1    0    0  501    0  0.00000000000E+00  0.00000000000E+00  0.79723539664E+03  0.79723539665E+03  0.25500000920E-02 0. -1.
       -2   -1    0    0    0  501  0.00000000000E+00  0.00000000000E+00 -0.10133174259E+04  0.10133174259E+04  0.25500000920E-02 0.  1.
    10030    2    1    2    0    0  0.00000000000E+00  0.00000000000E+00 -0.21608202927E+03  0.18105528226E+04  0.17976123275E+04 0.  0.
        1    1    3    3  502    0 -0.45846434681E+03  0.42604633249E+03  0.54169778146E+03  0.82773275953E+03  0.50400001928E-02 0. -1.
       -1    1    3    3    0  502  0.45846434681E+03 -0.42604633249E+03 -0.75777981073E+03  0.98282006304E+03  0.50400001928E-02 0.  1.
</event>
<event>
 5   0  0.2417106E-04  0.1770289E+04  0.7818609E-02  0.8722261E-01
        2   -1    0    0  501    0  0.00000000000E+00  0.00000000000E+00  0.61563646519E+03  0.61563646519E+03  0.25500000920E-02 0. -1.
       -2   -1    0    0    0  501  0.00000000000E+00  0.00000000000E+00 -0.12726359652E+04  0.12726359652E+04  0.25500000920E-02 0.  1.
    10030    2    1    2    0    0  0.00000000000E+00  0.00000000000E+00 -0.65699950003E+03  0.18882724304E+04  0.17702893629E+04 0.  0.
        4    1    3    3  502    0  0.46473390600E+03  0.73566071302E+03 -0.50149781567E+03  0.10043286116E+04  0.12699999809E+01 0.  1.
       -4    1    3    3    0  502 -0.46473390600E+03 -0.73566071302E+03 -0.15550168436E+03  0.88394381880E+03  0.12699999809E+01 0. -1.
</event>
<event>
 5   0  0.2431811E-04  0.1792026E+04  0.7818609E-02  0.8710552E-01
       -2   -1    0    0    0  501  0.00000000000E+00  0.00000000000E+00  0.34997702903E+03  0.34997702904E+03  0.25500000920E-02 0.  1.
        2   -1    0    0  501    0  0.00000000000E+00  0.00000000000E+00 -0.22939769100E+04  0.22939769100E+04  0.25500000920E-02 0. -1.
    10030    2    1    2    0    0  0.00000000000E+00  0.00000000000E+00 -0.19439998809E+04  0.26439539390E+04  0.17920259190E+04 0.  0.
        3    1    3    3  502    0 -0.31984004480E+03  0.79932883967E+03 -0.60577096501E+03  0.10527025793E+04  0.10100000352E+00 0. -1.
       -3    1    3    3    0  502  0.31984004480E+03 -0.79932883967E+03 -0.13382289159E+04  0.15912513597E+04  0.10100000352E+00 0.  1.
</event>
<event>
 5   0  0.1239119E-04  0.1854600E+04  0.7818609E-02  0.8677791E-01
        1   -1    0    0  501    0  0.00000000000E+00  0.00000000000E+00  0.72467547942E+03  0.72467547944E+03  0.50400001928E-02 0. -1.
       -1   -1    0    0    0  501  0.00000000000E+00  0.00000000000E+00 -0.11865796241E+04  0.11865796241E+04  0.50400001928E-02 0.  1.
    10030    2    1    2    0    0  0.00000000000E+00  0.00000000000E+00 -0.46190414466E+03  0.19112551035E+04  0.18545998576E+04 0.  0.
        5    1    3    3  502    0  0.25729063728E+02  0.71757321164E+03 -0.83563888135E+03  0.11017657323E+04  0.46999998093E+01 0.  1.
       -5    1    3    3    0  502 -0.25729063728E+02 -0.71757321164E+03  0.37373473669E+03  0.80948937126E+03  0.46999998093E+01 0. -1.
</event>
<event>
 5   0  0.9144875E-05  0.1816573E+04  0.7818609E-02  0.8697536E-01
       -4   -1    0    0    0  501  0.00000000000E+00  0.00000000000E+00  0.64773219576E+03  0.64773344079E+03  0.12699999809E+01 0. -1.
        4   -1    0    0  501    0  0.00000000000E+00  0.00000000000E+00 -0.12736471748E+04  0.12736478080E+04  0.12699999809E+01 0.  1.
    10030    2    1    2    0    0  0.00000000000E+00  0.00000000000E+00 -0.62591497906E+03  0.19213812488E+04  0.18165726911E+04 0.  0.
        3    1    3    3  502    0 -0.33409791631E+03 -0.70343755189E+03  0.18149494047E+03  0.79961630218E+03  0.10100000352E+00 0. -1.
       -3    1    3    3    0  502  0.33409791631E+03  0.70343755189E+03 -0.80740991953E+03  0.11217649466E+04  0.10100000352E+00 0.  1.
</event>
<event>
 5   0  0.2550616E-04  0.1822113E+04  0.7818609E-02  0.8694627E-01
        2   -1    0    0  501    0  0.00000000000E+00  0.00000000000E+00  0.22039866975E+04  0.22039866975E+04  0.25500000920E-02 0.  1.
       -2   -1    0    0    0  501  0.00000000000E+00  0.00000000000E+00 -0.37660127672E+03  0.37660127673E+03  0.25500000920E-02 0. -1.
    10030    2    1    2    0    0  0.00000000000E+00  0.00000000000E+00  0.18273854208E+04  0.25805879742E+04  0.18221132832E+04 0.  0.
        1    1    3    3  502    0  0.58356769437E+03  0.14507578003E+03  0.18830051283E+04  0.19766908077E+04  0.50400001928E-02 0.  1.
       -1    1    3    3    0  502 -0.58356769437E+03 -0.14507578003E+03 -0.55619707546E+02  0.60389716654E+03  0.50400001928E-02 0. -1.
</event>
<event>
 5   0  0.2417106E-04  0.1838976E+04  0.7818609E-02  0.8685843E-01
        2   -1    0    0  501    0  0.00000000000E+00  0.00000000000E+00  0.13023627724E+04  0.13023627724E+04  0.25500000920E-02 0.  1.
       -2   -1    0    0    0  501  0.00000000000E+00  0.00000000000E+00 -0.64917237909E+03  0.64917237910E+03  0.25500000920E-02 0. -1.
    10030    2    1    2    0    0  0.00000000000E+00  0.00000000000E+00  0.65319039335E+03  0.19515351515E+04  0.18389757360E+04 0.  0.
        4    1    3    3  502    0 -0.42452426093E+03  0.22374541663E+03 -0.50574175778E+03  0.69717945900E+03  0.12699999809E+01 0. -1.
       -4    1    3    3    0  502  0.42452426093E+03 -0.22374541663E+03  0.11589321511E+04  0.12543556925E+04  0.12699999809E+01 0.  1.
</event>
<event>
 5   0  0.2431811E-04  0.1759454E+04  0.7818609E-02  0.8728163E-01
       -2   -1    0    0    0  501  0.00000000000E+00  0.00000000000E+00  0.11936450355E+04  0.11936450356E+04  0.25500000920E-02 0. -1.
        2   -1    0    0  501    0  0.00000000000E+00  0.00000000000E+00 -0.64836671563E+03  0.64836671563E+03  0.25500000920E-02 0.  1.
    10030    2    1    2    0    0  0.00000000000E+00  0.00000000000E+00  0.54527831992E+03  0.18420117512E+04  0.17594541328E+04 0.  0.
        3    1    3    3  502    0 -0.15629903749E+03 -0.74012051812E+03  0.74283657789E+03  0.10601952472E+04  0.10100000352E+00 0. -1.
       -3    1    3    3    0  502  0.15629903749E+03  0.74012051812E+03 -0.19755825797E+03  0.78181650402E+03  0.10100000352E+00 0.  1.
</event>
<event>
 5   0  0.1214723E-04  0.1810783E+04  0.7818609E-02  0.8700586E-01
        1   -1    0    0  501    0  0.00000000000E+00  0.00000000000E+00  0.83439489185E+03  0.83439489187E+03  0.50400001928E-02 0. -1.
       -1   -1    0    0    0  501  0.00000000000E+00  0.00000000000E+00 -0.98242893052E+03  0.98242893053E+03  0.50400001928E-02 0.  1.
    10030    2    1    2    0    0  0.00000000000E+00  0.00000000000E+00 -0.14803403867E+03  0.18168238224E+04  0.18107829039E+04 0.  0.
        1    1    3    3  502    0  0.58417886523E+03  0.14193976142E+02  0.61985880908E+03  0.85187520140E+03  0.50400001928E-02 0. -1.
       -1    1    3    3    0  502 -0.58417886523E+03 -0.14193976142E+02 -0.76789284775E+03  0.96494862101E+03  0.50400001928E-02 0.  1.
</event>
<event>
 5   0  0.2569405E-04  0.1840659E+04  0.7818609E-02  0.8684971E-01
       -2   -1    0    0    0  501  0.00000000000E+00  0.00000000000E+00  0.64727057417E+03  0.64727057417E+03  0.25500000920E-02 0.  1.
        2   -1    0    0  501    0  0.00000000000E+00  0.00000000000E+00 -0.13085820271E+04  0.13085820271E+04  0.25500000920E-02 0. -1.
    10030    2    1    2    0    0  0.00000000000E+00  0.00000000000E+00 -0.66131145292E+03  0.19558526013E+04  0.18406592732E+04 0.  0.
        2    1    3    3  502    0  0.71568101447E+03 -0.57832663573E+03 -0.31090117584E+03  0.97124690641E+03  0.25500000920E-02 0. -1.
       -2    1    3    3    0  502 -0.71568101447E+03  0.57832663573E+03 -0.35041027708E+03  0.98460569486E+03  0.25500000920E-02 0.  1.
</event>
<event>
 5   0  0.1214723E-04  0.1796704E+04  0.7818609E-02  0.8708054E-01
        1   -1    0    0  501    0  0.00000000000E+00  0.00000000000E+00  0.14862248361E+04  0.14862248361E+04  0.50400001928E-02 0.  1.
       -1   -1    0    0    0  501  0.00000000000E+00  0.00000000000E+00 -0.54301103300E+03  0.54301103302E+03  0.50400001928E-02 0. -1.
    10030    2    1    2    0    0  0.00000000000E+00  0.00000000000E+00  0.94321380314E+03  0.20292358692E+04  0.17967041866E+04 0.  0.
        1    1    3    3  502    0 -0.60749894291E+03  0.12802709191E+03 -0.26172638883E+03  0.67375559703E+03  0.50400001928E-02 0. -1.
       -1    1    3    3    0  502  0.60749894291E+03 -0.12802709191E+03  0.12049401920E+04  0.13554802721E+04  0.50400001928E-02 0.  1.
</event>
<event>
 5   0  0.1253925E-04  0.1729432E+04  0.7818609E-02  0.8744754E-01
        1   -1    0    0  501    0  0.00000000000E+00  0.00000000000E+00  0.32206690859E+03  0.32206690863E+03  0.50400001928E-02 0.  1.
       -1   -1    0    0    0  501  0.00000000000E+00  0.00000000000E+00 -0.23216716254E+04  0.23216716254E+04  0.50400001928E-02 0. -1.
    10030    2    1    2    0    0  0.00000000000E+00  0.00000000000E+00 -0.19996047168E+04  0.26437385340E+04  0.17294318179E+04 0.  0.
        2    1    3    3  502    0 -0.20390575495E+03 -0.53170123301E+03 -0.50475535788E+01  0.56948155008E+03  0.25500000920E-02 0.  1.
       -2    1    3    3    0  502  0.20390575495E+03  0.53170123301E+03 -0.19945571632E+04  0.20742569839E+04  0.25500000920E-02 0. -1.
</event>
<event>
 5   0  0.2393421E-04  0.1791469E+04  0.7818609E-02  0.8710849E-01
        2   -1    0    0  501    0  0.00000000000E+00  0.00000000000E+00  0.72300685871E+03  0.72300685871E+03  0.25500000920E-02 0.  1.
       -2   -1    0    0    0  501  0.00000000000E+00  0.00000000000E+00 -0.11097270157E+04  0.11097270157E+04  0.25500000920E-02 0. -1.
    10030    2    1    2    0    0  0.00000000000E+00  0.00000000000E+00 -0.38672015702E+03  0.18327338744E+04  0.17914689433E+04 0.  0.
        5    1    3    3  502    0 -0.27242538202E+03  0.74344124856E+03  0.23509178811E+03  0.82596048190E+03  0.46999998093E+01 0.  1.
       -5    1    3    3    0  502  0.27242538202E+03 -0.74344124856E+03 -0.62181194513E+03  0.10067733925E+04  0.46999998093E+01 0. -1.
</event>
<event>
 5   0  0.1214723E-04  0.1696691E+04  0.7818609E-02  0.8763254E-01
       -1   -1    0    0    0  501  0.00000000000E+00  0.00000000000E+00  0.12902802608E+04  0.12902802608E+04  0.50400001928E-02 0.  1.
        1   -1    0    0  501    0  0.00000000000E+00  0.00000000000E+00 -0.55777782490E+03  0.55777782492E+03  0.50400001928E-02 0. -1.
    10030    2    1    2    0    0  0.00000000000E+00  0.00000000000E+00  0.73250243588E+03  0.18480580857E+04  0.16966905639E+04 0.  0.
        1    1    3    3  502    0  0.46539318199E+02 -0.71504021707E+03 -0.12840194288E+03  0.72796667446E+03  0.50400001928E-02 0. -1.
       -1    1    3    3    0  502 -0.46539318199E+02  0.71504021707E+03  0.86090437876E+03  0.11200914113E+04  0.50400001928E-02 0.  1.
</event>
<event>
 5   0  0.2417106E-04  0.1789523E+04  0.7818609E-02  0.8711891E-01
        2   -1    0    0  501    0  0.00000000000E+00  0.00000000000E+00  0.20271091135E+04  0.20271091135E+04  0.25500000920E-02 0. -1.
       -2   -1    0    0    0  501  0.00000000000E+00  0.00000000000E+00 -0.39494577390E+03  0.39494577391E+03  0.25500000920E-02 0.  1.
    10030    2    1    2    0    0  0.00000000000E+00  0.00000000000E+00  0.16321633396E+04  0.24220548874E+04  0.17895230399E+04 0.  0.
        4    1    3    3  502    0  0.50858838716E+03 -0.61425118214E+03  0.13652443890E+04  0.15810947210E+04  0.12699999809E+01 0. -1.
       -4    1    3    3    0  502 -0.50858838716E+03  0.61425118214E+03  0.26691895059E+03  0.84096016636E+03  0.12699999809E+01 0.  1.
</event>
<event>
 5   0  0.1239119E-04  0.1788478E+04  0.7818609E-02  0.8712451E-01
        1   -1    0    0  501    0  0.00000000000E+00  0.00000000000E+00  0.12276427781E+04  0.12276427781E+04  0.50400001928E-02 0.  1.
       -1   -1    0    0    0  501  0.00000000000E+00  0.00000000000E+00 -0.65138115801E+03  0.65138115803E+03  0.50400001928E-02 0. -1.
    10030    2    1    2    0    0  0.00000000000E+00  0.00000000000E+00  0.57626162010E+03  0.18790239361E+04  0.17884779836E+04 0.  0.
        5    1    3    3  502    0 -0.53500611221E+03 -0.71088110713E+03  0.38244061461E+03  0.96843502739E+03  0.46999998093E+01 0. -1.
       -5    1    3    3    0  502  0.53500611221E+03  0.71088110713E+03  0.19382100549E+03  0.91058890875E+03  0.46999998093E+01 0.  1.
</event>
<event>
 5   0  0.2431811E-04  0.1785795E+04  0.7818609E-02  0.8713890E-01
        2   -1    0    0  501    0  0.00000000000E+00  0.00000000000E+00  0.17124181561E+04  0.17124181561E+04  0.25500000920E-02 0. -1.
       -2   -1    0    0    0  501  0.00000000000E+00  0.00000000000E+00 -0.46557910912E+03  0.46557910913E+03  0.25500000920E-02 0.  1.
    10030    2    1    2    0    0  0.00000000000E+00  0.00000000000E+00  0.12468390470E+04  0.21779972652E+04  0.17857951949E+04 0.  0.
        3    1    3    3  502    0  0.38012730659E+03 -0.69359620317E+02  0.16051658922E+04  0.16510194057E+04  0.10100000352E+00 0. -1.
       -3    1    3    3    0  502 -0.38012730659E+03  0.69359620317E+02 -0.35832684529E+03  0.52697785950E+03  0.10100000352E+00 0.  1.
</event>
<event>
 5   0  0.2431811E-04  0.1784695E+04  0.7818609E-02  0.8714481E-01
        2   -1    0    0  501    0  0.00000000000E+00  0.00000000000E+00  0.18719583699E+04  0.18719583699E+04  0.25500000920E-02 0. -1.
       -2   -1    0    0    0  501  0.00000000000E+00  0.00000000000E+00 -0.42537482927E+03  0.42537482927E+03  0.25500000920E-02 0.  1.
    10030    2    1    2    0    0  0.00000000000E+00  0.00000000000E+00  0.14465835407E+04  0.22973331992E+04  0.17846949005E+04 0.  0.
        3    1    3    3  502    0  0.82129350563E+03 -0.34122082895E+03  0.81726290951E+03  0.12078382963E+04  0.10100000352E+00 0. -1.
       -3    1    3    3    0  502 -0.82129350563E+03  0.34122082895E+03  0.62932063114E+03  0.10894949029E+04  0.10100000352E+00 0.  1.
</event>
<event>
 5   0  0.1330225E-04  0.1802672E+04  0.7818609E-02  0.8704880E-01
        1   -1    0    0  501    0  0.00000000000E+00  0.00000000000E+00  0.71309710211E+03  0.71309710213E+03  0.50400001928E-02 0. -1.
       -1   -1    0    0    0  501  0.00000000000E+00  0.00000000000E+00 -0.11392653119E+04  0.11392653119E+04  0.50400001928E-02 0.  1.
    10030    2    1    2    0    0  0.00000000000E+00  0.00000000000E+00 -0.42616820979E+03  0.18523624140E+04  0.18026722303E+04 0.  0.
        3    1    3    3  502    0  0.71637241845E+03  0.35222046342E+03  0.21697117747E+03  0.82723950512E+03  0.10100000352E+00 0. -1.
       -3    1    3    3    0  502 -0.71637241845E+03 -0.35222046342E+03 -0.64313938725E+03  0.10251229089E+04  0.10100000352E+00 0.  1.
</event>
<event>
 5   0  0.2569405E-04  0.1815542E+04  0.7818609E-02  0.8698078E-01
       -2   -1    0    0    0  501  0.00000000000E+00  0.00000000000E+00  0.95434257457E+03  0.95434257457E+03  0.25500000920E-02 0. -1.
        2   -1    0    0  501    0  0.00000000000E+00  0.00000000000E+00 -0.86347212090E+03  0.86347212090E+03  0.25500000920E-02 0.  1.
    10030    2    1    2    0    0  0.00000000000E+00  0.00000000000E+00  0.90870453667E+02  0.18178146955E+04  0.18155420204E+04 0.  0.
        2    1    3    3  502    0  0.26125370992E+03 -0.18559708484E+03 -0.80495027994E+03  0.86639756003E+03  0.25500000920E-02 0.  1.
       -2    1    3    3    0  502 -0.26125370992E+03  0.18559708484E+03  0.89582073361E+03  0.95141713544E+03  0.25500000920E-02 0. -1.
</event>
<event>
 5   0  0.2417106E-04  0.1827783E+04  0.7818609E-02  0.8691663E-01
        2   -1    0    0  501    0  0.00000000000E+00  0.00000000000E+00  0.78697400219E+03  0.78697400219E+03  0.25500000920E-02 0. -1.
       -2   -1    0    0    0  501  0.00000000000E+00  0.00000000000E+00 -0.10612775416E+04  0.10612775416E+04  0.25500000920E-02 0.  1.
    10030    2    1    2    0    0  0.00000000000E+00  0.00000000000E+00 -0.27430353944E+03  0.18482515438E+04  0.18277831757E+04 0.  0.
        4    1    3    3  502    0  0.90697644913E+03  0.47508479762E+02 -0.34362629659E+02  0.90887058382E+03  0.12699999809E+01 0.  1.
       -4    1    3    3    0  502 -0.90697644913E+03 -0.47508479762E+02 -0.23994090978E+03  0.93938096000E+03  0.12699999809E+01 0. -1.
</event>
<event>
 5   0  0.2417106E-04  0.1562095E+04  0.7818609E-02  0.8844179E-01
       -2   -1    0    0    0  501  0.00000000000E+00  0.00000000000E+00  0.54188857490E+03  0.54188857491E+03  0.25500000920E-02 0. -1.
        2   -1    0    0  501    0  0.00000000000E+00  0.00000000000E+00 -0.11257576469E+04  0.11257576469E+04  0.25500000920E-02 0.  1.
    10030    2    1    2    0    0  0.00000000000E+00  0.00000000000E+00 -0.58386907198E+03  0.16676462218E+04  0.15620950124E+04 0.  0.
        4    1    3    3  502    0 -0.44376285165E+03 -0.55706164953E+03 -0.63420769997E+03  0.95365830856E+03  0.12699999809E+01 0.  1.
       -4    1    3    3    0  502  0.44376285165E+03  0.55706164953E+03  0.50338627988E+02  0.71398791324E+03  0.12699999809E+01 0. -1.
</event>
<event>
 5   0  0.1308893E-04  0.1809672E+04  0.7818609E-02  0.8701173E-01
       -1   -1    0    0    0  501  0.00000000000E+00  0.00000000000E+00  0.10429239996E+04  0.10429239996E+04  0.50400001928E-02 0.  1.
        1   -1    0    0  501    0  0.00000000000E+00  0.00000000000E+00 -0.78503151802E+03  0.78503151804E+03  0.50400001928E-02 0. -1.
    10030    2    1    2    0    0  0.00000000000E+00  0.00000000000E+00  0.25789248157E+03  0.18279555176E+04  0.18096720262E+04 0.  0.
        4    1    3    3  502    0  0.51578733738E+02 -0.38174451560E+03  0.95595947871E+03  0.10306548301E+04  0.12699999809E+01 0.  1.
       -4    1    3    3    0  502 -0.51578733738E+02  0.38174451560E+03 -0.69806699714E+03  0.79730068754E+03  0.12699999809E+01 0. -1.
</event>
<event>
 5   0  0.1330225E-04  0.1810317E+04  0.7818609E-02  0.8700832E-01
        1   -1    0    0  501    0  0.00000000000E+00  0.00000000000E+00  0.14785652976E+04  0.14785652976E+04  0.50400001928E-02 0.  1.
       -1   -1    0    0    0  501  0.00000000000E+00  0.00000000000E+00 -0.55412637390E+03  0.55412637393E+03  0.50400001928E-02 0. -1.
    10030    2    1    2    0    0  0.00000000000E+00  0.00000000000E+00  0.92443892370E+03  0.20326916715E+04  0.18103171291E+04 0.  0.
        3    1    3    3  502    0 -0.16848167109E+03 -0.61950457757E+03  0.11786741762E+04  0.13421791308E+04  0.10100000352E+00 0.  1.
       -3    1    3    3    0  502  0.16848167109E+03  0.61950457757E+03 -0.25423525254E+03  0.69051254077E+03  0.10100000352E+00 0. -1.
</event>
<event>
 5   0  0.1214723E-04  0.1815758E+04  0.7818609E-02  0.8697964E-01
        1   -1    0    0  501    0  0.00000000000E+00  0.00000000000E+00  0.11167937494E+04  0.11167937494E+04  0.50400001928E-02 0.  1.
       -1   -1    0    0    0  501  0.00000000000E+00  0.00000000000E+00 -0.73804500667E+03  0.73804500669E+03  0.50400001928E-02 0. -1.
    10030    2    1    2    0    0  0.00000000000E+00  0.00000000000E+00  0.37874874272E+03  0.18548387561E+04  0.18157577484E+04 0.  0.
        1    1    3    3  502    0 -0.53210326527E+03  0.50890150176E+03  0.73196520028E+03  0.10382136957E+04  0.50400001928E-02 0.  1.
       -1    1    3    3    0  502  0.53210326527E+03 -0.50890150176E+03 -0.35321645756E+03  0.81662506043E+03  0.50400001928E-02 0. -1.
</event>
<event>
 5   0  0.1253925E-04  0.1795219E+04  0.7818609E-02  0.8708846E-01
        1   -1    0    0  501    0  0.00000000000E+00  0.00000000000E+00  0.16278390208E+04  0.16278390208E+04  0.50400001928E-02 0. -1.
       -1   -1    0    0    0  501  0.00000000000E+00  0.00000000000E+00 -0.49495243975E+03  0.49495243978E+03  0.50400001928E-02 0.  1.
    10030    2    1    2    0    0  0.00000000000E+00  0.00000000000E+00  0.11328865810E+04  0.21227914606E+04  0.17952190896E+04 0.  0.
        2    1    3    3  502    0 -0.36365487219E+03  0.77559017539E+03  0.24933441390E+03  0.89216177692E+03  0.25500000920E-02 0.  1.
       -2    1    3    3    0  502  0.36365487219E+03 -0.77559017539E+03  0.88355216713E+03  0.12306296836E+04  0.25500000920E-02 0. -1.
</event>
<event>
 5   0  0.1214723E-04  0.1788605E+04  0.7818609E-02  0.8712383E-01
       -1   -1    0    0    0  501  0.00000000000E+00  0.00000000000E+00  0.85157397988E+03  0.85157397989E+03  0.50400001928E-02 0.  1.
        1   -1    0    0  501    0  0.00000000000E+00  0.00000000000E+00 -0.93917450455E+03  0.93917450457E+03  0.50400001928E-02 0. -1.
    10030    2    1    2    0    0  0.00000000000E+00  0.00000000000E+00 -0.87600524678E+02  0.17907484845E+04  0.17886045630E+04 0.  0.
        1    1    3    3  502    0  0.72522505092E+03 -0.48411238789E+03  0.15508424588E+03  0.88564513319E+03  0.50400001928E-02 0.  1.
       -1    1    3    3    0  502 -0.72522505092E+03  0.48411238789E+03 -0.24268477056E+03  0.90510335127E+03  0.50400001928E-02 0. -1.
</event>
<event>
 5   0  0.2569405E-04  0.1812448E+04  0.7818609E-02  0.8699707E-01
        2   -1    0    0  501    0  0.00000000000E+00  0.00000000000E+00  0.13100007163E+04  0.13100007163E+04  0.25500000920E-02 0.  1.
       -2   -1    0    0    0  501  0.00000000000E+00  0.00000000000E+00 -0.62690219464E+03  0.62690219464E+03  0.25500000920E-02 0. -1.
    10030    2    1    2    0    0  0.00000000000E+00  0.00000000000E+00  0.68309852170E+03  0.19369029110E+04  0.18124484258E+04 0.  0.
        2    1    3    3  502    0  0.78386482685E+03  0.30857487325E+03 -0.15423430315E+02  0.84255587433E+03  0.25500000920E-02 0. -1.
       -2    1    3    3    0  502 -0.78386482685E+03 -0.30857487325E+03  0.69852195202E+03  0.10943470366E+04  0.25500000920E-02 0.  1.
</event>
<event>
 5   0  0.1308893E-04  0.1724620E+04  0.7818609E-02  0.8747446E-01
       -1   -1    0    0    0  501  0.00000000000E+00  0.00000000000E+00  0.42681977249E+03  0.42681977252E+03  0.50400001928E-02 0.  1.
        1   -1    0    0  501    0  0.00000000000E+00  0.00000000000E+00 -0.17421361191E+04  0.17421361191E+04  0.50400001928E-02 0. -1.
    10030    2    1    2    0    0  0.00000000000E+00  0.00000000000E+00 -0.13153163466E+04  0.21689558917E+04  0.17246195430E+04 0.  0.
        4    1    3    3  502    0 -0.27304259855E+03  0.40593436633E+03 -0.15507101486E+04  0.16260499833E+04  0.12699999809E+01 0. -1.
       -4    1    3    3    0  502  0.27304259855E+03 -0.40593436633E+03  0.23539380197E+03  0.54290590833E+03  0.12699999809E+01 0.  1.
</event>
<event>
 5   0  0.2417106E-04  0.1784277E+04  0.7818609E-02  0.8714706E-01
        2   -1    0    0  501    0  0.00000000000E+00  0.00000000000E+00  0.20459559214E+04  0.20459559214E+04  0.25500000920E-02 0. -1.
       -2   -1    0    0    0  501  0.00000000000E+00  0.00000000000E+00 -0.38901656436E+03  0.38901656437E+03  0.25500000920E-02 0.  1.
    10030    2    1    2    0    0  0.00000000000E+00  0.00000000000E+00  0.16569393570E+04  0.24349724858E+04  0.17842765967E+04 0.  0.
        4    1    3    3  502    0  0.30586530168E+03 -0.75149788865E+03  0.32223568126E+03  0.87300636114E+03  0.12699999809E+01 0.  1.
       -4    1    3    3    0  502 -0.30586530168E+03  0.75149788865E+03  0.13347036758E+04  0.15619661246E+04  0.12699999809E+01 0. -1.
</event>
<event>
 5   0  0.1214723E-04  0.1797425E+04  0.7818609E-02  0.8707670E-01
       -1   -1    0    0    0  501  0.00000000000E+00  0.00000000000E+00  0.42679583571E+03  0.42679583574E+03  0.50400001928E-02 0.  1.
        1   -1    0    0  501    0  0.00000000000E+00  0.00000000000E+00 -0.18924367231E+04  0.18924367231E+04  0.50400001928E-02 0. -1.
    10030    2    1    2    0    0  0.00000000000E+00  0.00000000000E+00 -0.14656408874E+04  0.23192325589E+04  0.17974249501E+04 0.  0.
        1    1    3    3  502    0 -0.49072099132E+03 -0.51781332207E+03 -0.27567572686E+02  0.71393115839E+03  0.50400001928E-02 0.  1.
       -1    1    3    3    0  502  0.49072099132E+03  0.51781332207E+03 -0.14380733147E+04  0.16053014005E+04  0.50400001928E-02 0. -1.
</event>
<event>
 5   0  0.1330225E-04  0.1778264E+04  0.7818609E-02  0.8717945E-01
        1   -1    0    0  501    0  0.00000000000E+00  0.00000000000E+00  0.12299895642E+04  0.12299895642E+04  0.50400001928E-02 0.  1.
       -1   -1    0    0    0  501  0.00000000000E+00  0.00000000000E+00 -0.64273355880E+03  0.64273355882E+03  0.50400001928E-02 0. -1.
    10030    2    1    2    0    0  0.00000000000E+00  0.00000000000E+00  0.58725600536E+03  0.18727231230E+04  0.17782638386E+04 0.  0.
        3    1    3    3  502    0 -0.59906570529E+03  0.57643380963E+03 -0.38396670034E+02  0.83224393696E+03  0.10100000352E+00 0.  1.
       -3    1    3    3    0  502  0.59906570529E+03 -0.57643380963E+03  0.62565267540E+03  0.10404791860E+04  0.10100000352E+00 0. -1.
</event>
<event>
 5   0  0.2569405E-04  0.1818235E+04  0.7818609E-02  0.8696662E-01
       -2   -1    0    0    0  501  0.00000000000E+00  0.00000000000E+00  0.96679274038E+03  0.96679274038E+03  0.25500000920E-02 0. -1.
        2   -1    0    0  501    0  0.00000000000E+00  0.00000000000E+00 -0.85488262193E+03  0.85488262193E+03  0.25500000920E-02 0.  1.
    10030    2    1    2    0    0  0.00000000000E+00  0.00000000000E+00  0.11191011846E+03  0.18216753623E+04  0.18182346524E+04 0.  0.
        2    1    3    3  502    0 -0.39523587217E+03  0.80091773539E+03  0.22602226005E+03  0.92128533884E+03  0.25500000920E-02 0. -1.
       -2    1    3    3    0  502  0.39523587217E+03 -0.80091773539E+03 -0.11411214159E+03  0.90039002348E+03  0.25500000920E-02 0.  1.
</event>
<event>
 5   0  0.2550616E-04  0.1776754E+04  0.7818609E-02  0.8718760E-01
        2   -1    0    0  501    0  0.00000000000E+00  0.00000000000E+00  0.13700775983E+04  0.13700775983E+04  0.25500000920E-02 0. -1.
       -2   -1    0    0    0  501  0.00000000000E+00  0.00000000000E+00 -0.57603587392E+03  0.57603587393E+03  0.25500000920E-02 0.  1.
    10030    2    1    2    0    0  0.00000000000E+00  0.00000000000E+00  0.79404172439E+03  0.19461134722E+04  0.17767541717E+04 0.  0.
        1    1    3    3  502    0 -0.16015585291E+03 -0.66469172071E+03 -0.22427623950E+03  0.71955876232E+03  0.50400001928E-02 0.  1.
       -1    1    3    3    0  502  0.16015585291E+03  0.66469172071E+03  0.10183179639E+04  0.12265547099E+04  0.50400001928E-02 0. -1.
</event>
<event>
 5   0  0.2393421E-04  0.1868416E+04  0.7818609E-02  0.8670739E-01
        2   -1    0    0  501    0  0.00000000000E+00  0.00000000000E+00  0.16236648928E+04  0.16236648928E+04  0.25500000920E-02 0.  1.
       -2   -1    0    0    0  501  0.00000000000E+00  0.00000000000E+00 -0.53751545670E+03  0.53751545670E+03  0.25500000920E-02 0. -1.
    10030    2    1    2    0    0  0.00000000000E+00  0.00000000000E+00  0.10861494361E+04  0.21611803495E+04  0.18684164165E+04 0.  0.
        5    1    3    3  502    0 -0.52594868724E+03  0.29721729969E+03 -0.28115401592E+03  0.66635562240E+03  0.46999998093E+01 0. -1.
       -5    1    3    3    0  502  0.52594868724E+03 -0.29721729969E+03  0.13673034520E+04  0.14948247271E+04  0.46999998093E+01 0.  1.
</event>
<event>
 5   0  0.1308893E-04  0.1808518E+04  0.7818609E-02  0.8701783E-01
        1   -1    0    0  501    0  0.00000000000E+00  0.00000000000E+00  0.73118625178E+03  0.73118625180E+03  0.50400001928E-02 0.  1.
       -1   -1    0    0    0  501  0.00000000000E+00  0.00000000000E+00 -0.11182986708E+04  0.11182986709E+04  0.50400001928E-02 0. -1.
    10030    2    1    2    0    0  0.00000000000E+00  0.00000000000E+00 -0.38711241906E+03  0.18494849226E+04  0.18085183035E+04 0.  0.
        4    1    3    3  502    0  0.44809187551E+03  0.37554567276E+03 -0.89900980942E+03  0.10723997070E+04  0.12699999809E+01 0. -1.
       -4    1    3    3    0  502 -0.44809187551E+03 -0.37554567276E+03  0.51189739036E+03  0.77708521565E+03  0.12699999809E+01 0.  1.
</event>
<event>
 5   0  0.1214723E-04  0.1805151E+04  0.7818609E-02  0.8703565E-01
        1   -1    0    0  501    0  0.00000000000E+00  0.00000000000E+00  0.14108966784E+04  0.14108966784E+04  0.50400001928E-02 0. -1.
       -1   -1    0    0    0  501  0.00000000000E+00  0.00000000000E+00 -0.57739362824E+03  0.57739362826E+03  0.50400001928E-02 0.  1.
    10030    2    1    2    0    0  0.00000000000E+00  0.00000000000E+00  0.83350305015E+03  0.19882903067E+04  0.18051512427E+04 0.  0.
        1    1    3    3  502    0  0.54396745755E+03 -0.17485383266E+03 -0.35282353576E+03  0.67153473855E+03  0.50400001928E-02 0.  1.
       -1    1    3    3    0  502 -0.54396745755E+03  0.17485383266E+03  0.11863265859E+04  0.13167555681E+04  0.50400001928E-02 0. -1.
</event>
<event>
 5   0  0.1330225E-04  0.1775135E+04  0.7818609E-02  0.8719635E-01
       -1   -1    0    0    0  501  0.00000000000E+00  0.00000000000E+00  0.85250605230E+03  0.85250605231E+03  0.50400001928E-02 0.  1.
        1   -1    0    0  501    0  0.00000000000E+00  0.00000000000E+00 -0.92407096317E+03  0.92407096318E+03  0.50400001928E-02 0. -1.
    10030    2    1    2    0    0  0.00000000000E+00  0.00000000000E+00 -0.71564910872E+02  0.17765770155E+04  0.17751350246E+04 0.  0.
        3    1    3    3  502    0  0.16574002683E+03  0.41165442010E+03  0.73350765427E+03  0.85729960175E+03  0.10100000352E+00 0.  1.
       -3    1    3    3    0  502 -0.16574002683E+03 -0.41165442010E+03 -0.80507256514E+03  0.91927741375E+03  0.10100000352E+00 0. -1.
</event>
<event>
 5   0  0.2431811E-04  0.1815762E+04  0.7818609E-02  0.8697962E-01
       -2   -1    0    0    0  501  0.00000000000E+00  0.00000000000E+00  0.55560067518E+03  0.55560067519E+03  0.25500000920E-02 0.  1.
        2   -1    0    0  501    0  0.00000000000E+00  0.00000000000E+00 -0.14835255944E+04  0.14835255944E+04  0.25500000920E-02 0. -1.
    10030    2    1    2    0    0  0.00000000000E+00  0.00000000000E+00 -0.92792491920E+03  0.20391262696E+04  0.18157619028E+04 0.  0.
        3    1    3    3  502    0  0.36132485366E+03 -0.97175466811E+02  0.46498753008E+03  0.59683509829E+03  0.10100000352E+00 0.  1.
       -3    1    3    3    0  502 -0.36132485366E+03  0.97175466811E+02 -0.13929124493E+04  0.14422911713E+04  0.10100000352E+00 0. -1.
</event>
<event>
 5   0  0.2569405E-04  0.1723842E+04  0.7818609E-02  0.8747882E-01
        2   -1    0    0  501    0  0.00000000000E+00  0.00000000000E+00  0.10761392948E+04  0.10761392948E+04  0.25500000920E-02 0.  1.
       -2   -1    0    0    0  501  0.00000000000E+00  0.00000000000E+00 -0.69034528046E+03  0.69034528047E+03  0.25500000920E-02 0. -1.
    10030    2    1    2    0    0  0.00000000000E+00  0.00000000000E+00  0.38579401437E+03  0.17664845753E+04  0.17238418527E+04 0.  0.
        2    1    3    3  502    0 -0.46112488042E+03  0.36547617742E+03  0.83831759279E+03  0.10241998721E+04  0.25500000920E-02 0.  1.
       -2    1    3    3    0  502  0.46112488042E+03 -0.36547617742E+03 -0.45252357841E+03  0.74228470322E+03  0.25500000920E-02 0. -1.
</event>
<event>
 5   0  0.9144875E-05  0.1804578E+04  0.7818609E-02  0.8703869E-01
       -4   -1    0    0    0  501  0.00000000000E+00  0.00000000000E+00  0.61266038300E+03  0.61266169931E+03  0.12699999809E+01 0. -1.
        4   -1    0    0  501    0  0.00000000000E+00  0.00000000000E+00 -0.13288326805E+04  0.13288332873E+04  0.12699999809E+01 0.  1.
    10030    2    1    2    0    0  0.00000000000E+00  0.00000000000E+00 -0.71617229745E+03  0.19414949866E+04  0.18045775194E+04 0.  0.
        3    1    3    3  502    0  0.28090347668E+03  0.84040264572E+03 -0.17505618627E+03  0.90323200159E+03  0.10100000352E+00 0. -1.
       -3    1    3    3    0  502 -0.28090347668E+03 -0.84040264572E+03 -0.54111611118E+03  0.10382629851E+04  0.10100000352E+00 0.  1.
</event>
<event>
 5   0  0.1253925E-04  0.1798894E+04  0.7818609E-02  0.8706888E-01
       -1   -1    0    0    0  501  0.00000000000E+00  0.00000000000E+00  0.91747482827E+03  0.91747482828E+03  0.50400001928E-02 0. -1.
        1   -1    0    0  501    0  0.00000000000E+00  0.00000000000E+00 -0.88177369601E+03  0.88177369602E+03  0.50400001928E-02 0.  1.
    10030    2    1    2    0    0  0.00000000000E+00  0.00000000000E+00  0.35701132261E+02  0.17992485243E+04  0.17988942941E+04 0.  0.
        2    1    3    3  502    0 -0.31291371742E+03 -0.79148754360E+03 -0.27313221741E+03  0.89385051011E+03  0.25500000920E-02 0. -1.
       -2    1    3    3    0  502  0.31291371742E+03  0.79148754360E+03  0.30883334967E+03  0.90539801419E+03  0.25500000920E-02 0.  1.
</event>
<event>
 5   0  0.2417106E-04  0.1803578E+04  0.7818609E-02  0.8704399E-01
       -2   -1    0    0    0  501  0.00000000000E+00  0.00000000000E+00  0.37306725476E+03  0.37306725477E+03  0.25500000920E-02 0. -1.
        2   -1    0    0  501    0  0.00000000000E+00  0.00000000000E+00 -0.21798295758E+04  0.21798295758E+04  0.25500000920E-02 0.  1.
    10030    2    1    2    0    0  0.00000000000E+00  0.00000000000E+00 -0.18067623211E+04  0.25528968306E+04  0.18035775955E+04 0.  0.
        4    1    3    3  502    0 -0.49714304157E+03 -0.31460938677E+03  0.64003625709E+02  0.59180093531E+03  0.12699999809E+01 0. -1.
       -4    1    3    3    0  502  0.49714304157E+03  0.31460938677E+03 -0.18707659468E+04  0.19610958953E+04  0.12699999809E+01 0.  1.
</event>
<event>
 5   0  0.1330225E-04  0.1805590E+04  0.7818609E-02  0.8703332E-01
       -1   -1    0    0    0  501  0.00000000000E+00  0.00000000000E+00  0.11448125123E+04  0.11448125123E+04  0.50400001928E-02 0. -1.
        1   -1    0    0  501    0  0.00000000000E+00  0.00000000000E+00 -0.71194098145E+03  0.71194098147E+03  0.50400001928E-02 0.  1.
    10030    2    1    2    0    0  0.00000000000E+00  0.00000000000E+00  0.43287153087E+03  0.18567534938E+04  0.18055901458E+04 0.  0.
        3    1    3    3  502    0  0.86210844197E+03 -0.19977010325E+03  0.40010209828E+03  0.97119553083E+03  0.10100000352E+00 0. -1.
       -3    1    3    3    0  502 -0.86210844197E+03  0.19977010325E+03  0.32769432589E+02  0.88555796297E+03  0.10100000352E+00 0.  1.
</event>
<event>
 5   0  0.2550616E-04  0.1806543E+04  0.7818609E-02  0.8702828E-01
       -2   -1    0    0    0  501  0.00000000000E+00  0.00000000000E+00  0.73864050210E+03  0.73864050211E+03  0.25500000920E-02 0. -1.
        2   -1    0    0  501    0  0.00000000000E+00  0.00000000000E+00 -0.11045963283E+04  0.11045963283E+04  0.25500000920E-02 0.  1.
    10030    2    1    2    0    0  0.00000000000E+00  0.00000000000E+00 -0.36595582622E+03  0.18432368304E+04  0.18065432036E+04 0.  0.
        1    1    3    3  502    0 -0.89528899243E+03  0.24202318199E+02 -0.30271334671E+03  0.94539066130E+03  0.50400001928E-02 0.  1.
       -1    1    3    3    0  502  0.89528899243E+03 -0.24202318199E+02 -0.63242479507E+02  0.89784616913E+03  0.50400001928E-02 0. -1.
</event>
<event>
 5   0  0.9144875E-05  0.1891676E+04  0.7818609E-02  0.8659011E-01
       -4   -1    0    0    0  501  0.00000000000E+00  0.00000000000E+00  0.11780808903E+04  0.11780815748E+04  0.12699999809E+01 0. -1.
        4   -1    0    0  501    0  0.00000000000E+00  0.00000000000E+00 -0.75937709046E+03  0.75937815245E+03  0.12699999809E+01 0.  1.
    10030    2    1    2    0    0  0.00000000000E+00  0.00000000000E+00  0.41870379982E+03  0.19374597273E+04  0.18916757975E+04 0.  0.
        5    1    3    3  502    0 -0.86260696032E+03 -0.38001396783E+03  0.12945188740E+03  0.95146269757E+03  0.46999998093E+01 0.  1.
       -5    1    3    3    0  502  0.86260696032E+03  0.38001396783E+03  0.28925191243E+03  0.98599702970E+03  0.46999998093E+01 0. -1.
</event>
<event>
 5   0  0.1308893E-04  0.1795188E+04  0.7818609E-02  0.8708862E-01
       -1   -1    0    0    0  501  0.00000000000E+00  0.00000000000E+00  0.31654745307E+03  0.31654745311E+03  0.50400001928E-02 0. -1.
        1   -1    0    0  501    0  0.00000000000E+00  0.00000000000E+00 -0.25451959861E+04  0.25451959861E+04  0.50400001928E-02 0.  1.
    10030    2    1    2    0    0  0.00000000000E+00  0.00000000000E+00 -0.22286485331E+04  0.28617434392E+04  0.17951883545E+04 0.  0.
        4    1    3    3  502    0 -0.33469874378E+03  0.44595695139E+03  0.69803247680E+01  0.55762997536E+03  0.12699999809E+01 0. -1.
       -4    1    3    3    0  502  0.33469874378E+03 -0.44595695139E+03 -0.22356288578E+04  0.23041134639E+04  0.12699999809E+01 0.  1.
</event>
<event>
 5   0  0.2417106E-04  0.1798998E+04  0.7818609E-02  0.8706833E-01
       -2   -1    0    0    0  501  0.00000000000E+00  0.00000000000E+00  0.59263847582E+03  0.59263847582E+03  0.25500000920E-02 0.  1.
        2   -1    0    0  501    0  0.00000000000E+00  0.00000000000E+00 -0.13652474863E+04  0.13652474864E+04  0.25500000920E-02 0. -1.
    10030    2    1    2    0    0  0.00000000000E+00  0.00000000000E+00 -0.77260901053E+03  0.19578859622E+04  0.17989977092E+04 0.  0.
        4    1    3    3  502    0 -0.76072800834E+03  0.46534464661E+02  0.13361660964E+03  0.77377488351E+03  0.12699999809E+01 0.  1.
       -4    1    3    3    0  502  0.76072800834E+03 -0.46534464661E+02 -0.90622562017E+03  0.11841110787E+04  0.12699999809E+01 0. -1.
</event>
<event>
 5   0  0.2569405E-04  0.1811287E+04  0.7818609E-02  0.8700320E-01
       -2   -1    0    0    0  501  0.00000000000E+00  0.00000000000E+00  0.16070336578E+04  0.16070336578E+04  0.25500000920E-02 0.  1.
        2   -1    0    0  501    0  0.00000000000E+00  0.00000000000E+00 -0.51037539265E+03  0.51037539265E+03  0.25500000920E-02 0. -1.
    10030    2    1    2    0    0  0.00000000000E+00  0.00000000000E+00  0.10966582651E+04  0.21174090504E+04  0.18112873147E+04 0.  0.
        2    1    3    3  502    0 -0.14965176816E+03  0.65111327255E+02  0.15897014220E+04  0.15980568663E+04  0.25500000920E-02 0.  1.
       -2    1    3    3    0  502  0.14965176816E+03 -0.65111327255E+02 -0.49304315688E+03  0.51935218417E+03  0.25500000920E-02 0. -1.
</event>
<event>
 5   0  0.1239119E-04  0.1799911E+04  0.7818609E-02  0.8706347E-01
       -1   -1    0    0    0  501  0.00000000000E+00  0.00000000000E+00  0.82927991101E+03  0.82927991102E+03  0.50400001928E-02 0. -1.
        1   -1    0    0  501    0  0.00000000000E+00  0.00000000000E+00 -0.97665394267E+03  0.97665394268E+03  0.50400001928E-02 0.  1.
    10030    2    1    2    0    0  0.00000000000E+00  0.00000000000E+00 -0.14737403166E+03  0.18059338537E+04  0.17999105474E+04 0.  0.
        5    1    3    3  502    0  0.16292655980E+03  0.25870135242E+03 -0.92293900309E+03  0.97227051126E+03  0.46999998093E+01 0.  1.
       -5    1    3    3    0  502 -0.16292655980E+03 -0.25870135242E+03  0.77556497143E+03  0.83366334245E+03  0.46999998093E+01 0. -1.
</event>
<event>
 5   0  0.2393421E-04  0.1816463E+04  0.7818609E-02  0.8697593E-01
       -2   -1    0    0    0  501  0.00000000000E+00  0.00000000000E+00  0.46875818851E+03  0.46875818851E+03  0.25500000920E-02 0. -1.
        2   -1    0    0  501    0  0.00000000000E+00  0.00000000000E+00 -0.17597230022E+04  0.17597230022E+04  0.25500000920E-02 0.  1.
    10030    2    1    2    0    0  0.00000000000E+00  0.00000000000E+00 -0.12909648136E+04  0.22284811907E+04  0.18164631202E+04 0.  0.
        5    1    3    3  502    0  0.37592660753E+03 -0.76636460687E+03 -0.10260490789E+04  0.13347038351E+04  0.46999998093E+01 0.  1.
       -5    1    3    3    0  502 -0.37592660753E+03  0.76636460687E+03 -0.26491573470E+03  0.89377735561E+03  0.46999998093E+01 0. -1.
</event>
<event>
 5   0  0.2569405E-04  0.1851573E+04  0.7818609E-02  0.8679344E-01
        2   -1    0    0  501    0  0.00000000000E+00  0.00000000000E+00  0.26791782890E+04  0.26791782891E+04  0.25500000920E-02 0. -1.
       -2   -1    0    0    0  501  0.00000000000E+00  0.00000000000E+00 -0.31990439334E+03  0.31990439335E+03  0.25500000920E-02 0.  1.
    10030    2    1    2    0    0  0.00000000000E+00  0.00000000000E+00  0.23592738957E+04  0.29990826824E+04  0.18515732826E+04 0.  0.
        2    1    3    3  502    0  0.57787513701E+03 -0.62982547715E+03  0.60363226996E+03  0.10464185219E+04  0.25500000920E-02 0.  1.
       -2    1    3    3    0  502 -0.57787513701E+03  0.62982547715E+03  0.17556416257E+04  0.19526641605E+04  0.25500000920E-02 0. -1.
</event>
<event>
 5   0  0.2393421E-04  0.1688769E+04  0.7818609E-02  0.8767796E-01
       -2   -1    0    0    0  501  0.00000000000E+00  0.00000000000E+00  0.61278549001E+03  0.61278549002E+03  0.25500000920E-02 0. -1.
        2   -1    0    0  501    0  0.00000000000E+00  0.00000000000E+00 -0.11635149744E+04  0.11635149744E+04  0.25500000920E-02 0.  1.
    10030    2    1    2    0    0  0.00000000000E+00  0.00000000000E+00 -0.55072948438E+03  0.17763004644E+04  0.16887688933E+04 0.  0.
        5    1    3    3  502    0 -0.20278471200E+03  0.80766690886E+03 -0.42230350157E+03  0.93370756263E+03  0.46999998093E+01 0.  1.
       -5    1    3    3    0  502  0.20278471200E+03 -0.80766690886E+03 -0.12842598281E+03  0.84259290179E+03  0.46999998093E+01 0. -1.
</event>
<event>
 5   0  0.1330225E-04  0.1770225E+04  0.7818609E-02  0.8722296E-01
        1   -1    0    0  501    0  0.00000000000E+00  0.00000000000E+00  0.21090270141E+04  0.21090270141E+04  0.50400001928E-02 0. -1.
       -1   -1    0    0    0  501  0.00000000000E+00  0.00000000000E+00 -0.37146221653E+03  0.37146221657E+03  0.50400001928E-02 0.  1.
    10030    2    1    2    0    0  0.00000000000E+00  0.00000000000E+00  0.17375647976E+04  0.24804892307E+04  0.17702246744E+04 0.  0.
        3    1    3    3  502    0  0.62424326566E+03 -0.39556046877E+03  0.15513347291E+04  0.17183675949E+04  0.10100000352E+00 0. -1.
       -3    1    3    3    0  502 -0.62424326566E+03  0.39556046877E+03  0.18623006846E+03  0.76212163581E+03  0.10100000352E+00 0.  1.
</event>
<event>
 5   0  0.2550616E-04  0.1832239E+04  0.7818609E-02  0.8689341E-01
       -2   -1    0    0    0  501  0.00000000000E+00  0.00000000000E+00  0.48563967155E+03  0.48563967156E+03  0.25500000920E-02 0. -1.
        2   -1    0    0  501    0  0.00000000000E+00  0.00000000000E+00 -0.17281843359E+04  0.17281843359E+04  0.25500000920E-02 0.  1.
    10030    2    1    2    0    0  0.00000000000E+00  0.00000000000E+00 -0.12425446643E+04  0.22138240074E+04  0.18322389290E+04 0.  0.
        1    1    3    3  502    0  0.64948751107E+03 -0.43689371860E+03 -0.46154103439E+02  0.78411756113E+03  0.50400001928E-02 0. -1.
       -1    1    3    3    0  502 -0.64948751107E+03  0.43689371860E+03 -0.11963905609E+04  0.14297064463E+04  0.50400001928E-02 0.  1.
</event>
<event>
 5   0  0.1330225E-04  0.1798287E+04  0.7818609E-02  0.8707211E-01
       -1   -1    0    0    0  501  0.00000000000E+00  0.00000000000E+00  0.65591122824E+03  0.65591122826E+03  0.50400001928E-02 0.  1.
        1   -1    0    0  501    0  0.00000000000E+00  0.00000000000E+00 -0.12325732068E+04  0.12325732068E+04  0.50400001928E-02 0. -1.
    10030    2    1    2    0    0  0.00000000000E+00  0.00000000000E+00 -0.57666197857E+03  0.18884844351E+04  0.17982865244E+04 0.  0.
        3    1    3    3  502    0  0.20358032075E+03 -0.59830628282E+03  0.38331299629E+03  0.73915101190E+03  0.10100000352E+00 0.  1.
       -3    1    3    3    0  502 -0.20358032075E+03  0.59830628282E+03 -0.95997497486E+03  0.11493334232E+04  0.10100000352E+00 0. -1.
</event>
<event>
 5   0  0.2569405E-04  0.1805007E+04  0.7818609E-02  0.8703641E-01
       -2   -1    0    0    0  501  0.00000000000E+00  0.00000000000E+00  0.61638607871E+03  0.61638607872E+03  0.25500000920E-02 0.  1.
        2   -1    0    0  501    0  0.00000000000E+00  0.00000000000E+00 -0.13214320010E+04  0.13214320010E+04  0.25500000920E-02 0. -1.
    10030    2    1    2    0    0  0.00000000000E+00  0.00000000000E+00 -0.70504592232E+03  0.19378180798E+04  0.18050066919E+04 0.  0.
        2    1    3    3  502    0 -0.25202771087E+03  0.85669036046E+03 -0.49281292630E+03  0.10199514308E+04  0.25500000920E-02 0.  1.
       -2    1    3    3    0  502  0.25202771087E+03 -0.85669036046E+03 -0.21223299602E+03  0.91786664901E+03  0.25500000920E-02 0. -1.
</event>
<event>
 5   0  0.2431811E-04  0.1824382E+04  0.7818609E-02  0.8693440E-01
        2   -1    0    0  501    0  0.00000000000E+00  0.00000000000E+00  0.24417707655E+04  0.24417707655E+04  0.25500000920E-02 0. -1.
       -2   -1    0    0    0  501  0.00000000000E+00  0.00000000000E+00 -0.34077403223E+03  0.34077403224E+03  0.25500000920E-02 0.  1.
    10030    2    1    2    0    0  0.00000000000E+00  0.00000000000E+00  0.21009967333E+04  0.27825447978E+04  0.18243816153E+04 0.  0.
        3    1    3    3  502    0  0.80309623794E+02 -0.71039955413E+03  0.18640233208E+03  0.73882542038E+03  0.10100000352E+00 0.  1.
       -3    1    3    3    0  502 -0.80309623794E+02  0.71039955413E+03  0.19145944012E+04  0.20437193774E+04  0.10100000352E+00 0. -1.
</event>
<event>
 5   0  0.2550616E-04  0.1820114E+04  0.7818609E-02  0.8695675E-01
        2   -1    0    0  501    0  0.00000000000E+00  0.00000000000E+00  0.10640549501E+04  0.10640549501E+04  0.25500000920E-02 0. -1.
       -2   -1    0    0    0  501  0.00000000000E+00  0.00000000000E+00 -0.77834701502E+03  0.77834701502E+03  0.25500000920E-02 0.  1.
    10030    2    1    2    0    0  0.00000000000E+00  0.00000000000E+00  0.28570793504E+03  0.18424019651E+04  0.18201142758E+04 0.  0.
        1    1    3    3  502    0  0.33285351746E+03  0.84044995477E+03  0.24929097959E+03  0.93770655489E+03  0.50400001928E-02 0. -1.
       -1    1    3    3    0  502 -0.33285351746E+03 -0.84044995477E+03  0.36416955447E+02  0.90469541019E+03  0.50400001928E-02 0.  1.
</event>
<event>
 5   0  0.2393421E-04  0.1852132E+04  0.7818609E-02  0.8679057E-01
        2   -1    0    0  501    0  0.00000000000E+00  0.00000000000E+00  0.11331856803E+04  0.11331856803E+04  0.25500000920E-02 0. -1.
       -2   -1    0    0    0  501  0.00000000000E+00  0.00000000000E+00 -0.75680306702E+03  0.75680306703E+03  0.25500000920E-02 0.  1.
    10030    2    1    2    0    0  0.00000000000E+00  0.00000000000E+00  0.37638261325E+03  0.18899887473E+04  0.18521321749E+04 0.  0.
        5    1    3    3  502    0 -0.19733878339E+02  0.87954761544E+03 -0.10682491312E+03  0.88624324304E+03  0.46999998093E+01 0.  1.
       -5    1    3    3    0  502  0.19733878339E+02 -0.87954761544E+03  0.48320752637E+03  0.10037455043E+04  0.46999998093E+01 0. -1.
</event>
<event>
 5   0  0.1308893E-04  0.1813168E+04  0.7818609E-02  0.8699328E-01
       -1   -1    0    0    0  501  0.00000000000E+00  0.00000000000E+00  0.72391573551E+03  0.72391573553E+03  0.50400001928E-02 0. -1.
        1   -1    0    0  501    0  0.00000000000E+00  0.00000000000E+00 -0.11353451491E+04  0.11353451491E+04  0.50400001928E-02 0.  1.
    10030    2    1    2    0    0  0.00000000000E+00  0.00000000000E+00 -0.41142941359E+03  0.18592608846E+04  0.18131676356E+04 0.  0.
        4    1    3    3  502    0  0.12110694030E+03  0.89668788823E+03 -0.26350833269E+03  0.94241939400E+03  0.12699999809E+01 0.  1.
       -4    1    3    3    0  502 -0.12110694030E+03 -0.89668788823E+03 -0.14792108090E+03  0.91684149064E+03  0.12699999809E+01 0. -1.
</event>
<event>
 5   0  0.1239119E-04  0.1801643E+04  0.7818609E-02  0.8705426E-01
       -1   -1    0    0    0  501  0.00000000000E+00  0.00000000000E+00  0.11338819249E+04  0.11338819249E+04  0.50400001928E-02 0. -1.
        1   -1    0    0  501    0  0.00000000000E+00  0.00000000000E+00 -0.71566450501E+03  0.71566450503E+03  0.50400001928E-02 0.  1.
    10030    2    1    2    0    0  0.00000000000E+00  0.00000000000E+00  0.41821741986E+03  0.18495464299E+04  0.18016426355E+04 0.  0.
        5    1    3    3  502    0 -0.52605399552E+02 -0.62750527428E+03 -0.45216660235E+03  0.77524636316E+03  0.46999998093E+01 0.  1.
       -5    1    3    3    0  502  0.52605399552E+02  0.62750527428E+03  0.87038402221E+03  0.10743000668E+04  0.46999998093E+01 0. -1.
</event>
<event>
 5   0  0.2417106E-04  0.1800126E+04  0.7818609E-02  0.8706232E-01
        2   -1    0    0  501    0  0.00000000000E+00  0.00000000000E+00  0.10678189711E+04  0.10678189711E+04  0.25500000920E-02 0.  1.
       -2   -1    0    0    0  501  0.00000000000E+00  0.00000000000E+00 -0.75866183100E+03  0.75866183100E+03  0.25500000920E-02 0. -1.
    10030    2    1    2    0    0  0.00000000000E+00  0.00000000000E+00  0.30915714013E+03  0.18264808021E+04  0.18001261020E+04 0.  0.
        4    1    3    3  502    0  0.29521004027E+03  0.75205123438E+03  0.55710046978E+03  0.98137280038E+03  0.12699999809E+01 0.  1.
       -4    1    3    3    0  502 -0.29521004027E+03 -0.75205123438E+03 -0.24794332965E+03  0.84510800175E+03  0.12699999809E+01 0. -1.
</event>
<event>
 5   0  0.1308893E-04  0.1797107E+04  0.7818609E-02  0.8707839E-01
        1   -1    0    0  501    0  0.00000000000E+00  0.00000000000E+00  0.18521149194E+04  0.18521149194E+04  0.50400001928E-02 0. -1.
       -1   -1    0    0    0  501  0.00000000000E+00  0.00000000000E+00 -0.43593335611E+03  0.43593335614E+03  0.50400001928E-02 0.  1.
    10030    2    1    2    0    0  0.00000000000E+00  0.00000000000E+00  0.14161815633E+04  0.22880482756E+04  0.17971073121E+04 0.  0.
        4    1    3    3  502    0 -0.64387169445E+03 -0.60467847132E+03  0.91803201814E+03  0.12739667232E+04  0.12699999809E+01 0. -1.
       -4    1    3    3    0  502  0.64387169445E+03  0.60467847132E+03  0.49814954517E+03  0.10140815524E+04  0.12699999809E+01 0.  1.
</event>
<event>
 5   0  0.1214723E-04  0.1790952E+04  0.7818609E-02  0.8711126E-01
        1   -1    0    0  501    0  0.00000000000E+00  0.00000000000E+00  0.15259849168E+04  0.15259849168E+04  0.50400001928E-02 0. -1.
       -1   -1    0    0    0  501  0.00000000000E+00  0.00000000000E+00 -0.52548158895E+03  0.52548158897E+03  0.50400001928E-02 0.  1.
    10030    2    1    2    0    0  0.00000000000E+00  0.00000000000E+00  0.10005033279E+04  0.20514665058E+04  0.17909516787E+04 0.  0.
        1    1    3    3  502    0  0.76773570500E+03 -0.32412145584E+03  0.87564891605E+03  0.12088150624E+04  0.50400001928E-02 0.  1.
       -1    1    3    3    0  502 -0.76773570500E+03  0.32412145584E+03  0.12485441180E+03  0.84265144339E+03  0.50400001928E-02 0. -1.
</event>
<event>
 5   0  0.2550616E-04  0.1896307E+04  0.7818609E-02  0.8656697E-01
        2   -1    0    0  501    0  0.00000000000E+00  0.00000000000E+00  0.72921624018E+03  0.72921624019E+03  0.25500000920E-02 0. -1.
       -2   -1    0    0    0  501  0.00000000000E+00  0.00000000000E+00 -0.12328231965E+04  0.12328231965E+04  0.25500000920E-02 0.  1.
    10030    2    1    2    0    0  0.00000000000E+00  0.00000000000E+00 -0.50360695633E+03  0.19620394367E+04  0.18963066167E+04 0.  0.
        1    1    3    3  502    0 -0.19229151107E+03 -0.14367851762E+02  0.70871450403E+03  0.73447852837E+03  0.50400001928E-02 0. -1.
       -1    1    3    3    0  502  0.19229151107E+03  0.14367851762E+02 -0.12123214604E+04  0.12275609083E+04  0.50400001928E-02 0.  1.
</event>
<event>
 5   0  0.1239119E-04  0.1812710E+04  0.7818609E-02  0.8699569E-01
       -1   -1    0    0    0  501  0.00000000000E+00  0.00000000000E+00  0.10032114364E+04  0.10032114364E+04  0.50400001928E-02 0. -1.
        1   -1    0    0  501    0  0.00000000000E+00  0.00000000000E+00 -0.81884971855E+03  0.81884971857E+03  0.50400001928E-02 0.  1.
    10030    2    1    2    0    0  0.00000000000E+00  0.00000000000E+00  0.18436171787E+03  0.18220611550E+04  0.18127100181E+04 0.  0.
        5    1    3    3  502    0 -0.25567361418E+02  0.61191945728E+03  0.76372779715E+03  0.97897974969E+03  0.46999998093E+01 0. -1.
       -5    1    3    3    0  502  0.25567361418E+02 -0.61191945728E+03 -0.57936607928E+03  0.84308140531E+03  0.46999998093E+01 0.  1.
</event>
<event>
 5   0  0.2417106E-04  0.1836245E+04  0.7818609E-02  0.8687259E-01
       -2   -1    0    0    0  501  0.00000000000E+00  0.00000000000E+00  0.50451151345E+03  0.50451151346E+03  0.25500000920E-02 0. -1.
        2   -1    0    0  501    0  0.00000000000E+00  0.00000000000E+00 -0.16708216068E+04  0.16708216068E+04  0.25500000920E-02 0.  1.
    10030    2    1    2    0    0  0.00000000000E+00  0.00000000000E+00 -0.11663100933E+04  0.21753331203E+04  0.18362447958E+04 0.  0.
        4    1    3    3  502    0  0.48570671163E+03 -0.39147648580E+03  0.21487447715E+03  0.65980110828E+03  0.12699999809E+01 0. -1.
       -4    1    3    3    0  502 -0.48570671163E+03  0.39147648580E+03 -0.13811845705E+04  0.15155320120E+04  0.12699999809E+01 0.  1.
</event>
<event>
 5   0  0.2550616E-04  0.1784831E+04  0.7818609E-02  0.8714408E-01
        2   -1    0    0  501    0  0.00000000000E+00  0.00000000000E+00  0.72084723313E+03  0.72084723314E+03  0.25500000920E-02 0.  1.
       -2   -1    0    0    0  501  0.00000000000E+00  0.00000000000E+00 -0.11048183522E+04  0.11048183522E+04  0.25500000920E-02 0. -1.
    10030    2    1    2    0    0  0.00000000000E+00  0.00000000000E+00 -0.38397111906E+03  0.18256655853E+04  0.17848308069E+04 0.  0.
        1    1    3    3  502    0  0.30854708953E+03 -0.83735522583E+03 -0.19846867363E+03  0.91419631104E+03  0.50400001928E-02 0. -1.
       -1    1    3    3    0  502 -0.30854708953E+03  0.83735522583E+03 -0.18550244542E+03  0.91146927429E+03  0.50400001928E-02 0.  1.
</event>
<event>
 5   0  0.2431811E-04  0.1810996E+04  0.7818609E-02  0.8700474E-01
        2   -1    0    0  501    0  0.00000000000E+00  0.00000000000E+00  0.15096549373E+04  0.15096549373E+04  0.25500000920E-02 0. -1.
       -2   -1    0    0    0  501  0.00000000000E+00  0.00000000000E+00 -0.54312194138E+03  0.54312194139E+03  0.25500000920E-02 0.  1.
    10030    2    1    2    0    0  0.00000000000E+00  0.00000000000E+00  0.96653299596E+03  0.20527768787E+04  0.18109961020E+04 0.  0.
        3    1    3    3  502    0  0.36758637584E+03  0.75985736102E+03  0.11175316776E+03  0.85146446403E+03  0.10100000352E+00 0.  1.
       -3    1    3    3    0  502 -0.36758637584E+03 -0.75985736102E+03  0.85477982820E+03  0.12013124147E+04  0.10100000352E+00 0. -1.
</event>
<event>
 5   0  0.2569405E-04  0.1813155E+04  0.7818609E-02  0.8699335E-01
        2   -1    0    0  501    0  0.00000000000E+00  0.00000000000E+00  0.65513718420E+03  0.65513718421E+03  0.25500000920E-02 0.  1.
       -2   -1    0    0    0  501  0.00000000000E+00  0.00000000000E+00 -0.12545207318E+04  0.12545207318E+04  0.25500000920E-02 0. -1.
    10030    2    1    2    0    0  0.00000000000E+00  0.00000000000E+00 -0.59938354757E+03  0.19096579160E+04  0.18131554591E+04 0.  0.
        2    1    3    3  502    0  0.16733271379E+03 -0.22963531067E+03 -0.12064129487E+04  0.12394211616E+04  0.25500000920E-02 0. -1.
       -2    1    3    3    0  502 -0.16733271379E+03  0.22963531067E+03  0.60702940116E+03  0.67023675436E+03  0.25500000920E-02 0.  1.
</event>
<event>
 5   0  0.2550616E-04  0.1804617E+04  0.7818609E-02  0.8703848E-01
        2   -1    0    0  501    0  0.00000000000E+00  0.00000000000E+00  0.10140254527E+04  0.10140254527E+04  0.25500000920E-02 0.  1.
       -2   -1    0    0    0  501  0.00000000000E+00  0.00000000000E+00 -0.80289939488E+03  0.80289939488E+03  0.25500000920E-02 0. -1.
    10030    2    1    2    0    0  0.00000000000E+00  0.00000000000E+00  0.21112605781E+03  0.18169248476E+04  0.18046167708E+04 0.  0.
        1    1    3    3  502    0 -0.66050635565E+03 -0.42678081798E+03  0.55101692372E+03  0.96022401694E+03  0.50400001928E-02 0.  1.
       -1    1    3    3    0  502  0.66050635565E+03  0.42678081798E+03 -0.33989086591E+03  0.85670083063E+03  0.50400001928E-02 0. -1.
</event>
<event>
 5   0  0.2393421E-04  0.1794567E+04  0.7818609E-02  0.8709194E-01
        2   -1    0    0  501    0  0.00000000000E+00  0.00000000000E+00  0.92143104214E+03  0.92143104214E+03  0.25500000920E-02 0.  1.
       -2   -1    0    0    0  501  0.00000000000E+00  0.00000000000E+00 -0.87376848982E+03  0.87376848983E+03  0.25500000920E-02 0. -1.
    10030    2    1    2    0    0  0.00000000000E+00  0.00000000000E+00  0.47662552317E+02  0.17951995320E+04  0.17945667000E+04 0.  0.
        5    1    3    3  502    0  0.13114044941E+03 -0.45736493933E+03 -0.73717006440E+03  0.87739517838E+03  0.46999998093E+01 0. -1.
       -5    1    3    3    0  502 -0.13114044941E+03  0.45736493933E+03  0.78483261672E+03  0.91780435359E+03  0.46999998093E+01 0.  1.
</event>
<event>
 5   0  0.2569405E-04  0.1796902E+04  0.7818609E-02  0.8707949E-01
        2   -1    0    0  501    0  0.00000000000E+00  0.00000000000E+00  0.17267399656E+04  0.17267399656E+04  0.25500000920E-02 0.  1.
       -2   -1    0    0    0  501  0.00000000000E+00  0.00000000000E+00 -0.46747877122E+03  0.46747877123E+03  0.25500000920E-02 0. -1.
    10030    2    1    2    0    0  0.00000000000E+00  0.00000000000E+00  0.12592611943E+04  0.21942187368E+04  0.17969020867E+04 0.  0.
        2    1    3    3  502    0 -0.57321982146E+03  0.20547231274E+03 -0.17705641241E+03  0.63415203871E+03  0.25500000920E-02 0. -1.
       -2    1    3    3    0  502  0.57321982146E+03 -0.20547231274E+03  0.14363176067E+04  0.15600666981E+04  0.25500000920E-02 0.  1.
</event>
<event>
 5   0  0.1330225E-04  0.1793341E+04  0.7818609E-02  0.8709849E-01
        1   -1    0    0  501    0  0.00000000000E+00  0.00000000000E+00  0.15145020628E+04  0.15145020628E+04  0.50400001928E-02 0.  1.
       -1   -1    0    0    0  501  0.00000000000E+00  0.00000000000E+00 -0.53087959833E+03  0.53087959836E+03  0.50400001928E-02 0. -1.
    10030    2    1    2    0    0  0.00000000000E+00  0.00000000000E+00  0.98362246445E+03  0.20453816611E+04  0.17933412913E+04 0.  0.
        3    1    3    3  502    0  0.38374165211E+03 -0.51636412440E+03  0.12041971803E+04  0.13652766840E+04  0.10100000352E+00 0.  1.
       -3    1    3    3    0  502 -0.38374165211E+03  0.51636412440E+03 -0.22057471584E+03  0.68010497719E+03  0.10100000352E+00 0. -1.
</event>
<event>
 5   0  0.1214723E-04  0.1803281E+04  0.7818609E-02  0.8704557E-01
        1   -1    0    0  501    0  0.00000000000E+00  0.00000000000E+00  0.75673637413E+03  0.75673637415E+03  0.50400001928E-02 0.  1.
       -1   -1    0    0    0  501  0.00000000000E+00  0.00000000000E+00 -0.10742915912E+04  0.10742915912E+04  0.50400001928E-02 0. -1.
    10030    2    1    2    0    0  0.00000000000E+00  0.00000000000E+00 -0.31755521703E+03  0.18310279653E+04  0.18032809248E+04 0.  0.
        1    1    3    3  502    0  0.33936038770E+03  0.65973636599E+01 -0.10069427702E+04  0.10626112838E+04  0.50400001928E-02 0. -1.
       -1    1    3    3    0  502 -0.33936038770E+03 -0.65973636599E+01  0.68938755318E+03  0.76841668152E+03  0.50400001928E-02 0.  1.
</event>
<event>
 5   0  0.2417106E-04  0.1727145E+04  0.7818609E-02  0.8746032E-01
        2   -1    0    0  501    0  0.00000000000E+00  0.00000000000E+00  0.15838245838E+04  0.15838245838E+04  0.25500000920E-02 0.  1.
       -2   -1    0    0    0  501  0.00000000000E+00  0.00000000000E+00 -0.47085852149E+03  0.47085852149E+03  0.25500000920E-02 0. -1.
    10030    2    1    2    0    0  0.00000000000E+00  0.00000000000E+00  0.11129660623E+04  0.20546831053E+04  0.17271448136E+04 0.  0.
        4    1    3    3  502    0 -0.62678841842E+03 -0.37868591811E+03  0.11984578722E+02  0.73240152176E+03  0.12699999809E+01 0. -1.
       -4    1    3    3    0  502  0.62678841842E+03  0.37868591811E+03  0.11009814836E+04  0.13222815835E+04  0.12699999809E+01 0.  1.
</event>
<event>
 5   0  0.2393421E-04  0.1812939E+04  0.7818609E-02  0.8699449E-01
       -2   -1    0    0    0  501  0.00000000000E+00  0.00000000000E+00  0.10581681939E+04  0.10581681939E+04  0.25500000920E-02 0. -1.
        2   -1    0    0  501    0  0.00000000000E+00  0.00000000000E+00 -0.77651866475E+03  0.77651866475E+03  0.25500000920E-02 0.  1.
    10030    2    1    2    0    0  0.00000000000E+00  0.00000000000E+00  0.28164952918E+03  0.18346868587E+04  0.18129394397E+04 0.  0.
        5    1    3    3  502    0 -0.28209745694E+03  0.16342693488E+03  0.99677087063E+03  0.10487428650E+04  0.46999998093E+01 0. -1.
       -5    1    3    3    0  502  0.28209745694E+03 -0.16342693488E+03 -0.71512134146E+03  0.78594399372E+03  0.46999998093E+01 0.  1.
</event>
<event>
 5   0  0.2393421E-04  0.1797853E+04  0.7818609E-02  0.8707442E-01
       -2   -1    0    0    0  501  0.00000000000E+00  0.00000000000E+00  0.76505364397E+03  0.76505364398E+03  0.25500000920E-02 0. -1.
        2   -1    0    0  501    0  0.00000000000E+00  0.00000000000E+00 -0.10562249724E+04  0.10562249725E+04  0.25500000920E-02 0.  1.
    10030    2    1    2    0    0  0.00000000000E+00  0.00000000000E+00 -0.29117132847E+03  0.18212786164E+04  0.17978529017E+04 0.  0.
        5    1    3    3  502    0 -0.50180219277E+03  0.69529830586E+03 -0.41891886987E+03  0.95433761548E+03  0.46999998093E+01 0. -1.
       -5    1    3    3    0  502  0.50180219277E+03 -0.69529830586E+03  0.12774754140E+03  0.86694100095E+03  0.46999998093E+01 0.  1.
</event>
<event>
 5   0  0.1308893E-04  0.1803586E+04  0.7818609E-02  0.8704395E-01
       -1   -1    0    0    0  501  0.00000000000E+00  0.00000000000E+00  0.10183810712E+04  0.10183810712E+04  0.50400001928E-02 0.  1.
        1   -1    0    0  501    0  0.00000000000E+00  0.00000000000E+00 -0.79855197870E+03  0.79855197871E+03  0.50400001928E-02 0. -1.
    10030    2    1    2    0    0  0.00000000000E+00  0.00000000000E+00  0.21982909249E+03  0.18169330499E+04  0.18035855616E+04 0.  0.
        4    1    3    3  502    0 -0.55071720653E+03 -0.48255165203E+03 -0.42036779956E+03  0.84430814177E+03  0.12699999809E+01 0. -1.
       -4    1    3    3    0  502  0.55071720653E+03  0.48255165203E+03  0.64019689205E+03  0.97262490814E+03  0.12699999809E+01 0.  1.
</event>
<event>
 5   0  0.1239119E-04  0.1809656E+04  0.7818609E-02  0.8701182E-01
       -1   -1    0    0    0  501  0.00000000000E+00  0.00000000000E+00  0.59928408865E+03  0.59928408867E+03  0.50400001928E-02 0.  1.
        1   -1    0    0  501    0  0.00000000000E+00  0.00000000000E+00 -0.13661523856E+04  0.13661523856E+04  0.50400001928E-02 0. -1.
    10030    2    1    2    0    0  0.00000000000E+00  0.00000000000E+00 -0.76686829699E+03  0.19654364743E+04  0.18096556439E+04 0.  0.
        5    1    3    3  502    0 -0.48150743687E+03  0.27673382714E+03  0.39238223904E+03  0.68001245162E+03  0.46999998093E+01 0.  1.
       -5    1    3    3    0  502  0.48150743687E+03 -0.27673382714E+03 -0.11592505360E+04  0.12854240227E+04  0.46999998093E+01 0. -1.
</event>
<event>
 5   0  0.2550616E-04  0.1796505E+04  0.7818609E-02  0.8708160E-01
        2   -1    0    0  501    0  0.00000000000E+00  0.00000000000E+00  0.14798673372E+04  0.14798673372E+04  0.25500000920E-02 0. -1.
       -2   -1    0    0    0  501  0.00000000000E+00  0.00000000000E+00 -0.54522309572E+03  0.54522309572E+03  0.25500000920E-02 0.  1.
    10030    2    1    2    0    0  0.00000000000E+00  0.00000000000E+00  0.93464424144E+03  0.20250904329E+04  0.17965053307E+04 0.  0.
        1    1    3    3  502    0 -0.32206573594E+03  0.16483324195E+02 -0.47771804671E+03  0.57637884280E+03  0.50400001928E-02 0.  1.
       -1    1    3    3    0  502  0.32206573594E+03 -0.16483324195E+02  0.14123622882E+04  0.14487115901E+04  0.50400001928E-02 0. -1.
</event>
<event>
 5   0  0.2417106E-04  0.1803105E+04  0.7818609E-02  0.8704650E-01
       -2   -1    0    0    0  501  0.00000000000E+00  0.00000000000E+00  0.88116727169E+03  0.88116727170E+03  0.25500000920E-02 0. -1.
        2   -1    0    0  501    0  0.00000000000E+00  0.00000000000E+00 -0.92240919180E+03  0.92240919180E+03  0.25500000920E-02 0.  1.
    10030    2    1    2    0    0  0.00000000000E+00  0.00000000000E+00 -0.41241920104E+02  0.18035764635E+04  0.18031048676E+04 0.  0.
        4    1    3    3  502    0  0.40863718441E+03  0.47063401968E+03 -0.67218556472E+03  0.91668739234E+03  0.12699999809E+01 0.  1.
       -4    1    3    3    0  502 -0.40863718441E+03 -0.47063401968E+03  0.63094364461E+03  0.88688907116E+03  0.12699999809E+01 0. -1.
</event>
<event>
 5   0  0.2569405E-04  0.1804911E+04  0.7818609E-02  0.8703692E-01
       -2   -1    0    0    0  501  0.00000000000E+00  0.00000000000E+00  0.87417053295E+03  0.87417053295E+03  0.25500000920E-02 0. -1.
        2   -1    0    0  501    0  0.00000000000E+00  0.00000000000E+00 -0.93165522565E+03  0.93165522566E+03  0.25500000920E-02 0.  1.
    10030    2    1    2    0    0  0.00000000000E+00  0.00000000000E+00 -0.57484692704E+02  0.18058257586E+04  0.18049105741E+04 0.  0.
        2    1    3    3  502    0  0.90077977345E+03  0.49117089931E+01 -0.83516977822E+02  0.90465651533E+03  0.25500000920E-02 0.  1.
       -2    1    3    3    0  502 -0.90077977345E+03 -0.49117089931E+01  0.26032285118E+02  0.90116924327E+03  0.25500000920E-02 0. -1.
</event>
<event>
 5   0  0.2569405E-04  0.1790314E+04  0.7818609E-02  0.8711467E-01
        2   -1    0    0  501    0  0.00000000000E+00  0.00000000000E+00  0.97792268499E+03  0.97792268500E+03  0.25500000920E-02 0.  1.
       -2   -1    0    0    0  501  0.00000000000E+00  0.00000000000E+00 -0.81939617254E+03  0.81939617255E+03  0.25500000920E-02 0. -1.
    10030    2    1    2    0    0  0.00000000000E+00  0.00000000000E+00  0.15852651245E+03  0.17973188575E+04  0.17903140564E+04 0.  0.
        2    1    3    3  502    0 -0.14536321436E+03 -0.33008739157E+03 -0.74322118669E+03  0.82611493299E+03  0.25500000920E-02 0. -1.
       -2    1    3    3    0  502  0.14536321436E+03  0.33008739157E+03  0.90174769914E+03  0.97120392455E+03  0.25500000920E-02 0.  1.
</event>
<event>
 5   0  0.9144875E-05  0.1721328E+04  0.7818609E-02  0.8749293E-01
        4   -1    0    0  501    0  0.00000000000E+00  0.00000000000E+00  0.76327467744E+03  0.76327573401E+03  0.12699999809E+01 0.  1.
       -4   -1    0    0    0  501  0.00000000000E+00  0.00000000000E+00 -0.97047762919E+03  0.97047846018E+03  0.12699999809E+01 0. -1.
    10030    2    1    2    0    0  0.00000000000E+00  0.00000000000E+00 -0.20720295175E+03  0.17337541942E+04  0.17213281333E+04 0.  0.
        1    1    3    3  502    0 -0.68399696945E+03 -0.12963101524E+03  0.40610161713E+03  0.80596189600E+03  0.50400001928E-02 0.  1.
       -1    1    3    3    0  502  0.68399696945E+03  0.12963101524E+03 -0.61330456889E+03  0.92779229819E+03  0.50400001928E-02 0. -1.
</event>
<event>
 5   0  0.1330225E-04  0.1778971E+04  0.7818609E-02  0.8717563E-01
        1   -1    0    0  501    0  0.00000000000E+00  0.00000000000E+00  0.11009713158E+04  0.11009713158E+04  0.50400001928E-02 0. -1.
       -1   -1    0    0    0  501  0.00000000000E+00  0.00000000000E+00 -0.71862390843E+03  0.71862390845E+03  0.50400001928E-02 0.  1.
    10030    2    1    2    0    0  0.00000000000E+00  0.00000000000E+00  0.38234740740E+03  0.18195952243E+04  0.17789708374E+04 0.  0.
        3    1    3    3  502    0  0.35682319510E+03 -0.63737335877E+03  0.71032384119E+03  0.10188854502E+04  0.10100000352E+00 0. -1.
       -3    1    3    3    0  502 -0.35682319510E+03  0.63737335877E+03 -0.32797643379E+03  0.80070977411E+03  0.10100000352E+00 0.  1.
</event>
<event>
 5   0  0.2393421E-04  0.1795032E+04  0.7818609E-02  0.8708946E-01
        2   -1    0    0  501    0  0.00000000000E+00  0.00000000000E+00  0.82721630306E+03  0.82721630306E+03  0.25500000920E-02 0. -1.
       -2   -1    0    0    0  501  0.00000000000E+00  0.00000000000E+00 -0.97379032550E+03  0.97379032550E+03  0.25500000920E-02 0.  1.
    10030    2    1    2    0    0  0.00000000000E+00  0.00000000000E+00 -0.14657402244E+03  0.18010066286E+04  0.17950322928E+04 0.  0.
        5    1    3    3  502    0  0.80238430755E+02  0.39283052097E+03  0.73235441918E+03  0.83493658997E+03  0.46999998093E+01 0. -1.
       -5    1    3    3    0  502 -0.80238430755E+02 -0.39283052097E+03 -0.87892844163E+03  0.96607003860E+03  0.46999998093E+01 0.  1.
</event>
<event>
 5   0  0.2550616E-04  0.1850912E+04  0.7818609E-02  0.8679684E-01
        2   -1    0    0  501    0  0.00000000000E+00  0.00000000000E+00  0.14793720040E+04  0.14793720040E+04  0.25500000920E-02 0. -1.
       -2   -1    0    0    0  501  0.00000000000E+00  0.00000000000E+00 -0.57894052446E+03  0.57894052447E+03  0.25500000920E-02 0.  1.
    10030    2    1    2    0    0  0.00000000000E+00  0.00000000000E+00  0.90043147950E+03  0.20583125284E+04  0.18509115634E+04 0.  0.
        1    1    3    3  502    0 -0.94119188469E+02 -0.34213810273E+03 -0.50028195413E+03  0.61335058216E+03  0.50400001928E-02 0.  1.
       -1    1    3    3    0  502  0.94119188469E+02  0.34213810273E+03  0.14007134336E+04  0.14449619463E+04  0.50400001928E-02 0. -1.
</event>
<event>
 5   0  0.1308893E-04  0.1816019E+04  0.7818609E-02  0.8697827E-01
        1   -1    0    0  501    0  0.00000000000E+00  0.00000000000E+00  0.14284725545E+04  0.14284725545E+04  0.50400001928E-02 0.  1.
       -1   -1    0    0    0  501  0.00000000000E+00  0.00000000000E+00 -0.57717651183E+03  0.57717651185E+03  0.50400001928E-02 0. -1.
    10030    2    1    2    0    0  0.00000000000E+00  0.00000000000E+00  0.85129604270E+03  0.20056490664E+04  0.18160185090E+04 0.  0.
        4    1    3    3  502    0 -0.12542687183E+03  0.63774762621E+03 -0.27461524474E+03  0.70559838468E+03  0.12699999809E+01 0. -1.
       -4    1    3    3    0  502  0.12542687183E+03 -0.63774762621E+03  0.11259112874E+04  0.13000506817E+04  0.12699999809E+01 0.  1.
</event>
<event>
 5   0  0.1330225E-04  0.1791936E+04  0.7818609E-02  0.8710599E-01
       -1   -1    0    0    0  501  0.00000000000E+00  0.00000000000E+00  0.70365448407E+03  0.70365448409E+03  0.50400001928E-02 0. -1.
        1   -1    0    0  501    0  0.00000000000E+00  0.00000000000E+00 -0.11408426320E+04  0.11408426320E+04  0.50400001928E-02 0.  1.
    10030    2    1    2    0    0  0.00000000000E+00  0.00000000000E+00 -0.43718814790E+03  0.18444971161E+04  0.17919364203E+04 0.  0.
        3    1    3    3  502    0  0.64924149168E+03  0.61122841950E+02  0.41384508951E+03  0.77234596176E+03  0.10100000352E+00 0. -1.
       -3    1    3    3    0  502 -0.64924149168E+03 -0.61122841950E+02 -0.85103323741E+03  0.10721511543E+04  0.10100000352E+00 0.  1.
</event>
<event>
 5   0  0.2393421E-04  0.1815357E+04  0.7818609E-02  0.8698175E-01
        2   -1    0    0  501    0  0.00000000000E+00  0.00000000000E+00  0.80598993276E+03  0.80598993276E+03  0.25500000920E-02 0. -1.
       -2   -1    0    0    0  501  0.00000000000E+00  0.00000000000E+00 -0.10221971646E+04  0.10221971647E+04  0.25500000920E-02 0.  1.
    10030    2    1    2    0    0  0.00000000000E+00  0.00000000000E+00 -0.21620723189E+03  0.18281870974E+04  0.18153574017E+04 0.  0.
        5    1    3    3  502    0 -0.52800709491E+03 -0.36487595230E+03 -0.75445929774E+03  0.99053363133E+03  0.46999998093E+01 0.  1.
       -5    1    3    3    0  502  0.52800709491E+03  0.36487595230E+03  0.53825206586E+03  0.83765346608E+03  0.46999998093E+01 0. -1.
</event>
<event>
 5   0  0.2393421E-04  0.1799120E+04  0.7818609E-02  0.8706767E-01
        2   -1    0    0  501    0  0.00000000000E+00  0.00000000000E+00  0.78765463200E+03  0.78765463200E+03  0.25500000920E-02 0.  1.
       -2   -1    0    0    0  501  0.00000000000E+00  0.00000000000E+00 -0.10273646934E+04  0.10273646934E+04  0.25500000920E-02 0. -1.
    10030    2    1    2    0    0  0.00000000000E+00  0.00000000000E+00 -0.23971006145E+03  0.18150193255E+04  0.17991204068E+04 0.  0.
        5    1    3    3  502    0 -0.69299099524E+03 -0.53001975227E+03  0.10123687929E+03  0.87830999824E+03  0.46999998093E+01 0.  1.
       -5    1    3    3    0  502  0.69299099524E+03  0.53001975227E+03 -0.34094694074E+03  0.93670932721E+03  0.46999998093E+01 0. -1.
</event>
<event>
 5   0  0.2569405E-04  0.1799361E+04  0.7818609E-02  0.8706639E-01
       -2   -1    0    0    0  501  0.00000000000E+00  0.00000000000E+00  0.11014088967E+04  0.11014088967E+04  0.25500000920E-02 0. -1.
        2   -1    0    0  501    0  0.00000000000E+00  0.00000000000E+00 -0.73489958951E+03  0.73489958952E+03  0.25500000920E-02 0.  1.
    10030    2    1    2    0    0  0.00000000000E+00  0.00000000000E+00  0.36650930722E+03  0.18363084863E+04  0.17993609378E+04 0.  0.
        2    1    3    3  502    0 -0.41918480398E+03  0.67993240221E+03  0.60576173922E+03  0.10024825466E+04  0.25500000920E-02 0.  1.
       -2    1    3    3    0  502  0.41918480398E+03 -0.67993240221E+03 -0.23925243201E+03  0.83382593968E+03  0.25500000920E-02 0. -1.
</event>
<event>
 5   0  0.2417106E-04  0.1834768E+04  0.7818609E-02  0.8688026E-01
       -2   -1    0    0    0  501  0.00000000000E+00  0.00000000000E+00  0.92456855632E+03  0.92456855632E+03  0.25500000920E-02 0. -1.
        2   -1    0    0  501    0  0.00000000000E+00  0.00000000000E+00 -0.91025551302E+03  0.91025551303E+03  0.25500000920E-02 0.  1.
    10030    2    1    2    0    0  0.00000000000E+00  0.00000000000E+00  0.14313043294E+02  0.18348240693E+04  0.18347682421E+04 0.  0.
        4    1    3    3  502    0  0.40629769562E+03 -0.10496867280E+03 -0.80864754317E+03  0.91104813358E+03  0.12699999809E+01 0.  1.
       -4    1    3    3    0  502 -0.40629769562E+03  0.10496867280E+03  0.82296058646E+03  0.92377593577E+03  0.12699999809E+01 0. -1.
</event>
<event>
 5   0  0.1214723E-04  0.1805730E+04  0.7818609E-02  0.8703258E-01
        1   -1    0    0  501    0  0.00000000000E+00  0.00000000000E+00  0.69915903939E+03  0.69915903941E+03  0.50400001928E-02 0.  1.
       -1   -1    0    0    0  501  0.00000000000E+00  0.00000000000E+00 -0.11659228770E+04  0.11659228770E+04  0.50400001928E-02 0. -1.
    10030    2    1    2    0    0  0.00000000000E+00  0.00000000000E+00 -0.46676383758E+03  0.18650819164E+04  0.18057303439E+04 0.  0.
        1    1    3    3  502    0  0.36168743720E+03 -0.61619934914E+03 -0.80347111567E+03  0.10752140596E+04  0.50400001928E-02 0. -1.
       -1    1    3    3    0  502 -0.36168743720E+03  0.61619934914E+03  0.33670727810E+03  0.78986785683E+03  0.50400001928E-02 0.  1.
</event>
<event>
 5   0  0.1214723E-04  0.1835917E+04  0.7818609E-02  0.8687429E-01
        1   -1    0    0  501    0  0.00000000000E+00  0.00000000000E+00  0.15073102510E+04  0.15073102510E+04  0.50400001928E-02 0. -1.
       -1   -1    0    0    0  501  0.00000000000E+00  0.00000000000E+00 -0.55904052940E+03  0.55904052943E+03  0.50400001928E-02 0.  1.
    10030    2    1    2    0    0  0.00000000000E+00  0.00000000000E+00  0.94826972159E+03  0.20663507804E+04  0.18359166873E+04 0.  0.
        1    1    3    3  502    0 -0.67531867334E+03  0.54362008693E+03  0.81378933798E+03  0.11890463389E+04  0.50400001928E-02 0. -1.
       -1    1    3    3    0  502  0.67531867334E+03 -0.54362008693E+03  0.13448038361E+03  0.87730444150E+03  0.50400001928E-02 0.  1.
</event>
<event>
 5   0  0.1330225E-04  0.1781606E+04  0.7818609E-02  0.8716143E-01
       -1   -1    0    0    0  501  0.00000000000E+00  0.00000000000E+00  0.10929689373E+04  0.10929689373E+04  0.50400001928E-02 0.  1.
        1   -1    0    0  501    0  0.00000000000E+00  0.00000000000E+00 -0.72603170431E+03  0.72603170432E+03  0.50400001928E-02 0. -1.
    10030    2    1    2    0    0  0.00000000000E+00  0.00000000000E+00  0.36693723295E+03  0.18190006416E+04  0.17816061296E+04 0.  0.
        3    1    3    3  502    0 -0.23615711961E+03  0.14280548823E+03  0.10482208635E+04  0.10839421486E+04  0.10100000352E+00 0.  1.
       -3    1    3    3    0  502  0.23615711961E+03 -0.14280548823E+03 -0.68128363057E+03  0.73505849298E+03  0.10100000352E+00 0. -1.
</event>
<event>
 5   0  0.2550616E-04  0.1768271E+04  0.7818609E-02  0.8723357E-01
       -2   -1    0    0    0  501  0.00000000000E+00  0.00000000000E+00  0.51748955659E+03  0.51748955659E+03  0.25500000920E-02 0.  1.
        2   -1    0    0  501    0  0.00000000000E+00  0.00000000000E+00 -0.15105536696E+04  0.15105536696E+04  0.25500000920E-02 0. -1.
    10030    2    1    2    0    0  0.00000000000E+00  0.00000000000E+00 -0.99306411300E+03  0.20280432262E+04  0.17682711881E+04 0.  0.
        1    1    3    3  502    0  0.66323972687E+03  0.40742328583E+02  0.17237050163E+03  0.68648267457E+03  0.50400001928E-02 0.  1.
       -1    1    3    3    0  502 -0.66323972687E+03 -0.40742328583E+02 -0.11654346146E+04  0.13415605516E+04  0.50400001928E-02 0. -1.
</event>
<event>
 5   0  0.9144875E-05  0.1830899E+04  0.7818609E-02  0.8690038E-01
       -3   -1    0    0    0  501  0.00000000000E+00  0.00000000000E+00  0.98373865883E+03  0.98373866401E+03  0.10100000352E+00 0.  1.
        3   -1    0    0  501    0  0.00000000000E+00  0.00000000000E+00 -0.85190058365E+03  0.85190058963E+03  0.10100000352E+00 0. -1.
    10030    2    1    2    0    0  0.00000000000E+00  0.00000000000E+00  0.13183807518E+03  0.18356392536E+04  0.18308987387E+04 0.  0.
        3    1    3    3  502    0  0.21301527518E+03 -0.44318757492E+00  0.95854543083E+03  0.98192925256E+03  0.10100000352E+00 0.  1.
       -3    1    3    3    0  502 -0.21301527518E+03  0.44318757492E+00 -0.82670735565E+03  0.85371000109E+03  0.10100000352E+00 0. -1.
</event>
<event>
 5   0  0.2417106E-04  0.1795272E+04  0.7818609E-02  0.8708818E-01
        2   -1    0    0  501    0  0.00000000000E+00  0.00000000000E+00  0.11034988578E+04  0.11034988578E+04  0.25500000920E-02 0.  1.
       -2   -1    0    0    0  501  0.00000000000E+00  0.00000000000E+00 -0.73017809466E+03  0.73017809466E+03  0.25500000920E-02 0. -1.
    10030    2    1    2    0    0  0.00000000000E+00  0.00000000000E+00  0.37332076314E+03  0.18336769525E+04  0.17952723397E+04 0.  0.
        4    1    3    3  502    0 -0.36793777113E+03 -0.81854304162E+03  0.16733025250E+03  0.91290302919E+03  0.12699999809E+01 0.  1.
       -4    1    3    3    0  502  0.36793777113E+03  0.81854304162E+03  0.20599051064E+03  0.92077392328E+03  0.12699999809E+01 0. -1.
</event>
<event>
 5   0  0.1308893E-04  0.1786919E+04  0.7818609E-02  0.8713287E-01
       -1   -1    0    0    0  501  0.00000000000E+00  0.00000000000E+00  0.66648458318E+03  0.66648458320E+03  0.50400001928E-02 0. -1.
        1   -1    0    0  501    0  0.00000000000E+00  0.00000000000E+00 -0.11977324380E+04  0.11977324380E+04  0.50400001928E-02 0.  1.
    10030    2    1    2    0    0  0.00000000000E+00  0.00000000000E+00 -0.53124785484E+03  0.18642170212E+04  0.17869193656E+04 0.  0.
        4    1    3    3  502    0  0.42698682610E+03 -0.78449623797E+03 -0.24191431302E+03  0.92535195725E+03  0.12699999809E+01 0. -1.
       -4    1    3    3    0  502 -0.42698682610E+03  0.78449623797E+03 -0.28933354182E+03  0.93886506398E+03  0.12699999809E+01 0.  1.
</event>
<event>
 5   0  0.1239119E-04  0.1797501E+04  0.7818609E-02  0.8707629E-01
       -1   -1    0    0    0  501  0.00000000000E+00  0.00000000000E+00  0.10260680245E+04  0.10260680245E+04  0.50400001928E-02 0. -1.
        1   -1    0    0  501    0  0.00000000000E+00  0.00000000000E+00 -0.78723113473E+03  0.78723113474E+03  0.50400001928E-02 0.  1.
    10030    2    1    2    0    0  0.00000000000E+00  0.00000000000E+00  0.23883688979E+03  0.18132991593E+04  0.17975012604E+04 0.  0.
        5    1    3    3  502    0  0.37823412260E+03  0.73842425570E+03 -0.22916031043E+03  0.86073687662E+03  0.46999998093E+01 0. -1.
       -5    1    3    3    0  502 -0.37823412260E+03 -0.73842425570E+03  0.46799720021E+03  0.95256228264E+03  0.46999998093E+01 0.  1.
</event>
<event>
 5   0  0.2550616E-04  0.1751089E+04  0.7818609E-02  0.8732751E-01
        2   -1    0    0  501    0  0.00000000000E+00  0.00000000000E+00  0.16357644115E+04  0.16357644115E+04  0.25500000920E-02 0.  1.
       -2   -1    0    0    0  501  0.00000000000E+00  0.00000000000E+00 -0.46863592400E+03  0.46863592401E+03  0.25500000920E-02 0. -1.
    10030    2    1    2    0    0  0.00000000000E+00  0.00000000000E+00  0.11671284875E+04  0.21044003355E+04  0.17510887658E+04 0.  0.
        1    1    3    3  502    0 -0.16160978169E+02  0.41462607602E+03  0.15100960529E+04  0.15660670641E+04  0.50400001928E-02 0.  1.
       -1    1    3    3    0  502  0.16160978169E+02 -0.41462607602E+03 -0.34296756544E+03  0.53833327141E+03  0.50400001928E-02 0. -1.
</event>
<event>
 5   0  0.1330225E-04  0.1665011E+04  0.7818609E-02  0.8781575E-01
        1   -1    0    0  501    0  0.00000000000E+00  0.00000000000E+00  0.53920154186E+03  0.53920154188E+03  0.50400001928E-02 0.  1.
       -1   -1    0    0    0  501  0.00000000000E+00  0.00000000000E+00 -0.12853557874E+04  0.12853557875E+04  0.50400001928E-02 0. -1.
    10030    2    1    2    0    0  0.00000000000E+00  0.00000000000E+00 -0.74615424559E+03  0.18245573293E+04  0.16650114984E+04 0.  0.
        3    1    3    3  502    0  0.39657548343E+03  0.11563380381E+03 -0.11651246134E+04  0.12361871483E+04  0.10100000352E+00 0. -1.
       -3    1    3    3    0  502 -0.39657548343E+03 -0.11563380381E+03  0.41897036781E+03  0.58837018105E+03  0.10100000352E+00 0.  1.
</event>
<event>
 5   0  0.2569405E-04  0.1820468E+04  0.7818609E-02  0.8695490E-01
        2   -1    0    0  501    0  0.00000000000E+00  0.00000000000E+00  0.12931132886E+04  0.12931132886E+04  0.25500000920E-02 0. -1.
       -2   -1    0    0    0  501  0.00000000000E+00  0.00000000000E+00 -0.64072176674E+03  0.64072176674E+03  0.25500000920E-02 0.  1.
    10030    2    1    2    0    0  0.00000000000E+00  0.00000000000E+00  0.65239152184E+03  0.19338350553E+04  0.18204678859E+04 0.  0.
        2    1    3    3  502    0  0.21315111896E+03 -0.78479970769E+03  0.76053690405E+03  0.11134452672E+04  0.25500000920E-02 0. -1.
       -2    1    3    3    0  502 -0.21315111896E+03  0.78479970769E+03 -0.10814538220E+03  0.82038978809E+03  0.25500000920E-02 0.  1.
</event>
<event>
 5   0  0.2569405E-04  0.1827214E+04  0.7818609E-02  0.8691960E-01
        2   -1    0    0  501    0  0.00000000000E+00  0.00000000000E+00  0.13390173374E+04  0.13390173375E+04  0.25500000920E-02 0.  1.
       -2   -1    0    0    0  501  0.00000000000E+00  0.00000000000E+00 -0.62335099846E+03  0.62335099846E+03  0.25500000920E-02 0. -1.
    10030    2    1    2    0    0  0.00000000000E+00  0.00000000000E+00  0.71566633899E+03  0.19623683359E+04  0.18272140480E+04 0.  0.
        2    1    3    3  502    0 -0.12370204819E+03 -0.67529150381E+03  0.10052110512E+04  0.12172797826E+04  0.25500000920E-02 0.  1.
       -2    1    3    3    0  502  0.12370204819E+03  0.67529150381E+03 -0.28954471218E+03  0.74508855326E+03  0.25500000920E-02 0. -1.
</event>
<event>
 5   0  0.2417106E-04  0.1883265E+04  0.7818609E-02  0.8663232E-01
       -2   -1    0    0    0  501  0.00000000000E+00  0.00000000000E+00  0.73925793484E+03  0.73925793485E+03  0.25500000920E-02 0. -1.
        2   -1    0    0  501    0  0.00000000000E+00  0.00000000000E+00 -0.11994073770E+04  0.11994073770E+04  0.25500000920E-02 0.  1.
    10030    2    1    2    0    0  0.00000000000E+00  0.00000000000E+00 -0.46014944213E+03  0.19386653118E+04  0.18832646341E+04 0.  0.
        4    1    3    3  502    0 -0.59697515420E+02  0.92710321321E+03 -0.71980723923E+02  0.93180845607E+03  0.12699999809E+01 0. -1.
       -4    1    3    3    0  502  0.59697515420E+02 -0.92710321321E+03 -0.38816871821E+03  0.10068568558E+04  0.12699999809E+01 0.  1.
</event>
<event>
 5   0  0.2431811E-04  0.1783464E+04  0.7818609E-02  0.8715143E-01
       -2   -1    0    0    0  501  0.00000000000E+00  0.00000000000E+00  0.71746969528E+03  0.71746969528E+03  0.25500000920E-02 0. -1.
        2   -1    0    0  501    0  0.00000000000E+00  0.00000000000E+00 -0.11083204213E+04  0.11083204213E+04  0.25500000920E-02 0.  1.
    10030    2    1    2    0    0  0.00000000000E+00  0.00000000000E+00 -0.39085072605E+03  0.18257901166E+04  0.17834643983E+04 0.  0.
        3    1    3    3  502    0 -0.75995885875E+03  0.44262426057E+03 -0.44506936702E+02  0.88058763372E+03  0.10100000352E+00 0. -1.
       -3    1    3    3    0  502  0.75995885875E+03 -0.44262426057E+03 -0.34634378935E+03  0.94520248289E+03  0.10100000352E+00 0.  1.
</event>
<event>
 5   0  0.2550616E-04  0.1799561E+04  0.7818609E-02  0.8706533E-01
       -2   -1    0    0    0  501  0.00000000000E+00  0.00000000000E+00  0.62967302673E+03  0.62967302673E+03  0.25500000920E-02 0.  1.
        2   -1    0    0  501    0  0.00000000000E+00  0.00000000000E+00 -0.12857550116E+04  0.12857550116E+04  0.25500000920E-02 0. -1.
    10030    2    1    2    0    0  0.00000000000E+00  0.00000000000E+00 -0.65608198491E+03  0.19154280384E+04  0.17995613352E+04 0.  0.
        1    1    3    3  502    0 -0.86658022219E+02  0.40825253251E+03  0.52041927366E+03  0.66709516828E+03  0.50400001928E-02 0.  1.
       -1    1    3    3    0  502  0.86658022219E+02 -0.40825253251E+03 -0.11765012586E+04  0.12483328701E+04  0.50400001928E-02 0. -1.
</event>
<event>
 5   0  0.2393421E-04  0.1790404E+04  0.7818609E-02  0.8711419E-01
        2   -1    0    0  501    0  0.00000000000E+00  0.00000000000E+00  0.10618050912E+04  0.10618050912E+04  0.25500000920E-02 0.  1.
       -2   -1    0    0    0  501  0.00000000000E+00  0.00000000000E+00 -0.75473967982E+03  0.75473967983E+03  0.25500000920E-02 0. -1.
    10030    2    1    2    0    0  0.00000000000E+00  0.00000000000E+00  0.30706541139E+03  0.18165447710E+04  0.17904037920E+04 0.  0.
        5    1    3    3  502    0  0.53438442563E+03 -0.12813044381E+03  0.87051888635E+03  0.10294704204E+04  0.46999998093E+01 0.  1.
       -5    1    3    3    0  502 -0.53438442563E+03  0.12813044381E+03 -0.56345347497E+03  0.78707435064E+03  0.46999998093E+01 0. -1.
</event>
<event>
 5   0  0.1308893E-04  0.1803099E+04  0.7818609E-02  0.8704653E-01
       -1   -1    0    0    0  501  0.00000000000E+00  0.00000000000E+00  0.87828542580E+03  0.87828542581E+03  0.50400001928E-02 0. -1.
        1   -1    0    0  501    0  0.00000000000E+00  0.00000000000E+00 -0.92543008276E+03  0.92543008278E+03  0.50400001928E-02 0.  1.
    10030    2    1    2    0    0  0.00000000000E+00  0.00000000000E+00 -0.47144656963E+02  0.18037155086E+04  0.18030992810E+04 0.  0.
        4    1    3    3  502    0  0.59682264485E+03  0.33908525617E+03  0.56110501941E+03  0.88657573622E+03  0.12699999809E+01 0. -1.
       -4    1    3    3    0  502 -0.59682264485E+03 -0.33908525617E+03 -0.60824967637E+03  0.91713977237E+03  0.12699999809E+01 0.  1.
</event>
<event>
 5   0  0.1239119E-04  0.1808192E+04  0.7818609E-02  0.8701955E-01
       -1   -1    0    0    0  501  0.00000000000E+00  0.00000000000E+00  0.88814407946E+03  0.88814407948E+03  0.50400001928E-02 0. -1.
        1   -1    0    0  501    0  0.00000000000E+00  0.00000000000E+00 -0.92033492991E+03  0.92033492992E+03  0.50400001928E-02 0.  1.
    10030    2    1    2    0    0  0.00000000000E+00  0.00000000000E+00 -0.32190850449E+02  0.18084790094E+04  0.18081924888E+04 0.  0.
        5    1    3    3  502    0 -0.87106240254E+03 -0.20402008868E+03 -0.14647720888E+03  0.90656029498E+03  0.46999998093E+01 0.  1.
       -5    1    3    3    0  502  0.87106240254E+03  0.20402008868E+03  0.11428635843E+03  0.90191871442E+03  0.46999998093E+01 0. -1.
</event>
<event>
 5   0  0.2417106E-04  0.1780213E+04  0.7818609E-02  0.8716893E-01
       -2   -1    0    0    0  501  0.00000000000E+00  0.00000000000E+00  0.34955279528E+03  0.34955279529E+03  0.25500000920E-02 0.  1.
        2   -1    0    0  501    0  0.00000000000E+00  0.00000000000E+00 -0.22665803508E+04  0.22665803508E+04  0.25500000920E-02 0. -1.
    10030    2    1    2    0    0  0.00000000000E+00  0.00000000000E+00 -0.19170275555E+04  0.26161331461E+04  0.17802129056E+04 0.  0.
        4    1    3    3  502    0 -0.61417457430E+03 -0.13615551350E+03 -0.18839168466E+04  0.19861754780E+04  0.12699999809E+01 0. -1.
       -4    1    3    3    0  502  0.61417457430E+03  0.13615551350E+03 -0.33110708862E+02  0.62995766804E+03  0.12699999809E+01 0.  1.
</event>
<event>
 5   0  0.2569405E-04  0.1728485E+04  0.7818609E-02  0.8745283E-01
        2   -1    0    0  501    0  0.00000000000E+00  0.00000000000E+00  0.10894223105E+04  0.10894223105E+04  0.25500000920E-02 0.  1.
       -2   -1    0    0    0  501  0.00000000000E+00  0.00000000000E+00 -0.68560656470E+03  0.68560656470E+03  0.25500000920E-02 0. -1.
    10030    2    1    2    0    0  0.00000000000E+00  0.00000000000E+00  0.40381574582E+03  0.17750288752E+04  0.17284849873E+04 0.  0.
        2    1    3    3  502    0  0.10025474804E+03  0.20246184703E+03  0.10585607720E+04  0.10824013683E+04  0.25500000920E-02 0.  1.
       -2    1    3    3    0  502 -0.10025474804E+03 -0.20246184703E+03 -0.65474502621E+03  0.69262750693E+03  0.25500000920E-02 0. -1.
</event>
<event>
 5   0  0.1239119E-04  0.1823438E+04  0.7818609E-02  0.8693934E-01
       -1   -1    0    0    0  501  0.00000000000E+00  0.00000000000E+00  0.86993876812E+03  0.86993876814E+03  0.50400001928E-02 0. -1.
        1   -1    0    0  501    0  0.00000000000E+00  0.00000000000E+00 -0.95550536404E+03  0.95550536405E+03  0.50400001928E-02 0.  1.
    10030    2    1    2    0    0  0.00000000000E+00  0.00000000000E+00 -0.85566595913E+02  0.18254441322E+04  0.18234375880E+04 0.  0.
        5    1    3    3  502    0 -0.45338147471E+03 -0.13167641957E+03  0.73802088251E+03  0.87612233969E+03  0.46999998093E+01 0. -1.
       -5    1    3    3    0  502  0.45338147471E+03  0.13167641957E+03 -0.82358747843E+03  0.94932179249E+03  0.46999998093E+01 0.  1.
</event>
<event>
 5   0  0.1253925E-04  0.1815379E+04  0.7818609E-02  0.8698164E-01
       -1   -1    0    0    0  501  0.00000000000E+00  0.00000000000E+00  0.59891671650E+03  0.59891671652E+03  0.50400001928E-02 0. -1.
        1   -1    0    0  501    0  0.00000000000E+00  0.00000000000E+00 -0.13756509748E+04  0.13756509748E+04  0.50400001928E-02 0.  1.
    10030    2    1    2    0    0  0.00000000000E+00  0.00000000000E+00 -0.77673425826E+03  0.19745676913E+04  0.18153791504E+04 0.  0.
        2    1    3    3  502    0 -0.79210496439E+02  0.68869937970E+02 -0.13690276733E+04  0.13730455715E+04  0.25500000920E-02 0.  1.
       -2    1    3    3    0  502  0.79210496439E+02 -0.68869937970E+02  0.59229341505E+03  0.60152211981E+03  0.25500000920E-02 0. -1.
</event>
<event>
 5   0  0.2393421E-04  0.1785915E+04  0.7818609E-02  0.8713826E-01
        2   -1    0    0  501    0  0.00000000000E+00  0.00000000000E+00  0.12512158487E+04  0.12512158487E+04  0.25500000920E-02 0. -1.
       -2   -1    0    0    0  501  0.00000000000E+00  0.00000000000E+00 -0.63727893904E+03  0.63727893904E+03  0.25500000920E-02 0.  1.
    10030    2    1    2    0    0  0.00000000000E+00  0.00000000000E+00  0.61393690963E+03  0.18884947877E+04  0.17859154611E+04 0.  0.
        5    1    3    3  502    0 -0.31756398632E+03  0.57389937794E+03 -0.33375870395E+03  0.73595131895E+03  0.46999998093E+01 0.  1.
       -5    1    3    3    0  502  0.31756398632E+03 -0.57389937794E+03  0.94769561358E+03  0.11525434688E+04  0.46999998093E+01 0. -1.
</event>
<event>
 5   0  0.1253925E-04  0.1792921E+04  0.7818609E-02  0.8710073E-01
        1   -1    0    0  501    0  0.00000000000E+00  0.00000000000E+00  0.10072365637E+04  0.10072365637E+04  0.50400001928E-02 0. -1.
       -1   -1    0    0    0  501  0.00000000000E+00  0.00000000000E+00 -0.79786743334E+03  0.79786743335E+03  0.50400001928E-02 0.  1.
    10030    2    1    2    0    0  0.00000000000E+00  0.00000000000E+00  0.20936913036E+03  0.18051039971E+04  0.17929208035E+04 0.  0.
        2    1    3    3  502    0  0.78252866522E+03 -0.43355655027E+03  0.16268555923E+03  0.90927937695E+03  0.25500000920E-02 0. -1.
       -2    1    3    3    0  502 -0.78252866522E+03  0.43355655027E+03  0.46683571125E+02  0.89582462010E+03  0.25500000920E-02 0.  1.
</event>
<event>
 5   0  0.1330225E-04  0.1821644E+04  0.7818609E-02  0.8694873E-01
       -1   -1    0    0    0  501  0.00000000000E+00  0.00000000000E+00  0.73368862296E+03  0.73368862298E+03  0.50400001928E-02 0.  1.
        1   -1    0    0  501    0  0.00000000000E+00  0.00000000000E+00 -0.11307202025E+04  0.11307202025E+04  0.50400001928E-02 0. -1.
    10030    2    1    2    0    0  0.00000000000E+00  0.00000000000E+00 -0.39703157951E+03  0.18644088255E+04  0.18216438163E+04 0.  0.
        3    1    3    3  502    0  0.50077947835E+03  0.30890163787E+03 -0.91010493698E+03  0.10837395048E+04  0.10100000352E+00 0. -1.
       -3    1    3    3    0  502 -0.50077947835E+03 -0.30890163787E+03  0.51307335747E+03  0.78066932062E+03  0.10100000352E+00 0.  1.
</event>
<event>
 5   0  0.1214723E-04  0.1793788E+04  0.7818609E-02  0.8709610E-01
        1   -1    0    0  501    0  0.00000000000E+00  0.00000000000E+00  0.52627295496E+03  0.52627295498E+03  0.50400001928E-02 0.  1.
       -1   -1    0    0    0  501  0.00000000000E+00  0.00000000000E+00 -0.15285207227E+04  0.15285207227E+04  0.50400001928E-02 0. -1.
    10030    2    1    2    0    0  0.00000000000E+00  0.00000000000E+00 -0.10022477677E+04  0.20547936777E+04  0.17937883013E+04 0.  0.
        1    1    3    3  502    0  0.44733908539E+02  0.10122254603E+03 -0.15206697661E+04  0.15246913340E+04  0.50400001928E-02 0. -1.
       -1    1    3    3    0  502 -0.44733908539E+02 -0.10122254603E+03  0.51842199835E+03  0.53010234370E+03  0.50400001928E-02 0.  1.
</event>
<event>
 5   0  0.2550616E-04  0.1794326E+04  0.7818609E-02  0.8709323E-01
       -2   -1    0    0    0  501  0.00000000000E+00  0.00000000000E+00  0.45778848152E+03  0.45778848152E+03  0.25500000920E-02 0.  1.
        2   -1    0    0  501    0  0.00000000000E+00  0.00000000000E+00 -0.17582384197E+04  0.17582384197E+04  0.25500000920E-02 0. -1.
    10030    2    1    2    0    0  0.00000000000E+00  0.00000000000E+00 -0.13004499382E+04  0.22160269013E+04  0.17943258303E+04 0.  0.
        1    1    3    3  502    0 -0.31483408126E+03  0.24498481504E+03  0.34222901159E+03  0.52560322937E+03  0.50400001928E-02 0.  1.
       -1    1    3    3    0  502  0.31483408126E+03 -0.24498481504E+03 -0.16426789498E+04  0.16904236719E+04  0.50400001928E-02 0. -1.
</event>
<event>
 5   0  0.9144875E-05  0.1797581E+04  0.7818609E-02  0.8707587E-01
        3   -1    0    0  501    0  0.00000000000E+00  0.00000000000E+00  0.53463351847E+03  0.53463352801E+03  0.10100000352E+00 0.  1.
       -3   -1    0    0    0  501  0.00000000000E+00  0.00000000000E+00 -0.15109866546E+04  0.15109866580E+04  0.10100000352E+00 0. -1.
    10030    2    1    2    0    0  0.00000000000E+00  0.00000000000E+00 -0.97635313614E+03  0.20456201860E+04  0.17975807350E+04 0.  0.
        5    1    3    3  502    0 -0.64864862374E+03 -0.32847148342E+03 -0.10894415335E+04  0.13097875772E+04  0.46999998093E+01 0. -1.
       -5    1    3    3    0  502  0.64864862374E+03  0.32847148342E+03  0.11308839740E+03  0.73583260876E+03  0.46999998093E+01 0.  1.
</event>
<event>
 5   0  0.2431811E-04  0.1733155E+04  0.7818609E-02  0.8742677E-01
        2   -1    0    0  501    0  0.00000000000E+00  0.00000000000E+00  0.14511873893E+04  0.14511873893E+04  0.25500000920E-02 0.  1.
       -2   -1    0    0    0  501  0.00000000000E+00  0.00000000000E+00 -0.51747759168E+03  0.51747759168E+03  0.25500000920E-02 0. -1.
    10030    2    1    2    0    0  0.00000000000E+00  0.00000000000E+00  0.93370979762E+03  0.19686649810E+04  0.17331554521E+04 0.  0.
        3    1    3    3  502    0 -0.37714900940E+03  0.67587917544E+03  0.24146924072E+02  0.77436239528E+03  0.10100000352E+00 0. -1.
       -3    1    3    3    0  502  0.37714900940E+03 -0.67587917544E+03  0.90956287355E+03  0.11943025857E+04  0.10100000352E+00 0.  1.
</event>
<event>
 5   0  0.2393421E-04  0.1747369E+04  0.7818609E-02  0.8734800E-01
       -2   -1    0    0    0  501  0.00000000000E+00  0.00000000000E+00  0.33349932043E+03  0.33349932044E+03  0.25500000920E-02 0.  1.
        2   -1    0    0  501    0  0.00000000000E+00  0.00000000000E+00 -0.22888337161E+04  0.22888337161E+04  0.25500000920E-02 0. -1.
    10030    2    1    2    0    0  0.00000000000E+00  0.00000000000E+00 -0.19553343956E+04  0.26223330365E+04  0.17473688665E+04 0.  0.
        5    1    3    3  502    0  0.46171559825E+03  0.66252801140E+03 -0.14780612885E+04  0.16842838009E+04  0.46999998093E+01 0.  1.
       -5    1    3    3    0  502 -0.46171559825E+03 -0.66252801140E+03 -0.47727310714E+03  0.93804923558E+03  0.46999998093E+01 0. -1.
</event>
<event>
 5   0  0.2417106E-04  0.1622835E+04  0.7818609E-02  0.8806641E-01
        2   -1    0    0  501    0  0.00000000000E+00  0.00000000000E+00  0.53277170255E+03  0.53277170255E+03  0.25500000920E-02 0. -1.
       -2   -1    0    0    0  501  0.00000000000E+00  0.00000000000E+00 -0.12357981091E+04  0.12357981091E+04  0.25500000920E-02 0.  1.
    10030    2    1    2    0    0  0.00000000000E+00  0.00000000000E+00 -0.70302640651E+03  0.17685698116E+04  0.16228348808E+04 0.  0.
        4    1    3    3  502    0 -0.35819211171E+03 -0.66943721293E+03 -0.66348790753E+03  0.10082983622E+04  0.12699999809E+01 0. -1.
       -4    1    3    3    0  502  0.35819211171E+03  0.66943721293E+03 -0.39538498984E+02  0.76027144938E+03  0.12699999809E+01 0.  1.
</event>
<event>
 5   0  0.2550616E-04  0.1821008E+04  0.7818609E-02  0.8695207E-01
       -2   -1    0    0    0  501  0.00000000000E+00  0.00000000000E+00  0.55839924353E+03  0.55839924354E+03  0.25500000920E-02 0.  1.
        2   -1    0    0  501    0  0.00000000000E+00  0.00000000000E+00 -0.14846324657E+04  0.14846324657E+04  0.25500000920E-02 0. -1.
    10030    2    1    2    0    0  0.00000000000E+00  0.00000000000E+00 -0.92623322214E+03  0.20430317092E+04  0.18210081227E+04 0.  0.
        1    1    3    3  502    0  0.56352754536E+03  0.25166044887E+02  0.33874164448E+03  0.65798368211E+03  0.50400001928E-02 0.  1.
       -1    1    3    3    0  502 -0.56352754536E+03 -0.25166044887E+02 -0.12649748666E+04  0.13850480271E+04  0.50400001928E-02 0. -1.
</event>
<event>
 5   0  0.1253925E-04  0.1831422E+04  0.7818609E-02  0.8689766E-01
        1   -1    0    0  501    0  0.00000000000E+00  0.00000000000E+00  0.17484703949E+04  0.17484703949E+04  0.50400001928E-02 0.  1.
       -1   -1    0    0    0  501  0.00000000000E+00  0.00000000000E+00 -0.47957746312E+03  0.47957746315E+03  0.50400001928E-02 0. -1.
    10030    2    1    2    0    0  0.00000000000E+00  0.00000000000E+00  0.12688929318E+04  0.22280478581E+04  0.18314223941E+04 0.  0.
        2    1    3    3  502    0 -0.87556677028E+03  0.26048291451E+03  0.55694362647E+03  0.10698853775E+04  0.25500000920E-02 0.  1.
       -2    1    3    3    0  502  0.87556677028E+03 -0.26048291451E+03  0.71194930531E+03  0.11581624805E+04  0.25500000920E-02 0. -1.
</event>
<event>
 5   0  0.1330225E-04  0.1795482E+04  0.7818609E-02  0.8708706E-01
        1   -1    0    0  501    0  0.00000000000E+00  0.00000000000E+00  0.63189774862E+03  0.63189774864E+03  0.50400001928E-02 0.  1.
       -1   -1    0    0    0  501  0.00000000000E+00  0.00000000000E+00 -0.12754255386E+04  0.12754255386E+04  0.50400001928E-02 0. -1.
    10030    2    1    2    0    0  0.00000000000E+00  0.00000000000E+00 -0.64352779002E+03  0.19073232873E+04  0.17954815804E+04 0.  0.
        3    1    3    3  502    0  0.34223900737E+03  0.71123287579E+02  0.55663707526E+03  0.65729057802E+03  0.10100000352E+00 0.  1.
       -3    1    3    3    0  502 -0.34223900737E+03 -0.71123287579E+02 -0.12001648653E+04  0.12500327093E+04  0.10100000352E+00 0. -1.
</event>
<event>
 5   0  0.2431811E-04  0.1803008E+04  0.7818609E-02  0.8704702E-01
        2   -1    0    0  501    0  0.00000000000E+00  0.00000000000E+00  0.16654167194E+04  0.16654167194E+04  0.25500000920E-02 0. -1.
       -2   -1    0    0    0  501  0.00000000000E+00  0.00000000000E+00 -0.48799149108E+03  0.48799149109E+03  0.25500000920E-02 0.  1.
    10030    2    1    2    0    0  0.00000000000E+00  0.00000000000E+00  0.11774252283E+04  0.21534082105E+04  0.18030076963E+04 0.  0.
        3    1    3    3  502    0 -0.12425307545E+03  0.53936318669E+03  0.14385923908E+04  0.15413953260E+04  0.10100000352E+00 0. -1.
       -3    1    3    3    0  502  0.12425307545E+03 -0.53936318669E+03 -0.26116716244E+03  0.61201288454E+03  0.10100000352E+00 0.  1.
</event>
<event>
 5   0  0.2431811E-04  0.1815566E+04  0.7818609E-02  0.8698065E-01
        2   -1    0    0  501    0  0.00000000000E+00  0.00000000000E+00  0.89627270716E+03  0.89627270716E+03  0.25500000920E-02 0. -1.
       -2   -1    0    0    0  501  0.00000000000E+00  0.00000000000E+00 -0.91944122939E+03  0.91944122939E+03  0.25500000920E-02 0.  1.
    10030    2    1    2    0    0  0.00000000000E+00  0.00000000000E+00 -0.23168522232E+02  0.18157139366E+04  0.18155661153E+04 0.  0.
        3    1    3    3  502    0  0.56715666411E+03 -0.67423410958E+02  0.69406334555E+03  0.89885289999E+03  0.10100000352E+00 0. -1.
       -3    1    3    3    0  502 -0.56715666411E+03  0.67423410958E+02 -0.71723186778E+03  0.91686103656E+03  0.10100000352E+00 0.  1.
</event>
<event>
 5   0  0.1253925E-04  0.1799971E+04  0.7818609E-02  0.8706315E-01
        1   -1    0    0  501    0  0.00000000000E+00  0.00000000000E+00  0.15465816439E+04  0.15465816439E+04  0.50400001928E-02 0. -1.
       -1   -1    0    0    0  501  0.00000000000E+00  0.00000000000E+00 -0.52371856895E+03  0.52371856898E+03  0.50400001928E-02 0.  1.
    10030    2    1    2    0    0  0.00000000000E+00  0.00000000000E+00  0.10228630749E+04  0.20703002129E+04  0.17999705835E+04 0.  0.
        2    1    3    3  502    0  0.10807450878E+03  0.45946025080E+03  0.13927992465E+04  0.14706031289E+04  0.25500000920E-02 0. -1.
       -2    1    3    3    0  502 -0.10807450878E+03 -0.45946025080E+03 -0.36993617159E+03  0.59969708401E+03  0.25500000920E-02 0.  1.
</event>
<event>
 5   0  0.1214723E-04  0.1805747E+04  0.7818609E-02  0.8703249E-01
        1   -1    0    0  501    0  0.00000000000E+00  0.00000000000E+00  0.66776379000E+03  0.66776379001E+03  0.50400001928E-02 0. -1.
       -1   -1    0    0    0  501  0.00000000000E+00  0.00000000000E+00 -0.12207620549E+04  0.12207620550E+04  0.50400001928E-02 0.  1.
    10030    2    1    2    0    0  0.00000000000E+00  0.00000000000E+00 -0.55299826495E+03  0.18885258450E+04  0.18057471545E+04 0.  0.
        1    1    3    3  502    0  0.85508530581E+03  0.28981405635E+03 -0.28089030221E+03  0.94554874510E+03  0.50400001928E-02 0. -1.
       -1    1    3    3    0  502 -0.85508530581E+03 -0.28981405635E+03 -0.27210796274E+03  0.94297709987E+03  0.50400001928E-02 0.  1.
</event>
<event>
 5   0  0.2393421E-04  0.1767198E+04  0.7818609E-02  0.8723940E-01
       -2   -1    0    0    0  501  0.00000000000E+00  0.00000000000E+00  0.60260156845E+03  0.60260156846E+03  0.25500000920E-02 0. -1.
        2   -1    0    0  501    0  0.00000000000E+00  0.00000000000E+00 -0.12956276102E+04  0.12956276102E+04  0.25500000920E-02 0.  1.
    10030    2    1    2    0    0  0.00000000000E+00  0.00000000000E+00 -0.69302604178E+03  0.18982291787E+04  0.17671980422E+04 0.  0.
        5    1    3    3  502    0  0.56383211980E+03 -0.43581334724E+03  0.21460397051E+03  0.74425592850E+03  0.46999998093E+01 0. -1.
       -5    1    3    3    0  502 -0.56383211980E+03  0.43581334724E+03 -0.90763001229E+03  0.11539732502E+04  0.46999998093E+01 0.  1.
</event>
<event>
 5   0  0.1308893E-04  0.1827212E+04  0.7818609E-02  0.8691961E-01
        1   -1    0    0  501    0  0.00000000000E+00  0.00000000000E+00  0.15577096729E+04  0.15577096730E+04  0.50400001928E-02 0. -1.
       -1   -1    0    0    0  501  0.00000000000E+00  0.00000000000E+00 -0.53583520794E+03  0.53583520797E+03  0.50400001928E-02 0.  1.
    10030    2    1    2    0    0  0.00000000000E+00  0.00000000000E+00  0.10218744650E+04  0.20935448809E+04  0.18272117409E+04 0.  0.
        4    1    3    3  502    0 -0.12432558126E+03  0.74013761813E+03  0.11078476315E+04  0.13381287425E+04  0.12699999809E+01 0. -1.
       -4    1    3    3    0  502  0.12432558126E+03 -0.74013761813E+03 -0.85973166520E+02  0.75541613842E+03  0.12699999809E+01 0.  1.
</event>
<event>
 5   0  0.1214723E-04  0.1820395E+04  0.7818609E-02  0.8695528E-01
       -1   -1    0    0    0  501  0.00000000000E+00  0.00000000000E+00  0.10536867239E+04  0.10536867239E+04  0.50400001928E-02 0. -1.
        1   -1    0    0  501    0  0.00000000000E+00  0.00000000000E+00 -0.78624807715E+03  0.78624807716E+03  0.50400001928E-02 0.  1.
    10030    2    1    2    0    0  0.00000000000E+00  0.00000000000E+00  0.26743864675E+03  0.18399348011E+04  0.18203946392E+04 0.  0.
        1    1    3    3  502    0 -0.25692392472E+03  0.42613106248E+02 -0.74778526312E+03  0.79183873338E+03  0.50400001928E-02 0.  1.
       -1    1    3    3    0  502  0.25692392472E+03 -0.42613106248E+02  0.10152239099E+04  0.10480960677E+04  0.50400001928E-02 0. -1.
</event>
<event>
 5   0  0.2417106E-04  0.1775357E+04  0.7818609E-02  0.8719515E-01
        2   -1    0    0  501    0  0.00000000000E+00  0.00000000000E+00  0.12064365412E+04  0.12064365412E+04  0.25500000920E-02 0. -1.
       -2   -1    0    0    0  501  0.00000000000E+00  0.00000000000E+00 -0.65314075608E+03  0.65314075609E+03  0.25500000920E-02 0.  1.
    10030    2    1    2    0    0  0.00000000000E+00  0.00000000000E+00  0.55329578512E+03  0.18595772973E+04  0.17753567244E+04 0.  0.
        4    1    3    3  502    0  0.29506265999E+03 -0.81459408850E+03  0.74229834588E+02  0.86956148924E+03  0.12699999809E+01 0. -1.
       -4    1    3    3    0  502 -0.29506265999E+03  0.81459408850E+03  0.47906595053E+03  0.99001580805E+03  0.12699999809E+01 0.  1.
</event>
<event>
 5   0  0.1214723E-04  0.1764935E+04  0.7818609E-02  0.8725172E-01
       -1   -1    0    0    0  501  0.00000000000E+00  0.00000000000E+00  0.10589469768E+04  0.10589469769E+04  0.50400001928E-02 0.  1.
        1   -1    0    0  501    0  0.00000000000E+00  0.00000000000E+00 -0.73539951985E+03  0.73539951986E+03  0.50400001928E-02 0. -1.
    10030    2    1    2    0    0  0.00000000000E+00  0.00000000000E+00  0.32354745699E+03  0.17943464967E+04  0.17649352377E+04 0.  0.
        1    1    3    3  502    0 -0.64393238934E+03  0.59761728413E+03  0.76994917236E+02  0.88188636322E+03  0.50400001928E-02 0. -1.
       -1    1    3    3    0  502  0.64393238934E+03 -0.59761728413E+03  0.24655253976E+03  0.91246013350E+03  0.50400001928E-02 0.  1.
</event>
<event>
 5   0  0.1214723E-04  0.1748983E+04  0.7818609E-02  0.8733910E-01
       -1   -1    0    0    0  501  0.00000000000E+00  0.00000000000E+00  0.31661674686E+03  0.31661674690E+03  0.50400001928E-02 0.  1.
        1   -1    0    0  501    0  0.00000000000E+00  0.00000000000E+00 -0.24153336258E+04  0.24153336258E+04  0.50400001928E-02 0. -1.
    10030    2    1    2    0    0  0.00000000000E+00  0.00000000000E+00 -0.20987168790E+04  0.27319503727E+04  0.17489826474E+04 0.  0.
        1    1    3    3  502    0  0.48185106610E+03 -0.66694495332E+03 -0.15120416926E+04  0.17214139830E+04  0.50400001928E-02 0. -1.
       -1    1    3    3    0  502 -0.48185106610E+03  0.66694495332E+03 -0.58667518640E+03  0.10105363898E+04  0.50400001928E-02 0.  1.
</event>
<event>
 5   0  0.1214723E-04  0.1795223E+04  0.7818609E-02  0.8708844E-01
        1   -1    0    0  501    0  0.00000000000E+00  0.00000000000E+00  0.14977739975E+04  0.14977739975E+04  0.50400001928E-02 0.  1.
       -1   -1    0    0    0  501  0.00000000000E+00  0.00000000000E+00 -0.53793566624E+03  0.53793566627E+03  0.50400001928E-02 0. -1.
    10030    2    1    2    0    0  0.00000000000E+00  0.00000000000E+00  0.95983833126E+03  0.20357096638E+04  0.17952226082E+04 0.  0.
        1    1    3    3  502    0  0.77298075933E+03 -0.38741503620E+03  0.75328663924E+03  0.11467477602E+04  0.50400001928E-02 0. -1.
       -1    1    3    3    0  502 -0.77298075933E+03  0.38741503620E+03  0.20655169202E+03  0.88896190361E+03  0.50400001928E-02 0.  1.
</event>
<event>
 5   0  0.1239119E-04  0.1789068E+04  0.7818609E-02  0.8712135E-01
       -1   -1    0    0    0  501  0.00000000000E+00  0.00000000000E+00  0.16617853008E+04  0.16617853008E+04  0.50400001928E-02 0.  1.
        1   -1    0    0  501    0  0.00000000000E+00  0.00000000000E+00 -0.48152488142E+03  0.48152488145E+03  0.50400001928E-02 0. -1.
    10030    2    1    2    0    0  0.00000000000E+00  0.00000000000E+00  0.11802604194E+04  0.21433101822E+04  0.17890678802E+04 0.  0.
        5    1    3    3  502    0  0.60363150178E+03 -0.23367809563E+03 -0.14952674749E+03  0.66434688268E+03  0.46999998093E+01 0. -1.
       -5    1    3    3    0  502 -0.60363150178E+03  0.23367809563E+03  0.13297871669E+04  0.14789632996E+04  0.46999998093E+01 0.  1.
</event>
<event>
 5   0  0.1239119E-04  0.1793142E+04  0.7818609E-02  0.8709955E-01
       -1   -1    0    0    0  501  0.00000000000E+00  0.00000000000E+00  0.48641917745E+03  0.48641917747E+03  0.50400001928E-02 0.  1.
        1   -1    0    0  501    0  0.00000000000E+00  0.00000000000E+00 -0.16525648232E+04  0.16525648232E+04  0.50400001928E-02 0. -1.
    10030    2    1    2    0    0  0.00000000000E+00  0.00000000000E+00 -0.11661456457E+04  0.21389840007E+04  0.17931416252E+04 0.  0.
        5    1    3    3  502    0  0.11718302780E+03  0.81437070848E+03 -0.15816067676E+03  0.83783554621E+03  0.46999998093E+01 0.  1.
       -5    1    3    3    0  502 -0.11718302780E+03 -0.81437070848E+03 -0.10079849690E+04  0.13011484545E+04  0.46999998093E+01 0. -1.
</event>
<event>
 5   0  0.1253925E-04  0.1709931E+04  0.7818609E-02  0.8755721E-01
        1   -1    0    0  501    0  0.00000000000E+00  0.00000000000E+00  0.12437068522E+04  0.12437068523E+04  0.50400001928E-02 0.  1.
       -1   -1    0    0    0  501  0.00000000000E+00  0.00000000000E+00 -0.58773147627E+03  0.58773147629E+03  0.50400001928E-02 0. -1.
    10030    2    1    2    0    0  0.00000000000E+00  0.00000000000E+00  0.65597537597E+03  0.18314383285E+04  0.17099306002E+04 0.  0.
        2    1    3    3  502    0 -0.44079048764E+03  0.73117873750E+03  0.27952811939E+03  0.89836215954E+03  0.25500000920E-02 0.  1.
       -2    1    3    3    0  502  0.44079048764E+03 -0.73117873750E+03  0.37644725658E+03  0.93307616900E+03  0.25500000920E-02 0. -1.
</event>
<event>
 5   0  0.1253925E-04  0.1798703E+04  0.7818609E-02  0.8706990E-01
       -1   -1    0    0    0  501  0.00000000000E+00  0.00000000000E+00  0.10142884772E+04  0.10142884772E+04  0.50400001928E-02 0.  1.
        1   -1    0    0  501    0  0.00000000000E+00  0.00000000000E+00 -0.79743872448E+03  0.79743872449E+03  0.50400001928E-02 0. -1.
    10030    2    1    2    0    0  0.00000000000E+00  0.00000000000E+00  0.21684975273E+03  0.18117272017E+04  0.17987027654E+04 0.  0.
        2    1    3    3  502    0  0.36195881570E+03  0.18699792422E+03  0.91601015971E+03  0.10025253217E+04  0.25500000920E-02 0.  1.
       -2    1    3    3    0  502 -0.36195881570E+03 -0.18699792422E+03 -0.69916040698E+03  0.80920188002E+03  0.25500000920E-02 0. -1.
</event>
<event>
 5   0  0.1253925E-04  0.1791063E+04  0.7818609E-02  0.8711067E-01
       -1   -1    0    0    0  501  0.00000000000E+00  0.00000000000E+00  0.60050262397E+03  0.60050262399E+03  0.50400001928E-02 0. -1.
        1   -1    0    0  501    0  0.00000000000E+00  0.00000000000E+00 -0.13355082861E+04  0.13355082861E+04  0.50400001928E-02 0.  1.
    10030    2    1    2    0    0  0.00000000000E+00  0.00000000000E+00 -0.73500566214E+03  0.19360109101E+04  0.17910625117E+04 0.  0.
        2    1    3    3  502    0  0.63892956789E+03 -0.52858623864E+03 -0.73301312939E+03  0.11067712737E+04  0.25500000920E-02 0.  1.
       -2    1    3    3    0  502 -0.63892956789E+03  0.52858623864E+03 -0.19925327454E+01  0.82923963641E+03  0.25500000920E-02 0. -1.
</event>
<event>
 5   0  0.2393421E-04  0.1810600E+04  0.7818609E-02  0.8700683E-01
        2   -1    0    0  501    0  0.00000000000E+00  0.00000000000E+00  0.95809821770E+03  0.95809821770E+03  0.25500000920E-02 0.  1.
       -2   -1    0    0    0  501  0.00000000000E+00  0.00000000000E+00 -0.85541137245E+03  0.85541137245E+03  0.25500000920E-02 0. -1.
    10030    2    1    2    0    0  0.00000000000E+00  0.00000000000E+00  0.10268684525E+03  0.18135095902E+04  0.18106000236E+04 0.  0.
        5    1    3    3  502    0  0.38350936917E+03  0.88105529373E+02  0.86794738188E+03  0.95299358248E+03  0.46999998093E+01 0.  1.
       -5    1    3    3    0  502 -0.38350936917E+03 -0.88105529373E+02 -0.76526053663E+03  0.86051600767E+03  0.46999998093E+01 0. -1.
</event>
<event>
 5   0  0.1214723E-04  0.1795683E+04  0.7818609E-02  0.8708599E-01
       -1   -1    0    0    0  501  0.00000000000E+00  0.00000000000E+00  0.59278560117E+03  0.59278560119E+03  0.50400001928E-02 0. -1.
        1   -1    0    0  501    0  0.00000000000E+00  0.00000000000E+00 -0.13598827803E+04  0.13598827803E+04  0.50400001928E-02 0.  1.
    10030    2    1    2    0    0  0.00000000000E+00  0.00000000000E+00 -0.76709717911E+03  0.19526683815E+04  0.17956825237E+04 0.  0.
        1    1    3    3  502    0 -0.16853483792E+03 -0.35630759658E+03 -0.12607701732E+04  0.13209468288E+04  0.50400001928E-02 0.  1.
       -1    1    3    3    0  502  0.16853483792E+03  0.35630759658E+03  0.49367299408E+03  0.63172155265E+03  0.50400001928E-02 0. -1.
</event>
<event>
 5   0  0.9144875E-05  0.1807526E+04  0.7818609E-02  0.8702308E-01
       -3   -1    0    0    0  501  0.00000000000E+00  0.00000000000E+00  0.36196425000E+03  0.36196426409E+03  0.10100000352E+00 0. -1.
        3   -1    0    0  501    0  0.00000000000E+00  0.00000000000E+00 -0.22565413840E+04  0.22565413862E+04  0.10100000352E+00 0.  1.
    10030    2    1    2    0    0  0.00000000000E+00  0.00000000000E+00 -0.18945771340E+04  0.26185056503E+04  0.18075257465E+04 0.  0.
        2    1    3    3  502    0  0.73777775845E+03 -0.50809152149E+03 -0.11206108189E+04  0.14346573188E+04  0.25500000920E-02 0. -1.
       -2    1    3    3    0  502 -0.73777775845E+03  0.50809152149E+03 -0.77396631510E+03  0.11838483315E+04  0.25500000920E-02 0.  1.
</event>
<event>
 5   0  0.2431811E-04  0.1771734E+04  0.7818609E-02  0.8721477E-01
        2   -1    0    0  501    0  0.00000000000E+00  0.00000000000E+00  0.12056087973E+04  0.12056087973E+04  0.25500000920E-02 0. -1.
       -2   -1    0    0    0  501  0.00000000000E+00  0.00000000000E+00 -0.65092430066E+03  0.65092430066E+03  0.25500000920E-02 0.  1.
    10030    2    1    2    0    0  0.00000000000E+00  0.00000000000E+00  0.55468449660E+03  0.18565330979E+04  0.17717336857E+04 0.  0.
        3    1    3    3  502    0 -0.86161695268E+03  0.67862910966E+02  0.48099156174E+03  0.98911174318E+03  0.10100000352E+00 0. -1.
       -3    1    3    3    0  502  0.86161695268E+03 -0.67862910966E+02  0.73692934858E+02  0.86742135475E+03  0.10100000352E+00 0.  1.
</event>
<event>
 5   0  0.1308893E-04  0.1788329E+04  0.7818609E-02  0.8712530E-01
       -1   -1    0    0    0  501  0.00000000000E+00  0.00000000000E+00  0.78411707797E+03  0.78411707798E+03  0.50400001928E-02 0.  1.
        1   -1    0    0  501    0  0.00000000000E+00  0.00000000000E+00 -0.10196570728E+04  0.10196570728E+04  0.50400001928E-02 0. -1.
    10030    2    1    2    0    0  0.00000000000E+00  0.00000000000E+00 -0.23553999481E+03  0.18037741508E+04  0.17883294154E+04 0.  0.
        4    1    3    3  502    0  0.46091140730E+03  0.44189841431E+03  0.51358755103E+03  0.81944329848E+03  0.12699999809E+01 0.  1.
       -4    1    3    3    0  502 -0.46091140730E+03 -0.44189841431E+03 -0.74912754583E+03  0.98433085229E+03  0.12699999809E+01 0. -1.
</event>
<event>
 5   0  0.2417106E-04  0.2156171E+04  0.7818609E-02  0.8536895E-01
        2   -1    0    0  501    0  0.00000000000E+00  0.00000000000E+00  0.18435051947E+04  0.18435051947E+04  0.25500000920E-02 0.  1.
       -2   -1    0    0    0  501  0.00000000000E+00  0.00000000000E+00 -0.63046668038E+03  0.63046668038E+03  0.25500000920E-02 0. -1.
    10030    2    1    2    0    0  0.00000000000E+00  0.00000000000E+00  0.12130385143E+04  0.24739718751E+04  0.21561712366E+04 0.  0.
        4    1    3    3  502    0  0.22174303989E+03 -0.74027015371E+03  0.14690469615E+04  0.16599007393E+04  0.12699999809E+01 0.  1.
       -4    1    3    3    0  502 -0.22174303989E+03  0.74027015371E+03 -0.25600844719E+03  0.81407113581E+03  0.12699999809E+01 0. -1.
</event>
<event>
 5   0  0.2550616E-04  0.1775871E+04  0.7818609E-02  0.8719237E-01
       -2   -1    0    0    0  501  0.00000000000E+00  0.00000000000E+00  0.91606871435E+03  0.91606871435E+03  0.25500000920E-02 0. -1.
        2   -1    0    0  501    0  0.00000000000E+00  0.00000000000E+00 -0.86066658197E+03  0.86066658197E+03  0.25500000920E-02 0.  1.
    10030    2    1    2    0    0  0.00000000000E+00  0.00000000000E+00  0.55402132377E+02  0.17767352963E+04  0.17758713120E+04 0.  0.
        1    1    3    3  502    0 -0.22072176021E+03  0.19035044500E+03 -0.81144314724E+03  0.86220146635E+03  0.50400001928E-02 0.  1.
       -1    1    3    3    0  502  0.22072176021E+03 -0.19035044500E+03  0.86684527962E+03  0.91453382998E+03  0.50400001928E-02 0. -1.
</event>
<event>
 5   0  0.1330225E-04  0.1808354E+04  0.7818609E-02  0.8701870E-01
        1   -1    0    0  501    0  0.00000000000E+00  0.00000000000E+00  0.67766855012E+03  0.67766855014E+03  0.50400001928E-02 0.  1.
       -1   -1    0    0    0  501  0.00000000000E+00  0.00000000000E+00 -0.12063945198E+04  0.12063945198E+04  0.50400001928E-02 0. -1.
    10030    2    1    2    0    0  0.00000000000E+00  0.00000000000E+00 -0.52872596966E+03  0.18840630699E+04  0.18083535330E+04 0.  0.
        3    1    3    3  502    0 -0.51584636451E+03  0.73878375471E+03 -0.18614172159E+03  0.92008024580E+03  0.10100000352E+00 0. -1.
       -3    1    3    3    0  502  0.51584636451E+03 -0.73878375471E+03 -0.34258424807E+03  0.96398282413E+03  0.10100000352E+00 0.  1.
</event>
<event>
 5   0  0.2431811E-04  0.1798275E+04  0.7818609E-02  0.8707218E-01
        2   -1    0    0  501    0  0.00000000000E+00  0.00000000000E+00  0.15889582630E+04  0.15889582630E+04  0.25500000920E-02 0.  1.
       -2   -1    0    0    0  501  0.00000000000E+00  0.00000000000E+00 -0.50879115593E+03  0.50879115594E+03  0.25500000920E-02 0. -1.
    10030    2    1    2    0    0  0.00000000000E+00  0.00000000000E+00  0.10801671071E+04  0.20977494189E+04  0.17982746302E+04 0.  0.
        3    1    3    3  502    0 -0.23148060015E+03 -0.84914914063E+03  0.75458121075E+03  0.11593232272E+04  0.10100000352E+00 0.  1.
       -3    1    3    3    0  502  0.23148060015E+03  0.84914914063E+03  0.32558589632E+03  0.93842619175E+03  0.10100000352E+00 0. -1.
</event>
<event>
 5   0  0.1308893E-04  0.1768544E+04  0.7818609E-02  0.8723208E-01
       -1   -1    0    0    0  501  0.00000000000E+00  0.00000000000E+00  0.95404562173E+03  0.95404562175E+03  0.50400001928E-02 0.  1.
        1   -1    0    0  501    0  0.00000000000E+00  0.00000000000E+00 -0.81960149460E+03  0.81960149462E+03  0.50400001928E-02 0. -1.
    10030    2    1    2    0    0  0.00000000000E+00  0.00000000000E+00  0.13444412713E+03  0.17736471164E+04  0.17685442799E+04 0.  0.
        4    1    3    3  502    0  0.73746698022E+03  0.91510236427E+02 -0.41343518502E+03  0.85038928462E+03  0.12699999809E+01 0. -1.
       -4    1    3    3    0  502 -0.73746698022E+03 -0.91510236427E+02  0.54787931215E+03  0.92325783174E+03  0.12699999809E+01 0.  1.
</event>
<event>
 5   0  0.2569405E-04  0.1829229E+04  0.7818609E-02  0.8690908E-01
       -2   -1    0    0    0  501  0.00000000000E+00  0.00000000000E+00  0.10685693230E+04  0.10685693230E+04  0.25500000920E-02 0. -1.
        2   -1    0    0  501    0  0.00000000000E+00  0.00000000000E+00 -0.78284073701E+03  0.78284073702E+03  0.25500000920E-02 0.  1.
    10030    2    1    2    0    0  0.00000000000E+00  0.00000000000E+00  0.28572858601E+03  0.18514100600E+04  0.18292289046E+04 0.  0.
        2    1    3    3  502    0  0.58154634495E+03  0.39323075123E+02 -0.57050656794E+03  0.81561032340E+03  0.25500000920E-02 0.  1.
       -2    1    3    3    0  502 -0.58154634495E+03 -0.39323075123E+02  0.85623515395E+03  0.10357997366E+04  0.25500000920E-02 0. -1.
</event>
<event>
 5   0  0.1308893E-04  0.1807444E+04  0.7818609E-02  0.8702351E-01
       -1   -1    0    0    0  501  0.00000000000E+00  0.00000000000E+00  0.50115699635E+03  0.50115699637E+03  0.50400001928E-02 0. -1.
        1   -1    0    0  501    0  0.00000000000E+00  0.00000000000E+00 -0.16296563083E+04  0.16296563083E+04  0.50400001928E-02 0.  1.
    10030    2    1    2    0    0  0.00000000000E+00  0.00000000000E+00 -0.11284993120E+04  0.21308133047E+04  0.18074442294E+04 0.  0.
        4    1    3    3  502    0 -0.71969010387E+02  0.77486648980E+03 -0.11059254843E+04  0.13522834041E+04  0.12699999809E+01 0.  1.
       -4    1    3    3    0  502  0.71969010387E+02 -0.77486648980E+03 -0.22573827710E+02  0.77852990056E+03  0.12699999809E+01 0. -1.
</event>
<event>
 5   0  0.1308893E-04  0.1536161E+04  0.7818609E-02  0.8860756E-01
        1   -1    0    0  501    0  0.00000000000E+00  0.00000000000E+00  0.11774140475E+04  0.11774140475E+04  0.50400001928E-02 0.  1.
       -1   -1    0    0    0  501  0.00000000000E+00  0.00000000000E+00 -0.50105355643E+03  0.50105355645E+03  0.50400001928E-02 0. -1.
    10030    2    1    2    0    0  0.00000000000E+00  0.00000000000E+00  0.67636049110E+03  0.16784676040E+04  0.15361607936E+04 0.  0.
        4    1    3    3  502    0  0.22748102209E+03  0.35091734678E+03 -0.36574940694E+03  0.55557613453E+03  0.12699999809E+01 0. -1.
       -4    1    3    3    0  502 -0.22748102209E+03 -0.35091734678E+03  0.10421098980E+04  0.11228914695E+04  0.12699999809E+01 0.  1.
</event>
<event>
 5   0  0.1253925E-04  0.1852038E+04  0.7818609E-02  0.8679106E-01
       -1   -1    0    0    0  501  0.00000000000E+00  0.00000000000E+00  0.81296845991E+03  0.81296845993E+03  0.50400001928E-02 0.  1.
        1   -1    0    0  501    0  0.00000000000E+00  0.00000000000E+00 -0.10547900072E+04  0.10547900073E+04  0.50400001928E-02 0. -1.
    10030    2    1    2    0    0  0.00000000000E+00  0.00000000000E+00 -0.24182154733E+03  0.18677584672E+04  0.18520378050E+04 0.  0.
        2    1    3    3  502    0 -0.40145938953E+03 -0.33768469435E+01  0.72063628816E+03  0.82492284752E+03  0.25500000920E-02 0.  1.
       -2    1    3    3    0  502  0.40145938953E+03  0.33768469435E+01 -0.96245783549E+03  0.10428356197E+04  0.25500000920E-02 0. -1.
</event>
<event>
 5   0  0.2569405E-04  0.1802648E+04  0.7818609E-02  0.8704893E-01
        2   -1    0    0  501    0  0.00000000000E+00  0.00000000000E+00  0.67036721492E+03  0.67036721492E+03  0.25500000920E-02 0.  1.
       -2   -1    0    0    0  501  0.00000000000E+00  0.00000000000E+00 -0.12118504977E+04  0.12118504977E+04  0.25500000920E-02 0. -1.
    10030    2    1    2    0    0  0.00000000000E+00  0.00000000000E+00 -0.54148328276E+03  0.18822177126E+04  0.18026478780E+04 0.  0.
        2    1    3    3  502    0 -0.37509821630E+03  0.20674864353E+03 -0.10988057599E+04  0.11793293736E+04  0.25500000920E-02 0. -1.
       -2    1    3    3    0  502  0.37509821630E+03 -0.20674864353E+03  0.55732247717E+03  0.70288833896E+03  0.25500000920E-02 0.  1.
</event>
<event>
 5   0  0.2550616E-04  0.1810530E+04  0.7818609E-02  0.8700720E-01
        2   -1    0    0  501    0  0.00000000000E+00  0.00000000000E+00  0.13509771961E+04  0.13509771961E+04  0.25500000920E-02 0. -1.
       -2   -1    0    0    0  501  0.00000000000E+00  0.00000000000E+00 -0.60660161000E+03  0.60660161001E+03  0.25500000920E-02 0.  1.
    10030    2    1    2    0    0  0.00000000000E+00  0.00000000000E+00  0.74437558612E+03  0.19575788061E+04  0.18105302453E+04 0.  0.
        1    1    3    3  502    0  0.15932544932E+02 -0.69775441047E+03 -0.25116996070E+03  0.74175562856E+03  0.50400001928E-02 0.  1.
       -1    1    3    3    0  502 -0.15932544932E+02  0.69775441047E+03  0.99554554681E+03  0.12158231776E+04  0.50400001928E-02 0. -1.
</event>
<event>
 5   0  0.2393421E-04  0.1817880E+04  0.7818609E-02  0.8696848E-01
        2   -1    0    0  501    0  0.00000000000E+00  0.00000000000E+00  0.13367420722E+04  0.13367420722E+04  0.25500000920E-02 0.  1.
       -2   -1    0    0    0  501  0.00000000000E+00  0.00000000000E+00 -0.61804890978E+03  0.61804890978E+03  0.25500000920E-02 0. -1.
    10030    2    1    2    0    0  0.00000000000E+00  0.00000000000E+00  0.71869316241E+03  0.19547909820E+04  0.18178800625E+04 0.  0.
        5    1    3    3  502    0 -0.51237545374E+03  0.41961219190E+03 -0.31007117861E+03  0.73127916898E+03  0.46999998093E+01 0.  1.
       -5    1    3    3    0  502  0.51237545374E+03 -0.41961219190E+03  0.10287643410E+04  0.12235118130E+04  0.46999998093E+01 0. -1.
</event>
<event>
 5   0  0.2550616E-04  0.1803602E+04  0.7818609E-02  0.8704387E-01
       -2   -1    0    0    0  501  0.00000000000E+00  0.00000000000E+00  0.36964349077E+03  0.36964349078E+03  0.25500000920E-02 0.  1.
        2   -1    0    0  501    0  0.00000000000E+00  0.00000000000E+00 -0.22000785241E+04  0.22000785241E+04  0.25500000920E-02 0. -1.
    10030    2    1    2    0    0  0.00000000000E+00  0.00000000000E+00 -0.18304350333E+04  0.25697220149E+04  0.18036016252E+04 0.  0.
        1    1    3    3  502    0 -0.38184007036E+03 -0.34943547508E+03  0.13693402101E+03  0.53540444219E+03  0.50400001928E-02 0. -1.
       -1    1    3    3    0  502  0.38184007036E+03  0.34943547508E+03 -0.19673690544E+04  0.20343175727E+04  0.50400001928E-02 0.  1.
</event>
<event>
 5   0  0.1214723E-04  0.1784992E+04  0.7818609E-02  0.8714322E-01
        1   -1    0    0  501    0  0.00000000000E+00  0.00000000000E+00  0.14834245628E+04  0.14834245628E+04  0.50400001928E-02 0. -1.
       -1   -1    0    0    0  501  0.00000000000E+00  0.00000000000E+00 -0.53696621717E+03  0.53696621720E+03  0.50400001928E-02 0.  1.
    10030    2    1    2    0    0  0.00000000000E+00  0.00000000000E+00  0.94645834562E+03  0.20203907800E+04  0.17849917378E+04 0.  0.
        1    1    3    3  502    0 -0.35242373656E+03 -0.69599700848E+03  0.96391383383E+03  0.12400581458E+04  0.50400001928E-02 0. -1.
       -1    1    3    3    0  502  0.35242373656E+03  0.69599700848E+03 -0.17455488205E+02  0.78033263420E+03  0.50400001928E-02 0.  1.
</event>
<event>
 5   0  0.2393421E-04  0.1803757E+04  0.7818609E-02  0.8704304E-01
       -2   -1    0    0    0  501  0.00000000000E+00  0.00000000000E+00  0.86957519204E+03  0.86957519204E+03  0.25500000920E-02 0.  1.
        2   -1    0    0  501    0  0.00000000000E+00  0.00000000000E+00 -0.93538165684E+03  0.93538165684E+03  0.25500000920E-02 0. -1.
    10030    2    1    2    0    0  0.00000000000E+00  0.00000000000E+00 -0.65806464798E+02  0.18049568489E+04  0.18037568394E+04 0.  0.
        5    1    3    3  502    0  0.58144559659E+03  0.45112883757E+03  0.48875576314E+03  0.88345939119E+03  0.46999998093E+01 0.  1.
       -5    1    3    3    0  502 -0.58144559659E+03 -0.45112883757E+03 -0.55456222794E+03  0.92149745770E+03  0.46999998093E+01 0. -1.
</event>
<event>
 5   0  0.9144875E-05  0.1787437E+04  0.7818609E-02  0.8713009E-01
       -3   -1    0    0    0  501  0.00000000000E+00  0.00000000000E+00  0.13368669058E+04  0.13368669096E+04  0.10100000352E+00 0.  1.
        3   -1    0    0  501    0  0.00000000000E+00  0.00000000000E+00 -0.59746622327E+03  0.59746623181E+03  0.10100000352E+00 0. -1.
    10030    2    1    2    0    0  0.00000000000E+00  0.00000000000E+00  0.73940068249E+03  0.19343331414E+04  0.17874370849E+04 0.  0.
        1    1    3    3  502    0  0.29120227725E+03 -0.40855331356E+03 -0.43068922596E+03  0.66121689761E+03  0.50400001928E-02 0. -1.
       -1    1    3    3    0  502 -0.29120227725E+03  0.40855331356E+03  0.11700899084E+04  0.12731162438E+04  0.50400001928E-02 0.  1.
</event>
<event>
 5   0  0.2417106E-04  0.1786999E+04  0.7818609E-02  0.8713244E-01
        2   -1    0    0  501    0  0.00000000000E+00  0.00000000000E+00  0.90316495750E+03  0.90316495750E+03  0.25500000920E-02 0. -1.
       -2   -1    0    0    0  501  0.00000000000E+00  0.00000000000E+00 -0.88393786898E+03  0.88393786898E+03  0.25500000920E-02 0.  1.
    10030    2    1    2    0    0  0.00000000000E+00  0.00000000000E+00  0.19227088517E+02  0.17871028265E+04  0.17869993933E+04 0.  0.
        4    1    3    3  502    0 -0.85549238419E+03 -0.13631499770E+03 -0.20923946829E+03  0.89119681664E+03  0.12699999809E+01 0.  1.
       -4    1    3    3    0  502  0.85549238419E+03  0.13631499770E+03  0.22846655681E+03  0.89590600984E+03  0.12699999809E+01 0. -1.
</event>
<event>
 5   0  0.2417106E-04  0.1487023E+04  0.7818609E-02  0.8893129E-01
       -2   -1    0    0    0  501  0.00000000000E+00  0.00000000000E+00  0.89740586022E+03  0.89740586022E+03  0.25500000920E-02 0. -1.
        2   -1    0    0  501    0  0.00000000000E+00  0.00000000000E+00 -0.61600817055E+03  0.61600817056E+03  0.25500000920E-02 0.  1.
    10030    2    1    2    0    0  0.00000000000E+00  0.00000000000E+00  0.28139768966E+03  0.15134140308E+04  0.14870229887E+04 0.  0.
        4    1    3    3  502    0  0.59935284097E+03  0.88792607781E+02 -0.29787806290E+03  0.67515991323E+03  0.12699999809E+01 0.  1.
       -4    1    3    3    0  502 -0.59935284097E+03 -0.88792607781E+02  0.57927575256E+03  0.83825411755E+03  0.12699999809E+01 0. -1.
</event>
<event>
 5   0  0.1253925E-04  0.1803717E+04  0.7818609E-02  0.8704325E-01
        1   -1    0    0  501    0  0.00000000000E+00  0.00000000000E+00  0.19395533333E+04  0.19395533333E+04  0.50400001928E-02 0.  1.
       -1   -1    0    0    0  501  0.00000000000E+00  0.00000000000E+00 -0.41934832286E+03  0.41934832289E+03  0.50400001928E-02 0. -1.
    10030    2    1    2    0    0  0.00000000000E+00  0.00000000000E+00  0.15202050104E+04  0.23589016562E+04  0.18037166490E+04 0.  0.
        2    1    3    3  502    0 -0.33233196561E+03 -0.49819370741E+03 -0.12177305874E+03  0.61112206908E+03  0.25500000920E-02 0. -1.
       -2    1    3    3    0  502  0.33233196561E+03  0.49819370741E+03  0.16419780692E+04  0.17477795871E+04  0.25500000920E-02 0.  1.
</event>
<event>
 5   0  0.1214723E-04  0.1809692E+04  0.7818609E-02  0.8701162E-01
       -1   -1    0    0    0  501  0.00000000000E+00  0.00000000000E+00  0.65109514837E+03  0.65109514838E+03  0.50400001928E-02 0. -1.
        1   -1    0    0  501    0  0.00000000000E+00  0.00000000000E+00 -0.12574908990E+04  0.12574908990E+04  0.50400001928E-02 0.  1.
    10030    2    1    2    0    0  0.00000000000E+00  0.00000000000E+00 -0.60639575066E+03  0.19085860474E+04  0.18096919334E+04 0.  0.
        1    1    3    3  502    0 -0.85886128991E+03 -0.28244943003E+03 -0.26479615957E+03  0.94209203477E+03  0.50400001928E-02 0. -1.
       -1    1    3    3    0  502  0.85886128991E+03  0.28244943003E+03 -0.34159959109E+03  0.96649401265E+03  0.50400001928E-02 0.  1.
</event>
<event>
 5   0  0.1239119E-04  0.1809216E+04  0.7818609E-02  0.8701414E-01
        1   -1    0    0  501    0  0.00000000000E+00  0.00000000000E+00  0.14309016329E+04  0.14309016329E+04  0.50400001928E-02 0.  1.
       -1   -1    0    0    0  501  0.00000000000E+00  0.00000000000E+00 -0.57188830108E+03  0.57188830110E+03  0.50400001928E-02 0. -1.
    10030    2    1    2    0    0  0.00000000000E+00  0.00000000000E+00  0.85901333177E+03  0.20027899340E+04  0.18092162987E+04 0.  0.
        5    1    3    3  502    0 -0.67577204741E+03 -0.10325674570E+01  0.10951997794E+04  0.12869163038E+04  0.46999998093E+01 0.  1.
       -5    1    3    3    0  502  0.67577204741E+03  0.10325674570E+01 -0.23618644765E+03  0.71587363012E+03  0.46999998093E+01 0. -1.
</event>
<event>
 5   0  0.2417106E-04  0.1803463E+04  0.7818609E-02  0.8704460E-01
        2   -1    0    0  501    0  0.00000000000E+00  0.00000000000E+00  0.18845690308E+04  0.18845690308E+04  0.25500000920E-02 0.  1.
       -2   -1    0    0    0  501  0.00000000000E+00  0.00000000000E+00 -0.43146192736E+03  0.43146192737E+03  0.25500000920E-02 0. -1.
    10030    2    1    2    0    0  0.00000000000E+00  0.00000000000E+00  0.14531071035E+04  0.23160309582E+04  0.18034630978E+04 0.  0.
        4    1    3    3  502    0 -0.38003222568E+02 -0.71921651252E+03  0.29755165476E+02  0.72083536232E+03  0.12699999809E+01 0. -1.
       -4    1    3    3    0  502  0.38003222568E+02  0.71921651252E+03  0.14233519380E+04  0.15951955959E+04  0.12699999809E+01 0.  1.
</event>
<event>
 5   0  0.2393421E-04  0.1775205E+04  0.7818609E-02  0.8719597E-01
       -2   -1    0    0    0  501  0.00000000000E+00  0.00000000000E+00  0.68439087287E+03  0.68439087288E+03  0.25500000920E-02 0.  1.
        2   -1    0    0  501    0  0.00000000000E+00  0.00000000000E+00 -0.11511528790E+04  0.11511528791E+04  0.25500000920E-02 0. -1.
    10030    2    1    2    0    0  0.00000000000E+00  0.00000000000E+00 -0.46676200618E+03  0.18355437519E+04  0.17752053669E+04 0.  0.
        5    1    3    3  502    0 -0.27167056441E+02 -0.16195095923E+02  0.68379515878E+03  0.68454235753E+03  0.46999998093E+01 0.  1.
       -5    1    3    3    0  502  0.27167056441E+02  0.16195095923E+02 -0.11505571650E+04  0.11510013944E+04  0.46999998093E+01 0. -1.
</event>
<event>
 5   0  0.2550616E-04  0.1812159E+04  0.7818609E-02  0.8699860E-01
        2   -1    0    0  501    0  0.00000000000E+00  0.00000000000E+00  0.82388652064E+03  0.82388652065E+03  0.25500000920E-02 0.  1.
       -2   -1    0    0    0  501  0.00000000000E+00  0.00000000000E+00 -0.99647206220E+03  0.99647206221E+03  0.25500000920E-02 0. -1.
    10030    2    1    2    0    0  0.00000000000E+00  0.00000000000E+00 -0.17258554156E+03  0.18203585829E+04  0.18121588233E+04 0.  0.
        1    1    3    3  502    0 -0.63137067706E+03  0.90622701765E+02 -0.73274060969E+03  0.97146806795E+03  0.50400001928E-02 0. -1.
       -1    1    3    3    0  502  0.63137067706E+03 -0.90622701765E+02  0.56015506813E+03  0.84889051491E+03  0.50400001928E-02 0.  1.
</event>
<event>
 5   0  0.2550616E-04  0.1756835E+04  0.7818609E-02  0.8729597E-01
       -2   -1    0    0    0  501  0.00000000000E+00  0.00000000000E+00  0.13419451087E+04  0.13419451087E+04  0.25500000920E-02 0. -1.
        2   -1    0    0  501    0  0.00000000000E+00  0.00000000000E+00 -0.57499903575E+03  0.57499903575E+03  0.25500000920E-02 0.  1.
    10030    2    1    2    0    0  0.00000000000E+00  0.00000000000E+00  0.76694607292E+03  0.19169441444E+04  0.17568348170E+04 0.  0.
        1    1    3    3  502    0 -0.53596058782E+03 -0.24820483073E+03  0.10929271642E+04  0.12423160531E+04  0.50400001928E-02 0. -1.
       -1    1    3    3    0  502  0.53596058782E+03  0.24820483073E+03 -0.32598109124E+03  0.67462809129E+03  0.50400001928E-02 0.  1.
</event>
<event>
 5   0  0.1239119E-04  0.1825837E+04  0.7818609E-02  0.8692679E-01
       -1   -1    0    0    0  501  0.00000000000E+00  0.00000000000E+00  0.69933258889E+03  0.69933258890E+03  0.50400001928E-02 0. -1.
        1   -1    0    0  501    0  0.00000000000E+00  0.00000000000E+00 -0.11917358987E+04  0.11917358987E+04  0.50400001928E-02 0.  1.
    10030    2    1    2    0    0  0.00000000000E+00  0.00000000000E+00 -0.49240330980E+03  0.18910684876E+04  0.18258365221E+04 0.  0.
        5    1    3    3  502    0  0.55503264224E+02 -0.50768691519E+03  0.53751677313E+03  0.74146678118E+03  0.46999998093E+01 0. -1.
       -5    1    3    3    0  502 -0.55503264224E+02  0.50768691519E+03 -0.10299200829E+04  0.11496017064E+04  0.46999998093E+01 0.  1.
</event>
<event>
 5   0  0.1239119E-04  0.1812807E+04  0.7818609E-02  0.8699519E-01
       -1   -1    0    0    0  501  0.00000000000E+00  0.00000000000E+00  0.70278275255E+03  0.70278275257E+03  0.50400001928E-02 0. -1.
        1   -1    0    0  501    0  0.00000000000E+00  0.00000000000E+00 -0.11690198866E+04  0.11690198866E+04  0.50400001928E-02 0.  1.
    10030    2    1    2    0    0  0.00000000000E+00  0.00000000000E+00 -0.46623713402E+03  0.18718026392E+04  0.18128066788E+04 0.  0.
        5    1    3    3  502    0  0.14754883525E+03  0.49429791469E+03  0.53641689629E+03  0.74422191843E+03  0.46999998093E+01 0. -1.
       -5    1    3    3    0  502 -0.14754883525E+03 -0.49429791469E+03 -0.10026540303E+04  0.11275807207E+04  0.46999998093E+01 0.  1.
</event>
<event>
 5   0  0.2417106E-04  0.1804457E+04  0.7818609E-02  0.8703933E-01
       -2   -1    0    0    0  501  0.00000000000E+00  0.00000000000E+00  0.36231983383E+03  0.36231983384E+03  0.25500000920E-02 0.  1.
        2   -1    0    0  501    0  0.00000000000E+00  0.00000000000E+00 -0.22466795476E+04  0.22466795476E+04  0.25500000920E-02 0. -1.
    10030    2    1    2    0    0  0.00000000000E+00  0.00000000000E+00 -0.18843597138E+04  0.26089993815E+04  0.18044573260E+04 0.  0.
        4    1    3    3  502    0  0.79260892360E+02 -0.30202612408E+03  0.28170161688E+03  0.42054664727E+03  0.12699999809E+01 0.  1.
       -4    1    3    3    0  502 -0.79260892360E+02  0.30202612408E+03 -0.21660613307E+04  0.21884527342E+04  0.12699999809E+01 0. -1.
</event>
<event>
 5   0  0.1308893E-04  0.1466545E+04  0.7818609E-02  0.8907010E-01
       -1   -1    0    0    0  501  0.00000000000E+00  0.00000000000E+00  0.57825730314E+03  0.57825730316E+03  0.50400001928E-02 0.  1.
        1   -1    0    0  501    0  0.00000000000E+00  0.00000000000E+00 -0.92984349634E+03  0.92984349635E+03  0.50400001928E-02 0. -1.
    10030    2    1    2    0    0  0.00000000000E+00  0.00000000000E+00 -0.35158619320E+03  0.15081007995E+04  0.14665453182E+04 0.  0.
        4    1    3    3  502    0  0.26343654931E+03 -0.53905295702E+03  0.25770894809E+03  0.65298730524E+03  0.12699999809E+01 0.  1.
       -4    1    3    3    0  502 -0.26343654931E+03  0.53905295702E+03 -0.60929514129E+03  0.85511349427E+03  0.12699999809E+01 0. -1.
</event>
<event>
 5   0  0.2417106E-04  0.1792667E+04  0.7818609E-02  0.8710209E-01
        2   -1    0    0  501    0  0.00000000000E+00  0.00000000000E+00  0.11833114283E+04  0.11833114283E+04  0.25500000920E-02 0.  1.
       -2   -1    0    0    0  501  0.00000000000E+00  0.00000000000E+00 -0.67895379280E+03  0.67895379280E+03  0.25500000920E-02 0. -1.
    10030    2    1    2    0    0  0.00000000000E+00  0.00000000000E+00  0.50435763551E+03  0.18622652211E+04  0.17926670436E+04 0.  0.
        4    1    3    3  502    0 -0.13560572436E+02  0.35293595592E+02 -0.67812409891E+03  0.67917849895E+03  0.12699999809E+01 0. -1.
       -4    1    3    3    0  502  0.13560572436E+02 -0.35293595592E+02  0.11824817344E+04  0.11830867222E+04  0.12699999809E+01 0.  1.
</event>
<event>
 5   0  0.1330225E-04  0.1710535E+04  0.7818609E-02  0.8755378E-01
        1   -1    0    0  501    0  0.00000000000E+00  0.00000000000E+00  0.12345165969E+04  0.12345165969E+04  0.50400001928E-02 0.  1.
       -1   -1    0    0    0  501  0.00000000000E+00  0.00000000000E+00 -0.59252576994E+03  0.59252576996E+03  0.50400001928E-02 0. -1.
    10030    2    1    2    0    0  0.00000000000E+00  0.00000000000E+00  0.64199082698E+03  0.18270423669E+04  0.17105354684E+04 0.  0.
        3    1    3    3  502    0  0.81761805052E+03  0.19479547292E+03  0.15198274856E+03  0.85413308031E+03  0.10100000352E+00 0. -1.
       -3    1    3    3    0  502 -0.81761805052E+03 -0.19479547292E+03  0.49000807842E+03  0.97290928659E+03  0.10100000352E+00 0.  1.
</event>
<event>
 5   0  0.1308893E-04  0.1864676E+04  0.7818609E-02  0.8672642E-01
       -1   -1    0    0    0  501  0.00000000000E+00  0.00000000000E+00  0.94402575084E+03  0.94402575085E+03  0.50400001928E-02 0. -1.
        1   -1    0    0  501    0  0.00000000000E+00  0.00000000000E+00 -0.92079512215E+03  0.92079512217E+03  0.50400001928E-02 0.  1.
    10030    2    1    2    0    0  0.00000000000E+00  0.00000000000E+00  0.23230628689E+02  0.18648208730E+04  0.18646761720E+04 0.  0.
        4    1    3    3  502    0 -0.87506036443E+03  0.29151233333E+03  0.14779714047E+03  0.93410689405E+03  0.12699999809E+01 0. -1.
       -4    1    3    3    0  502  0.87506036443E+03 -0.29151233333E+03 -0.12456651178E+03  0.93071397897E+03  0.12699999809E+01 0.  1.
</event>
<event>
 5   0  0.1253925E-04  0.1775275E+04  0.7818609E-02  0.8719560E-01
        1   -1    0    0  501    0  0.00000000000E+00  0.00000000000E+00  0.12237843934E+04  0.12237843934E+04  0.50400001928E-02 0. -1.
       -1   -1    0    0    0  501  0.00000000000E+00  0.00000000000E+00 -0.64382256635E+03  0.64382256637E+03  0.50400001928E-02 0.  1.
    10030    2    1    2    0    0  0.00000000000E+00  0.00000000000E+00  0.57996182707E+03  0.18676069598E+04  0.17752746366E+04 0.  0.
        2    1    3    3  502    0 -0.14446052744E+03 -0.15796398298E+03  0.11962243477E+04  0.12152259682E+04  0.25500000920E-02 0. -1.
       -2    1    3    3    0  502  0.14446052744E+03  0.15796398298E+03 -0.61626252058E+03  0.65238099158E+03  0.25500000920E-02 0.  1.
</event>
<event>
 5   0  0.2550616E-04  0.1772890E+04  0.7818609E-02  0.8720851E-01
        2   -1    0    0  501    0  0.00000000000E+00  0.00000000000E+00  0.66100468870E+03  0.66100468871E+03  0.25500000920E-02 0.  1.
       -2   -1    0    0    0  501  0.00000000000E+00  0.00000000000E+00 -0.11887727017E+04  0.11887727017E+04  0.25500000920E-02 0. -1.
    10030    2    1    2    0    0  0.00000000000E+00  0.00000000000E+00 -0.52776801296E+03  0.18497773904E+04  0.17728895393E+04 0.  0.
        1    1    3    3  502    0  0.20034078575E+03  0.32699961399E+03  0.56997525839E+03  0.68697669042E+03  0.50400001928E-02 0.  1.
       -1    1    3    3    0  502 -0.20034078575E+03 -0.32699961399E+03 -0.10977432713E+04  0.11628006999E+04  0.50400001928E-02 0. -1.
</event>
<event>
 5   0  0.1214723E-04  0.1827003E+04  0.7818609E-02  0.8692070E-01
        1   -1    0    0  501    0  0.00000000000E+00  0.00000000000E+00  0.10908122929E+04  0.10908122929E+04  0.50400001928E-02 0.  1.
       -1   -1    0    0    0  501  0.00000000000E+00  0.00000000000E+00 -0.76501256837E+03  0.76501256839E+03  0.50400001928E-02 0. -1.
    10030    2    1    2    0    0  0.00000000000E+00  0.00000000000E+00  0.32579972448E+03  0.18558248613E+04  0.18270031350E+04 0.  0.
        1    1    3    3  502    0  0.37055010773E+03  0.79102792317E+03  0.43442283565E+03  0.97557970342E+03  0.50400001928E-02 0.  1.
       -1    1    3    3    0  502 -0.37055010773E+03 -0.79102792317E+03 -0.10862311117E+03  0.88024515783E+03  0.50400001928E-02 0. -1.
</event>
<event>
 5   0  0.2550616E-04  0.1826652E+04  0.7818609E-02  0.8692253E-01
       -2   -1    0    0    0  501  0.00000000000E+00  0.00000000000E+00  0.67773587102E+03  0.67773587102E+03  0.25500000920E-02 0. -1.
        2   -1    0    0  501    0  0.00000000000E+00  0.00000000000E+00 -0.12308098467E+04  0.12308098467E+04  0.25500000920E-02 0.  1.
    10030    2    1    2    0    0  0.00000000000E+00  0.00000000000E+00 -0.55307397568E+03  0.19085457177E+04  0.18266515634E+04 0.  0.
        1    1    3    3  502    0  0.35474092181E+03  0.16314917116E+03  0.58613393746E+03  0.70428102794E+03  0.50400001928E-02 0. -1.
       -1    1    3    3    0  502 -0.35474092181E+03 -0.16314917116E+03 -0.11392079131E+04  0.12042646898E+04  0.50400001928E-02 0.  1.
</event>
<event>
 5   0  0.2569405E-04  0.1807092E+04  0.7818609E-02  0.8702537E-01
        2   -1    0    0  501    0  0.00000000000E+00  0.00000000000E+00  0.12412749027E+04  0.12412749027E+04  0.25500000920E-02 0. -1.
       -2   -1    0    0    0  501  0.00000000000E+00  0.00000000000E+00 -0.65770703084E+03  0.65770703085E+03  0.25500000920E-02 0.  1.
    10030    2    1    2    0    0  0.00000000000E+00  0.00000000000E+00  0.58356787187E+03  0.18989819336E+04  0.18070918413E+04 0.  0.
        2    1    3    3  502    0 -0.59354852592E+03  0.45715292143E+03  0.82254791587E+03  0.11125977351E+04  0.25500000920E-02 0. -1.
       -2    1    3    3    0  502  0.59354852592E+03 -0.45715292143E+03 -0.23898004400E+03  0.78638419849E+03  0.25500000920E-02 0.  1.
</event>
<event>
 5   0  0.2417106E-04  0.1812928E+04  0.7818609E-02  0.8699455E-01
        2   -1    0    0  501    0  0.00000000000E+00  0.00000000000E+00  0.13300762714E+04  0.13300762714E+04  0.25500000920E-02 0.  1.
       -2   -1    0    0    0  501  0.00000000000E+00  0.00000000000E+00 -0.61776667042E+03  0.61776667043E+03  0.25500000920E-02 0. -1.
    10030    2    1    2    0    0  0.00000000000E+00  0.00000000000E+00  0.71230960093E+03  0.19478429418E+04  0.18129277863E+04 0.  0.
        4    1    3    3  502    0  0.28577897356E+03  0.41549392471E+03 -0.45314000002E+03  0.67796924394E+03  0.12699999809E+01 0. -1.
       -4    1    3    3    0  502 -0.28577897356E+03 -0.41549392471E+03  0.11654496010E+04  0.12698736978E+04  0.12699999809E+01 0.  1.
</event>
<event>
 5   0  0.1253925E-04  0.1798334E+04  0.7818609E-02  0.8707186E-01
       -1   -1    0    0    0  501  0.00000000000E+00  0.00000000000E+00  0.74846637219E+03  0.74846637221E+03  0.50400001928E-02 0. -1.
        1   -1    0    0  501    0  0.00000000000E+00  0.00000000000E+00 -0.10802107893E+04  0.10802107893E+04  0.50400001928E-02 0.  1.
    10030    2    1    2    0    0  0.00000000000E+00  0.00000000000E+00 -0.33174441713E+03  0.18286771615E+04  0.17983341744E+04 0.  0.
        2    1    3    3  502    0  0.57382457287E+03 -0.60328032395E+03  0.17938518604E+03  0.85170466400E+03  0.25500000920E-02 0. -1.
       -2    1    3    3    0  502 -0.57382457287E+03  0.60328032395E+03 -0.51112960317E+03  0.97697249754E+03  0.25500000920E-02 0.  1.
</event>
<event>
 5   0  0.1214723E-04  0.1776400E+04  0.7818609E-02  0.8718951E-01
       -1   -1    0    0    0  501  0.00000000000E+00  0.00000000000E+00  0.71093457124E+03  0.71093457126E+03  0.50400001928E-02 0.  1.
        1   -1    0    0  501    0  0.00000000000E+00  0.00000000000E+00 -0.11096650922E+04  0.11096650923E+04  0.50400001928E-02 0. -1.
    10030    2    1    2    0    0  0.00000000000E+00  0.00000000000E+00 -0.39873052100E+03  0.18205996635E+04  0.17764000412E+04 0.  0.
        1    1    3    3  502    0 -0.71425331784E+02 -0.39102174688E+03  0.61468991407E+03  0.73201316589E+03  0.50400001928E-02 0.  1.
       -1    1    3    3    0  502  0.71425331784E+02  0.39102174688E+03 -0.10134204351E+04  0.10885864976E+04  0.50400001928E-02 0. -1.
</event>
<event>
 5   0  0.2417106E-04  0.1725765E+04  0.7818609E-02  0.8746805E-01
       -2   -1    0    0    0  501  0.00000000000E+00  0.00000000000E+00  0.37394789359E+03  0.37394789360E+03  0.25500000920E-02 0. -1.
        2   -1    0    0  501    0  0.00000000000E+00  0.00000000000E+00 -0.19910956556E+04  0.19910956556E+04  0.25500000920E-02 0.  1.
    10030    2    1    2    0    0  0.00000000000E+00  0.00000000000E+00 -0.16171477620E+04  0.23650435492E+04  0.17257647885E+04 0.  0.
        4    1    3    3  502    0 -0.79315356384E+03 -0.13959369172E+03 -0.12331545489E+04  0.14728376451E+04  0.12699999809E+01 0. -1.
       -4    1    3    3    0  502  0.79315356384E+03  0.13959369172E+03 -0.38399321310E+03  0.89220590404E+03  0.12699999809E+01 0.  1.
</event>
<event>
 5   0  0.2393421E-04  0.1791553E+04  0.7818609E-02  0.8710805E-01
        2   -1    0    0  501    0  0.00000000000E+00  0.00000000000E+00  0.62788368564E+03  0.62788368565E+03  0.25500000920E-02 0. -1.
       -2   -1    0    0    0  501  0.00000000000E+00  0.00000000000E+00 -0.12779680251E+04  0.12779680251E+04  0.25500000920E-02 0.  1.
    10030    2    1    2    0    0  0.00000000000E+00  0.00000000000E+00 -0.65008433947E+03  0.19058517108E+04  0.17915527051E+04 0.  0.
        5    1    3    3  502    0  0.35931877688E+03 -0.48807053470E+03 -0.10267224357E+04  0.11922683759E+04  0.46999998093E+01 0.  1.
       -5    1    3    3    0  502 -0.35931877688E+03  0.48807053470E+03  0.37663809621E+03  0.71358333485E+03  0.46999998093E+01 0. -1.
</event>
<event>
 5   0  0.1253925E-04  0.1802935E+04  0.7818609E-02  0.8704740E-01
       -1   -1    0    0    0  501  0.00000000000E+00  0.00000000000E+00  0.48552947182E+03  0.48552947185E+03  0.50400001928E-02 0. -1.
        1   -1    0    0  501    0  0.00000000000E+00  0.00000000000E+00 -0.16737265418E+04  0.16737265418E+04  0.50400001928E-02 0.  1.
    10030    2    1    2    0    0  0.00000000000E+00  0.00000000000E+00 -0.11881970700E+04  0.21592560137E+04  0.18029349005E+04 0.  0.
        2    1    3    3  502    0 -0.61845211543E+03 -0.51275512586E+03 -0.10838747725E+04  0.13491424538E+04  0.25500000920E-02 0.  1.
       -2    1    3    3    0  502  0.61845211543E+03  0.51275512586E+03 -0.10432229755E+03  0.81011355991E+03  0.25500000920E-02 0. -1.
</event>
<event>
 5   0  0.9144875E-05  0.1794361E+04  0.7818609E-02  0.8709304E-01
        3   -1    0    0  501    0  0.00000000000E+00  0.00000000000E+00  0.43329303026E+03  0.43329304203E+03  0.10100000352E+00 0. -1.
       -3   -1    0    0    0  501  0.00000000000E+00  0.00000000000E+00 -0.18577105423E+04  0.18577105451E+04  0.10100000352E+00 0.  1.
    10030    2    1    2    0    0  0.00000000000E+00  0.00000000000E+00 -0.14244175120E+04  0.22910035871E+04  0.17943612199E+04 0.  0.
        5    1    3    3  502    0  0.15130671924E+03  0.70632197528E+03 -0.32839084267E+02  0.72310784224E+03  0.46999998093E+01 0. -1.
       -5    1    3    3    0  502 -0.15130671924E+03 -0.70632197528E+03 -0.13915784278E+04  0.15678957448E+04  0.46999998093E+01 0.  1.
</event>
<event>
 5   0  0.1330225E-04  0.1820041E+04  0.7818609E-02  0.8695714E-01
        1   -1    0    0  501    0  0.00000000000E+00  0.00000000000E+00  0.11797194130E+04  0.11797194130E+04  0.50400001928E-02 0. -1.
       -1   -1    0    0    0  501  0.00000000000E+00  0.00000000000E+00 -0.70197800106E+03  0.70197800107E+03  0.50400001928E-02 0.  1.
    10030    2    1    2    0    0  0.00000000000E+00  0.00000000000E+00  0.47774141197E+03  0.18816974141E+04  0.18200407417E+04 0.  0.
        3    1    3    3  502    0 -0.17783965528E+03 -0.85989051646E+03  0.48591835816E+03  0.10035712751E+04  0.10100000352E+00 0. -1.
       -3    1    3    3    0  502  0.17783965528E+03  0.85989051646E+03 -0.81769461931E+01  0.87812613897E+03  0.10100000352E+00 0.  1.
</event>
<event>
 5   0  0.2569405E-04  0.1874221E+04  0.7818609E-02  0.8667796E-01
        2   -1    0    0  501    0  0.00000000000E+00  0.00000000000E+00  0.13280050019E+04  0.13280050019E+04  0.25500000920E-02 0.  1.
       -2   -1    0    0    0  501  0.00000000000E+00  0.00000000000E+00 -0.66127481958E+03  0.66127481959E+03  0.25500000920E-02 0. -1.
    10030    2    1    2    0    0  0.00000000000E+00  0.00000000000E+00  0.66673018230E+03  0.19892798215E+04  0.18742211908E+04 0.  0.
        2    1    3    3  502    0  0.30715463607E+03  0.24719426227E+03 -0.56895839517E+03  0.69221573892E+03  0.25500000920E-02 0. -1.
       -2    1    3    3    0  502 -0.30715463607E+03 -0.24719426227E+03  0.12356885775E+04  0.12970640826E+04  0.25500000920E-02 0.  1.
</event>
<event>
 5   0  0.2417106E-04  0.1734468E+04  0.7818609E-02  0.8741947E-01
       -2   -1    0    0    0  501  0.00000000000E+00  0.00000000000E+00  0.89069330469E+03  0.89069330470E+03  0.25500000920E-02 0.  1.
        2   -1    0    0  501    0  0.00000000000E+00  0.00000000000E+00 -0.84439231484E+03  0.84439231484E+03  0.25500000920E-02 0. -1.
    10030    2    1    2    0    0  0.00000000000E+00  0.00000000000E+00  0.46300989857E+02  0.17350856195E+04  0.17344677355E+04 0.  0.
        4    1    3    3  502    0  0.37499730264E+03  0.50337360631E+03  0.62176571079E+03  0.88351693619E+03  0.12699999809E+01 0.  1.
       -4    1    3    3    0  502 -0.37499730264E+03 -0.50337360631E+03 -0.57546472094E+03  0.85156868335E+03  0.12699999809E+01 0. -1.
</event>
<event>
 5   0  0.1214723E-04  0.1985700E+04  0.7818609E-02  0.8613336E-01
        1   -1    0    0  501    0  0.00000000000E+00  0.00000000000E+00  0.91877905116E+03  0.91877905117E+03  0.50400001928E-02 0.  1.
       -1   -1    0    0    0  501  0.00000000000E+00  0.00000000000E+00 -0.10728920014E+04  0.10728920014E+04  0.50400001928E-02 0. -1.
    10030    2    1    2    0    0  0.00000000000E+00  0.00000000000E+00 -0.15411295020E+03  0.19916710525E+04  0.19856995694E+04 0.  0.
        1    1    3    3  502    0  0.98015705659E+03 -0.12937218163E+03 -0.16846603452E+03  0.10029086807E+04  0.50400001928E-02 0.  1.
       -1    1    3    3    0  502 -0.98015705659E+03  0.12937218163E+03  0.14353084319E+02  0.98876237186E+03  0.50400001928E-02 0. -1.
</event>
<event>
 5   0  0.1214723E-04  0.1810114E+04  0.7818609E-02  0.8700939E-01
       -1   -1    0    0    0  501  0.00000000000E+00  0.00000000000E+00  0.64395303226E+03  0.64395303228E+03  0.50400001928E-02 0. -1.
        1   -1    0    0  501    0  0.00000000000E+00  0.00000000000E+00 -0.12720312863E+04  0.12720312863E+04  0.50400001928E-02 0.  1.
    10030    2    1    2    0    0  0.00000000000E+00  0.00000000000E+00 -0.62807825403E+03  0.19159843186E+04  0.18101142549E+04 0.  0.
        1    1    3    3  502    0 -0.40881969919E+02  0.77509335872E+03  0.17868377013E+03  0.79647281179E+03  0.50400001928E-02 0. -1.
       -1    1    3    3    0  502  0.40881969919E+02 -0.77509335872E+03 -0.80676202416E+03  0.11195115068E+04  0.50400001928E-02 0.  1.
</event>
<event>
 5   0  0.2431811E-04  0.1611626E+04  0.7818609E-02  0.8813438E-01
       -2   -1    0    0    0  501  0.00000000000E+00  0.00000000000E+00  0.35069805705E+03  0.35069805706E+03  0.25500000920E-02 0.  1.
        2   -1    0    0  501    0  0.00000000000E+00  0.00000000000E+00 -0.18515480840E+04  0.18515480840E+04  0.25500000920E-02 0. -1.
    10030    2    1    2    0    0  0.00000000000E+00  0.00000000000E+00 -0.15008500270E+04  0.22022461411E+04  0.16116256583E+04 0.  0.
        3    1    3    3  502    0  0.25798943847E+03  0.31809543593E+03  0.19786436821E+03  0.45485555414E+03  0.10100000352E+00 0.  1.
       -3    1    3    3    0  502 -0.25798943847E+03 -0.31809543593E+03 -0.16987143952E+04  0.17473905869E+04  0.10100000352E+00 0. -1.
</event>
<event>
 5   0  0.1308893E-04  0.1780468E+04  0.7818609E-02  0.8716756E-01
        1   -1    0    0  501    0  0.00000000000E+00  0.00000000000E+00  0.13871162601E+04  0.13871162601E+04  0.50400001928E-02 0.  1.
       -1   -1    0    0    0  501  0.00000000000E+00  0.00000000000E+00 -0.57134085310E+03  0.57134085312E+03  0.50400001928E-02 0. -1.
    10030    2    1    2    0    0  0.00000000000E+00  0.00000000000E+00  0.81577540699E+03  0.19584571132E+04  0.17804675649E+04 0.  0.
        4    1    3    3  502    0 -0.27693041177E+02 -0.18587262644E+03  0.13650487716E+04  0.13779242720E+04  0.12699999809E+01 0.  1.
       -4    1    3    3    0  502  0.27693041177E+02  0.18587262644E+03 -0.54927336457E+03  0.58053284120E+03  0.12699999809E+01 0. -1.
</event>
<event>
 5   0  0.1214723E-04  0.1795147E+04  0.7818609E-02  0.8708885E-01
        1   -1    0    0  501    0  0.00000000000E+00  0.00000000000E+00  0.15047747012E+04  0.15047747012E+04  0.50400001928E-02 0.  1.
       -1   -1    0    0    0  501  0.00000000000E+00  0.00000000000E+00 -0.53538763762E+03  0.53538763765E+03  0.50400001928E-02 0. -1.
    10030    2    1    2    0    0  0.00000000000E+00  0.00000000000E+00  0.96938706357E+03  0.20401623389E+04  0.17951465372E+04 0.  0.
        1    1    3    3  502    0 -0.62542879878E+03  0.64371866314E+03  0.47316656235E+03  0.10146041077E+04  0.50400001928E-02 0. -1.
       -1    1    3    3    0  502  0.62542879878E+03 -0.64371866314E+03  0.49622050122E+03  0.10255582311E+04  0.50400001928E-02 0.  1.
</event>
<event>
 5   0  0.1214723E-04  0.1766056E+04  0.7818609E-02  0.8724562E-01
        1   -1    0    0  501    0  0.00000000000E+00  0.00000000000E+00  0.12666129869E+04  0.12666129869E+04  0.50400001928E-02 0.  1.
       -1   -1    0    0    0  501  0.00000000000E+00  0.00000000000E+00 -0.61560895405E+03  0.61560895407E+03  0.50400001928E-02 0. -1.
    10030    2    1    2    0    0  0.00000000000E+00  0.00000000000E+00  0.65100403282E+03  0.18822219409E+04  0.17660558270E+04 0.  0.
        1    1    3    3  502    0  0.62919671638E+03 -0.47127452209E+02  0.98389769183E+03  0.11688302583E+04  0.50400001928E-02 0.  1.
       -1    1    3    3    0  502 -0.62919671638E+03  0.47127452209E+02 -0.33289365902E+03  0.71339168266E+03  0.50400001928E-02 0. -1.
</event>
<event>
 5   0  0.1330225E-04  0.1782226E+04  0.7818609E-02  0.8715809E-01
       -1   -1    0    0    0  501  0.00000000000E+00  0.00000000000E+00  0.74570721164E+03  0.74570721166E+03  0.50400001928E-02 0.  1.
        1   -1    0    0  501    0  0.00000000000E+00  0.00000000000E+00 -0.10648710634E+04  0.10648710634E+04  0.50400001928E-02 0. -1.
    10030    2    1    2    0    0  0.00000000000E+00  0.00000000000E+00 -0.31916385178E+03  0.18105782751E+04  0.17822256103E+04 0.  0.
        3    1    3    3  502    0  0.34766562474E+03  0.43944155436E+03  0.54433477889E+03  0.78120460062E+03  0.10100000352E+00 0.  1.
       -3    1    3    3    0  502 -0.34766562474E+03 -0.43944155436E+03 -0.86349863067E+03  0.10293736745E+04  0.10100000352E+00 0. -1.
</event>
<event>
 5   0  0.2393421E-04  0.1873345E+04  0.7818609E-02  0.8668239E-01
       -2   -1    0    0    0  501  0.00000000000E+00  0.00000000000E+00  0.78286940914E+03  0.78286940914E+03  0.25500000920E-02 0. -1.
        2   -1    0    0  501    0  0.00000000000E+00  0.00000000000E+00 -0.11206912954E+04  0.11206912954E+04  0.25500000920E-02 0.  1.
    10030    2    1    2    0    0  0.00000000000E+00  0.00000000000E+00 -0.33782188626E+03  0.19035607045E+04  0.18733445303E+04 0.  0.
        5    1    3    3  502    0 -0.62605882482E+02 -0.33949780150E+03  0.71585410583E+03  0.79476250828E+03  0.46999998093E+01 0. -1.
       -5    1    3    3    0  502  0.62605882482E+02  0.33949780150E+03 -0.10536759921E+04  0.11087981963E+04  0.46999998093E+01 0.  1.
</event>
<event>
 5   0  0.1308893E-04  0.1792546E+04  0.7818609E-02  0.8710273E-01
        1   -1    0    0  501    0  0.00000000000E+00  0.00000000000E+00  0.18737788110E+04  0.18737788110E+04  0.50400001928E-02 0. -1.
       -1   -1    0    0    0  501  0.00000000000E+00  0.00000000000E+00 -0.42870892299E+03  0.42870892302E+03  0.50400001928E-02 0.  1.
    10030    2    1    2    0    0  0.00000000000E+00  0.00000000000E+00  0.14450698880E+04  0.23024877341E+04  0.17925464524E+04 0.  0.
        4    1    3    3  502    0  0.44379319642E+03  0.67167001377E+03  0.21649096817E+03  0.83364438509E+03  0.12699999809E+01 0.  1.
       -4    1    3    3    0  502 -0.44379319642E+03 -0.67167001377E+03  0.12285789199E+04  0.14688433490E+04  0.12699999809E+01 0. -1.
</event>
<event>
 5   0  0.1214723E-04  0.1800777E+04  0.7818609E-02  0.8705886E-01
        1   -1    0    0  501    0  0.00000000000E+00  0.00000000000E+00  0.81259353430E+03  0.81259353431E+03  0.50400001928E-02 0.  1.
       -1   -1    0    0    0  501  0.00000000000E+00  0.00000000000E+00 -0.99766923409E+03  0.99766923410E+03  0.50400001928E-02 0. -1.
    10030    2    1    2    0    0  0.00000000000E+00  0.00000000000E+00 -0.18507569979E+03  0.18102627684E+04  0.18007771311E+04 0.  0.
        1    1    3    3  502    0  0.20453411508E+03 -0.27002391311E+03  0.74609416383E+03  0.81939222550E+03  0.50400001928E-02 0.  1.
       -1    1    3    3    0  502 -0.20453411508E+03  0.27002391311E+03 -0.93116986362E+03  0.99087054292E+03  0.50400001928E-02 0. -1.
</event>
<event>
 5   0  0.1214723E-04  0.1810420E+04  0.7818609E-02  0.8700778E-01
       -1   -1    0    0    0  501  0.00000000000E+00  0.00000000000E+00  0.18268750801E+04  0.18268750801E+04  0.50400001928E-02 0.  1.
        1   -1    0    0  501    0  0.00000000000E+00  0.00000000000E+00 -0.44852819387E+03  0.44852819390E+03  0.50400001928E-02 0. -1.
    10030    2    1    2    0    0  0.00000000000E+00  0.00000000000E+00  0.13783468863E+04  0.22754032740E+04  0.18104198189E+04 0.  0.
        1    1    3    3  502    0  0.18431582384E+03  0.25717048082E+03  0.17551138031E+04  0.17834050131E+04  0.50400001928E-02 0.  1.
       -1    1    3    3    0  502 -0.18431582384E+03 -0.25717048082E+03 -0.37676691680E+03  0.49199826091E+03  0.50400001928E-02 0. -1.
</event>
<event>
 5   0  0.2393421E-04  0.1825537E+04  0.7818609E-02  0.8692836E-01
       -2   -1    0    0    0  501  0.00000000000E+00  0.00000000000E+00  0.87532546109E+03  0.87532546110E+03  0.25500000920E-02 0. -1.
        2   -1    0    0  501    0  0.00000000000E+00  0.00000000000E+00 -0.95181326622E+03  0.95181326622E+03  0.25500000920E-02 0.  1.
    10030    2    1    2    0    0  0.00000000000E+00  0.00000000000E+00 -0.76487805125E+02  0.18271387273E+04  0.18255370565E+04 0.  0.
        5    1    3    3  502    0  0.40939163844E+03 -0.39301858571E+03 -0.75375514834E+03  0.94352214388E+03  0.46999998093E+01 0. -1.
       -5    1    3    3    0  502 -0.40939163844E+03  0.39301858571E+03  0.67726734322E+03  0.88361658344E+03  0.46999998093E+01 0.  1.
</event>
<event>
 5   0  0.2417106E-04  0.1817539E+04  0.7818609E-02  0.8697028E-01
       -2   -1    0    0    0  501  0.00000000000E+00  0.00000000000E+00  0.95817534147E+03  0.95817534147E+03  0.25500000920E-02 0.  1.
        2   -1    0    0  501    0  0.00000000000E+00  0.00000000000E+00 -0.86191104736E+03  0.86191104737E+03  0.25500000920E-02 0. -1.
    10030    2    1    2    0    0  0.00000000000E+00  0.00000000000E+00  0.96264294101E+02  0.18200863888E+04  0.18175388988E+04 0.  0.
        4    1    3    3  502    0 -0.10955098460E+03 -0.31918522566E+03 -0.79683939947E+03  0.86535268414E+03  0.12699999809E+01 0. -1.
       -4    1    3    3    0  502  0.10955098460E+03  0.31918522566E+03  0.89310369357E+03  0.95473370469E+03  0.12699999809E+01 0.  1.
</event>
<event>
 5   0  0.1239119E-04  0.1806145E+04  0.7818609E-02  0.8703038E-01
       -1   -1    0    0    0  501  0.00000000000E+00  0.00000000000E+00  0.39832742724E+03  0.39832742727E+03  0.50400001928E-02 0.  1.
        1   -1    0    0  501    0  0.00000000000E+00  0.00000000000E+00 -0.20474112849E+04  0.20474112849E+04  0.50400001928E-02 0. -1.
    10030    2    1    2    0    0  0.00000000000E+00  0.00000000000E+00 -0.16490838576E+04  0.24457387122E+04  0.18061451433E+04 0.  0.
        5    1    3    3  502    0  0.15590048419E+03  0.39748890566E+02 -0.20278312634E+04  0.20342090989E+04  0.46999998093E+01 0. -1.
       -5    1    3    3    0  502 -0.15590048419E+03 -0.39748890566E+02  0.37874740572E+03  0.41152961329E+03  0.46999998093E+01 0.  1.
</event>
<event>
 5   0  0.2417106E-04  0.1805740E+04  0.7818609E-02  0.8703253E-01
       -2   -1    0    0    0  501  0.00000000000E+00  0.00000000000E+00  0.75065916244E+03  0.75065916245E+03  0.25500000920E-02 0. -1.
        2   -1    0    0  501    0  0.00000000000E+00  0.00000000000E+00 -0.10859439680E+04  0.10859439680E+04  0.25500000920E-02 0.  1.
    10030    2    1    2    0    0  0.00000000000E+00  0.00000000000E+00 -0.33528480557E+03  0.18366031305E+04  0.18057395045E+04 0.  0.
        4    1    3    3  502    0 -0.52571762731E+03 -0.19799688384E+03  0.55125556762E+03  0.78706168971E+03  0.12699999809E+01 0. -1.
       -4    1    3    3    0  502  0.52571762731E+03  0.19799688384E+03 -0.88654037319E+03  0.10495414408E+04  0.12699999809E+01 0.  1.
</event>
<event>
 5   0  0.1330225E-04  0.1801192E+04  0.7818609E-02  0.8705666E-01
        1   -1    0    0  501    0  0.00000000000E+00  0.00000000000E+00  0.54084565983E+03  0.54084565985E+03  0.50400001928E-02 0. -1.
       -1   -1    0    0    0  501  0.00000000000E+00  0.00000000000E+00 -0.14996382612E+04  0.14996382612E+04  0.50400001928E-02 0.  1.
    10030    2    1    2    0    0  0.00000000000E+00  0.00000000000E+00 -0.95879260141E+03  0.20404839211E+04  0.18011916555E+04 0.  0.
        3    1    3    3  502    0 -0.77234105522E+03 -0.34831162640E+03 -0.13347521280E+03  0.85769886167E+03  0.10100000352E+00 0. -1.
       -3    1    3    3    0  502  0.77234105522E+03  0.34831162640E+03 -0.82531738861E+03  0.11827850594E+04  0.10100000352E+00 0.  1.
</event>
<event>
 5   0  0.2569405E-04  0.1764824E+04  0.7818609E-02  0.8725233E-01
        2   -1    0    0  501    0  0.00000000000E+00  0.00000000000E+00  0.67566140035E+03  0.67566140036E+03  0.25500000920E-02 0. -1.
       -2   -1    0    0    0  501  0.00000000000E+00  0.00000000000E+00 -0.11524277552E+04  0.11524277552E+04  0.25500000920E-02 0.  1.
    10030    2    1    2    0    0  0.00000000000E+00  0.00000000000E+00 -0.47676635480E+03  0.18280891555E+04  0.17648240149E+04 0.  0.
        2    1    3    3  502    0 -0.61055739589E+03  0.48982262332E+03 -0.66034901087E+03  0.10240934294E+04  0.25500000920E-02 0.  1.
       -2    1    3    3    0  502  0.61055739589E+03 -0.48982262332E+03  0.18358265606E+03  0.80399572611E+03  0.25500000920E-02 0. -1.
</event>
<event>
 5   0  0.2550616E-04  0.1800321E+04  0.7818609E-02  0.8706129E-01
        2   -1    0    0  501    0  0.00000000000E+00  0.00000000000E+00  0.12228758778E+04  0.12228758778E+04  0.25500000920E-02 0. -1.
       -2   -1    0    0    0  501  0.00000000000E+00  0.00000000000E+00 -0.66260921296E+03  0.66260921297E+03  0.25500000920E-02 0.  1.
    10030    2    1    2    0    0  0.00000000000E+00  0.00000000000E+00  0.56026666485E+03  0.18854850908E+04  0.18003208858E+04 0.  0.
        1    1    3    3  502    0  0.24231027650E+02  0.83591271917E+03 -0.68717673454E+02  0.83908243662E+03  0.50400001928E-02 0.  1.
       -1    1    3    3    0  502 -0.24231027650E+02 -0.83591271917E+03  0.62898433830E+03  0.10464026542E+04  0.50400001928E-02 0. -1.
</event>
<event>
 5   0  0.1308893E-04  0.1803469E+04  0.7818609E-02  0.8704457E-01
        1   -1    0    0  501    0  0.00000000000E+00  0.00000000000E+00  0.15046574697E+04  0.15046574697E+04  0.50400001928E-02 0. -1.
       -1   -1    0    0    0  501  0.00000000000E+00  0.00000000000E+00 -0.54040527796E+03  0.54040527799E+03  0.50400001928E-02 0.  1.
    10030    2    1    2    0    0  0.00000000000E+00  0.00000000000E+00  0.96425219177E+03  0.20450627477E+04  0.18034687003E+04 0.  0.
        4    1    3    3  502    0 -0.23306324263E+02  0.21814213507E+03 -0.50968064777E+03  0.55489201784E+03  0.12699999809E+01 0.  1.
       -4    1    3    3    0  502  0.23306324263E+02 -0.21814213507E+03  0.14739328395E+04  0.14901707299E+04  0.12699999809E+01 0. -1.
</event>
<event>
 5   0  0.2550616E-04  0.1815084E+04  0.7818609E-02  0.8698319E-01
       -2   -1    0    0    0  501  0.00000000000E+00  0.00000000000E+00  0.81981693183E+03  0.81981693184E+03  0.25500000920E-02 0.  1.
        2   -1    0    0  501    0  0.00000000000E+00  0.00000000000E+00 -0.10046546781E+04  0.10046546781E+04  0.25500000920E-02 0. -1.
    10030    2    1    2    0    0  0.00000000000E+00  0.00000000000E+00 -0.18483774626E+03  0.18244716099E+04  0.18150844782E+04 0.  0.
        1    1    3    3  502    0  0.36532241081E+03 -0.74068482415E+03 -0.47060723128E+03  0.95055017686E+03  0.50400001928E-02 0.  1.
       -1    1    3    3    0  502 -0.36532241081E+03  0.74068482415E+03  0.28576948502E+03  0.87392143306E+03  0.50400001928E-02 0. -1.
</event>
<event>
 5   0  0.9144875E-05  0.1786302E+04  0.7818609E-02  0.8713618E-01
       -4   -1    0    0    0  501  0.00000000000E+00  0.00000000000E+00  0.98574001826E+03  0.98574083637E+03  0.12699999809E+01 0.  1.
        4   -1    0    0  501    0  0.00000000000E+00  0.00000000000E+00 -0.80925712870E+03  0.80925812523E+03  0.12699999809E+01 0. -1.
    10030    2    1    2    0    0  0.00000000000E+00  0.00000000000E+00  0.17648288955E+03  0.17949989616E+04  0.17863020634E+04 0.  0.
        3    1    3    3  502    0 -0.66539298074E+03 -0.28566666006E+03 -0.43714776632E+03  0.84584362579E+03  0.10100000352E+00 0. -1.
       -3    1    3    3    0  502  0.66539298074E+03  0.28566666006E+03  0.61363065587E+03  0.94915533582E+03  0.10100000352E+00 0.  1.
</event>
<event>
 5   0  0.2417106E-04  0.1770902E+04  0.7818609E-02  0.8721928E-01
        2   -1    0    0  501    0  0.00000000000E+00  0.00000000000E+00  0.70585925673E+03  0.70585925674E+03  0.25500000920E-02 0. -1.
       -2   -1    0    0    0  501  0.00000000000E+00  0.00000000000E+00 -0.11107359255E+04  0.11107359255E+04  0.25500000920E-02 0.  1.
    10030    2    1    2    0    0  0.00000000000E+00  0.00000000000E+00 -0.40487666876E+03  0.18165951822E+04  0.17709017305E+04 0.  0.
        4    1    3    3  502    0 -0.83858362198E+03 -0.15503365140E+03 -0.44683711531E+03  0.96276837539E+03  0.12699999809E+01 0. -1.
       -4    1    3    3    0  502  0.83858362198E+03  0.15503365140E+03  0.41960446555E+02  0.85382680685E+03  0.12699999809E+01 0.  1.
</event>
<event>
 5   0  0.2431811E-04  0.1796120E+04  0.7818609E-02  0.8708366E-01
        2   -1    0    0  501    0  0.00000000000E+00  0.00000000000E+00  0.16370483826E+04  0.16370483826E+04  0.25500000920E-02 0.  1.
       -2   -1    0    0    0  501  0.00000000000E+00  0.00000000000E+00 -0.49266208915E+03  0.49266208916E+03  0.25500000920E-02 0. -1.
    10030    2    1    2    0    0  0.00000000000E+00  0.00000000000E+00  0.11443862934E+04  0.21297104717E+04  0.17961199027E+04 0.  0.
        3    1    3    3  502    0 -0.86325516759E+03  0.24742319367E+03  0.56132933362E+03  0.10590176354E+04  0.10100000352E+00 0.  1.
       -3    1    3    3    0  502  0.86325516759E+03 -0.24742319367E+03  0.58305695978E+03  0.10706928363E+04  0.10100000352E+00 0. -1.
</event>
<event>
 5   0  0.1253925E-04  0.1793192E+04  0.7818609E-02  0.8709928E-01
        1   -1    0    0  501    0  0.00000000000E+00  0.00000000000E+00  0.78272000038E+03  0.78272000040E+03  0.50400001928E-02 0. -1.
       -1   -1    0    0    0  501  0.00000000000E+00  0.00000000000E+00 -0.10270396822E+04  0.10270396823E+04  0.50400001928E-02 0.  1.
    10030    2    1    2    0    0  0.00000000000E+00  0.00000000000E+00 -0.24431968186E+03  0.18097596827E+04  0.17931921264E+04 0.  0.
        2    1    3    3  502    0  0.68322530230E+03 -0.19252843579E+02  0.46347460993E+03  0.82581850291E+03  0.25500000920E-02 0. -1.
       -2    1    3    3    0  502 -0.68322530230E+03  0.19252843579E+02 -0.70779429179E+03  0.98394117974E+03  0.25500000920E-02 0.  1.
</event>
<event>
 5   0  0.1308893E-04  0.1808643E+04  0.7818609E-02  0.8701717E-01
        1   -1    0    0  501    0  0.00000000000E+00  0.00000000000E+00  0.13629057772E+04  0.13629057772E+04  0.50400001928E-02 0.  1.
       -1   -1    0    0    0  501  0.00000000000E+00  0.00000000000E+00 -0.60003926745E+03  0.60003926747E+03  0.50400001928E-02 0. -1.
    10030    2    1    2    0    0  0.00000000000E+00  0.00000000000E+00  0.76286650974E+03  0.19629450447E+04  0.18086425674E+04 0.  0.
        4    1    3    3  502    0 -0.24844947939E+03 -0.68020119015E+03 -0.20643692095E+03  0.75300638650E+03  0.12699999809E+01 0. -1.
       -4    1    3    3    0  502  0.24844947939E+03  0.68020119015E+03  0.96930343069E+03  0.12099386582E+04  0.12699999809E+01 0.  1.
</event>
<event>
 5   0  0.1330225E-04  0.1789517E+04  0.7818609E-02  0.8711894E-01
        1   -1    0    0  501    0  0.00000000000E+00  0.00000000000E+00  0.84158505933E+03  0.84158505935E+03  0.50400001928E-02 0. -1.
       -1   -1    0    0    0  501  0.00000000000E+00  0.00000000000E+00 -0.95129123595E+03  0.95129123596E+03  0.50400001928E-02 0.  1.
    10030    2    1    2    0    0  0.00000000000E+00  0.00000000000E+00 -0.10970617662E+03  0.17928762953E+04  0.17895166848E+04 0.  0.
        3    1    3    3  502    0  0.30434689506E+03 -0.84139296639E+03 -0.50014460686E+02  0.89614207182E+03  0.10100000352E+00 0. -1.
       -3    1    3    3    0  502 -0.30434689506E+03  0.84139296639E+03 -0.59691715935E+02  0.89673422348E+03  0.10100000352E+00 0.  1.
</event>
<event>
 5   0  0.1330225E-04  0.1811854E+04  0.7818609E-02  0.8700021E-01
        1   -1    0    0  501    0  0.00000000000E+00  0.00000000000E+00  0.89234794853E+03  0.89234794854E+03  0.50400001928E-02 0.  1.
       -1   -1    0    0    0  501  0.00000000000E+00  0.00000000000E+00 -0.91971226674E+03  0.91971226676E+03  0.50400001928E-02 0. -1.
    10030    2    1    2    0    0  0.00000000000E+00  0.00000000000E+00 -0.27364318214E+02  0.18120602153E+04  0.18118535862E+04 0.  0.
        3    1    3    3  502    0 -0.77479225321E+03 -0.46602994873E+03 -0.70401901646E+02  0.90688664491E+03  0.10100000352E+00 0. -1.
       -3    1    3    3    0  502  0.77479225321E+03  0.46602994873E+03  0.43037583431E+02  0.90517357040E+03  0.10100000352E+00 0.  1.
</event>
<event>
 5   0  0.2550616E-04  0.1798653E+04  0.7818609E-02  0.8707016E-01
        2   -1    0    0  501    0  0.00000000000E+00  0.00000000000E+00  0.13138797057E+04  0.13138797057E+04  0.25500000920E-02 0.  1.
       -2   -1    0    0    0  501  0.00000000000E+00  0.00000000000E+00 -0.61557266188E+03  0.61557266188E+03  0.25500000920E-02 0. -1.
    10030    2    1    2    0    0  0.00000000000E+00  0.00000000000E+00  0.69830704378E+03  0.19294523675E+04  0.17986533049E+04 0.  0.
        1    1    3    3  502    0  0.40312253354E+03 -0.73034235492E+03 -0.11256152052E+02  0.83428678128E+03  0.50400001928E-02 0. -1.
       -1    1    3    3    0  502 -0.40312253354E+03  0.73034235492E+03  0.70956319583E+03  0.10951655863E+04  0.50400001928E-02 0.  1.
</event>
<event>
 5   0  0.2393421E-04  0.1800730E+04  0.7818609E-02  0.8705912E-01
       -2   -1    0    0    0  501  0.00000000000E+00  0.00000000000E+00  0.97435319102E+03  0.97435319102E+03  0.25500000920E-02 0. -1.
        2   -1    0    0  501    0  0.00000000000E+00  0.00000000000E+00 -0.83199483655E+03  0.83199483656E+03  0.25500000920E-02 0.  1.
    10030    2    1    2    0    0  0.00000000000E+00  0.00000000000E+00  0.14235835446E+03  0.18063480276E+04  0.18007296565E+04 0.  0.
        5    1    3    3  502    0  0.53278191079E+03  0.69475384815E+03 -0.13946471241E+03  0.88657316110E+03  0.46999998093E+01 0.  1.
       -5    1    3    3    0  502 -0.53278191079E+03 -0.69475384815E+03  0.28182306687E+03  0.91977486648E+03  0.46999998093E+01 0. -1.
</event>
<event>
 5   0  0.2569405E-04  0.1794747E+04  0.7818609E-02  0.8709098E-01
        2   -1    0    0  501    0  0.00000000000E+00  0.00000000000E+00  0.69487371929E+03  0.69487371930E+03  0.25500000920E-02 0. -1.
       -2   -1    0    0    0  501  0.00000000000E+00  0.00000000000E+00 -0.11588860697E+04  0.11588860697E+04  0.25500000920E-02 0.  1.
    10030    2    1    2    0    0  0.00000000000E+00  0.00000000000E+00 -0.46401235037E+03  0.18537597890E+04  0.17947473064E+04 0.  0.
        2    1    3    3  502    0 -0.76266171485E+03  0.47099354794E+03 -0.27572595275E+03  0.93782333865E+03  0.25500000920E-02 0. -1.
       -2    1    3    3    0  502  0.76266171485E+03 -0.47099354794E+03 -0.18828639763E+03  0.91593645032E+03  0.25500000920E-02 0.  1.
</event>
<event>
 5   0  0.1214723E-04  0.1800631E+04  0.7818609E-02  0.8705964E-01
        1   -1    0    0  501    0  0.00000000000E+00  0.00000000000E+00  0.85886667735E+03  0.85886667737E+03  0.50400001928E-02 0. -1.
       -1   -1    0    0    0  501  0.00000000000E+00  0.00000000000E+00 -0.94376419235E+03  0.94376419236E+03  0.50400001928E-02 0.  1.
    10030    2    1    2    0    0  0.00000000000E+00  0.00000000000E+00 -0.84897514991E+02  0.18026308697E+04  0.18006305741E+04 0.  0.
        1    1    3    3  502    0 -0.88396815334E+02 -0.41670202485E+03 -0.83649634041E+03  0.93871225731E+03  0.50400001928E-02 0.  1.
       -1    1    3    3    0  502  0.88396815334E+02  0.41670202485E+03  0.75159882542E+03  0.86391861242E+03  0.50400001928E-02 0. -1.
</event>
<event>
 5   0  0.2569405E-04  0.1792164E+04  0.7818609E-02  0.8710478E-01
        2   -1    0    0  501    0  0.00000000000E+00  0.00000000000E+00  0.14302898979E+04  0.14302898979E+04  0.25500000920E-02 0. -1.
       -2   -1    0    0    0  501  0.00000000000E+00  0.00000000000E+00 -0.56139881114E+03  0.56139881115E+03  0.25500000920E-02 0.  1.
    10030    2    1    2    0    0  0.00000000000E+00  0.00000000000E+00  0.86889108674E+03  0.19916887090E+04  0.17921641089E+04 0.  0.
        2    1    3    3  502    0  0.29808750301E+03 -0.25647217598E+03  0.13292772834E+04  0.13862222883E+04  0.25500000920E-02 0. -1.
       -2    1    3    3    0  502 -0.29808750301E+03  0.25647217598E+03 -0.46038619666E+03  0.60546642069E+03  0.25500000920E-02 0.  1.
</event>
<event>
 5   0  0.1214723E-04  0.1800561E+04  0.7818609E-02  0.8706001E-01
        1   -1    0    0  501    0  0.00000000000E+00  0.00000000000E+00  0.96514100615E+03  0.96514100616E+03  0.50400001928E-02 0. -1.
       -1   -1    0    0    0  501  0.00000000000E+00  0.00000000000E+00 -0.83977914664E+03  0.83977914666E+03  0.50400001928E-02 0.  1.
    10030    2    1    2    0    0  0.00000000000E+00  0.00000000000E+00  0.12536185950E+03  0.18049201528E+04  0.18005613464E+04 0.  0.
        1    1    3    3  502    0  0.80955995701E+02  0.52896969139E+03 -0.66304852887E+03  0.85205408239E+03  0.50400001928E-02 0.  1.
       -1    1    3    3    0  502 -0.80955995701E+02 -0.52896969139E+03  0.78841038838E+03  0.95286607043E+03  0.50400001928E-02 0. -1.
</event>
<event>
 5   0  0.1239119E-04  0.1773109E+04  0.7818609E-02  0.8720732E-01
        1   -1    0    0  501    0  0.00000000000E+00  0.00000000000E+00  0.12885250657E+04  0.12885250657E+04  0.50400001928E-02 0.  1.
       -1   -1    0    0    0  501  0.00000000000E+00  0.00000000000E+00 -0.60998331725E+03  0.60998331727E+03  0.50400001928E-02 0. -1.
    10030    2    1    2    0    0  0.00000000000E+00  0.00000000000E+00  0.67854174846E+03  0.18985083830E+04  0.17731089013E+04 0.  0.
        5    1    3    3  502    0 -0.41485686357E+03 -0.52189599309E+03  0.96495711336E+03  0.11728793482E+04  0.46999998093E+01 0.  1.
       -5    1    3    3    0  502  0.41485686357E+03  0.52189599309E+03 -0.28641536491E+03  0.72562903477E+03  0.46999998093E+01 0. -1.
</event>
<event>
 5   0  0.2417106E-04  0.1811633E+04  0.7818609E-02  0.8700138E-01
        2   -1    0    0  501    0  0.00000000000E+00  0.00000000000E+00  0.86386007638E+03  0.86386007638E+03  0.25500000920E-02 0.  1.
       -2   -1    0    0    0  501  0.00000000000E+00  0.00000000000E+00 -0.94981059678E+03  0.94981059679E+03  0.25500000920E-02 0. -1.
    10030    2    1    2    0    0  0.00000000000E+00  0.00000000000E+00 -0.85950520403E+02  0.18136706732E+04  0.18116329150E+04 0.  0.
        4    1    3    3  502    0  0.14596738177E+03  0.78367345499E+03 -0.47363500236E+03  0.92724446019E+03  0.12699999809E+01 0. -1.
       -4    1    3    3    0  502 -0.14596738177E+03 -0.78367345499E+03  0.38768448195E+03  0.88642621298E+03  0.12699999809E+01 0.  1.
</event>
<event>
 5   0  0.1214723E-04  0.1829861E+04  0.7818609E-02  0.8690579E-01
        1   -1    0    0  501    0  0.00000000000E+00  0.00000000000E+00  0.13731297588E+04  0.13731297588E+04  0.50400001928E-02 0. -1.
       -1   -1    0    0    0  501  0.00000000000E+00  0.00000000000E+00 -0.60962768325E+03  0.60962768327E+03  0.50400001928E-02 0.  1.
    10030    2    1    2    0    0  0.00000000000E+00  0.00000000000E+00  0.76350207552E+03  0.19827574420E+04  0.18298611026E+04 0.  0.
        1    1    3    3  502    0  0.74848062927E+03 -0.48759484067E+03  0.59608145746E+03  0.10739111160E+04  0.50400001928E-02 0.  1.
       -1    1    3    3    0  502 -0.74848062927E+03  0.48759484067E+03  0.16742061806E+03  0.90884632608E+03  0.50400001928E-02 0. -1.
</event>
<event>
 5   0  0.9144875E-05  0.1803201E+04  0.7818609E-02  0.8704599E-01
        3   -1    0    0  501    0  0.00000000000E+00  0.00000000000E+00  0.87032100418E+03  0.87032101004E+03  0.10100000352E+00 0. -1.
       -3   -1    0    0    0  501  0.00000000000E+00  0.00000000000E+00 -0.93400469253E+03  0.93400469799E+03  0.10100000352E+00 0.  1.
    10030    2    1    2    0    0  0.00000000000E+00  0.00000000000E+00 -0.63683688349E+02  0.18043257080E+04  0.18032014997E+04 0.  0.
        2    1    3    3  502    0 -0.49648338498E+03  0.65684369710E+03 -0.39941882014E+03  0.91513648592E+03  0.25500000920E-02 0.  1.
       -2    1    3    3    0  502  0.49648338498E+03 -0.65684369710E+03  0.33573513179E+03  0.88918922210E+03  0.25500000920E-02 0. -1.
</event>
<event>
 5   0  0.1214723E-04  0.1795460E+04  0.7818609E-02  0.8708718E-01
       -1   -1    0    0    0  501  0.00000000000E+00  0.00000000000E+00  0.44495740009E+03  0.44495740012E+03  0.50400001928E-02 0. -1.
        1   -1    0    0  501    0  0.00000000000E+00  0.00000000000E+00 -0.18112271333E+04  0.18112271333E+04  0.50400001928E-02 0.  1.
    10030    2    1    2    0    0  0.00000000000E+00  0.00000000000E+00 -0.13662697332E+04  0.22561845334E+04  0.17954597364E+04 0.  0.
        1    1    3    3  502    0  0.11272322013E+03  0.17455947124E+03  0.41432235907E+03  0.46350895418E+03  0.50400001928E-02 0. -1.
       -1    1    3    3    0  502 -0.11272322013E+03 -0.17455947124E+03 -0.17805920923E+04  0.17926755792E+04  0.50400001928E-02 0.  1.
</event>
<event>
 5   0  0.1253925E-04  0.1744554E+04  0.7818609E-02  0.8736354E-01
        1   -1    0    0  501    0  0.00000000000E+00  0.00000000000E+00  0.93741418472E+03  0.93741418473E+03  0.50400001928E-02 0.  1.
       -1   -1    0    0    0  501  0.00000000000E+00  0.00000000000E+00 -0.81166619963E+03  0.81166619965E+03  0.50400001928E-02 0. -1.
    10030    2    1    2    0    0  0.00000000000E+00  0.00000000000E+00  0.12574798509E+03  0.17490803844E+04  0.17445542798E+04 0.  0.
        2    1    3    3  502    0 -0.63957170977E+02  0.26549528653E+03 -0.76770099164E+03  0.81482702425E+03  0.25500000920E-02 0. -1.
       -2    1    3    3    0  502  0.63957170977E+02 -0.26549528653E+03  0.89344897672E+03  0.93425336013E+03  0.25500000920E-02 0.  1.
</event>
<event>
 5   0  0.1308893E-04  0.1822962E+04  0.7818609E-02  0.8694183E-01
       -1   -1    0    0    0  501  0.00000000000E+00  0.00000000000E+00  0.53837689952E+03  0.53837689955E+03  0.50400001928E-02 0. -1.
        1   -1    0    0  501    0  0.00000000000E+00  0.00000000000E+00 -0.15431530586E+04  0.15431530587E+04  0.50400001928E-02 0.  1.
    10030    2    1    2    0    0  0.00000000000E+00  0.00000000000E+00 -0.10047761591E+04  0.20815299582E+04  0.18229623795E+04 0.  0.
        4    1    3    3  502    0  0.62063725836E+03  0.39122516457E+03  0.11520721640E+03  0.74264530664E+03  0.12699999809E+01 0. -1.
       -4    1    3    3    0  502 -0.62063725836E+03 -0.39122516457E+03 -0.11199833755E+04  0.13388846516E+04  0.12699999809E+01 0.  1.
</event>
<event>
 5   0  0.1239119E-04  0.1789214E+04  0.7818609E-02  0.8712057E-01
        1   -1    0    0  501    0  0.00000000000E+00  0.00000000000E+00  0.85153557757E+03  0.85153557759E+03  0.50400001928E-02 0. -1.
       -1   -1    0    0    0  501  0.00000000000E+00  0.00000000000E+00 -0.93985681709E+03  0.93985681710E+03  0.50400001928E-02 0.  1.
    10030    2    1    2    0    0  0.00000000000E+00  0.00000000000E+00 -0.88321239514E+02  0.17913923947E+04  0.17892138135E+04 0.  0.
        5    1    3    3  502    0 -0.57645353864E+03 -0.52213980556E+03  0.39838523428E+03  0.87387730469E+03  0.46999998093E+01 0. -1.
       -5    1    3    3    0  502  0.57645353864E+03  0.52213980556E+03 -0.48670647379E+03  0.91751509000E+03  0.46999998093E+01 0.  1.
</event>
<event>
 5   0  0.2550616E-04  0.1782548E+04  0.7818609E-02  0.8715636E-01
       -2   -1    0    0    0  501  0.00000000000E+00  0.00000000000E+00  0.74169166764E+03  0.74169166764E+03  0.25500000920E-02 0.  1.
        2   -1    0    0  501    0  0.00000000000E+00  0.00000000000E+00 -0.10710238204E+04  0.10710238204E+04  0.25500000920E-02 0. -1.
    10030    2    1    2    0    0  0.00000000000E+00  0.00000000000E+00 -0.32933215277E+03  0.18127154880E+04  0.17825481126E+04 0.  0.
        1    1    3    3  502    0  0.29895419425E+03 -0.32582818044E+03  0.62227247771E+03  0.76338761450E+03  0.50400001928E-02 0.  1.
       -1    1    3    3    0  502 -0.29895419425E+03  0.32582818044E+03 -0.95160463048E+03  0.10493278735E+04  0.50400001928E-02 0. -1.
</event>
<event>
 5   0  0.1253925E-04  0.1798330E+04  0.7818609E-02  0.8707188E-01
        1   -1    0    0  501    0  0.00000000000E+00  0.00000000000E+00  0.14365543913E+04  0.14365543913E+04  0.50400001928E-02 0. -1.
       -1   -1    0    0    0  501  0.00000000000E+00  0.00000000000E+00 -0.56280314004E+03  0.56280314006E+03  0.50400001928E-02 0.  1.
    10030    2    1    2    0    0  0.00000000000E+00  0.00000000000E+00  0.87375125124E+03  0.19993575314E+04  0.17983295830E+04 0.  0.
        2    1    3    3  502    0 -0.30626578913E+03  0.27177480248E+02  0.13762919585E+04  0.14102187434E+04  0.25500000920E-02 0. -1.
       -2    1    3    3    0  502  0.30626578913E+03 -0.27177480248E+02 -0.50254070729E+03  0.58913878798E+03  0.25500000920E-02 0.  1.
</event>
<event>
 5   0  0.2431811E-04  0.1770245E+04  0.7818609E-02  0.8722285E-01
        2   -1    0    0  501    0  0.00000000000E+00  0.00000000000E+00  0.56461758910E+03  0.56461758910E+03  0.25500000920E-02 0.  1.
       -2   -1    0    0    0  501  0.00000000000E+00  0.00000000000E+00 -0.13875613576E+04  0.13875613576E+04  0.25500000920E-02 0. -1.
    10030    2    1    2    0    0  0.00000000000E+00  0.00000000000E+00 -0.82294376850E+03  0.19521789467E+04  0.17702446706E+04 0.  0.
        3    1    3    3  502    0  0.22057691505E+03  0.76277152373E+03  0.19833773121E+02  0.79427196956E+03  0.10100000352E+00 0.  1.
       -3    1    3    3    0  502 -0.22057691505E+03 -0.76277152373E+03 -0.84277754162E+03  0.11579069771E+04  0.10100000352E+00 0. -1.
</event>
<event>
 5   0  0.1308893E-04  0.1804407E+04  0.7818609E-02  0.8703959E-01
        1   -1    0    0  501    0  0.00000000000E+00  0.00000000000E+00  0.95476370761E+03  0.95476370763E+03  0.50400001928E-02 0.  1.
       -1   -1    0    0    0  501  0.00000000000E+00  0.00000000000E+00 -0.85253712188E+03  0.85253712189E+03  0.50400001928E-02 0. -1.
    10030    2    1    2    0    0  0.00000000000E+00  0.00000000000E+00  0.10222658574E+03  0.18073008295E+04  0.18044073857E+04 0.  0.
        4    1    3    3  502    0  0.72462952660E+03 -0.23208388119E+03  0.53667826483E+03  0.93111548777E+03  0.12699999809E+01 0.  1.
       -4    1    3    3    0  502 -0.72462952660E+03  0.23208388119E+03 -0.43445167910E+03  0.87618534175E+03  0.12699999809E+01 0. -1.
</event>
<event>
 5   0  0.2550616E-04  0.1811993E+04  0.7818609E-02  0.8699948E-01
        2   -1    0    0  501    0  0.00000000000E+00  0.00000000000E+00  0.80057438637E+03  0.80057438638E+03  0.25500000920E-02 0. -1.
       -2   -1    0    0    0  501  0.00000000000E+00  0.00000000000E+00 -0.10253004926E+04  0.10253004926E+04  0.25500000920E-02 0.  1.
    10030    2    1    2    0    0  0.00000000000E+00  0.00000000000E+00 -0.22472610623E+03  0.18258748790E+04  0.18119926189E+04 0.  0.
        1    1    3    3  502    0  0.48287421191E+03 -0.70204313031E+03 -0.42261353291E+03  0.95112263120E+03  0.50400001928E-02 0. -1.
       -1    1    3    3    0  502 -0.48287421191E+03  0.70204313031E+03  0.19788742668E+03  0.87475224779E+03  0.50400001928E-02 0.  1.
</event>
<event>
 5   0  0.1330225E-04  0.1805838E+04  0.7818609E-02  0.8703201E-01
       -1   -1    0    0    0  501  0.00000000000E+00  0.00000000000E+00  0.53273364879E+03  0.53273364881E+03  0.50400001928E-02 0.  1.
        1   -1    0    0  501    0  0.00000000000E+00  0.00000000000E+00 -0.15303387485E+04  0.15303387485E+04  0.50400001928E-02 0. -1.
    10030    2    1    2    0    0  0.00000000000E+00  0.00000000000E+00 -0.99760509970E+03  0.20630723973E+04  0.18058382490E+04 0.  0.
        3    1    3    3  502    0  0.61253957428E+03 -0.38388108271E+03 -0.11168789686E+04  0.13304089809E+04  0.10100000352E+00 0. -1.
       -3    1    3    3    0  502 -0.61253957428E+03  0.38388108271E+03  0.11927386893E+03  0.73266341640E+03  0.10100000352E+00 0.  1.
</event>
<event>
 5   0  0.2417106E-04  0.1811415E+04  0.7818609E-02  0.8700253E-01
        2   -1    0    0  501    0  0.00000000000E+00  0.00000000000E+00  0.17880265146E+04  0.17880265146E+04  0.25500000920E-02 0. -1.
       -2   -1    0    0    0  501  0.00000000000E+00  0.00000000000E+00 -0.45877727663E+03  0.45877727664E+03  0.25500000920E-02 0.  1.
    10030    2    1    2    0    0  0.00000000000E+00  0.00000000000E+00  0.13292492380E+04  0.22468037912E+04  0.18114148447E+04 0.  0.
        4    1    3    3  502    0  0.34805846148E+03 -0.68364043553E+03  0.67452370219E+02  0.77010413117E+03  0.12699999809E+01 0.  1.
       -4    1    3    3    0  502 -0.34805846148E+03  0.68364043553E+03  0.12617968678E+04  0.14766996601E+04  0.12699999809E+01 0. -1.
</event>
<event>
 5   0  0.9144875E-05  0.1792319E+04  0.7818609E-02  0.8710395E-01
        3   -1    0    0  501    0  0.00000000000E+00  0.00000000000E+00  0.11975412519E+04  0.11975412562E+04  0.10100000352E+00 0. -1.
       -3   -1    0    0    0  501  0.00000000000E+00  0.00000000000E+00 -0.67062591807E+03  0.67062592567E+03  0.10100000352E+00 0.  1.
    10030    2    1    2    0    0  0.00000000000E+00  0.00000000000E+00  0.52691533388E+03  0.18681671819E+04  0.17923194052E+04 0.  0.
        5    1    3    3  502    0 -0.48069760733E+03 -0.42448221844E+03  0.91590623214E+03  0.11181062828E+04  0.46999998093E+01 0.  1.
       -5    1    3    3    0  502  0.48069760733E+03  0.42448221844E+03 -0.38899089826E+03  0.75006089912E+03  0.46999998093E+01 0. -1.
</event>
<event>
 5   0  0.2417106E-04  0.1765498E+04  0.7818609E-02  0.8724865E-01
       -2   -1    0    0    0  501  0.00000000000E+00  0.00000000000E+00  0.80824094347E+03  0.80824094347E+03  0.25500000920E-02 0. -1.
        2   -1    0    0  501    0  0.00000000000E+00  0.00000000000E+00 -0.96412569475E+03  0.96412569475E+03  0.25500000920E-02 0.  1.
    10030    2    1    2    0    0  0.00000000000E+00  0.00000000000E+00 -0.15588475128E+03  0.17723666382E+04  0.17654980727E+04 0.  0.
        4    1    3    3  502    0  0.60458243011E+03 -0.13801133443E+03 -0.70861988054E+03  0.94165322239E+03  0.12699999809E+01 0.  1.
       -4    1    3    3    0  502 -0.60458243011E+03  0.13801133443E+03  0.55273512926E+03  0.83071341583E+03  0.12699999809E+01 0. -1.
</event>
<event>
 5   0  0.2393421E-04  0.1802376E+04  0.7818609E-02  0.8705037E-01
        2   -1    0    0  501    0  0.00000000000E+00  0.00000000000E+00  0.11125968997E+04  0.11125968997E+04  0.25500000920E-02 0. -1.
       -2   -1    0    0    0  501  0.00000000000E+00  0.00000000000E+00 -0.72994970150E+03  0.72994970150E+03  0.25500000920E-02 0.  1.
    10030    2    1    2    0    0  0.00000000000E+00  0.00000000000E+00  0.38264719823E+03  0.18425466012E+04  0.18023759595E+04 0.  0.
        5    1    3    3  502    0  0.53427164947E+03  0.59272957254E+03 -0.23674905808E+03  0.83237416352E+03  0.46999998093E+01 0.  1.
       -5    1    3    3    0  502 -0.53427164947E+03 -0.59272957254E+03  0.61939625631E+03  0.10101724377E+04  0.46999998093E+01 0. -1.
</event>
<event>
 5   0  0.2569405E-04  0.1792522E+04  0.7818609E-02  0.8710286E-01
       -2   -1    0    0    0  501  0.00000000000E+00  0.00000000000E+00  0.11543902025E+04  0.11543902025E+04  0.25500000920E-02 0. -1.
        2   -1    0    0  501    0  0.00000000000E+00  0.00000000000E+00 -0.69585140368E+03  0.69585140369E+03  0.25500000920E-02 0.  1.
    10030    2    1    2    0    0  0.00000000000E+00  0.00000000000E+00  0.45853879883E+03  0.18502416062E+04  0.17925222931E+04 0.  0.
        2    1    3    3  502    0  0.35668226041E+03  0.27883906358E+03 -0.56914290270E+03  0.72725312098E+03  0.25500000920E-02 0.  1.
       -2    1    3    3    0  502 -0.35668226041E+03 -0.27883906358E+03  0.10276817015E+04  0.11229884852E+04  0.25500000920E-02 0. -1.
</event>
<event>
 5   0  0.2431811E-04  0.1806260E+04  0.7818609E-02  0.8702977E-01
       -2   -1    0    0    0  501  0.00000000000E+00  0.00000000000E+00  0.46329894298E+03  0.46329894299E+03  0.25500000920E-02 0. -1.
        2   -1    0    0  501    0  0.00000000000E+00  0.00000000000E+00 -0.17605131822E+04  0.17605131822E+04  0.25500000920E-02 0.  1.
    10030    2    1    2    0    0  0.00000000000E+00  0.00000000000E+00 -0.12972142392E+04  0.22238121251E+04  0.18062601102E+04 0.  0.
        3    1    3    3  502    0 -0.94999765066E+02  0.68660422065E+03  0.64189523334E+02  0.69611106605E+03  0.10100000352E+00 0. -1.
       -3    1    3    3    0  502  0.94999765066E+02 -0.68660422065E+03 -0.13614037625E+04  0.15277010591E+04  0.10100000352E+00 0.  1.
</event>
<event>
 5   0  0.2431811E-04  0.1797932E+04  0.7818609E-02  0.8707400E-01
        2   -1    0    0  501    0  0.00000000000E+00  0.00000000000E+00  0.65883950825E+03  0.65883950826E+03  0.25500000920E-02 0.  1.
       -2   -1    0    0    0  501  0.00000000000E+00  0.00000000000E+00 -0.12266105808E+04  0.12266105808E+04  0.25500000920E-02 0. -1.
    10030    2    1    2    0    0  0.00000000000E+00  0.00000000000E+00 -0.56777107253E+03  0.18854500890E+04  0.17979316026E+04 0.  0.
        3    1    3    3  502    0 -0.75207417695E+02  0.47528782709E+03 -0.10801796020E+04  0.11825153940E+04  0.10100000352E+00 0. -1.
       -3    1    3    3    0  502  0.75207417695E+02 -0.47528782709E+03  0.51240852945E+03  0.70293469506E+03  0.10100000352E+00 0.  1.
</event>
<event>
 5   0  0.2569405E-04  0.1802855E+04  0.7818609E-02  0.8704783E-01
       -2   -1    0    0    0  501  0.00000000000E+00  0.00000000000E+00  0.10590289401E+04  0.10590289401E+04  0.25500000920E-02 0.  1.
        2   -1    0    0  501    0  0.00000000000E+00  0.00000000000E+00 -0.76728010789E+03  0.76728010790E+03  0.25500000920E-02 0. -1.
    10030    2    1    2    0    0  0.00000000000E+00  0.00000000000E+00  0.29174883218E+03  0.18263090480E+04  0.18028553346E+04 0.  0.
        2    1    3    3  502    0  0.42568415909E+03 -0.53298551499E+03 -0.45110633620E+03  0.81778816882E+03  0.25500000920E-02 0. -1.
       -2    1    3    3    0  502 -0.42568415909E+03  0.53298551499E+03  0.74285516838E+03  0.10085208792E+04  0.25500000920E-02 0.  1.
</event>
<event>
 5   0  0.9144875E-05  0.1801923E+04  0.7818609E-02  0.8705277E-01
       -3   -1    0    0    0  501  0.00000000000E+00  0.00000000000E+00  0.13044438376E+04  0.13044438416E+04  0.10100000352E+00 0.  1.
        3   -1    0    0  501    0  0.00000000000E+00  0.00000000000E+00 -0.62228197243E+03  0.62228198063E+03  0.10100000352E+00 0. -1.
    10030    2    1    2    0    0  0.00000000000E+00  0.00000000000E+00  0.68216186521E+03  0.19267258222E+04  0.18019233012E+04 0.  0.
        1    1    3    3  502    0  0.54067407025E+02  0.73996530055E+03  0.88761853721E+03  0.11568658514E+04  0.50400001928E-02 0. -1.
       -1    1    3    3    0  502 -0.54067407025E+02 -0.73996530055E+03 -0.20545667200E+03  0.76985997078E+03  0.50400001928E-02 0.  1.
</event>
<event>
 5   0  0.2393421E-04  0.1732487E+04  0.7818609E-02  0.8743050E-01
       -2   -1    0    0    0  501  0.00000000000E+00  0.00000000000E+00  0.11560634590E+04  0.11560634590E+04  0.25500000920E-02 0.  1.
        2   -1    0    0  501    0  0.00000000000E+00  0.00000000000E+00 -0.64907983938E+03  0.64907983939E+03  0.25500000920E-02 0. -1.
    10030    2    1    2    0    0  0.00000000000E+00  0.00000000000E+00  0.50698361965E+03  0.18051432984E+04  0.17324866341E+04 0.  0.
        5    1    3    3  502    0 -0.64809256147E+03 -0.19643083733E+03 -0.30929577459E+03  0.74450991146E+03  0.46999998093E+01 0. -1.
       -5    1    3    3    0  502  0.64809256147E+03  0.19643083733E+03  0.81627939424E+03  0.10606333870E+04  0.46999998093E+01 0.  1.
</event>
<event>
 5   0  0.2431811E-04  0.1803407E+04  0.7818609E-02  0.8704490E-01
        2   -1    0    0  501    0  0.00000000000E+00  0.00000000000E+00  0.66990076733E+03  0.66990076733E+03  0.25500000920E-02 0. -1.
       -2   -1    0    0    0  501  0.00000000000E+00  0.00000000000E+00 -0.12137154195E+04  0.12137154195E+04  0.25500000920E-02 0.  1.
    10030    2    1    2    0    0  0.00000000000E+00  0.00000000000E+00 -0.54381465218E+03  0.18836161868E+04  0.18034066550E+04 0.  0.
        3    1    3    3  502    0 -0.25744682989E+02 -0.68455404245E+03  0.34050868651E+03  0.76499882452E+03  0.10100000352E+00 0. -1.
       -3    1    3    3    0  502  0.25744682989E+02  0.68455404245E+03 -0.88432333868E+03  0.11186173623E+04  0.10100000352E+00 0.  1.
</event>
<event>
 5   0  0.1308893E-04  0.1730993E+04  0.7818609E-02  0.8743882E-01
        1   -1    0    0  501    0  0.00000000000E+00  0.00000000000E+00  0.16152712843E+04  0.16152712843E+04  0.50400001928E-02 0.  1.
       -1   -1    0    0    0  501  0.00000000000E+00  0.00000000000E+00 -0.46375154784E+03  0.46375154787E+03  0.50400001928E-02 0. -1.
    10030    2    1    2    0    0  0.00000000000E+00  0.00000000000E+00  0.11515197365E+04  0.20790228322E+04  0.17309934238E+04 0.  0.
        4    1    3    3  502    0 -0.56210838997E+02  0.98798479395E+02  0.16062660048E+04  0.16102834810E+04  0.12699999809E+01 0.  1.
       -4    1    3    3    0  502  0.56210838997E+02 -0.98798479395E+02 -0.45474626832E+03  0.46873935124E+03  0.12699999809E+01 0. -1.
</event>
<event>
 5   0  0.2550616E-04  0.1755838E+04  0.7818609E-02  0.8730143E-01
       -2   -1    0    0    0  501  0.00000000000E+00  0.00000000000E+00  0.54948754987E+03  0.54948754988E+03  0.25500000920E-02 0.  1.
        2   -1    0    0  501    0  0.00000000000E+00  0.00000000000E+00 -0.14026553149E+04  0.14026553149E+04  0.25500000920E-02 0. -1.
    10030    2    1    2    0    0  0.00000000000E+00  0.00000000000E+00 -0.85316776500E+03  0.19521428648E+04  0.17558378425E+04 0.  0.
        1    1    3    3  502    0  0.62196529945E+03  0.19737778023E+03  0.22639741356E+03  0.69069140051E+03  0.50400001928E-02 0.  1.
       -1    1    3    3    0  502 -0.62196529945E+03 -0.19737778023E+03 -0.10795651786E+04  0.12614514642E+04  0.50400001928E-02 0. -1.
</event>
<event>
 5   0  0.2569405E-04  0.1796808E+04  0.7818609E-02  0.8707999E-01
       -2   -1    0    0    0  501  0.00000000000E+00  0.00000000000E+00  0.25269457204E+03  0.25269457205E+03  0.25500000920E-02 0. -1.
        2   -1    0    0  501    0  0.00000000000E+00  0.00000000000E+00 -0.31940906131E+04  0.31940906131E+04  0.25500000920E-02 0.  1.
    10030    2    1    2    0    0  0.00000000000E+00  0.00000000000E+00 -0.29413960411E+04  0.34467851852E+04  0.17968075696E+04 0.  0.
        2    1    3    3  502    0 -0.55807072501E+03  0.53958554783E+03 -0.23382495096E+04  0.24637382707E+04  0.25500000920E-02 0.  1.
       -2    1    3    3    0  502  0.55807072501E+03 -0.53958554783E+03 -0.60314653149E+03  0.98304691444E+03  0.25500000920E-02 0. -1.
</event>
<event>
 5   0  0.1253925E-04  0.1847916E+04  0.7818609E-02  0.8681225E-01
       -1   -1    0    0    0  501  0.00000000000E+00  0.00000000000E+00  0.14315743640E+04  0.14315743640E+04  0.50400001928E-02 0.  1.
        1   -1    0    0  501    0  0.00000000000E+00  0.00000000000E+00 -0.59633546551E+03  0.59633546553E+03  0.50400001928E-02 0. -1.
    10030    2    1    2    0    0  0.00000000000E+00  0.00000000000E+00  0.83523889844E+03  0.20279098295E+04  0.18479161937E+04 0.  0.
        2    1    3    3  502    0 -0.49433219621E+02 -0.47778249790E+03 -0.44855028618E+03  0.65720401531E+03  0.25500000920E-02 0. -1.
       -2    1    3    3    0  502  0.49433219621E+02  0.47778249790E+03  0.12837891846E+04  0.13707058142E+04  0.25500000920E-02 0.  1.
</event>
<event>
 5   0  0.2393421E-04  0.1809026E+04  0.7818609E-02  0.8701514E-01
        2   -1    0    0  501    0  0.00000000000E+00  0.00000000000E+00  0.15445309020E+04  0.15445309020E+04  0.25500000920E-02 0. -1.
       -2   -1    0    0    0  501  0.00000000000E+00  0.00000000000E+00 -0.52970373814E+03  0.52970373814E+03  0.25500000920E-02 0.  1.
    10030    2    1    2    0    0  0.00000000000E+00  0.00000000000E+00  0.10148271639E+04  0.20742346402E+04  0.18090260280E+04 0.  0.
        5    1    3    3  502    0  0.12994850648E+03  0.24425568292E+03  0.14948073635E+04  0.15202034723E+04  0.46999998093E+01 0. -1.
       -5    1    3    3    0  502 -0.12994850648E+03 -0.24425568292E+03 -0.47998019965E+03  0.55403116792E+03  0.46999998093E+01 0.  1.
</event>
<event>
 5   0  0.1330225E-04  0.1838787E+04  0.7818609E-02  0.8685941E-01
       -1   -1    0    0    0  501  0.00000000000E+00  0.00000000000E+00  0.49539764860E+03  0.49539764863E+03  0.50400001928E-02 0.  1.
        1   -1    0    0  501    0  0.00000000000E+00  0.00000000000E+00 -0.17062747977E+04  0.17062747978E+04  0.50400001928E-02 0. -1.
    10030    2    1    2    0    0  0.00000000000E+00  0.00000000000E+00 -0.12108771491E+04  0.22016724464E+04  0.18387871249E+04 0.  0.
        3    1    3    3  502    0 -0.85164830931E+03  0.33999094113E+03 -0.68473381778E+03  0.11444470692E+04  0.10100000352E+00 0.  1.
       -3    1    3    3    0  502  0.85164830931E+03 -0.33999094113E+03 -0.52614333136E+03  0.10572253772E+04  0.10100000352E+00 0. -1.
</event>
<event>
 5   0  0.1330225E-04  0.1810700E+04  0.7818609E-02  0.8700630E-01
        1   -1    0    0  501    0  0.00000000000E+00  0.00000000000E+00  0.21616979333E+04  0.21616979333E+04  0.50400001928E-02 0.  1.
       -1   -1    0    0    0  501  0.00000000000E+00  0.00000000000E+00 -0.37917355440E+03  0.37917355444E+03  0.50400001928E-02 0. -1.
    10030    2    1    2    0    0  0.00000000000E+00  0.00000000000E+00  0.17825243789E+04  0.25408714877E+04  0.18107000734E+04 0.  0.
        3    1    3    3  502    0 -0.22353801569E+03 -0.70496904459E+03  0.15846265644E+03  0.75634715705E+03  0.10100000352E+00 0. -1.
       -3    1    3    3    0  502  0.22353801569E+03  0.70496904459E+03  0.16240617224E+04  0.17845243307E+04  0.10100000352E+00 0.  1.
</event>
<event>
 5   0  0.1308893E-04  0.1787238E+04  0.7818609E-02  0.8713115E-01
        1   -1    0    0  501    0  0.00000000000E+00  0.00000000000E+00  0.12829124059E+04  0.12829124059E+04  0.50400001928E-02 0.  1.
       -1   -1    0    0    0  501  0.00000000000E+00  0.00000000000E+00 -0.62245506541E+03  0.62245506543E+03  0.50400001928E-02 0. -1.
    10030    2    1    2    0    0  0.00000000000E+00  0.00000000000E+00  0.66045734048E+03  0.19053674713E+04  0.17872384570E+04 0.  0.
        4    1    3    3  502    0  0.66419231727E+03 -0.56164357931E+03  0.11185131070E+03  0.87698761286E+03  0.12699999809E+01 0. -1.
       -4    1    3    3    0  502 -0.66419231727E+03  0.56164357931E+03  0.54860602978E+03  0.10283798585E+04  0.12699999809E+01 0.  1.
</event>
<event>
 5   0  0.2417106E-04  0.1773190E+04  0.7818609E-02  0.8720688E-01
        2   -1    0    0  501    0  0.00000000000E+00  0.00000000000E+00  0.10842116397E+04  0.10842116397E+04  0.25500000920E-02 0.  1.
       -2   -1    0    0    0  501  0.00000000000E+00  0.00000000000E+00 -0.72499761841E+03  0.72499761841E+03  0.25500000920E-02 0. -1.
    10030    2    1    2    0    0  0.00000000000E+00  0.00000000000E+00  0.35921402126E+03  0.18092092581E+04  0.17731901834E+04 0.  0.
        4    1    3    3  502    0  0.34774486149E+03 -0.11798364930E+03 -0.64375637544E+03  0.74112786617E+03  0.12699999809E+01 0. -1.
       -4    1    3    3    0  502 -0.34774486149E+03  0.11798364930E+03  0.10029703967E+04  0.10680813919E+04  0.12699999809E+01 0.  1.
</event>
<event>
 5   0  0.2569405E-04  0.1801467E+04  0.7818609E-02  0.8705520E-01
       -2   -1    0    0    0  501  0.00000000000E+00  0.00000000000E+00  0.62017388096E+03  0.62017388096E+03  0.25500000920E-02 0. -1.
        2   -1    0    0  501    0  0.00000000000E+00  0.00000000000E+00 -0.13082146792E+04  0.13082146792E+04  0.25500000920E-02 0.  1.
    10030    2    1    2    0    0  0.00000000000E+00  0.00000000000E+00 -0.68804079823E+03  0.19283885602E+04  0.18014667077E+04 0.  0.
        2    1    3    3  502    0 -0.62434557256E+03 -0.28252214233E+03 -0.96975079086E+03  0.11874522101E+04  0.25500000920E-02 0.  1.
       -2    1    3    3    0  502  0.62434557256E+03  0.28252214233E+03  0.28170999263E+03  0.74093635006E+03  0.25500000920E-02 0. -1.
</event>
<event>
 5   0  0.2417106E-04  0.1794190E+04  0.7818609E-02  0.8709395E-01
       -2   -1    0    0    0  501  0.00000000000E+00  0.00000000000E+00  0.76931880560E+03  0.76931880561E+03  0.25500000920E-02 0. -1.
        2   -1    0    0  501    0  0.00000000000E+00  0.00000000000E+00 -0.10460939975E+04  0.10460939975E+04  0.25500000920E-02 0.  1.
    10030    2    1    2    0    0  0.00000000000E+00  0.00000000000E+00 -0.27677519189E+03  0.18154128031E+04  0.17941903853E+04 0.  0.
        4    1    3    3  502    0 -0.50930111116E+03 -0.59834194623E+03  0.29960376947E+03  0.84093087590E+03  0.12699999809E+01 0. -1.
       -4    1    3    3    0  502  0.50930111116E+03  0.59834194623E+03 -0.57637896136E+03  0.97448192721E+03  0.12699999809E+01 0.  1.
</event>
<event>
 5   0  0.2550616E-04  0.1790574E+04  0.7818609E-02  0.8711328E-01
       -2   -1    0    0    0  501  0.00000000000E+00  0.00000000000E+00  0.16234152919E+04  0.16234152919E+04  0.25500000920E-02 0.  1.
        2   -1    0    0  501    0  0.00000000000E+00  0.00000000000E+00 -0.49373597220E+03  0.49373597221E+03  0.25500000920E-02 0. -1.
    10030    2    1    2    0    0  0.00000000000E+00  0.00000000000E+00  0.11296793197E+04  0.21171512641E+04  0.17905736818E+04 0.  0.
        1    1    3    3  502    0  0.35220684361E+03  0.73836448394E+03  0.99492109998E+03  0.12880604672E+04  0.50400001928E-02 0.  1.
       -1    1    3    3    0  502 -0.35220684361E+03 -0.73836448394E+03  0.13475821974E+03  0.82909079699E+03  0.50400001928E-02 0. -1.
</event>
<event>
 5   0  0.2431811E-04  0.1907820E+04  0.7818609E-02  0.8650974E-01
        2   -1    0    0  501    0  0.00000000000E+00  0.00000000000E+00  0.14637762775E+04  0.14637762775E+04  0.25500000920E-02 0.  1.
       -2   -1    0    0    0  501  0.00000000000E+00  0.00000000000E+00 -0.62164177395E+03  0.62164177396E+03  0.25500000920E-02 0. -1.
    10030    2    1    2    0    0  0.00000000000E+00  0.00000000000E+00  0.84213450357E+03  0.20854180515E+04  0.19078202031E+04 0.  0.
        3    1    3    3  502    0  0.40843154658E+03 -0.80145343732E+03  0.76811329351E+03  0.11828533224E+04  0.10100000352E+00 0.  1.
       -3    1    3    3    0  502 -0.40843154658E+03  0.80145343732E+03  0.74021210060E+02  0.90256472908E+03  0.10100000352E+00 0. -1.
</event>
<event>
 5   0  0.1214723E-04  0.1795289E+04  0.7818609E-02  0.8708809E-01
        1   -1    0    0  501    0  0.00000000000E+00  0.00000000000E+00  0.14685713127E+04  0.14685713127E+04  0.50400001928E-02 0.  1.
       -1   -1    0    0    0  501  0.00000000000E+00  0.00000000000E+00 -0.54867307801E+03  0.54867307803E+03  0.50400001928E-02 0. -1.
    10030    2    1    2    0    0  0.00000000000E+00  0.00000000000E+00  0.91989823469E+03  0.20172443907E+04  0.17952888820E+04 0.  0.
        1    1    3    3  502    0  0.71063316145E+03 -0.54644884054E+03  0.40773083379E+03  0.98480975743E+03  0.50400001928E-02 0. -1.
       -1    1    3    3    0  502 -0.71063316145E+03  0.54644884054E+03  0.51216740090E+03  0.10324346333E+04  0.50400001928E-02 0.  1.
</event>
<event>
 5   0  0.2569405E-04  0.1804064E+04  0.7818609E-02  0.8704141E-01
       -2   -1    0    0    0  501  0.00000000000E+00  0.00000000000E+00  0.11609092908E+04  0.11609092908E+04  0.25500000920E-02 0. -1.
        2   -1    0    0  501    0  0.00000000000E+00  0.00000000000E+00 -0.70088340401E+03  0.70088340401E+03  0.25500000920E-02 0.  1.
    10030    2    1    2    0    0  0.00000000000E+00  0.00000000000E+00  0.46002588684E+03  0.18617926949E+04  0.18040643620E+04 0.  0.
        2    1    3    3  502    0  0.83756269971E+03 -0.28770253513E+03  0.53128094201E+02  0.88719029473E+03  0.25500000920E-02 0.  1.
       -2    1    3    3    0  502 -0.83756269971E+03  0.28770253513E+03  0.40689779264E+03  0.97460240012E+03  0.25500000920E-02 0. -1.
</event>
<event>
 5   0  0.1253925E-04  0.1792610E+04  0.7818609E-02  0.8710239E-01
       -1   -1    0    0    0  501  0.00000000000E+00  0.00000000000E+00  0.95828217490E+03  0.95828217492E+03  0.50400001928E-02 0.  1.
        1   -1    0    0  501    0  0.00000000000E+00  0.00000000000E+00 -0.83833624698E+03  0.83833624699E+03  0.50400001928E-02 0. -1.
    10030    2    1    2    0    0  0.00000000000E+00  0.00000000000E+00  0.11994592793E+03  0.17966184219E+04  0.17926100324E+04 0.  0.
        2    1    3    3  502    0 -0.46537336701E+03  0.77965671767E+02  0.82372134203E+03  0.94929861794E+03  0.25500000920E-02 0.  1.
       -2    1    3    3    0  502  0.46537336701E+03 -0.77965671767E+02 -0.70377541411E+03  0.84731980397E+03  0.25500000920E-02 0. -1.
</event>
<event>
 5   0  0.2417106E-04  0.1733771E+04  0.7818609E-02  0.8742335E-01
        2   -1    0    0  501    0  0.00000000000E+00  0.00000000000E+00  0.17016573566E+04  0.17016573566E+04  0.25500000920E-02 0.  1.
       -2   -1    0    0    0  501  0.00000000000E+00  0.00000000000E+00 -0.44162253321E+03  0.44162253322E+03  0.25500000920E-02 0. -1.
    10030    2    1    2    0    0  0.00000000000E+00  0.00000000000E+00  0.12600348234E+04  0.21432798898E+04  0.17337707259E+04 0.  0.
        4    1    3    3  502    0  0.62462089593E+03  0.53823353164E+03  0.96089788534E+03  0.12661646643E+04  0.12699999809E+01 0.  1.
       -4    1    3    3    0  502 -0.62462089593E+03 -0.53823353164E+03  0.29913693807E+03  0.87711522552E+03  0.12699999809E+01 0. -1.
</event>
<event>
 5   0  0.2417106E-04  0.1796611E+04  0.7818609E-02  0.8708104E-01
       -2   -1    0    0    0  501  0.00000000000E+00  0.00000000000E+00  0.39841880971E+03  0.39841880972E+03  0.25500000920E-02 0.  1.
        2   -1    0    0  501    0  0.00000000000E+00  0.00000000000E+00 -0.20253874342E+04  0.20253874342E+04  0.25500000920E-02 0. -1.
    10030    2    1    2    0    0  0.00000000000E+00  0.00000000000E+00 -0.16269686245E+04  0.24238062439E+04  0.17966106431E+04 0.  0.
        4    1    3    3  502    0 -0.87503002567E+03 -0.76296358136E+02 -0.55946585829E+03  0.10413944208E+04  0.12699999809E+01 0. -1.
       -4    1    3    3    0  502  0.87503002567E+03  0.76296358136E+02 -0.10675027662E+04  0.13824118232E+04  0.12699999809E+01 0.  1.
</event>
<event>
 5   0  0.1214723E-04  0.1672399E+04  0.7818609E-02  0.8777265E-01
       -1   -1    0    0    0  501  0.00000000000E+00  0.00000000000E+00  0.81108132713E+03  0.81108132715E+03  0.50400001928E-02 0. -1.
        1   -1    0    0  501    0  0.00000000000E+00  0.00000000000E+00 -0.86209544161E+03  0.86209544163E+03  0.50400001928E-02 0.  1.
    10030    2    1    2    0    0  0.00000000000E+00  0.00000000000E+00 -0.51014114480E+02  0.16731767688E+04  0.16723988937E+04 0.  0.
        1    1    3    3  502    0 -0.44895764629E+03  0.39027406521E+03  0.56243344998E+03  0.81866244560E+03  0.50400001928E-02 0. -1.
       -1    1    3    3    0  502  0.44895764629E+03 -0.39027406521E+03 -0.61344756447E+03  0.85451432318E+03  0.50400001928E-02 0.  1.
</event>
<event>
 5   0  0.1330225E-04  0.1787814E+04  0.7818609E-02  0.8712807E-01
       -1   -1    0    0    0  501  0.00000000000E+00  0.00000000000E+00  0.95803239669E+03  0.95803239670E+03  0.50400001928E-02 0. -1.
        1   -1    0    0  501    0  0.00000000000E+00  0.00000000000E+00 -0.83407400427E+03  0.83407400429E+03  0.50400001928E-02 0.  1.
    10030    2    1    2    0    0  0.00000000000E+00  0.00000000000E+00  0.12395839242E+03  0.17921064010E+04  0.17878142156E+04 0.  0.
        3    1    3    3  502    0  0.23455683030E+03  0.41748247069E+02 -0.80166346132E+03  0.83631581247E+03  0.10100000352E+00 0.  1.
       -3    1    3    3    0  502 -0.23455683030E+03 -0.41748247069E+02  0.92562185374E+03  0.95579058851E+03  0.10100000352E+00 0. -1.
</event>
<event>
 5   0  0.2431811E-04  0.1817906E+04  0.7818609E-02  0.8696835E-01
        2   -1    0    0  501    0  0.00000000000E+00  0.00000000000E+00  0.19847075374E+04  0.19847075374E+04  0.25500000920E-02 0. -1.
       -2   -1    0    0    0  501  0.00000000000E+00  0.00000000000E+00 -0.41628080626E+03  0.41628080626E+03  0.25500000920E-02 0.  1.
    10030    2    1    2    0    0  0.00000000000E+00  0.00000000000E+00  0.15684267311E+04  0.24009883437E+04  0.18179061074E+04 0.  0.
        3    1    3    3  502    0 -0.31528215687E+03 -0.40625423124E+03  0.17741109428E+04  0.18471369701E+04  0.10100000352E+00 0. -1.
       -3    1    3    3    0  502  0.31528215687E+03  0.40625423124E+03 -0.20568421166E+03  0.55385137354E+03  0.10100000352E+00 0.  1.
</event>
<event>
 5   0  0.1239119E-04  0.1804746E+04  0.7818609E-02  0.8703780E-01
       -1   -1    0    0    0  501  0.00000000000E+00  0.00000000000E+00  0.86286184811E+03  0.86286184812E+03  0.50400001928E-02 0.  1.
        1   -1    0    0  501    0  0.00000000000E+00  0.00000000000E+00 -0.94369369610E+03  0.94369369611E+03  0.50400001928E-02 0. -1.
    10030    2    1    2    0    0  0.00000000000E+00  0.00000000000E+00 -0.80831847989E+02  0.18065555442E+04  0.18047462832E+04 0.  0.
        5    1    3    3  502    0 -0.85494036227E+03  0.27118946368E+03  0.58619848058E+02  0.89884655244E+03  0.46999998093E+01 0.  1.
       -5    1    3    3    0  502  0.85494036227E+03 -0.27118946368E+03 -0.13945169605E+03  0.90770899179E+03  0.46999998093E+01 0. -1.
</event>
<event>
 5   0  0.1308893E-04  0.1791586E+04  0.7818609E-02  0.8710787E-01
        1   -1    0    0  501    0  0.00000000000E+00  0.00000000000E+00  0.10976237589E+04  0.10976237589E+04  0.50400001928E-02 0.  1.
       -1   -1    0    0    0  501  0.00000000000E+00  0.00000000000E+00 -0.73107487044E+03  0.73107487046E+03  0.50400001928E-02 0. -1.
    10030    2    1    2    0    0  0.00000000000E+00  0.00000000000E+00  0.36654888845E+03  0.18286986294E+04  0.17915860541E+04 0.  0.
        4    1    3    3  502    0  0.29050229055E+03  0.67125459154E+03 -0.34461305468E+03  0.80853823524E+03  0.12699999809E+01 0. -1.
       -4    1    3    3    0  502 -0.29050229055E+03 -0.67125459154E+03  0.71116194313E+03  0.10201603941E+04  0.12699999809E+01 0.  1.
</event>
<event>
 5   0  0.2417106E-04  0.1779275E+04  0.7818609E-02  0.8717399E-01
        2   -1    0    0  501    0  0.00000000000E+00  0.00000000000E+00  0.25979964047E+04  0.25979964047E+04  0.25500000920E-02 0.  1.
       -2   -1    0    0    0  501  0.00000000000E+00  0.00000000000E+00 -0.30464062699E+03  0.30464062700E+03  0.25500000920E-02 0. -1.
    10030    2    1    2    0    0  0.00000000000E+00  0.00000000000E+00  0.22933557777E+04  0.29026370317E+04  0.17792754184E+04 0.  0.
        4    1    3    3  502    0  0.57790523718E+03 -0.64941267125E+03  0.83825885997E+03  0.12076385262E+04  0.12699999809E+01 0.  1.
       -4    1    3    3    0  502 -0.57790523718E+03  0.64941267125E+03  0.14550969177E+04  0.16949985055E+04  0.12699999809E+01 0. -1.
</event>
<event>
 5   0  0.2550616E-04  0.1800675E+04  0.7818609E-02  0.8705941E-01
        2   -1    0    0  501    0  0.00000000000E+00  0.00000000000E+00  0.11907375753E+04  0.11907375753E+04  0.25500000920E-02 0.  1.
       -2   -1    0    0    0  501  0.00000000000E+00  0.00000000000E+00 -0.68076070292E+03  0.68076070293E+03  0.25500000920E-02 0. -1.
    10030    2    1    2    0    0  0.00000000000E+00  0.00000000000E+00  0.50997687236E+03  0.18714982782E+04  0.18006747055E+04 0.  0.
        1    1    3    3  502    0 -0.47954700553E+03  0.56603958809E+03 -0.27521458343E+03  0.79127063181E+03  0.50400001928E-02 0. -1.
       -1    1    3    3    0  502  0.47954700553E+03 -0.56603958809E+03  0.78519145578E+03  0.10802276464E+04  0.50400001928E-02 0.  1.
</event>
<event>
 5   0  0.1253925E-04  0.1795786E+04  0.7818609E-02  0.8708544E-01
        1   -1    0    0  501    0  0.00000000000E+00  0.00000000000E+00  0.11040843426E+04  0.11040843426E+04  0.50400001928E-02 0.  1.
       -1   -1    0    0    0  501  0.00000000000E+00  0.00000000000E+00 -0.73020824822E+03  0.73020824824E+03  0.50400001928E-02 0. -1.
    10030    2    1    2    0    0  0.00000000000E+00  0.00000000000E+00  0.37387609442E+03  0.18342925909E+04  0.17957856150E+04 0.  0.
        2    1    3    3  502    0 -0.47489098461E+03 -0.67054170553E+02  0.96228914862E+03  0.10751828285E+04  0.25500000920E-02 0.  1.
       -2    1    3    3    0  502  0.47489098461E+03  0.67054170553E+02 -0.58841305420E+03  0.75910976243E+03  0.25500000920E-02 0. -1.
</event>
<event>
 5   0  0.2569405E-04  0.1805034E+04  0.7818609E-02  0.8703627E-01
        2   -1    0    0  501    0  0.00000000000E+00  0.00000000000E+00  0.11974400758E+04  0.11974400758E+04  0.25500000920E-02 0.  1.
       -2   -1    0    0    0  501  0.00000000000E+00  0.00000000000E+00 -0.68023197656E+03  0.68023197657E+03  0.25500000920E-02 0. -1.
    10030    2    1    2    0    0  0.00000000000E+00  0.00000000000E+00  0.51720809929E+03  0.18776720524E+04  0.18050341045E+04 0.  0.
        2    1    3    3  502    0  0.36436169815E+03 -0.29451794954E+03  0.10610323338E+04  0.11598663212E+04  0.25500000920E-02 0.  1.
       -2    1    3    3    0  502 -0.36436169815E+03  0.29451794954E+03 -0.54382423453E+03  0.71780573120E+03  0.25500000920E-02 0. -1.
</event>
<event>
 5   0  0.2550616E-04  0.1788702E+04  0.7818609E-02  0.8712331E-01
       -2   -1    0    0    0  501  0.00000000000E+00  0.00000000000E+00  0.15037007577E+04  0.15037007577E+04  0.25500000920E-02 0.  1.
        2   -1    0    0  501    0  0.00000000000E+00  0.00000000000E+00 -0.53192992869E+03  0.53192992870E+03  0.25500000920E-02 0. -1.
    10030    2    1    2    0    0  0.00000000000E+00  0.00000000000E+00  0.97177082902E+03  0.20356306864E+04  0.17887016932E+04 0.  0.
        1    1    3    3  502    0 -0.29195397202E+01 -0.82190057075E+03  0.84596963379E+02  0.82624797618E+03  0.50400001928E-02 0. -1.
       -1    1    3    3    0  502  0.29195397202E+01  0.82190057075E+03  0.88717386564E+03  0.12093827102E+04  0.50400001928E-02 0.  1.
</event>
<event>
 5   0  0.2431811E-04  0.1778392E+04  0.7818609E-02  0.8717875E-01
       -2   -1    0    0    0  501  0.00000000000E+00  0.00000000000E+00  0.61142963002E+03  0.61142963003E+03  0.25500000920E-02 0. -1.
        2   -1    0    0  501    0  0.00000000000E+00  0.00000000000E+00 -0.12931490463E+04  0.12931490463E+04  0.25500000920E-02 0.  1.
    10030    2    1    2    0    0  0.00000000000E+00  0.00000000000E+00 -0.68171941630E+03  0.19045786763E+04  0.17783921311E+04 0.  0.
        3    1    3    3  502    0  0.70988461666E+03  0.67974311906E+02 -0.90969024906E+03  0.11558949068E+04  0.10100000352E+00 0.  1.
       -3    1    3    3    0  502 -0.70988461666E+03 -0.67974311906E+02  0.22797083276E+03  0.74868376959E+03  0.10100000352E+00 0. -1.
</event>
<event>
 5   0  0.2569405E-04  0.1810337E+04  0.7818609E-02  0.8700821E-01
       -2   -1    0    0    0  501  0.00000000000E+00  0.00000000000E+00  0.40181323649E+03  0.40181323650E+03  0.25500000920E-02 0. -1.
        2   -1    0    0  501    0  0.00000000000E+00  0.00000000000E+00 -0.20390826989E+04  0.20390826989E+04  0.25500000920E-02 0.  1.
    10030    2    1    2    0    0  0.00000000000E+00  0.00000000000E+00 -0.16372694624E+04  0.24408959354E+04  0.18103374478E+04 0.  0.
        2    1    3    3  502    0 -0.64685341206E+03 -0.18280423834E+03 -0.16359971655E+04  0.17687067173E+04  0.25500000920E-02 0.  1.
       -2    1    3    3    0  502  0.64685341206E+03  0.18280423834E+03 -0.12722969512E+01  0.67218921815E+03  0.25500000920E-02 0. -1.
</event>
<event>
 5   0  0.1239119E-04  0.1792018E+04  0.7818609E-02  0.8710556E-01
        1   -1    0    0  501    0  0.00000000000E+00  0.00000000000E+00  0.21440121475E+04  0.21440121476E+04  0.50400001928E-02 0.  1.
       -1   -1    0    0    0  501  0.00000000000E+00  0.00000000000E+00 -0.37445299048E+03  0.37445299051E+03  0.50400001928E-02 0. -1.
    10030    2    1    2    0    0  0.00000000000E+00  0.00000000000E+00  0.17695591571E+04  0.25184651381E+04  0.17920175896E+04 0.  0.
        5    1    3    3  502    0  0.52323922717E+03  0.56798128990E+03  0.15233041212E+04  0.17078816031E+04  0.46999998093E+01 0.  1.
       -5    1    3    3    0  502 -0.52323922717E+03 -0.56798128990E+03  0.24625503592E+03  0.81058353502E+03  0.46999998093E+01 0. -1.
</event>
<event>
 5   0  0.2417106E-04  0.1796201E+04  0.7818609E-02  0.8708322E-01
       -2   -1    0    0    0  501  0.00000000000E+00  0.00000000000E+00  0.93999114971E+03  0.93999114972E+03  0.25500000920E-02 0.  1.
        2   -1    0    0  501    0  0.00000000000E+00  0.00000000000E+00 -0.85807665227E+03  0.85807665228E+03  0.25500000920E-02 0. -1.
    10030    2    1    2    0    0  0.00000000000E+00  0.00000000000E+00  0.81914497441E+02  0.17980678020E+04  0.17962009452E+04 0.  0.
        4    1    3    3  502    0  0.43980246503E+03 -0.77562029238E+03 -0.66717549327E+02  0.89412856486E+03  0.12699999809E+01 0. -1.
       -4    1    3    3    0  502 -0.43980246503E+03  0.77562029238E+03  0.14863204677E+03  0.90393923713E+03  0.12699999809E+01 0.  1.
</event>
<event>
 5   0  0.1330225E-04  0.1826609E+04  0.7818609E-02  0.8692276E-01
       -1   -1    0    0    0  501  0.00000000000E+00  0.00000000000E+00  0.23862306894E+04  0.23862306894E+04  0.50400001928E-02 0.  1.
        1   -1    0    0  501    0  0.00000000000E+00  0.00000000000E+00 -0.34955777333E+03  0.34955777336E+03  0.50400001928E-02 0. -1.
    10030    2    1    2    0    0  0.00000000000E+00  0.00000000000E+00  0.20366729160E+04  0.27357884627E+04  0.18266094125E+04 0.  0.
        3    1    3    3  502    0  0.42360511984E+03  0.72785092254E+03  0.15476926118E+04  0.17619763601E+04  0.10100000352E+00 0.  1.
       -3    1    3    3    0  502 -0.42360511984E+03 -0.72785092254E+03  0.48898030429E+03  0.97381210261E+03  0.10100000352E+00 0. -1.
</event>
<event>
 5   0  0.1214723E-04  0.1826387E+04  0.7818609E-02  0.8692392E-01
       -1   -1    0    0    0  501  0.00000000000E+00  0.00000000000E+00  0.60093610815E+03  0.60093610817E+03  0.50400001928E-02 0.  1.
        1   -1    0    0  501    0  0.00000000000E+00  0.00000000000E+00 -0.13877053692E+04  0.13877053692E+04  0.50400001928E-02 0. -1.
    10030    2    1    2    0    0  0.00000000000E+00  0.00000000000E+00 -0.78676926107E+03  0.19886414774E+04  0.18263868855E+04 0.  0.
        1    1    3    3  502    0 -0.41274051997E+02  0.23383942007E+02  0.59959360452E+03  0.60146724493E+03  0.50400001928E-02 0.  1.
       -1    1    3    3    0  502  0.41274051997E+02 -0.23383942007E+02 -0.13863628656E+04  0.13871742325E+04  0.50400001928E-02 0. -1.
</event>
<event>
 5   0  0.2431811E-04  0.1780317E+04  0.7818609E-02  0.8716837E-01
       -2   -1    0    0    0  501  0.00000000000E+00  0.00000000000E+00  0.80209653362E+03  0.80209653362E+03  0.25500000920E-02 0.  1.
        2   -1    0    0  501    0  0.00000000000E+00  0.00000000000E+00 -0.98788915655E+03  0.98788915655E+03  0.25500000920E-02 0. -1.
    10030    2    1    2    0    0  0.00000000000E+00  0.00000000000E+00 -0.18579262293E+03  0.17899856902E+04  0.17803173516E+04 0.  0.
        3    1    3    3  502    0 -0.44933073875E+03 -0.65059222361E+02 -0.86272514041E+03  0.97489768350E+03  0.10100000352E+00 0. -1.
       -3    1    3    3    0  502  0.44933073875E+03  0.65059222361E+02  0.67693251748E+03  0.81508800667E+03  0.10100000352E+00 0.  1.
</event>
<event>
 5   0  0.9144875E-05  0.1752512E+04  0.7818609E-02  0.8731969E-01
       -3   -1    0    0    0  501  0.00000000000E+00  0.00000000000E+00  0.19719165495E+04  0.19719165520E+04  0.10100000352E+00 0.  1.
        3   -1    0    0  501    0  0.00000000000E+00  0.00000000000E+00 -0.38937975202E+03  0.38937976512E+03  0.10100000352E+00 0. -1.
    10030    2    1    2    0    0  0.00000000000E+00  0.00000000000E+00  0.15825367974E+04  0.23612963172E+04  0.17525117923E+04 0.  0.
        2    1    3    3  502    0  0.44523528416E+03  0.54364280494E+03  0.85928498516E+02  0.70793055061E+03  0.25500000920E-02 0. -1.
       -2    1    3    3    0  502 -0.44523528416E+03 -0.54364280494E+03  0.14966082989E+04  0.16533657666E+04  0.25500000920E-02 0.  1.
</event>
<event>
 5   0  0.1330225E-04  0.1849336E+04  0.7818609E-02  0.8680494E-01
        1   -1    0    0  501    0  0.00000000000E+00  0.00000000000E+00  0.47067478836E+03  0.47067478838E+03  0.50400001928E-02 0. -1.
       -1   -1    0    0    0  501  0.00000000000E+00  0.00000000000E+00 -0.18165638503E+04  0.18165638504E+04  0.50400001928E-02 0.  1.
    10030    2    1    2    0    0  0.00000000000E+00  0.00000000000E+00 -0.13458890620E+04  0.22872386387E+04  0.18493358871E+04 0.  0.
        3    1    3    3  502    0 -0.86945474962E+03 -0.44507264340E+02 -0.10582958471E+04  0.13703731493E+04  0.10100000352E+00 0. -1.
       -3    1    3    3    0  502  0.86945474962E+03  0.44507264340E+02 -0.28759321490E+03  0.91686548942E+03  0.10100000352E+00 0.  1.
</event>
<event>
 5   0  0.1308893E-04  0.1761263E+04  0.7818609E-02  0.8727175E-01
        1   -1    0    0  501    0  0.00000000000E+00  0.00000000000E+00  0.19667139015E+04  0.19667139015E+04  0.50400001928E-02 0.  1.
       -1   -1    0    0    0  501  0.00000000000E+00  0.00000000000E+00 -0.39431848958E+03  0.39431848962E+03  0.50400001928E-02 0. -1.
    10030    2    1    2    0    0  0.00000000000E+00  0.00000000000E+00  0.15723954119E+04  0.23610323911E+04  0.17612627914E+04 0.  0.
        4    1    3    3  502    0 -0.33552239030E+03  0.35029647257E+03  0.17714920457E+04  0.18367004584E+04  0.12699999809E+01 0.  1.
       -4    1    3    3    0  502  0.33552239030E+03 -0.35029647257E+03 -0.19909663384E+03  0.52433193265E+03  0.12699999809E+01 0. -1.
</event>
<event>
 5   0  0.1239119E-04  0.1879400E+04  0.7818609E-02  0.8665179E-01
       -1   -1    0    0    0  501  0.00000000000E+00  0.00000000000E+00  0.13550198126E+04  0.13550198126E+04  0.50400001928E-02 0.  1.
        1   -1    0    0  501    0  0.00000000000E+00  0.00000000000E+00 -0.65167742811E+03  0.65167742813E+03  0.50400001928E-02 0. -1.
    10030    2    1    2    0    0  0.00000000000E+00  0.00000000000E+00  0.70334238453E+03  0.20066972408E+04  0.18793997197E+04 0.  0.
        5    1    3    3  502    0 -0.33903433668E+03  0.53574103598E+03  0.10922277901E+04  0.12629118633E+04  0.46999998093E+01 0.  1.
       -5    1    3    3    0  502  0.33903433668E+03 -0.53574103598E+03 -0.38888540555E+03  0.74378537746E+03  0.46999998093E+01 0. -1.
</event>
<event>
 5   0  0.1308893E-04  0.1805451E+04  0.7818609E-02  0.8703406E-01
       -1   -1    0    0    0  501  0.00000000000E+00  0.00000000000E+00  0.11764663250E+04  0.11764663250E+04  0.50400001928E-02 0. -1.
        1   -1    0    0  501    0  0.00000000000E+00  0.00000000000E+00 -0.69267907933E+03  0.69267907935E+03  0.50400001928E-02 0.  1.
    10030    2    1    2    0    0  0.00000000000E+00  0.00000000000E+00  0.48378724568E+03  0.18691454044E+04  0.18054513130E+04 0.  0.
        4    1    3    3  502    0  0.23612777772E+03 -0.77963400470E+03 -0.16083712099E+03  0.83033469221E+03  0.12699999809E+01 0.  1.
       -4    1    3    3    0  502 -0.23612777772E+03  0.77963400470E+03  0.64462436667E+03  0.10388107122E+04  0.12699999809E+01 0. -1.
</event>
<event>
 5   0  0.2431811E-04  0.1835033E+04  0.7818609E-02  0.8687888E-01
        2   -1    0    0  501    0  0.00000000000E+00  0.00000000000E+00  0.12687474439E+04  0.12687474439E+04  0.25500000920E-02 0. -1.
       -2   -1    0    0    0  501  0.00000000000E+00  0.00000000000E+00 -0.66351764261E+03  0.66351764261E+03  0.25500000920E-02 0.  1.
    10030    2    1    2    0    0  0.00000000000E+00  0.00000000000E+00  0.60522980129E+03  0.19322650865E+04  0.18350327660E+04 0.  0.
        3    1    3    3  502    0 -0.31869710683E+03 -0.60268482498E+03  0.94918599498E+03  0.11686534591E+04  0.10100000352E+00 0. -1.
       -3    1    3    3    0  502  0.31869710683E+03  0.60268482498E+03 -0.34395619369E+03  0.76361162743E+03  0.10100000352E+00 0.  1.
</event>
<event>
 5   0  0.1308893E-04  0.1833686E+04  0.7818609E-02  0.8688588E-01
       -1   -1    0    0    0  501  0.00000000000E+00  0.00000000000E+00  0.58375841241E+03  0.58375841243E+03  0.50400001928E-02 0. -1.
        1   -1    0    0  501    0  0.00000000000E+00  0.00000000000E+00 -0.14399818738E+04  0.14399818738E+04  0.50400001928E-02 0.  1.
    10030    2    1    2    0    0  0.00000000000E+00  0.00000000000E+00 -0.85622346137E+03  0.20237402862E+04  0.18336864864E+04 0.  0.
        4    1    3    3  502    0 -0.64707168383E+03  0.60992418209E+03 -0.67462441118E+03  0.11161670937E+04  0.12699999809E+01 0.  1.
       -4    1    3    3    0  502  0.64707168383E+03 -0.60992418209E+03 -0.18159905019E+03  0.90757319256E+03  0.12699999809E+01 0. -1.
</event>
<event>
 5   0  0.2431811E-04  0.1793949E+04  0.7818609E-02  0.8709524E-01
        2   -1    0    0  501    0  0.00000000000E+00  0.00000000000E+00  0.23709384054E+04  0.23709384054E+04  0.25500000920E-02 0. -1.
       -2   -1    0    0    0  501  0.00000000000E+00  0.00000000000E+00 -0.33934390714E+03  0.33934390714E+03  0.25500000920E-02 0.  1.
    10030    2    1    2    0    0  0.00000000000E+00  0.00000000000E+00  0.20315944983E+04  0.27102823126E+04  0.17939492770E+04 0.  0.
        3    1    3    3  502    0  0.71450566748E+02 -0.47329361559E+03 -0.13026635380E+03  0.49606588592E+03  0.10100000352E+00 0.  1.
       -3    1    3    3    0  502 -0.71450566748E+02  0.47329361559E+03  0.21618608521E+04  0.22142164267E+04  0.10100000352E+00 0. -1.
</event>
<event>
 5   0  0.2417106E-04  0.1791154E+04  0.7818609E-02  0.8711018E-01
        2   -1    0    0  501    0  0.00000000000E+00  0.00000000000E+00  0.15296516809E+04  0.15296516809E+04  0.25500000920E-02 0.  1.
       -2   -1    0    0    0  501  0.00000000000E+00  0.00000000000E+00 -0.52434061771E+03  0.52434061772E+03  0.25500000920E-02 0. -1.
    10030    2    1    2    0    0  0.00000000000E+00  0.00000000000E+00  0.10053110631E+04  0.20539922986E+04  0.17911543844E+04 0.  0.
        4    1    3    3  502    0 -0.78630636100E+03  0.26902710867E+03  0.88540573819E+03  0.12143303557E+04  0.12699999809E+01 0.  1.
       -4    1    3    3    0  502  0.78630636100E+03 -0.26902710867E+03  0.11990532496E+03  0.83966194292E+03  0.12699999809E+01 0. -1.
</event>
<event>
 5   0  0.1308893E-04  0.1807222E+04  0.7818609E-02  0.8702468E-01
        1   -1    0    0  501    0  0.00000000000E+00  0.00000000000E+00  0.10818995961E+04  0.10818995961E+04  0.50400001928E-02 0. -1.
       -1   -1    0    0    0  501  0.00000000000E+00  0.00000000000E+00 -0.75470311173E+03  0.75470311174E+03  0.50400001928E-02 0.  1.
    10030    2    1    2    0    0  0.00000000000E+00  0.00000000000E+00  0.32719648440E+03  0.18366027079E+04  0.18072221687E+04 0.  0.
        4    1    3    3  502    0 -0.73529500940E+03  0.25293216018E+03 -0.30418704317E+03  0.83496395050E+03  0.12699999809E+01 0.  1.
       -4    1    3    3    0  502  0.73529500940E+03 -0.25293216018E+03  0.63138352757E+03  0.10016387574E+04  0.12699999809E+01 0. -1.
</event>
<event>
 5   0  0.1214723E-04  0.1785145E+04  0.7818609E-02  0.8714239E-01
        1   -1    0    0  501    0  0.00000000000E+00  0.00000000000E+00  0.69452102654E+03  0.69452102656E+03  0.50400001928E-02 0. -1.
       -1   -1    0    0    0  501  0.00000000000E+00  0.00000000000E+00 -0.11471011800E+04  0.11471011800E+04  0.50400001928E-02 0.  1.
    10030    2    1    2    0    0  0.00000000000E+00  0.00000000000E+00 -0.45258015342E+03  0.18416222065E+04  0.17851452480E+04 0.  0.
        1    1    3    3  502    0 -0.41707124346E+03  0.27860169989E+03 -0.98796993146E+03  0.11079945464E+04  0.50400001928E-02 0.  1.
       -1    1    3    3    0  502  0.41707124346E+03 -0.27860169989E+03  0.53538977804E+03  0.73362766016E+03  0.50400001928E-02 0. -1.
</event>
<event>
 5   0  0.2569405E-04  0.1819000E+04  0.7818609E-02  0.8696260E-01
        2   -1    0    0  501    0  0.00000000000E+00  0.00000000000E+00  0.82297043352E+03  0.82297043353E+03  0.25500000920E-02 0. -1.
       -2   -1    0    0    0  501  0.00000000000E+00  0.00000000000E+00 -0.10051275264E+04  0.10051275264E+04  0.25500000920E-02 0.  1.
    10030    2    1    2    0    0  0.00000000000E+00  0.00000000000E+00 -0.18215709288E+03  0.18280979599E+04  0.18189999848E+04 0.  0.
        2    1    3    3  502    0 -0.10709026671E+03  0.12898370069E+03 -0.98946519554E+03  0.10035668854E+04  0.25500000920E-02 0.  1.
       -2    1    3    3    0  502  0.10709026671E+03 -0.12898370069E+03  0.80730810265E+03  0.82453107454E+03  0.25500000920E-02 0. -1.
</event>
<event>
 5   0  0.2431811E-04  0.1799297E+04  0.7818609E-02  0.8706674E-01
        2   -1    0    0  501    0  0.00000000000E+00  0.00000000000E+00  0.70027010590E+03  0.70027010590E+03  0.25500000920E-02 0.  1.
       -2   -1    0    0    0  501  0.00000000000E+00  0.00000000000E+00 -0.11557929296E+04  0.11557929296E+04  0.25500000920E-02 0. -1.
    10030    2    1    2    0    0  0.00000000000E+00  0.00000000000E+00 -0.45552282374E+03  0.18560630355E+04  0.17992967929E+04 0.  0.
        3    1    3    3  502    0  0.17559129746E+03 -0.13162847398E+03  0.67223719123E+03  0.70715006213E+03  0.10100000352E+00 0.  1.
       -3    1    3    3    0  502 -0.17559129746E+03  0.13162847398E+03 -0.11277600150E+04  0.11489129734E+04  0.10100000352E+00 0. -1.
</event>
<event>
 5   0  0.1308893E-04  0.1815116E+04  0.7818609E-02  0.8698302E-01
       -1   -1    0    0    0  501  0.00000000000E+00  0.00000000000E+00  0.85706567131E+03  0.85706567132E+03  0.50400001928E-02 0.  1.
        1   -1    0    0  501    0  0.00000000000E+00  0.00000000000E+00 -0.96102520053E+03  0.96102520054E+03  0.50400001928E-02 0. -1.
    10030    2    1    2    0    0  0.00000000000E+00  0.00000000000E+00 -0.10395952922E+03  0.18180908719E+04  0.18151162042E+04 0.  0.
        4    1    3    3  502    0  0.40749297496E+03 -0.79839753393E+03  0.90277455399E+02  0.90091108256E+03  0.12699999809E+01 0. -1.
       -4    1    3    3    0  502 -0.40749297496E+03  0.79839753393E+03 -0.19423698462E+03  0.91717978931E+03  0.12699999809E+01 0.  1.
</event>
<event>
 5   0  0.1253925E-04  0.1807101E+04  0.7818609E-02  0.8702532E-01
        1   -1    0    0  501    0  0.00000000000E+00  0.00000000000E+00  0.92871273341E+03  0.92871273342E+03  0.50400001928E-02 0.  1.
       -1   -1    0    0    0  501  0.00000000000E+00  0.00000000000E+00 -0.87907008083E+03  0.87907008085E+03  0.50400001928E-02 0. -1.
    10030    2    1    2    0    0  0.00000000000E+00  0.00000000000E+00  0.49642652575E+02  0.18077828143E+04  0.18071010792E+04 0.  0.
        2    1    3    3  502    0  0.71300112116E+03 -0.22284190836E+03 -0.48367591540E+03  0.88992780946E+03  0.25500000920E-02 0.  1.
       -2    1    3    3    0  502 -0.71300112116E+03  0.22284190836E+03  0.53331856798E+03  0.91785500481E+03  0.25500000920E-02 0. -1.
</event>
<event>
 5   0  0.1214723E-04  0.1763963E+04  0.7818609E-02  0.8725702E-01
        1   -1    0    0  501    0  0.00000000000E+00  0.00000000000E+00  0.94636483677E+03  0.94636483679E+03  0.50400001928E-02 0.  1.
       -1   -1    0    0    0  501  0.00000000000E+00  0.00000000000E+00 -0.82197812904E+03  0.82197812906E+03  0.50400001928E-02 0. -1.
    10030    2    1    2    0    0  0.00000000000E+00  0.00000000000E+00  0.12438670773E+03  0.17683429658E+04  0.17639628091E+04 0.  0.
        1    1    3    3  502    0  0.55087764399E+03  0.40942281747E+03  0.61746221554E+03  0.92322955420E+03  0.50400001928E-02 0.  1.
       -1    1    3    3    0  502 -0.55087764399E+03 -0.40942281747E+03 -0.49307550781E+03  0.84511341164E+03  0.50400001928E-02 0. -1.
</event>
<event>
 5   0  0.2569405E-04  0.1786658E+04  0.7818609E-02  0.8713427E-01
        2   -1    0    0  501    0  0.00000000000E+00  0.00000000000E+00  0.67780890967E+03  0.67780890968E+03  0.25500000920E-02 0.  1.
       -2   -1    0    0    0  501  0.00000000000E+00  0.00000000000E+00 -0.11773770055E+04  0.11773770055E+04  0.25500000920E-02 0. -1.
    10030    2    1    2    0    0  0.00000000000E+00  0.00000000000E+00 -0.49956809579E+03  0.18551859151E+04  0.17866579128E+04 0.  0.
        2    1    3    3  502    0 -0.70856826112E+03 -0.54301827355E+03 -0.28420358427E+03  0.93686151772E+03  0.25500000920E-02 0.  1.
       -2    1    3    3    0  502  0.70856826112E+03  0.54301827355E+03 -0.21536451152E+03  0.91832439742E+03  0.25500000920E-02 0. -1.
</event>
<event>
 5   0  0.1239119E-04  0.1788316E+04  0.7818609E-02  0.8712538E-01
       -1   -1    0    0    0  501  0.00000000000E+00  0.00000000000E+00  0.35934147967E+03  0.35934147971E+03  0.50400001928E-02 0.  1.
        1   -1    0    0  501    0  0.00000000000E+00  0.00000000000E+00 -0.22249541121E+04  0.22249541121E+04  0.50400001928E-02 0. -1.
    10030    2    1    2    0    0  0.00000000000E+00  0.00000000000E+00 -0.18656126324E+04  0.25842955918E+04  0.17883157472E+04 0.  0.
        5    1    3    3  502    0  0.62947273437E+02  0.85075846599E+03 -0.13198771383E+04  0.15715756669E+04  0.46999998093E+01 0. -1.
       -5    1    3    3    0  502 -0.62947273437E+02 -0.85075846599E+03 -0.54573549415E+03  0.10127199249E+04  0.46999998093E+01 0.  1.
</event>
<event>
 5   0  0.1330225E-04  0.1806373E+04  0.7818609E-02  0.8702918E-01
       -1   -1    0    0    0  501  0.00000000000E+00  0.00000000000E+00  0.39712230047E+03  0.39712230051E+03  0.50400001928E-02 0.  1.
        1   -1    0    0  501    0  0.00000000000E+00  0.00000000000E+00 -0.20541427999E+04  0.20541427999E+04  0.50400001928E-02 0. -1.
    10030    2    1    2    0    0  0.00000000000E+00  0.00000000000E+00 -0.16570204994E+04  0.24512651004E+04  0.18063730669E+04 0.  0.
        3    1    3    3  502    0  0.34040207883E+02 -0.39965138202E+03 -0.19266535964E+04  0.19679619035E+04  0.10100000352E+00 0. -1.
       -3    1    3    3    0  502 -0.34040207883E+02  0.39965138202E+03  0.26963309701E+03  0.48330319687E+03  0.10100000352E+00 0.  1.
</event>
<event>
 5   0  0.2431811E-04  0.1801519E+04  0.7818609E-02  0.8705492E-01
       -2   -1    0    0    0  501  0.00000000000E+00  0.00000000000E+00  0.46656143831E+03  0.46656143832E+03  0.25500000920E-02 0. -1.
        2   -1    0    0  501    0  0.00000000000E+00  0.00000000000E+00 -0.17390364433E+04  0.17390364433E+04  0.25500000920E-02 0.  1.
    10030    2    1    2    0    0  0.00000000000E+00  0.00000000000E+00 -0.12724750050E+04  0.22055978816E+04  0.18015186308E+04 0.  0.
        3    1    3    3  502    0 -0.35775008513E+02  0.61069655049E+03  0.17322449474E+03  0.63579624393E+03  0.10100000352E+00 0. -1.
       -3    1    3    3    0  502  0.35775008513E+02 -0.61069655049E+03 -0.14456994997E+04  0.15698016377E+04  0.10100000352E+00 0.  1.
</event>
<event>
 5   0  0.2431811E-04  0.1823825E+04  0.7818609E-02  0.8693731E-01
        2   -1    0    0  501    0  0.00000000000E+00  0.00000000000E+00  0.99186193426E+03  0.99186193426E+03  0.25500000920E-02 0.  1.
       -2   -1    0    0    0  501  0.00000000000E+00  0.00000000000E+00 -0.83840775208E+03  0.83840775208E+03  0.25500000920E-02 0. -1.
    10030    2    1    2    0    0  0.00000000000E+00  0.00000000000E+00  0.15345418218E+03  0.18302696863E+04  0.18238253586E+04 0.  0.
        3    1    3    3  502    0 -0.82232048139E+03 -0.38861333933E+03  0.14294070072E+03  0.92068635036E+03  0.10100000352E+00 0.  1.
       -3    1    3    3    0  502  0.82232048139E+03  0.38861333933E+03  0.10513481465E+02  0.90958333599E+03  0.10100000352E+00 0. -1.
</event>
<event>
 5   0  0.1214723E-04  0.1778406E+04  0.7818609E-02  0.8717868E-01
       -1   -1    0    0    0  501  0.00000000000E+00  0.00000000000E+00  0.13389417331E+04  0.13389417331E+04  0.50400001928E-02 0. -1.
        1   -1    0    0  501    0  0.00000000000E+00  0.00000000000E+00 -0.59052780622E+03  0.59052780624E+03  0.50400001928E-02 0.  1.
    10030    2    1    2    0    0  0.00000000000E+00  0.00000000000E+00  0.74841392683E+03  0.19294695393E+04  0.17784063926E+04 0.  0.
        1    1    3    3  502    0 -0.62513866550E+03  0.24639554660E+02 -0.31135069963E+03  0.69881665474E+03  0.50400001928E-02 0.  1.
       -1    1    3    3    0  502  0.62513866550E+03 -0.24639554660E+02  0.10597646265E+04  0.12306528846E+04  0.50400001928E-02 0. -1.
</event>
<event>
 5   0  0.2550616E-04  0.1801052E+04  0.7818609E-02  0.8705740E-01
        2   -1    0    0  501    0  0.00000000000E+00  0.00000000000E+00  0.85157514450E+03  0.85157514450E+03  0.25500000920E-02 0. -1.
       -2   -1    0    0    0  501  0.00000000000E+00  0.00000000000E+00 -0.95229070805E+03  0.95229070805E+03  0.25500000920E-02 0.  1.
    10030    2    1    2    0    0  0.00000000000E+00  0.00000000000E+00 -0.10071556355E+03  0.18038658526E+04  0.18010520229E+04 0.  0.
        1    1    3    3  502    0 -0.40667364932E+03  0.23806889828E+02 -0.85472948491E+03  0.94684355490E+03  0.50400001928E-02 0.  1.
       -1    1    3    3    0  502  0.40667364932E+03 -0.23806889828E+02  0.75401392136E+03  0.85702229766E+03  0.50400001928E-02 0. -1.
</event>
<event>
 5   0  0.1253925E-04  0.1793201E+04  0.7818609E-02  0.8709923E-01
        1   -1    0    0  501    0  0.00000000000E+00  0.00000000000E+00  0.89064844066E+03  0.89064844067E+03  0.50400001928E-02 0.  1.
       -1   -1    0    0    0  501  0.00000000000E+00  0.00000000000E+00 -0.90259260068E+03  0.90259260069E+03  0.50400001928E-02 0. -1.
    10030    2    1    2    0    0  0.00000000000E+00  0.00000000000E+00 -0.11944160020E+02  0.17932410414E+04  0.17932012630E+04 0.  0.
        2    1    3    3  502    0 -0.24057584488E+03 -0.39452899348E+03 -0.77433984400E+03  0.90173835332E+03  0.25500000920E-02 0. -1.
       -2    1    3    3    0  502  0.24057584488E+03  0.39452899348E+03  0.76239568398E+03  0.89150268804E+03  0.25500000920E-02 0.  1.
</event>
<event>
 5   0  0.1214723E-04  0.1841796E+04  0.7818609E-02  0.8684383E-01
       -1   -1    0    0    0  501  0.00000000000E+00  0.00000000000E+00  0.10326654275E+04  0.10326654276E+04  0.50400001928E-02 0.  1.
        1   -1    0    0  501    0  0.00000000000E+00  0.00000000000E+00 -0.82122748139E+03  0.82122748141E+03  0.50400001928E-02 0. -1.
    10030    2    1    2    0    0  0.00000000000E+00  0.00000000000E+00  0.21143794614E+03  0.18538929090E+04  0.18417961105E+04 0.  0.
        1    1    3    3  502    0  0.83026425619E+02  0.90132565132E+03  0.27645589464E+03  0.94641913484E+03  0.50400001928E-02 0.  1.
       -1    1    3    3    0  502 -0.83026425619E+02 -0.90132565132E+03 -0.65017948502E+02  0.90747377413E+03  0.50400001928E-02 0. -1.
</event>
<event>
 5   0  0.2393421E-04  0.1797204E+04  0.7818609E-02  0.8707788E-01
       -2   -1    0    0    0  501  0.00000000000E+00  0.00000000000E+00  0.84872293764E+03  0.84872293764E+03  0.25500000920E-02 0.  1.
        2   -1    0    0  501    0  0.00000000000E+00  0.00000000000E+00 -0.95141290844E+03  0.95141290844E+03  0.25500000920E-02 0. -1.
    10030    2    1    2    0    0  0.00000000000E+00  0.00000000000E+00 -0.10268997080E+03  0.18001358461E+04  0.17972044498E+04 0.  0.
        5    1    3    3  502    0  0.40741013679E+02  0.73527851469E+02 -0.94745371705E+03  0.95118705368E+03  0.46999998093E+01 0. -1.
       -5    1    3    3    0  502 -0.40741013679E+02 -0.73527851469E+02  0.84476374625E+03  0.84894879240E+03  0.46999998093E+01 0.  1.
</event>
<event>
 5   0  0.2550616E-04  0.1789644E+04  0.7818609E-02  0.8711826E-01
       -2   -1    0    0    0  501  0.00000000000E+00  0.00000000000E+00  0.14581220191E+04  0.14581220191E+04  0.25500000920E-02 0. -1.
        2   -1    0    0  501    0  0.00000000000E+00  0.00000000000E+00 -0.54913527507E+03  0.54913527507E+03  0.25500000920E-02 0.  1.
    10030    2    1    2    0    0  0.00000000000E+00  0.00000000000E+00  0.90898674401E+03  0.20072572942E+04  0.17896438037E+04 0.  0.
        1    1    3    3  502    0 -0.15804153813E+03  0.74138715516E+03 -0.78794785544E+02  0.76212903098E+03  0.50400001928E-02 0.  1.
       -1    1    3    3    0  502  0.15804153813E+03 -0.74138715516E+03  0.98778152955E+03  0.12451282632E+04  0.50400001928E-02 0. -1.
</event>
<event>
 5   0  0.1253925E-04  0.1789351E+04  0.7818609E-02  0.8711983E-01
        1   -1    0    0  501    0  0.00000000000E+00  0.00000000000E+00  0.18018264772E+04  0.18018264772E+04  0.50400001928E-02 0.  1.
       -1   -1    0    0    0  501  0.00000000000E+00  0.00000000000E+00 -0.44424061002E+03  0.44424061005E+03  0.50400001928E-02 0. -1.
    10030    2    1    2    0    0  0.00000000000E+00  0.00000000000E+00  0.13575858672E+04  0.22460670872E+04  0.17893512717E+04 0.  0.
        2    1    3    3  502    0 -0.59094687176E+03  0.48760541303E+03  0.12587458606E+04  0.14735733391E+04  0.25500000920E-02 0. -1.
       -2    1    3    3    0  502  0.59094687176E+03 -0.48760541303E+03  0.98840006584E+02  0.77249374817E+03  0.25500000920E-02 0.  1.
</event>
<event>
 5   0  0.1253925E-04  0.1800862E+04  0.7818609E-02  0.8705841E-01
        1   -1    0    0  501    0  0.00000000000E+00  0.00000000000E+00  0.21318115502E+04  0.21318115502E+04  0.50400001928E-02 0. -1.
       -1   -1    0    0    0  501  0.00000000000E+00  0.00000000000E+00 -0.38032260252E+03  0.38032260255E+03  0.50400001928E-02 0.  1.
    10030    2    1    2    0    0  0.00000000000E+00  0.00000000000E+00  0.17514889477E+04  0.25121341528E+04  0.18008621457E+04 0.  0.
        2    1    3    3  502    0 -0.49164550017E+03 -0.31334305550E+02  0.19271414380E+04  0.19891131839E+04  0.25500000920E-02 0. -1.
       -2    1    3    3    0  502  0.49164550017E+03  0.31334305550E+02 -0.17565249025E+03  0.52302096887E+03  0.25500000920E-02 0.  1.
</event>
<event>
 5   0  0.2569405E-04  0.1785491E+04  0.7818609E-02  0.8714053E-01
       -2   -1    0    0    0  501  0.00000000000E+00  0.00000000000E+00  0.72938186200E+03  0.72938186200E+03  0.25500000920E-02 0.  1.
        2   -1    0    0  501    0  0.00000000000E+00  0.00000000000E+00 -0.10926989666E+04  0.10926989666E+04  0.25500000920E-02 0. -1.
    10030    2    1    2    0    0  0.00000000000E+00  0.00000000000E+00 -0.36331710463E+03  0.18220808286E+04  0.17854913127E+04 0.  0.
        2    1    3    3  502    0 -0.13727704411E+03 -0.87012589550E+03 -0.32965021058E+03  0.94054947887E+03  0.25500000920E-02 0. -1.
       -2    1    3    3    0  502  0.13727704411E+03  0.87012589550E+03 -0.33666894047E+02  0.88153134977E+03  0.25500000920E-02 0.  1.
</event>
<event>
 5   0  0.9144875E-05  0.1804232E+04  0.7818609E-02  0.8704052E-01
        3   -1    0    0  501    0  0.00000000000E+00  0.00000000000E+00  0.88558638453E+03  0.88558639029E+03  0.10100000352E+00 0.  1.
       -3   -1    0    0    0  501  0.00000000000E+00  0.00000000000E+00 -0.91895379164E+03  0.91895379719E+03  0.10100000352E+00 0. -1.
    10030    2    1    2    0    0  0.00000000000E+00  0.00000000000E+00 -0.33367407113E+02  0.18045401875E+04  0.18042316659E+04 0.  0.
        5    1    3    3  502    0  0.25462456972E+03  0.64003602175E+03  0.56592007175E+03  0.89149727888E+03  0.46999998093E+01 0.  1.
       -5    1    3    3    0  502 -0.25462456972E+03 -0.64003602175E+03 -0.59928747886E+03  0.91304290861E+03  0.46999998093E+01 0. -1.
</event>
<event>
 5   0  0.1330225E-04  0.1780283E+04  0.7818609E-02  0.8716856E-01
       -1   -1    0    0    0  501  0.00000000000E+00  0.00000000000E+00  0.95980289184E+03  0.95980289185E+03  0.50400001928E-02 0. -1.
        1   -1    0    0  501    0  0.00000000000E+00  0.00000000000E+00 -0.82553605945E+03  0.82553605947E+03  0.50400001928E-02 0.  1.
    10030    2    1    2    0    0  0.00000000000E+00  0.00000000000E+00  0.13426683239E+03  0.17853389513E+04  0.17802830081E+04 0.  0.
        3    1    3    3  502    0  0.86674195642E+03  0.56928972225E+02 -0.12801975680E+03  0.87799293575E+03  0.10100000352E+00 0. -1.
       -3    1    3    3    0  502 -0.86674195642E+03 -0.56928972225E+02  0.26228658919E+03  0.90734601557E+03  0.10100000352E+00 0.  1.
</event>
<event>
 5   0  0.2393421E-04  0.1771915E+04  0.7818609E-02  0.8721379E-01
       -2   -1    0    0    0  501  0.00000000000E+00  0.00000000000E+00  0.55085088682E+03  0.55085088682E+03  0.25500000920E-02 0. -1.
        2   -1    0    0  501    0  0.00000000000E+00  0.00000000000E+00 -0.14249233980E+04  0.14249233980E+04  0.25500000920E-02 0.  1.
    10030    2    1    2    0    0  0.00000000000E+00  0.00000000000E+00 -0.87407251116E+03  0.19757742848E+04  0.17719145774E+04 0.  0.
        5    1    3    3  502    0 -0.46406412749E+03  0.51574312639E+03  0.17730674045E+03  0.71610492042E+03  0.46999998093E+01 0. -1.
       -5    1    3    3    0  502  0.46406412749E+03 -0.51574312639E+03 -0.10513792516E+04  0.12596693644E+04  0.46999998093E+01 0.  1.
</event>
<event>
 5   0  0.1330225E-04  0.1787348E+04  0.7818609E-02  0.8713057E-01
        1   -1    0    0  501    0  0.00000000000E+00  0.00000000000E+00  0.92747148970E+03  0.92747148972E+03  0.50400001928E-02 0.  1.
       -1   -1    0    0    0  501  0.00000000000E+00  0.00000000000E+00 -0.86110838744E+03  0.86110838746E+03  0.50400001928E-02 0. -1.
    10030    2    1    2    0    0  0.00000000000E+00  0.00000000000E+00  0.66363102259E+02  0.17885798772E+04  0.17873482917E+04 0.  0.
        3    1    3    3  502    0  0.33715912259E+03  0.71112069010E+03  0.45689338564E+03  0.91001125591E+03  0.10100000352E+00 0.  1.
       -3    1    3    3    0  502 -0.33715912259E+03 -0.71112069010E+03 -0.39053028338E+03  0.87856862127E+03  0.10100000352E+00 0. -1.
</event>
<event>
 5   0  0.2569405E-04  0.1661114E+04  0.7818609E-02  0.8783858E-01
       -2   -1    0    0    0  501  0.00000000000E+00  0.00000000000E+00  0.46195952436E+03  0.46195952437E+03  0.25500000920E-02 0.  1.
        2   -1    0    0  501    0  0.00000000000E+00  0.00000000000E+00 -0.14932592414E+04  0.14932592414E+04  0.25500000920E-02 0. -1.
    10030    2    1    2    0    0  0.00000000000E+00  0.00000000000E+00 -0.10312997171E+04  0.19552187658E+04  0.16611144800E+04 0.  0.
        2    1    3    3  502    0 -0.37796745745E+03 -0.46452651986E+03 -0.11930238653E+04  0.13348970858E+04  0.25500000920E-02 0. -1.
       -2    1    3    3    0  502  0.37796745745E+03  0.46452651986E+03  0.16172414822E+03  0.62032167999E+03  0.25500000920E-02 0.  1.
</event>
<event>
 5   0  0.2569405E-04  0.1812235E+04  0.7818609E-02  0.8699820E-01
       -2   -1    0    0    0  501  0.00000000000E+00  0.00000000000E+00  0.35003762687E+03  0.35003762688E+03  0.25500000920E-02 0.  1.
        2   -1    0    0  501    0  0.00000000000E+00  0.00000000000E+00 -0.23456011835E+04  0.23456011835E+04  0.25500000920E-02 0. -1.
    10030    2    1    2    0    0  0.00000000000E+00  0.00000000000E+00 -0.19955635566E+04  0.26956388104E+04  0.18122347220E+04 0.  0.
        2    1    3    3  502    0  0.66359477143E+03 -0.58917804083E+03 -0.72528742892E+03  0.11460936432E+04  0.25500000920E-02 0.  1.
       -2    1    3    3    0  502 -0.66359477143E+03  0.58917804083E+03 -0.12702761277E+04  0.15495451672E+04  0.25500000920E-02 0. -1.
</event>
<event>
 5   0  0.1214723E-04  0.1718844E+04  0.7818609E-02  0.8750689E-01
        1   -1    0    0  501    0  0.00000000000E+00  0.00000000000E+00  0.85948414404E+03  0.85948414405E+03  0.50400001928E-02 0. -1.
       -1   -1    0    0    0  501  0.00000000000E+00  0.00000000000E+00 -0.85935988999E+03  0.85935989001E+03  0.50400001928E-02 0.  1.
    10030    2    1    2    0    0  0.00000000000E+00  0.00000000000E+00  0.12425404191E+00  0.17188440341E+04  0.17188440296E+04 0.  0.
        1    1    3    3  502    0 -0.64440342203E+03  0.39036123379E+03 -0.41342129126E+03  0.85939212660E+03  0.50400001928E-02 0.  1.
       -1    1    3    3    0  502  0.64440342203E+03 -0.39036123379E+03  0.41354554530E+03  0.85945190746E+03  0.50400001928E-02 0. -1.
</event>
<event>
 5   0  0.2431811E-04  0.1802576E+04  0.7818609E-02  0.8704931E-01
        2   -1    0    0  501    0  0.00000000000E+00  0.00000000000E+00  0.15109437992E+04  0.15109437992E+04  0.25500000920E-02 0. -1.
       -2   -1    0    0    0  501  0.00000000000E+00  0.00000000000E+00 -0.53762451882E+03  0.53762451882E+03  0.25500000920E-02 0.  1.
    10030    2    1    2    0    0  0.00000000000E+00  0.00000000000E+00  0.97331928034E+03  0.20485683180E+04  0.18025764150E+04 0.  0.
        3    1    3    3  502    0 -0.75202853186E+02  0.42635889747E+03 -0.41171221525E+03  0.59744818768E+03  0.10100000352E+00 0.  1.
       -3    1    3    3    0  502  0.75202853186E+02 -0.42635889747E+03  0.13850314956E+04  0.14511201303E+04  0.10100000352E+00 0. -1.
</event>
<event>
 5   0  0.2569405E-04  0.1815272E+04  0.7818609E-02  0.8698220E-01
       -2   -1    0    0    0  501  0.00000000000E+00  0.00000000000E+00  0.67888804998E+03  0.67888804999E+03  0.25500000920E-02 0.  1.
        2   -1    0    0  501    0  0.00000000000E+00  0.00000000000E+00 -0.12134590106E+04  0.12134590106E+04  0.25500000920E-02 0. -1.
    10030    2    1    2    0    0  0.00000000000E+00  0.00000000000E+00 -0.53457096057E+03  0.18923470605E+04  0.18152716837E+04 0.  0.
        2    1    3    3  502    0 -0.13742213339E+03  0.48305887066E+03  0.52083873199E+03  0.72353555546E+03  0.25500000920E-02 0.  1.
       -2    1    3    3    0  502  0.13742213339E+03 -0.48305887066E+03 -0.10554096926E+04  0.11688115051E+04  0.25500000920E-02 0. -1.
</event>
<event>
 5   0  0.1330225E-04  0.1808430E+04  0.7818609E-02  0.8701829E-01
       -1   -1    0    0    0  501  0.00000000000E+00  0.00000000000E+00  0.41073493982E+03  0.41073493985E+03  0.50400001928E-02 0.  1.
        1   -1    0    0  501    0  0.00000000000E+00  0.00000000000E+00 -0.19905899558E+04  0.19905899558E+04  0.50400001928E-02 0. -1.
    10030    2    1    2    0    0  0.00000000000E+00  0.00000000000E+00 -0.15798550160E+04  0.24013248957E+04  0.18084300880E+04 0.  0.
        3    1    3    3  502    0  0.68354698269E+03  0.52866701875E+03 -0.43641104081E+03  0.96808052403E+03  0.10100000352E+00 0.  1.
       -3    1    3    3    0  502 -0.68354698269E+03 -0.52866701875E+03 -0.11434439752E+04  0.14332443716E+04  0.10100000352E+00 0. -1.
</event>
<event>
 5   0  0.1330225E-04  0.1782867E+04  0.7818609E-02  0.8715464E-01
        1   -1    0    0  501    0  0.00000000000E+00  0.00000000000E+00  0.16039670377E+04  0.16039670377E+04  0.50400001928E-02 0.  1.
       -1   -1    0    0    0  501  0.00000000000E+00  0.00000000000E+00 -0.49542997712E+03  0.49542997715E+03  0.50400001928E-02 0. -1.
    10030    2    1    2    0    0  0.00000000000E+00  0.00000000000E+00  0.11085370606E+04  0.20993970149E+04  0.17828666275E+04 0.  0.
        3    1    3    3  502    0  0.49053364738E+03 -0.28974025815E+03 -0.25308159019E+03  0.62339632490E+03  0.10100000352E+00 0. -1.
       -3    1    3    3    0  502 -0.49053364738E+03  0.28974025815E+03  0.13616186508E+04  0.14760006900E+04  0.10100000352E+00 0.  1.
</event>
<event>
 5   0  0.1308893E-04  0.1793624E+04  0.7818609E-02  0.8709697E-01
       -1   -1    0    0    0  501  0.00000000000E+00  0.00000000000E+00  0.42075434648E+03  0.42075434651E+03  0.50400001928E-02 0.  1.
        1   -1    0    0  501    0  0.00000000000E+00  0.00000000000E+00 -0.19115002403E+04  0.19115002403E+04  0.50400001928E-02 0. -1.
    10030    2    1    2    0    0  0.00000000000E+00  0.00000000000E+00 -0.14907458938E+04  0.23322545868E+04  0.17936243023E+04 0.  0.
        4    1    3    3  502    0 -0.51124115818E+03  0.64316705839E+03 -0.27791631127E+03  0.86733527300E+03  0.12699999809E+01 0.  1.
       -4    1    3    3    0  502  0.51124115818E+03 -0.64316705839E+03 -0.12128295826E+04  0.14649193138E+04  0.12699999809E+01 0. -1.
</event>
<event>
 5   0  0.2431811E-04  0.1814772E+04  0.7818609E-02  0.8698483E-01
       -2   -1    0    0    0  501  0.00000000000E+00  0.00000000000E+00  0.80080461602E+03  0.80080461603E+03  0.25500000920E-02 0. -1.
        2   -1    0    0  501    0  0.00000000000E+00  0.00000000000E+00 -0.10281525474E+04  0.10281525474E+04  0.25500000920E-02 0.  1.
    10030    2    1    2    0    0  0.00000000000E+00  0.00000000000E+00 -0.22734793134E+03  0.18289571634E+04  0.18147719481E+04 0.  0.
        3    1    3    3  502    0 -0.37198969912E+03 -0.81467368317E+03  0.33342077922E+02  0.89620379973E+03  0.10100000352E+00 0. -1.
       -3    1    3    3    0  502  0.37198969912E+03  0.81467368317E+03 -0.26069000927E+03  0.93275336366E+03  0.10100000352E+00 0.  1.
</event>
<event>
 5   0  0.2569405E-04  0.1797882E+04  0.7818609E-02  0.8707427E-01
       -2   -1    0    0    0  501  0.00000000000E+00  0.00000000000E+00  0.49822762542E+03  0.49822762543E+03  0.25500000920E-02 0.  1.
        2   -1    0    0  501    0  0.00000000000E+00  0.00000000000E+00 -0.16219388002E+04  0.16219388002E+04  0.25500000920E-02 0. -1.
    10030    2    1    2    0    0  0.00000000000E+00  0.00000000000E+00 -0.11237111748E+04  0.21201664256E+04  0.17978817725E+04 0.  0.
        2    1    3    3  502    0  0.55507836061E+03 -0.48013486572E+03 -0.11739952637E+04  0.13845238730E+04  0.25500000920E-02 0. -1.
       -2    1    3    3    0  502 -0.55507836061E+03  0.48013486572E+03  0.50284088881E+02  0.73564255267E+03  0.25500000920E-02 0.  1.
</event>
<event>
 5   0  0.2417106E-04  0.1617039E+04  0.7818609E-02  0.8810148E-01
        2   -1    0    0  501    0  0.00000000000E+00  0.00000000000E+00  0.12209192699E+04  0.12209192699E+04  0.25500000920E-02 0.  1.
       -2   -1    0    0    0  501  0.00000000000E+00  0.00000000000E+00 -0.53541944180E+03  0.53541944181E+03  0.25500000920E-02 0. -1.
    10030    2    1    2    0    0  0.00000000000E+00  0.00000000000E+00  0.68549982808E+03  0.17563387117E+04  0.16170391634E+04 0.  0.
        4    1    3    3  502    0 -0.52236325230E+02 -0.25898476368E+03 -0.48721012264E+03  0.55423556183E+03  0.12699999809E+01 0. -1.
       -4    1    3    3    0  502  0.52236325230E+02  0.25898476368E+03  0.11727099507E+04  0.12021031499E+04  0.12699999809E+01 0.  1.
</event>
<event>
 5   0  0.1253925E-04  0.1728021E+04  0.7818609E-02  0.8745542E-01
       -1   -1    0    0    0  501  0.00000000000E+00  0.00000000000E+00  0.44648005413E+03  0.44648005416E+03  0.50400001928E-02 0. -1.
        1   -1    0    0  501    0  0.00000000000E+00  0.00000000000E+00 -0.16719986175E+04  0.16719986175E+04  0.50400001928E-02 0.  1.
    10030    2    1    2    0    0  0.00000000000E+00  0.00000000000E+00 -0.12255185634E+04  0.21184786717E+04  0.17280208717E+04 0.  0.
        2    1    3    3  502    0 -0.72015444727E+03 -0.42033577834E+03 -0.33533139063E+03  0.89875009654E+03  0.25500000920E-02 0. -1.
       -2    1    3    3    0  502  0.72015444727E+03  0.42033577834E+03 -0.89018717274E+03  0.12197285751E+04  0.25500000920E-02 0.  1.
</event>
<event>
 5   0  0.9144875E-05  0.1791834E+04  0.7818609E-02  0.8710654E-01
       -3   -1    0    0    0  501  0.00000000000E+00  0.00000000000E+00  0.82764551445E+03  0.82764552061E+03  0.10100000352E+00 0.  1.
        3   -1    0    0  501    0  0.00000000000E+00  0.00000000000E+00 -0.96981997993E+03  0.96981998519E+03  0.10100000352E+00 0. -1.
    10030    2    1    2    0    0  0.00000000000E+00  0.00000000000E+00 -0.14217446549E+03  0.17974655058E+04  0.17918338835E+04 0.  0.
        4    1    3    3  502    0  0.10103662375E+03 -0.88167330747E+03 -0.19439359015E+03  0.90848593893E+03  0.12699999809E+01 0. -1.
       -4    1    3    3    0  502 -0.10103662375E+03  0.88167330747E+03  0.52219124668E+02  0.88897956687E+03  0.12699999809E+01 0.  1.
</event>
<event>
 5   0  0.2550616E-04  0.1803672E+04  0.7818609E-02  0.8704349E-01
       -2   -1    0    0    0  501  0.00000000000E+00  0.00000000000E+00  0.70653462296E+03  0.70653462296E+03  0.25500000920E-02 0. -1.
        2   -1    0    0  501    0  0.00000000000E+00  0.00000000000E+00 -0.11511229386E+04  0.11511229386E+04  0.25500000920E-02 0.  1.
    10030    2    1    2    0    0  0.00000000000E+00  0.00000000000E+00 -0.44458831565E+03  0.18576575616E+04  0.18036720449E+04 0.  0.
        1    1    3    3  502    0 -0.88209466239E+03  0.18224439400E+03 -0.17618592405E+03  0.91779381804E+03  0.50400001928E-02 0. -1.
       -1    1    3    3    0  502  0.88209466239E+03 -0.18224439400E+03 -0.26840239160E+03  0.93986374353E+03  0.50400001928E-02 0.  1.
</event>
<event>
 5   0  0.2569405E-04  0.1811653E+04  0.7818609E-02  0.8700127E-01
        2   -1    0    0  501    0  0.00000000000E+00  0.00000000000E+00  0.19149139374E+04  0.19149139374E+04  0.25500000920E-02 0. -1.
       -2   -1    0    0    0  501  0.00000000000E+00  0.00000000000E+00 -0.42849027030E+03  0.42849027031E+03  0.25500000920E-02 0.  1.
    10030    2    1    2    0    0  0.00000000000E+00  0.00000000000E+00  0.14864236671E+04  0.23434042077E+04  0.18116533781E+04 0.  0.
        2    1    3    3  502    0  0.91460528095E+02  0.37503313555E+02 -0.42149252356E+03  0.43292894816E+03  0.25500000920E-02 0.  1.
       -2    1    3    3    0  502 -0.91460528095E+02 -0.37503313555E+02  0.19079161906E+04  0.19104752595E+04  0.25500000920E-02 0. -1.
</event>
<event>
 5   0  0.1214723E-04  0.1797112E+04  0.7818609E-02  0.8707837E-01
        1   -1    0    0  501    0  0.00000000000E+00  0.00000000000E+00  0.17223112907E+04  0.17223112907E+04  0.50400001928E-02 0.  1.
       -1   -1    0    0    0  501  0.00000000000E+00  0.00000000000E+00 -0.46879013490E+03  0.46879013492E+03  0.50400001928E-02 0. -1.
    10030    2    1    2    0    0  0.00000000000E+00  0.00000000000E+00  0.12535211558E+04  0.21911014257E+04  0.17971116185E+04 0.  0.
        1    1    3    3  502    0  0.27229190293E+03 -0.39876839676E+02  0.16696659515E+04  0.16921930837E+04  0.50400001928E-02 0.  1.
       -1    1    3    3    0  502 -0.27229190293E+03  0.39876839676E+02 -0.41614479567E+03  0.49890834201E+03  0.50400001928E-02 0. -1.
</event>
<event>
 5   0  0.1330225E-04  0.1827016E+04  0.7818609E-02  0.8692063E-01
       -1   -1    0    0    0  501  0.00000000000E+00  0.00000000000E+00  0.74005228303E+03  0.74005228305E+03  0.50400001928E-02 0. -1.
        1   -1    0    0  501    0  0.00000000000E+00  0.00000000000E+00 -0.11276191163E+04  0.11276191163E+04  0.50400001928E-02 0.  1.
    10030    2    1    2    0    0  0.00000000000E+00  0.00000000000E+00 -0.38756683328E+03  0.18676713994E+04  0.18270162577E+04 0.  0.
        3    1    3    3  502    0 -0.34364211252E+03  0.13668576926E+03  0.66010268835E+03  0.75664289489E+03  0.10100000352E+00 0. -1.
       -3    1    3    3    0  502  0.34364211252E+03 -0.13668576926E+03 -0.10476695216E+04  0.11110285045E+04  0.10100000352E+00 0.  1.
</event>
<event>
 5   0  0.1308893E-04  0.1848465E+04  0.7818609E-02  0.8680943E-01
        1   -1    0    0  501    0  0.00000000000E+00  0.00000000000E+00  0.59700919723E+03  0.59700919725E+03  0.50400001928E-02 0. -1.
       -1   -1    0    0    0  501  0.00000000000E+00  0.00000000000E+00 -0.14308080280E+04  0.14308080280E+04  0.50400001928E-02 0.  1.
    10030    2    1    2    0    0  0.00000000000E+00  0.00000000000E+00 -0.83379883073E+03  0.20278172252E+04  0.18484648249E+04 0.  0.
        4    1    3    3  502    0  0.66762632505E+03 -0.46579180899E+03 -0.89698791757E+03  0.12113116265E+04  0.12699999809E+01 0.  1.
       -4    1    3    3    0  502 -0.66762632505E+03  0.46579180899E+03  0.63189086838E+02  0.81650559877E+03  0.12699999809E+01 0. -1.
</event>
<event>
 5   0  0.9144875E-05  0.1781165E+04  0.7818609E-02  0.8716381E-01
       -3   -1    0    0    0  501  0.00000000000E+00  0.00000000000E+00  0.10296275688E+04  0.10296275738E+04  0.10100000352E+00 0.  1.
        3   -1    0    0  501    0  0.00000000000E+00  0.00000000000E+00 -0.77031429248E+03  0.77031429910E+03  0.10100000352E+00 0. -1.
    10030    2    1    2    0    0  0.00000000000E+00  0.00000000000E+00  0.25931327635E+03  0.17999418729E+04  0.17811646107E+04 0.  0.
        5    1    3    3  502    0  0.10976661832E+03 -0.60108626425E+03  0.78437669285E+03  0.99429487269E+03  0.46999998093E+01 0.  1.
       -5    1    3    3    0  502 -0.10976661832E+03  0.60108626425E+03 -0.52506341650E+03  0.80564700019E+03  0.46999998093E+01 0. -1.
</event>
<event>
 5   0  0.1214723E-04  0.1807560E+04  0.7818609E-02  0.8702289E-01
        1   -1    0    0  501    0  0.00000000000E+00  0.00000000000E+00  0.12720371406E+04  0.12720371406E+04  0.50400001928E-02 0. -1.
       -1   -1    0    0    0  501  0.00000000000E+00  0.00000000000E+00 -0.64213433604E+03  0.64213433606E+03  0.50400001928E-02 0.  1.
    10030    2    1    2    0    0  0.00000000000E+00  0.00000000000E+00  0.62990280456E+03  0.19141714767E+04  0.18075604828E+04 0.  0.
        1    1    3    3  502    0  0.79660540450E+03  0.41300703149E+03  0.42932006208E+03  0.99472141541E+03  0.50400001928E-02 0.  1.
       -1    1    3    3    0  502 -0.79660540450E+03 -0.41300703149E+03  0.20058274248E+03  0.91945006126E+03  0.50400001928E-02 0. -1.
</event>
<event>
 5   0  0.2431811E-04  0.1791160E+04  0.7818609E-02  0.8711015E-01
        2   -1    0    0  501    0  0.00000000000E+00  0.00000000000E+00  0.79500252243E+03  0.79500252243E+03  0.25500000920E-02 0.  1.
       -2   -1    0    0    0  501  0.00000000000E+00  0.00000000000E+00 -0.10088814398E+04  0.10088814398E+04  0.25500000920E-02 0. -1.
    10030    2    1    2    0    0  0.00000000000E+00  0.00000000000E+00 -0.21387891736E+03  0.18038839622E+04  0.17911597243E+04 0.  0.
        3    1    3    3  502    0 -0.29213810139E+03  0.32153406821E+03 -0.89565965624E+03  0.99545721019E+03  0.10100000352E+00 0. -1.
       -3    1    3    3    0  502  0.29213810139E+03 -0.32153406821E+03  0.68178073888E+03  0.80842675204E+03  0.10100000352E+00 0.  1.
</event>
<event>
 5   0  0.1253925E-04  0.1830511E+04  0.7818609E-02  0.8690240E-01
        1   -1    0    0  501    0  0.00000000000E+00  0.00000000000E+00  0.41136794525E+03  0.41136794528E+03  0.50400001928E-02 0.  1.
       -1   -1    0    0    0  501  0.00000000000E+00  0.00000000000E+00 -0.20363588886E+04  0.20363588886E+04  0.50400001928E-02 0. -1.
    10030    2    1    2    0    0  0.00000000000E+00  0.00000000000E+00 -0.16249909433E+04  0.24477268338E+04  0.18305111547E+04 0.  0.
        2    1    3    3  502    0 -0.74191016074E+03 -0.49798296156E+03 -0.10774973616E+04  0.13997922278E+04  0.25500000920E-02 0. -1.
       -2    1    3    3    0  502  0.74191016074E+03  0.49798296156E+03 -0.54749358166E+03  0.10479346061E+04  0.25500000920E-02 0.  1.
</event>
<event>
 5   0  0.2550616E-04  0.1806446E+04  0.7818609E-02  0.8702879E-01
        2   -1    0    0  501    0  0.00000000000E+00  0.00000000000E+00  0.15525251505E+04  0.15525251505E+04  0.25500000920E-02 0. -1.
       -2   -1    0    0    0  501  0.00000000000E+00  0.00000000000E+00 -0.52547439312E+03  0.52547439313E+03  0.25500000920E-02 0.  1.
    10030    2    1    2    0    0  0.00000000000E+00  0.00000000000E+00  0.10270507573E+04  0.20779995436E+04  0.18064464689E+04 0.  0.
        1    1    3    3  502    0 -0.79691942391E+03 -0.42406455210E+03  0.54805233723E+03  0.10560647125E+04  0.50400001928E-02 0.  1.
       -1    1    3    3    0  502  0.79691942391E+03  0.42406455210E+03  0.47899842011E+03  0.10219348311E+04  0.50400001928E-02 0. -1.
</event>
<event>
 5   0  0.1253925E-04  0.1753637E+04  0.7818609E-02  0.8731351E-01
        1   -1    0    0  501    0  0.00000000000E+00  0.00000000000E+00  0.19681575310E+04  0.19681575310E+04  0.50400001928E-02 0. -1.
       -1   -1    0    0    0  501  0.00000000000E+00  0.00000000000E+00 -0.39062451156E+03  0.39062451159E+03  0.50400001928E-02 0.  1.
    10030    2    1    2    0    0  0.00000000000E+00  0.00000000000E+00  0.15775330194E+04  0.23587820426E+04  0.17536368772E+04 0.  0.
        2    1    3    3  502    0  0.34575651098E+02  0.18368024622E+03  0.19410509108E+04  0.19500288580E+04  0.25500000920E-02 0. -1.
       -2    1    3    3    0  502 -0.34575651098E+02 -0.18368024622E+03 -0.36351789143E+03  0.40875318457E+03  0.25500000920E-02 0.  1.
</event>
<event>
 5   0  0.1330225E-04  0.1811579E+04  0.7818609E-02  0.8700166E-01
        1   -1    0    0  501    0  0.00000000000E+00  0.00000000000E+00  0.98986471689E+03  0.98986471690E+03  0.50400001928E-02 0.  1.
       -1   -1    0    0    0  501  0.00000000000E+00  0.00000000000E+00 -0.82885574796E+03  0.82885574798E+03  0.50400001928E-02 0. -1.
    10030    2    1    2    0    0  0.00000000000E+00  0.00000000000E+00  0.16100896893E+03  0.18187204649E+04  0.18115794880E+04 0.  0.
        3    1    3    3  502    0  0.75259746655E+02 -0.36672281447E+03  0.90856202721E+03  0.98266709501E+03  0.10100000352E+00 0.  1.
       -3    1    3    3    0  502 -0.75259746655E+02  0.36672281447E+03 -0.74755305828E+03  0.83605336987E+03  0.10100000352E+00 0. -1.
</event>
<event>
 5   0  0.2417106E-04  0.1795477E+04  0.7818609E-02  0.8708709E-01
       -2   -1    0    0    0  501  0.00000000000E+00  0.00000000000E+00  0.66656506902E+03  0.66656506902E+03  0.25500000920E-02 0. -1.
        2   -1    0    0  501    0  0.00000000000E+00  0.00000000000E+00 -0.12090852831E+04  0.12090852831E+04  0.25500000920E-02 0.  1.
    10030    2    1    2    0    0  0.00000000000E+00  0.00000000000E+00 -0.54252021409E+03  0.18756503521E+04  0.17954765553E+04 0.  0.
        4    1    3    3  502    0  0.86969139167E+03  0.22193310952E+03 -0.28980028686E+03  0.94318780792E+03  0.12699999809E+01 0. -1.
       -4    1    3    3    0  502 -0.86969139167E+03 -0.22193310952E+03 -0.25271992723E+03  0.93246254421E+03  0.12699999809E+01 0.  1.
</event>
<event>
 5   0  0.1308893E-04  0.1543957E+04  0.7818609E-02  0.8855737E-01
        1   -1    0    0  501    0  0.00000000000E+00  0.00000000000E+00  0.96309474663E+03  0.96309474664E+03  0.50400001928E-02 0.  1.
       -1   -1    0    0    0  501  0.00000000000E+00  0.00000000000E+00 -0.61878761851E+03  0.61878761853E+03  0.50400001928E-02 0. -1.
    10030    2    1    2    0    0  0.00000000000E+00  0.00000000000E+00  0.34430712812E+03  0.15818823652E+04  0.15439573889E+04 0.  0.
        4    1    3    3  502    0  0.53563182734E+03 -0.46910743639E+02 -0.39539118767E+03  0.66741132483E+03  0.12699999809E+01 0. -1.
       -4    1    3    3    0  502 -0.53563182734E+03  0.46910743639E+02  0.73969831580E+03  0.91447104034E+03  0.12699999809E+01 0.  1.
</event>
<event>
 5   0  0.2569405E-04  0.1811162E+04  0.7818609E-02  0.8700386E-01
       -2   -1    0    0    0  501  0.00000000000E+00  0.00000000000E+00  0.58095837460E+03  0.58095837460E+03  0.25500000920E-02 0. -1.
        2   -1    0    0  501    0  0.00000000000E+00  0.00000000000E+00 -0.14115925706E+04  0.14115925706E+04  0.25500000920E-02 0.  1.
    10030    2    1    2    0    0  0.00000000000E+00  0.00000000000E+00 -0.83063419597E+03  0.19925509452E+04  0.18111615338E+04 0.  0.
        2    1    3    3  502    0 -0.38041125337E+03  0.22703199052E+03  0.45360730180E+03  0.63404718331E+03  0.25500000920E-02 0. -1.
       -2    1    3    3    0  502  0.38041125337E+03 -0.22703199052E+03 -0.12842414978E+04  0.13585037619E+04  0.25500000920E-02 0.  1.
</event>
<event>
 5   0  0.1239119E-04  0.1785725E+04  0.7818609E-02  0.8713928E-01
        1   -1    0    0  501    0  0.00000000000E+00  0.00000000000E+00  0.21096013281E+04  0.21096013281E+04  0.50400001928E-02 0. -1.
       -1   -1    0    0    0  501  0.00000000000E+00  0.00000000000E+00 -0.37789303018E+03  0.37789303021E+03  0.50400001928E-02 0.  1.
    10030    2    1    2    0    0  0.00000000000E+00  0.00000000000E+00  0.17317082979E+04  0.24874943583E+04  0.17857252178E+04 0.  0.
        5    1    3    3  502    0  0.16314695692E+03  0.10118871851E+03 -0.34878490281E+03  0.39815711062E+03  0.46999998093E+01 0.  1.
       -5    1    3    3    0  502 -0.16314695692E+03 -0.10118871851E+03  0.20804932007E+04  0.20893372477E+04  0.46999998093E+01 0. -1.
</event>
<event>
 5   0  0.2431811E-04  0.1790588E+04  0.7818609E-02  0.8711321E-01
        2   -1    0    0  501    0  0.00000000000E+00  0.00000000000E+00  0.16697752303E+04  0.16697752303E+04  0.25500000920E-02 0. -1.
       -2   -1    0    0    0  501  0.00000000000E+00  0.00000000000E+00 -0.48003549408E+03  0.48003549409E+03  0.25500000920E-02 0.  1.
    10030    2    1    2    0    0  0.00000000000E+00  0.00000000000E+00  0.11897397362E+04  0.21498107244E+04  0.17905880349E+04 0.  0.
        3    1    3    3  502    0  0.50848141421E+03  0.52250048201E+03 -0.28979017930E+02  0.72965738260E+03  0.10100000352E+00 0.  1.
       -3    1    3    3    0  502 -0.50848141421E+03 -0.52250048201E+03  0.12187187542E+04  0.14201533418E+04  0.10100000352E+00 0. -1.
</event>
<event>
 5   0  0.1253925E-04  0.1794007E+04  0.7818609E-02  0.8709493E-01
        1   -1    0    0  501    0  0.00000000000E+00  0.00000000000E+00  0.51605112603E+03  0.51605112606E+03  0.50400001928E-02 0.  1.
       -1   -1    0    0    0  501  0.00000000000E+00  0.00000000000E+00 -0.15591775357E+04  0.15591775357E+04  0.50400001928E-02 0. -1.
    10030    2    1    2    0    0  0.00000000000E+00  0.00000000000E+00 -0.10431264096E+04  0.20752286617E+04  0.17940070490E+04 0.  0.
        2    1    3    3  502    0 -0.12454143883E+03 -0.75319324667E+03  0.23224340731E+02  0.76377353111E+03  0.25500000920E-02 0.  1.
       -2    1    3    3    0  502  0.12454143883E+03  0.75319324667E+03 -0.10663507504E+04  0.13114551306E+04  0.25500000920E-02 0. -1.
</event>
<event>
 5   0  0.2569405E-04  0.1810327E+04  0.7818609E-02  0.8700827E-01
       -2   -1    0    0    0  501  0.00000000000E+00  0.00000000000E+00  0.62716233000E+03  0.62716233000E+03  0.25500000920E-02 0. -1.
        2   -1    0    0  501    0  0.00000000000E+00  0.00000000000E+00 -0.13063932190E+04  0.13063932190E+04  0.25500000920E-02 0.  1.
    10030    2    1    2    0    0  0.00000000000E+00  0.00000000000E+00 -0.67923088898E+03  0.19335555490E+04  0.18103266171E+04 0.  0.
        2    1    3    3  502    0  0.71181709086E+03 -0.17200238777E+03  0.22862612537E+03  0.76716249741E+03  0.25500000920E-02 0. -1.
       -2    1    3    3    0  502 -0.71181709086E+03  0.17200238777E+03 -0.90785701435E+03  0.11663930516E+04  0.25500000920E-02 0.  1.
</event>
<event>
 5   0  0.2550616E-04  0.1844571E+04  0.7818609E-02  0.8682950E-01
       -2   -1    0    0    0  501  0.00000000000E+00  0.00000000000E+00  0.12238378903E+04  0.12238378903E+04  0.25500000920E-02 0.  1.
        2   -1    0    0  501    0  0.00000000000E+00  0.00000000000E+00 -0.69503534447E+03  0.69503534447E+03  0.25500000920E-02 0. -1.
    10030    2    1    2    0    0  0.00000000000E+00  0.00000000000E+00  0.52880254588E+03  0.19188732348E+04  0.18445710501E+04 0.  0.
        1    1    3    3  502    0  0.30878000163E+03 -0.61844365247E+03  0.89956361537E+03  0.11344744769E+04  0.50400001928E-02 0.  1.
       -1    1    3    3    0  502 -0.30878000163E+03  0.61844365247E+03 -0.37076106949E+03  0.78439875788E+03  0.50400001928E-02 0. -1.
</event>
<event>
 5   0  0.1330225E-04  0.1803517E+04  0.7818609E-02  0.8704431E-01
        1   -1    0    0  501    0  0.00000000000E+00  0.00000000000E+00  0.97872388453E+03  0.97872388455E+03  0.50400001928E-02 0.  1.
       -1   -1    0    0    0  501  0.00000000000E+00  0.00000000000E+00 -0.83084566272E+03  0.83084566273E+03  0.50400001928E-02 0. -1.
    10030    2    1    2    0    0  0.00000000000E+00  0.00000000000E+00  0.14787822182E+03  0.18095695473E+04  0.18035171133E+04 0.  0.
        3    1    3    3  502    0  0.67472499159E+03  0.35293581329E+03  0.55862438784E+03  0.94439330761E+03  0.10100000352E+00 0.  1.
       -3    1    3    3    0  502 -0.67472499159E+03 -0.35293581329E+03 -0.41074616602E+03  0.86517623966E+03  0.10100000352E+00 0. -1.
</event>
<event>
 5   0  0.1253925E-04  0.1797305E+04  0.7818609E-02  0.8707734E-01
        1   -1    0    0  501    0  0.00000000000E+00  0.00000000000E+00  0.53708955339E+03  0.53708955341E+03  0.50400001928E-02 0. -1.
       -1   -1    0    0    0  501  0.00000000000E+00  0.00000000000E+00 -0.15036155052E+04  0.15036155052E+04  0.50400001928E-02 0.  1.
    10030    2    1    2    0    0  0.00000000000E+00  0.00000000000E+00 -0.96652595182E+03  0.20407050586E+04  0.17973048492E+04 0.  0.
        2    1    3    3  502    0 -0.41907553646E+03 -0.18744734820E+03  0.39389636655E+03  0.60490921732E+03  0.25500000920E-02 0. -1.
       -2    1    3    3    0  502  0.41907553646E+03  0.18744734820E+03 -0.13604223184E+04  0.14357958413E+04  0.25500000920E-02 0.  1.
</event>
<event>
 5   0  0.2569405E-04  0.1793103E+04  0.7818609E-02  0.8709976E-01
       -2   -1    0    0    0  501  0.00000000000E+00  0.00000000000E+00  0.54536619473E+03  0.54536619474E+03  0.25500000920E-02 0. -1.
        2   -1    0    0  501    0  0.00000000000E+00  0.00000000000E+00 -0.14738799417E+04  0.14738799417E+04  0.25500000920E-02 0.  1.
    10030    2    1    2    0    0  0.00000000000E+00  0.00000000000E+00 -0.92851374693E+03  0.20192461364E+04  0.17931026689E+04 0.  0.
        2    1    3    3  502    0 -0.66200647226E+03  0.57317135534E+03 -0.24756660951E+03  0.90998197677E+03  0.25500000920E-02 0.  1.
       -2    1    3    3    0  502  0.66200647226E+03 -0.57317135534E+03 -0.68094713742E+03  0.11092641596E+04  0.25500000920E-02 0. -1.
</event>
<event>
 5   0  0.2417106E-04  0.1799748E+04  0.7818609E-02  0.8706433E-01
       -2   -1    0    0    0  501  0.00000000000E+00  0.00000000000E+00  0.93562541920E+03  0.93562541921E+03  0.25500000920E-02 0. -1.
        2   -1    0    0  501    0  0.00000000000E+00  0.00000000000E+00 -0.86548916639E+03  0.86548916640E+03  0.25500000920E-02 0.  1.
    10030    2    1    2    0    0  0.00000000000E+00  0.00000000000E+00  0.70136252812E+02  0.18011145856E+04  0.17997484981E+04 0.  0.
        4    1    3    3  502    0 -0.36899725182E+03 -0.28731067255E+03 -0.73432337764E+03  0.87059682417E+03  0.12699999809E+01 0.  1.
       -4    1    3    3    0  502  0.36899725182E+03  0.28731067255E+03  0.80445963045E+03  0.93051776143E+03  0.12699999809E+01 0. -1.
</event>
<event>
 5   0  0.2431811E-04  0.1804301E+04  0.7818609E-02  0.8704016E-01
        2   -1    0    0  501    0  0.00000000000E+00  0.00000000000E+00  0.15567223118E+04  0.15567223118E+04  0.25500000920E-02 0. -1.
       -2   -1    0    0    0  501  0.00000000000E+00  0.00000000000E+00 -0.52281346692E+03  0.52281346692E+03  0.25500000920E-02 0.  1.
    10030    2    1    2    0    0  0.00000000000E+00  0.00000000000E+00  0.10339088449E+04  0.20795357787E+04  0.18043008495E+04 0.  0.
        3    1    3    3  502    0 -0.23563180301E+03 -0.57665968889E+03  0.12690425886E+04  0.14136929812E+04  0.10100000352E+00 0. -1.
       -3    1    3    3    0  502  0.23563180301E+03  0.57665968889E+03 -0.23513374367E+03  0.66584279751E+03  0.10100000352E+00 0.  1.
</event>
<event>
 5   0  0.2393421E-04  0.1991376E+04  0.7818609E-02  0.8610663E-01
        2   -1    0    0  501    0  0.00000000000E+00  0.00000000000E+00  0.18463710343E+04  0.18463710343E+04  0.25500000920E-02 0. -1.
       -2   -1    0    0    0  501  0.00000000000E+00  0.00000000000E+00 -0.53694244630E+03  0.53694244631E+03  0.25500000920E-02 0.  1.
    10030    2    1    2    0    0  0.00000000000E+00  0.00000000000E+00  0.13094285880E+04  0.23833134806E+04  0.19913763883E+04 0.  0.
        5    1    3    3  502    0 -0.34162408642E+03  0.40010971467E+03 -0.35698783517E+03  0.63581224010E+03  0.46999998093E+01 0.  1.
       -5    1    3    3    0  502  0.34162408642E+03 -0.40010971467E+03  0.16664164232E+04  0.17475012405E+04  0.46999998093E+01 0. -1.
</event>
<event>
 5   0  0.1308893E-04  0.1798936E+04  0.7818609E-02  0.8706866E-01
       -1   -1    0    0    0  501  0.00000000000E+00  0.00000000000E+00  0.93346309866E+03  0.93346309868E+03  0.50400001928E-02 0. -1.
        1   -1    0    0  501    0  0.00000000000E+00  0.00000000000E+00 -0.86671068705E+03  0.86671068707E+03  0.50400001928E-02 0.  1.
    10030    2    1    2    0    0  0.00000000000E+00  0.00000000000E+00  0.66752411612E+02  0.18001737857E+04  0.17989357338E+04 0.  0.
        4    1    3    3  502    0  0.51930835546E+03 -0.14473959744E+02  0.76814999643E+03  0.92733310816E+03  0.12699999809E+01 0. -1.
       -4    1    3    3    0  502 -0.51930835546E+03  0.14473959744E+02 -0.70139758482E+03  0.87284067759E+03  0.12699999809E+01 0.  1.
</event>
<event>
 5   0  0.1239119E-04  0.1809557E+04  0.7818609E-02  0.8701234E-01
        1   -1    0    0  501    0  0.00000000000E+00  0.00000000000E+00  0.16862250878E+04  0.16862250878E+04  0.50400001928E-02 0. -1.
       -1   -1    0    0    0  501  0.00000000000E+00  0.00000000000E+00 -0.48547714962E+03  0.48547714965E+03  0.50400001928E-02 0.  1.
    10030    2    1    2    0    0  0.00000000000E+00  0.00000000000E+00  0.12007479382E+04  0.21717022375E+04  0.18095565747E+04 0.  0.
        5    1    3    3  502    0  0.51187878062E+03  0.14135210945E+03  0.14795057808E+04  0.15719286721E+04  0.46999998093E+01 0. -1.
       -5    1    3    3    0  502 -0.51187878062E+03 -0.14135210945E+03 -0.27875784258E+03  0.59977356535E+03  0.46999998093E+01 0.  1.
</event>
<event>
 5   0  0.1214723E-04  0.1659674E+04  0.7818609E-02  0.8784704E-01
        1   -1    0    0  501    0  0.00000000000E+00  0.00000000000E+00  0.26421248161E+04  0.26421248161E+04  0.50400001928E-02 0.  1.
       -1   -1    0    0    0  501  0.00000000000E+00  0.00000000000E+00 -0.26063477593E+03  0.26063477598E+03  0.50400001928E-02 0. -1.
    10030    2    1    2    0    0  0.00000000000E+00  0.00000000000E+00  0.23814900402E+04  0.29027595921E+04  0.16596741964E+04 0.  0.
        1    1    3    3  502    0 -0.81634950055E+01  0.31310859221E+03  0.25347712056E+04  0.25540494706E+04  0.50400001928E-02 0.  1.
       -1    1    3    3    0  502  0.81634950055E+01 -0.31310859221E+03 -0.15328116544E+03  0.34871012155E+03  0.50400001928E-02 0. -1.
</event>
<event>
 5   0  0.2417106E-04  0.1816257E+04  0.7818609E-02  0.8697702E-01
       -2   -1    0    0    0  501  0.00000000000E+00  0.00000000000E+00  0.42567527772E+03  0.42567527772E+03  0.25500000920E-02 0.  1.
        2   -1    0    0  501    0  0.00000000000E+00  0.00000000000E+00 -0.19373852441E+04  0.19373852441E+04  0.25500000920E-02 0. -1.
    10030    2    1    2    0    0  0.00000000000E+00  0.00000000000E+00 -0.15117099664E+04  0.23630605218E+04  0.18162565918E+04 0.  0.
        4    1    3    3  502    0 -0.70424271412E+03  0.56317686405E+03 -0.89579863943E+03  0.12710557800E+04  0.12699999809E+01 0. -1.
       -4    1    3    3    0  502  0.70424271412E+03 -0.56317686405E+03 -0.61591132697E+03  0.10920047418E+04  0.12699999809E+01 0.  1.
</event>
<event>
 5   0  0.2417106E-04  0.1784388E+04  0.7818609E-02  0.8714646E-01
        2   -1    0    0  501    0  0.00000000000E+00  0.00000000000E+00  0.47162772296E+03  0.47162772297E+03  0.25500000920E-02 0. -1.
       -2   -1    0    0    0  501  0.00000000000E+00  0.00000000000E+00 -0.16877940328E+04  0.16877940328E+04  0.25500000920E-02 0.  1.
    10030    2    1    2    0    0  0.00000000000E+00  0.00000000000E+00 -0.12161663098E+04  0.21594217558E+04  0.17843883619E+04 0.  0.
        4    1    3    3  502    0  0.48622581324E+03  0.16794721095E+03 -0.14902557621E+04  0.15765423104E+04  0.12699999809E+01 0.  1.
       -4    1    3    3    0  502 -0.48622581324E+03 -0.16794721095E+03  0.27408945224E+03  0.58287944539E+03  0.12699999809E+01 0. -1.
</event>
<event>
 5   0  0.1239119E-04  0.1802437E+04  0.7818609E-02  0.8705005E-01
        1   -1    0    0  501    0  0.00000000000E+00  0.00000000000E+00  0.69944009212E+03  0.69944009214E+03  0.50400001928E-02 0. -1.
       -1   -1    0    0    0  501  0.00000000000E+00  0.00000000000E+00 -0.11612066931E+04  0.11612066931E+04  0.50400001928E-02 0.  1.
    10030    2    1    2    0    0  0.00000000000E+00  0.00000000000E+00 -0.46176660093E+03  0.18606467852E+04  0.18024367022E+04 0.  0.
        5    1    3    3  502    0 -0.60024843569E+03 -0.42978024601E+03 -0.76445430188E+03  0.10627425436E+04  0.46999998093E+01 0.  1.
       -5    1    3    3    0  502  0.60024843569E+03  0.42978024601E+03  0.30268770094E+03  0.79790424156E+03  0.46999998093E+01 0. -1.
</event>
<event>
 5   0  0.2569405E-04  0.1799181E+04  0.7818609E-02  0.8706735E-01
        2   -1    0    0  501    0  0.00000000000E+00  0.00000000000E+00  0.11485316782E+04  0.11485316782E+04  0.25500000920E-02 0.  1.
       -2   -1    0    0    0  501  0.00000000000E+00  0.00000000000E+00 -0.70460630360E+03  0.70460630361E+03  0.25500000920E-02 0. -1.
    10030    2    1    2    0    0  0.00000000000E+00  0.00000000000E+00  0.44392537457E+03  0.18531379818E+04  0.17991805472E+04 0.  0.
        2    1    3    3  502    0  0.11817356699E+03 -0.76733682119E+03 -0.24607895066E+03  0.81444805792E+03  0.25500000920E-02 0. -1.
       -2    1    3    3    0  502 -0.11817356699E+03  0.76733682119E+03  0.69000432523E+03  0.10386899239E+04  0.25500000920E-02 0.  1.
</event>
<event>
 5   0  0.1253925E-04  0.1704505E+04  0.7818609E-02  0.8758799E-01
        1   -1    0    0  501    0  0.00000000000E+00  0.00000000000E+00  0.10554830301E+04  0.10554830301E+04  0.50400001928E-02 0.  1.
       -1   -1    0    0    0  501  0.00000000000E+00  0.00000000000E+00 -0.68815338746E+03  0.68815338748E+03  0.50400001928E-02 0. -1.
    10030    2    1    2    0    0  0.00000000000E+00  0.00000000000E+00  0.36732964267E+03  0.17436364176E+04  0.17045048813E+04 0.  0.
        2    1    3    3  502    0  0.38741950912E+02  0.23419059593E+03  0.10209843296E+04  0.10482152332E+04  0.25500000920E-02 0.  1.
       -2    1    3    3    0  502 -0.38741950912E+02 -0.23419059593E+03 -0.65365468689E+03  0.69542118438E+03  0.25500000920E-02 0. -1.
</event>
<event>
 5   0  0.1330225E-04  0.1828649E+04  0.7818609E-02  0.8691211E-01
        1   -1    0    0  501    0  0.00000000000E+00  0.00000000000E+00  0.32045113621E+04  0.32045113621E+04  0.50400001928E-02 0.  1.
       -1   -1    0    0    0  501  0.00000000000E+00  0.00000000000E+00 -0.26087898680E+03  0.26087898685E+03  0.50400001928E-02 0. -1.
    10030    2    1    2    0    0  0.00000000000E+00  0.00000000000E+00  0.29436323753E+04  0.34653903489E+04  0.18286494223E+04 0.  0.
        3    1    3    3  502    0 -0.31865779820E+03 -0.83625650074E+03  0.18269654817E+04  0.20343722886E+04  0.10100000352E+00 0. -1.
       -3    1    3    3    0  502  0.31865779820E+03  0.83625650074E+03  0.11166668936E+04  0.14310180603E+04  0.10100000352E+00 0.  1.
</event>
<event>
 5   0  0.2393421E-04  0.1811253E+04  0.7818609E-02  0.8700338E-01
       -2   -1    0    0    0  501  0.00000000000E+00  0.00000000000E+00  0.31316238598E+03  0.31316238599E+03  0.25500000920E-02 0. -1.
        2   -1    0    0  501    0  0.00000000000E+00  0.00000000000E+00 -0.26189595922E+04  0.26189595922E+04  0.25500000920E-02 0.  1.
    10030    2    1    2    0    0  0.00000000000E+00  0.00000000000E+00 -0.23057972062E+04  0.29321219782E+04  0.18112533061E+04 0.  0.
        5    1    3    3  502    0  0.40082203366E+03  0.30885135284E+03 -0.23687404161E+04  0.24221892390E+04  0.46999998093E+01 0.  1.
       -5    1    3    3    0  502 -0.40082203366E+03 -0.30885135284E+03  0.62943209867E+02  0.50993273918E+03  0.46999998093E+01 0. -1.
</event>
<event>
 5   0  0.2550616E-04  0.1813067E+04  0.7818609E-02  0.8699381E-01
        2   -1    0    0  501    0  0.00000000000E+00  0.00000000000E+00  0.14665063986E+04  0.14665063986E+04  0.25500000920E-02 0.  1.
       -2   -1    0    0    0  501  0.00000000000E+00  0.00000000000E+00 -0.56038150869E+03  0.56038150870E+03  0.25500000920E-02 0. -1.
    10030    2    1    2    0    0  0.00000000000E+00  0.00000000000E+00  0.90612488989E+03  0.20268879073E+04  0.18130670899E+04 0.  0.
        1    1    3    3  502    0  0.79518241021E+02 -0.12787825206E+03 -0.54630173268E+03  0.56667590487E+03  0.50400001928E-02 0. -1.
       -1    1    3    3    0  502 -0.79518241021E+02  0.12787825206E+03  0.14524266226E+04  0.14602120024E+04  0.50400001928E-02 0.  1.
</event>
<event>
 5   0  0.1308893E-04  0.1780234E+04  0.7818609E-02  0.8716882E-01
        1   -1    0    0  501    0  0.00000000000E+00  0.00000000000E+00  0.12446538949E+04  0.12446538949E+04  0.50400001928E-02 0. -1.
       -1   -1    0    0    0  501  0.00000000000E+00  0.00000000000E+00 -0.63656895966E+03  0.63656895968E+03  0.50400001928E-02 0.  1.
    10030    2    1    2    0    0  0.00000000000E+00  0.00000000000E+00  0.60808493523E+03  0.18812228546E+04  0.17802337319E+04 0.  0.
        4    1    3    3  502    0 -0.65893025097E+02 -0.82598449952E+03 -0.39539020823E+02  0.82955242828E+03  0.12699999809E+01 0.  1.
       -4    1    3    3    0  502  0.65893025097E+02  0.82598449952E+03  0.64762395605E+03  0.10516704263E+04  0.12699999809E+01 0. -1.
</event>
<event>
 5   0  0.1308893E-04  0.1817305E+04  0.7818609E-02  0.8697151E-01
       -1   -1    0    0    0  501  0.00000000000E+00  0.00000000000E+00  0.66521708827E+03  0.66521708829E+03  0.50400001928E-02 0.  1.
        1   -1    0    0  501    0  0.00000000000E+00  0.00000000000E+00 -0.12411725787E+04  0.12411725788E+04  0.50400001928E-02 0. -1.
    10030    2    1    2    0    0  0.00000000000E+00  0.00000000000E+00 -0.57595549048E+03  0.19063896670E+04  0.18173048274E+04 0.  0.
        4    1    3    3  502    0 -0.71551894791E+03  0.41171008618E+03  0.11033933483E+03  0.83285589486E+03  0.12699999809E+01 0.  1.
       -4    1    3    3    0  502  0.71551894791E+03 -0.41171008618E+03 -0.68629482531E+03  0.10735337722E+04  0.12699999809E+01 0. -1.
</event>
<event>
 5   0  0.1239119E-04  0.1803923E+04  0.7818609E-02  0.8704216E-01
        1   -1    0    0  501    0  0.00000000000E+00  0.00000000000E+00  0.87765146194E+03  0.87765146195E+03  0.50400001928E-02 0.  1.
       -1   -1    0    0    0  501  0.00000000000E+00  0.00000000000E+00 -0.92694481751E+03  0.92694481752E+03  0.50400001928E-02 0. -1.
    10030    2    1    2    0    0  0.00000000000E+00  0.00000000000E+00 -0.49293355569E+02  0.18045962795E+04  0.18039229188E+04 0.  0.
        5    1    3    3  502    0 -0.81094554140E+03 -0.18780135351E+03 -0.37206634246E+03  0.91178806347E+03  0.46999998093E+01 0. -1.
       -5    1    3    3    0  502  0.81094554140E+03  0.18780135351E+03  0.32277298689E+03  0.89280821600E+03  0.46999998093E+01 0.  1.
</event>
<event>
 5   0  0.2417106E-04  0.1792261E+04  0.7818609E-02  0.8710426E-01
        2   -1    0    0  501    0  0.00000000000E+00  0.00000000000E+00  0.15951814121E+04  0.15951814121E+04  0.25500000920E-02 0. -1.
       -2   -1    0    0    0  501  0.00000000000E+00  0.00000000000E+00 -0.50342234164E+03  0.50342234165E+03  0.25500000920E-02 0.  1.
    10030    2    1    2    0    0  0.00000000000E+00  0.00000000000E+00  0.10917590704E+04  0.20986037537E+04  0.17922610991E+04 0.  0.
        4    1    3    3  502    0 -0.37917451336E+03  0.75750356499E+03  0.20356982775E+03  0.87122169981E+03  0.12699999809E+01 0.  1.
       -4    1    3    3    0  502  0.37917451336E+03 -0.75750356499E+03  0.88818924270E+03  0.12273820539E+04  0.12699999809E+01 0. -1.
</event>
<event>
 5   0  0.1239119E-04  0.1802189E+04  0.7818609E-02  0.8705136E-01
        1   -1    0    0  501    0  0.00000000000E+00  0.00000000000E+00  0.12283249855E+04  0.12283249855E+04  0.50400001928E-02 0.  1.
       -1   -1    0    0    0  501  0.00000000000E+00  0.00000000000E+00 -0.66103966449E+03  0.66103966451E+03  0.50400001928E-02 0. -1.
    10030    2    1    2    0    0  0.00000000000E+00  0.00000000000E+00  0.56728532102E+03  0.18893646500E+04  0.18021892646E+04 0.  0.
        5    1    3    3  502    0 -0.36421017971E+03  0.29235135622E+01  0.11477020370E+04  0.12041177922E+04  0.46999998093E+01 0.  1.
       -5    1    3    3    0  502  0.36421017971E+03 -0.29235135622E+01 -0.58041671595E+03  0.68524685778E+03  0.46999998093E+01 0. -1.
</event>
<event>
 5   0  0.2431811E-04  0.1802270E+04  0.7818609E-02  0.8705093E-01
        2   -1    0    0  501    0  0.00000000000E+00  0.00000000000E+00  0.17382406451E+04  0.17382406451E+04  0.25500000920E-02 0.  1.
       -2   -1    0    0    0  501  0.00000000000E+00  0.00000000000E+00 -0.46716454462E+03  0.46716454463E+03  0.25500000920E-02 0. -1.
    10030    2    1    2    0    0  0.00000000000E+00  0.00000000000E+00  0.12710761005E+04  0.22054051897E+04  0.18022701234E+04 0.  0.
        3    1    3    3  502    0 -0.69616860832E+02  0.83268924668E+03  0.22269003544E+03  0.86475936013E+03  0.10100000352E+00 0. -1.
       -3    1    3    3    0  502  0.69616860832E+02 -0.83268924668E+03  0.10483860651E+04  0.13406458296E+04  0.10100000352E+00 0.  1.
</event>
<event>
 5   0  0.2431811E-04  0.1691203E+04  0.7818609E-02  0.8766398E-01
       -2   -1    0    0    0  501  0.00000000000E+00  0.00000000000E+00  0.44321476414E+03  0.44321476415E+03  0.25500000920E-02 0. -1.
        2   -1    0    0  501    0  0.00000000000E+00  0.00000000000E+00 -0.16133072389E+04  0.16133072389E+04  0.25500000920E-02 0.  1.
    10030    2    1    2    0    0  0.00000000000E+00  0.00000000000E+00 -0.11700924748E+04  0.20565220031E+04  0.16912026341E+04 0.  0.
        3    1    3    3  502    0 -0.81387802751E+02  0.16017978854E+03 -0.15898280400E+04  0.15999483573E+04  0.10100000352E+00 0.  1.
       -3    1    3    3    0  502  0.81387802751E+02 -0.16017978854E+03  0.41973556522E+03  0.45657364576E+03  0.10100000352E+00 0. -1.
</event>
<event>
 5   0  0.9144875E-05  0.1801142E+04  0.7818609E-02  0.8705693E-01
       -3   -1    0    0    0  501  0.00000000000E+00  0.00000000000E+00  0.98918482437E+03  0.98918482953E+03  0.10100000352E+00 0. -1.
        3   -1    0    0  501    0  0.00000000000E+00  0.00000000000E+00 -0.81989499865E+03  0.81989500487E+03  0.10100000352E+00 0.  1.
    10030    2    1    2    0    0  0.00000000000E+00  0.00000000000E+00  0.16928982572E+03  0.18090798344E+04  0.18011415275E+04 0.  0.
        2    1    3    3  502    0 -0.45298053578E+03  0.16606264119E+03  0.84843021012E+03  0.97601331346E+03  0.25500000920E-02 0. -1.
       -2    1    3    3    0  502  0.45298053578E+03 -0.16606264119E+03 -0.67914038440E+03  0.83306652095E+03  0.25500000920E-02 0.  1.
</event>
<event>
 5   0  0.1239119E-04  0.1784894E+04  0.7818609E-02  0.8714374E-01
       -1   -1    0    0    0  501  0.00000000000E+00  0.00000000000E+00  0.22792272956E+04  0.22792272956E+04  0.50400001928E-02 0. -1.
        1   -1    0    0  501    0  0.00000000000E+00  0.00000000000E+00 -0.34944371076E+03  0.34944371079E+03  0.50400001928E-02 0.  1.
    10030    2    1    2    0    0  0.00000000000E+00  0.00000000000E+00  0.19297835848E+04  0.26286710064E+04  0.17848939956E+04 0.  0.
        5    1    3    3  502    0 -0.46759307632E+03  0.66293195397E+03  0.15126165366E+04  0.17164361152E+04  0.46999998093E+01 0. -1.
       -5    1    3    3    0  502  0.46759307632E+03 -0.66293195397E+03  0.41716704819E+03  0.91223489119E+03  0.46999998093E+01 0.  1.
</event>
<event>
 5   0  0.2431811E-04  0.1825220E+04  0.7818609E-02  0.8693002E-01
       -2   -1    0    0    0  501  0.00000000000E+00  0.00000000000E+00  0.59319101140E+03  0.59319101141E+03  0.25500000920E-02 0. -1.
        2   -1    0    0  501    0  0.00000000000E+00  0.00000000000E+00 -0.14040284106E+04  0.14040284106E+04  0.25500000920E-02 0.  1.
    10030    2    1    2    0    0  0.00000000000E+00  0.00000000000E+00 -0.81083739920E+03  0.19972194220E+04  0.18252200228E+04 0.  0.
        3    1    3    3  502    0 -0.32632189385E+03  0.55987690434E+01 -0.13379865662E+04  0.13772165357E+04  0.10100000352E+00 0.  1.
       -3    1    3    3    0  502  0.32632189385E+03 -0.55987690434E+01  0.52714916699E+03  0.62000288635E+03  0.10100000352E+00 0. -1.
</event>
<event>
 5   0  0.9144875E-05  0.1806207E+04  0.7818609E-02  0.8703006E-01
       -3   -1    0    0    0  501  0.00000000000E+00  0.00000000000E+00  0.58748579359E+03  0.58748580228E+03  0.10100000352E+00 0.  1.
        3   -1    0    0  501    0  0.00000000000E+00  0.00000000000E+00 -0.13882819406E+04  0.13882819443E+04  0.10100000352E+00 0. -1.
    10030    2    1    2    0    0  0.00000000000E+00  0.00000000000E+00 -0.80079614698E+03  0.19757677465E+04  0.18062069979E+04 0.  0.
        1    1    3    3  502    0  0.22348369349E+03 -0.40768390645E+03 -0.12473192066E+04  0.13311485011E+04  0.50400001928E-02 0. -1.
       -1    1    3    3    0  502 -0.22348369349E+03  0.40768390645E+03  0.44652305958E+03  0.64461924545E+03  0.50400001928E-02 0.  1.
</event>
<event>
 5   0  0.2569405E-04  0.1798223E+04  0.7818609E-02  0.8707245E-01
        2   -1    0    0  501    0  0.00000000000E+00  0.00000000000E+00  0.11309578069E+04  0.11309578069E+04  0.25500000920E-02 0. -1.
       -2   -1    0    0    0  501  0.00000000000E+00  0.00000000000E+00 -0.71479351192E+03  0.71479351192E+03  0.25500000920E-02 0.  1.
    10030    2    1    2    0    0  0.00000000000E+00  0.00000000000E+00  0.41616429496E+03  0.18457513188E+04  0.17982227922E+04 0.  0.
        2    1    3    3  502    0 -0.87765654391E+03  0.15770401429E+03  0.89932256539E+02  0.89623622777E+03  0.25500000920E-02 0. -1.
       -2    1    3    3    0  502  0.87765654391E+03 -0.15770401429E+03  0.32623203842E+03  0.94951509103E+03  0.25500000920E-02 0.  1.
</event>
<event>
 5   0  0.2550616E-04  0.1819327E+04  0.7818609E-02  0.8696088E-01
        2   -1    0    0  501    0  0.00000000000E+00  0.00000000000E+00  0.28376394672E+04  0.28376394672E+04  0.25500000920E-02 0. -1.
       -2   -1    0    0    0  501  0.00000000000E+00  0.00000000000E+00 -0.29161138465E+03  0.29161138467E+03  0.25500000920E-02 0.  1.
    10030    2    1    2    0    0  0.00000000000E+00  0.00000000000E+00  0.25460280825E+04  0.31292508518E+04  0.18193273199E+04 0.  0.
        1    1    3    3  502    0  0.40042358311E+03 -0.23755867775E+03  0.26171672137E+04  0.26582583388E+04  0.50400001928E-02 0. -1.
       -1    1    3    3    0  502 -0.40042358311E+03  0.23755867775E+03 -0.71139131226E+02  0.47099251300E+03  0.50400001928E-02 0.  1.
</event>
<event>
 5   0  0.1214723E-04  0.1811226E+04  0.7818609E-02  0.8700352E-01
        1   -1    0    0  501    0  0.00000000000E+00  0.00000000000E+00  0.10138666682E+04  0.10138666682E+04  0.50400001928E-02 0.  1.
       -1   -1    0    0    0  501  0.00000000000E+00  0.00000000000E+00 -0.80891832446E+03  0.80891832448E+03  0.50400001928E-02 0. -1.
    10030    2    1    2    0    0  0.00000000000E+00  0.00000000000E+00  0.20494834370E+03  0.18227849927E+04  0.18112264645E+04 0.  0.
        1    1    3    3  502    0  0.30426405424E+03 -0.73020379531E+03  0.54615166224E+03  0.96127823006E+03  0.50400001928E-02 0.  1.
       -1    1    3    3    0  502 -0.30426405424E+03  0.73020379531E+03 -0.34120331854E+03  0.86150676259E+03  0.50400001928E-02 0. -1.
</event>
<event>
 5   0  0.2417106E-04  0.1827122E+04  0.7818609E-02  0.8692008E-01
        2   -1    0    0  501    0  0.00000000000E+00  0.00000000000E+00  0.12041951610E+04  0.12041951610E+04  0.25500000920E-02 0.  1.
       -2   -1    0    0    0  501  0.00000000000E+00  0.00000000000E+00 -0.69307149839E+03  0.69307149839E+03  0.25500000920E-02 0. -1.
    10030    2    1    2    0    0  0.00000000000E+00  0.00000000000E+00  0.51112366261E+03  0.18972666594E+04  0.18271216102E+04 0.  0.
        4    1    3    3  502    0  0.66623802684E+03 -0.44465353279E+03  0.71174753077E+03  0.10715297630E+04  0.12699999809E+01 0.  1.
       -4    1    3    3    0  502 -0.66623802684E+03  0.44465353279E+03 -0.20062386816E+03  0.82573689636E+03  0.12699999809E+01 0. -1.
</event>
<event>
 5   0  0.2417106E-04  0.1812717E+04  0.7818609E-02  0.8699566E-01
       -2   -1    0    0    0  501  0.00000000000E+00  0.00000000000E+00  0.74557644089E+03  0.74557644089E+03  0.25500000920E-02 0. -1.
        2   -1    0    0  501    0  0.00000000000E+00  0.00000000000E+00 -0.11018131295E+04  0.11018131295E+04  0.25500000920E-02 0.  1.
    10030    2    1    2    0    0  0.00000000000E+00  0.00000000000E+00 -0.35623668864E+03  0.18473895704E+04  0.18127171998E+04 0.  0.
        4    1    3    3  502    0  0.15262846851E+03 -0.10967853896E+03  0.72549733135E+03  0.74944834512E+03  0.12699999809E+01 0. -1.
       -4    1    3    3    0  502 -0.15262846851E+03  0.10967853896E+03 -0.10817340200E+04  0.10979412253E+04  0.12699999809E+01 0.  1.
</event>
<event>
 5   0  0.2431811E-04  0.1802011E+04  0.7818609E-02  0.8705231E-01
       -2   -1    0    0    0  501  0.00000000000E+00  0.00000000000E+00  0.92666808001E+03  0.92666808001E+03  0.25500000920E-02 0. -1.
        2   -1    0    0  501    0  0.00000000000E+00  0.00000000000E+00 -0.87605371548E+03  0.87605371549E+03  0.25500000920E-02 0.  1.
    10030    2    1    2    0    0  0.00000000000E+00  0.00000000000E+00  0.50614364527E+02  0.18027217955E+04  0.18020111149E+04 0.  0.
        3    1    3    3  502    0  0.21939304522E+03 -0.38908515301E+02  0.89867143004E+03  0.92588202825E+03  0.10100000352E+00 0. -1.
       -3    1    3    3    0  502 -0.21939304522E+03  0.38908515301E+02 -0.84805706552E+03  0.87683976725E+03  0.10100000352E+00 0.  1.
</event>
<event>
 5   0  0.1308893E-04  0.1752630E+04  0.7818609E-02  0.8731904E-01
        1   -1    0    0  501    0  0.00000000000E+00  0.00000000000E+00  0.75232422977E+03  0.75232422979E+03  0.50400001928E-02 0.  1.
       -1   -1    0    0    0  501  0.00000000000E+00  0.00000000000E+00 -0.10207407201E+04  0.10207407201E+04  0.50400001928E-02 0. -1.
    10030    2    1    2    0    0  0.00000000000E+00  0.00000000000E+00 -0.26841649031E+03  0.17730649499E+04  0.17526299964E+04 0.  0.
        4    1    3    3  502    0  0.16885409825E+02  0.74975394300E+03 -0.59282632359E+03  0.95596064509E+03  0.12699999809E+01 0.  1.
       -4    1    3    3    0  502 -0.16885409825E+02 -0.74975394300E+03  0.32440983328E+03  0.81710430481E+03  0.12699999809E+01 0. -1.
</event>
<event>
 5   0  0.1253925E-04  0.1899568E+04  0.7818609E-02  0.8655071E-01
       -1   -1    0    0    0  501  0.00000000000E+00  0.00000000000E+00  0.10776960427E+04  0.10776960427E+04  0.50400001928E-02 0.  1.
        1   -1    0    0  501    0  0.00000000000E+00  0.00000000000E+00 -0.83705384767E+03  0.83705384768E+03  0.50400001928E-02 0. -1.
    10030    2    1    2    0    0  0.00000000000E+00  0.00000000000E+00  0.24064219499E+03  0.19147498903E+04  0.18995679710E+04 0.  0.
        2    1    3    3  502    0 -0.94881611495E+03 -0.27802336667E+02  0.87431662838E+02  0.95324146237E+03  0.25500000920E-02 0.  1.
       -2    1    3    3    0  502  0.94881611495E+03  0.27802336667E+02  0.15321053215E+03  0.96150842798E+03  0.25500000920E-02 0. -1.
</event>
<event>
 5   0  0.2431811E-04  0.1811739E+04  0.7818609E-02  0.8700082E-01
        2   -1    0    0  501    0  0.00000000000E+00  0.00000000000E+00  0.11351722631E+04  0.11351722631E+04  0.25500000920E-02 0. -1.
       -2   -1    0    0    0  501  0.00000000000E+00  0.00000000000E+00 -0.72288519839E+03  0.72288519840E+03  0.25500000920E-02 0.  1.
    10030    2    1    2    0    0  0.00000000000E+00  0.00000000000E+00  0.41228706474E+03  0.18580574615E+04  0.18117386419E+04 0.  0.
        3    1    3    3  502    0  0.38829294536E+03  0.22094903943E+03 -0.60204494604E+03  0.74969861724E+03  0.10100000352E+00 0.  1.
       -3    1    3    3    0  502 -0.38829294536E+03 -0.22094903943E+03  0.10143320108E+04  0.11083588443E+04  0.10100000352E+00 0. -1.
</event>
<event>
 5   0  0.2417106E-04  0.1809461E+04  0.7818609E-02  0.8701285E-01
       -2   -1    0    0    0  501  0.00000000000E+00  0.00000000000E+00  0.31313137885E+03  0.31313137886E+03  0.25500000920E-02 0. -1.
        2   -1    0    0  501    0  0.00000000000E+00  0.00000000000E+00 -0.26140370183E+04  0.26140370183E+04  0.25500000920E-02 0.  1.
    10030    2    1    2    0    0  0.00000000000E+00  0.00000000000E+00 -0.23009056394E+04  0.29271683971E+04  0.18094607107E+04 0.  0.
        4    1    3    3  502    0 -0.83418063553E+03 -0.32829536010E+03 -0.13479200299E+04  0.16188036311E+04  0.12699999809E+01 0.  1.
       -4    1    3    3    0  502  0.83418063553E+03  0.32829536010E+03 -0.95298560956E+03  0.13083647661E+04  0.12699999809E+01 0. -1.
</event>
<event>
 5   0  0.2417106E-04  0.1751064E+04  0.7818609E-02  0.8732765E-01
        2   -1    0    0  501    0  0.00000000000E+00  0.00000000000E+00  0.10482288498E+04  0.10482288498E+04  0.25500000920E-02 0. -1.
       -2   -1    0    0    0  501  0.00000000000E+00  0.00000000000E+00 -0.73128679618E+03  0.73128679618E+03  0.25500000920E-02 0.  1.
    10030    2    1    2    0    0  0.00000000000E+00  0.00000000000E+00  0.31694205363E+03  0.17795156460E+04  0.17510635822E+04 0.  0.
        4    1    3    3  502    0  0.51749063335E+03  0.49283818520E+03 -0.35558222757E+03  0.79820195807E+03  0.12699999809E+01 0.  1.
       -4    1    3    3    0  502 -0.51749063335E+03 -0.49283818520E+03  0.67252428120E+03  0.98131368792E+03  0.12699999809E+01 0. -1.
</event>
<event>
 5   0  0.1330225E-04  0.1807460E+04  0.7818609E-02  0.8702342E-01
       -1   -1    0    0    0  501  0.00000000000E+00  0.00000000000E+00  0.36763762453E+03  0.36763762457E+03  0.50400001928E-02 0.  1.
        1   -1    0    0  501    0  0.00000000000E+00  0.00000000000E+00 -0.22215579201E+04  0.22215579201E+04  0.50400001928E-02 0. -1.
    10030    2    1    2    0    0  0.00000000000E+00  0.00000000000E+00 -0.18539202956E+04  0.25891955447E+04  0.18074604024E+04 0.  0.
        3    1    3    3  502    0 -0.83308959364E+03 -0.25555746486E+03 -0.58381508081E+03  0.10488984449E+04  0.10100000352E+00 0.  1.
       -3    1    3    3    0  502  0.83308959364E+03  0.25555746486E+03 -0.12701052147E+04  0.15402970998E+04  0.10100000352E+00 0. -1.
</event>
<event>
 5   0  0.1214723E-04  0.1778971E+04  0.7818609E-02  0.8717563E-01
        1   -1    0    0  501    0  0.00000000000E+00  0.00000000000E+00  0.96901864962E+03  0.96901864963E+03  0.50400001928E-02 0.  1.
       -1   -1    0    0    0  501  0.00000000000E+00  0.00000000000E+00 -0.81647980776E+03  0.81647980778E+03  0.50400001928E-02 0. -1.
    10030    2    1    2    0    0  0.00000000000E+00  0.00000000000E+00  0.15253884186E+03  0.17854984574E+04  0.17789706696E+04 0.  0.
        1    1    3    3  502    0  0.38585647568E+03  0.16225843202E+03 -0.71144876966E+03  0.82545282752E+03  0.50400001928E-02 0. -1.
       -1    1    3    3    0  502 -0.38585647568E+03 -0.16225843202E+03  0.86398761152E+03  0.96004562989E+03  0.50400001928E-02 0.  1.
</event>
<event>
 5   0  0.1253925E-04  0.1801921E+04  0.7818609E-02  0.8705279E-01
       -1   -1    0    0    0  501  0.00000000000E+00  0.00000000000E+00  0.78409632644E+03  0.78409632645E+03  0.50400001928E-02 0.  1.
        1   -1    0    0  501    0  0.00000000000E+00  0.00000000000E+00 -0.10352419863E+04  0.10352419863E+04  0.50400001928E-02 0. -1.
    10030    2    1    2    0    0  0.00000000000E+00  0.00000000000E+00 -0.25114565985E+03  0.18193383128E+04  0.18019205737E+04 0.  0.
        2    1    3    3  502    0  0.33446773622E+03 -0.73937810030E+03  0.26959354527E+03  0.85511947787E+03  0.25500000920E-02 0.  1.
       -2    1    3    3    0  502 -0.33446773622E+03  0.73937810030E+03 -0.52073920513E+03  0.96421883488E+03  0.25500000920E-02 0. -1.
</event>
<event>
 5   0  0.2550616E-04  0.1795216E+04  0.7818609E-02  0.8708848E-01
       -2   -1    0    0    0  501  0.00000000000E+00  0.00000000000E+00  0.57857007541E+03  0.57857007541E+03  0.25500000920E-02 0. -1.
        2   -1    0    0  501    0  0.00000000000E+00  0.00000000000E+00 -0.13925718315E+04  0.13925718315E+04  0.25500000920E-02 0.  1.
    10030    2    1    2    0    0  0.00000000000E+00  0.00000000000E+00 -0.81400175608E+03  0.19711419069E+04  0.17952162985E+04 0.  0.
        1    1    3    3  502    0  0.46094648930E+03 -0.16726232598E+03 -0.12325105712E+04  0.13264730151E+04  0.50400001928E-02 0.  1.
       -1    1    3    3    0  502 -0.46094648930E+03  0.16726232598E+03  0.41850881511E+03  0.64466889179E+03  0.50400001928E-02 0. -1.
</event>
<event>
 5   0  0.2417106E-04  0.1745230E+04  0.7818609E-02  0.8735980E-01
       -2   -1    0    0    0  501  0.00000000000E+00  0.00000000000E+00  0.50470799932E+03  0.50470799933E+03  0.25500000920E-02 0. -1.
        2   -1    0    0  501    0  0.00000000000E+00  0.00000000000E+00 -0.15087082013E+04  0.15087082013E+04  0.25500000920E-02 0.  1.
    10030    2    1    2    0    0  0.00000000000E+00  0.00000000000E+00 -0.10040002019E+04  0.20134162006E+04  0.17452301829E+04 0.  0.
        4    1    3    3  502    0  0.48532699084E+03 -0.26623407895E+03 -0.12802195946E+04  0.13947711985E+04  0.12699999809E+01 0.  1.
       -4    1    3    3    0  502 -0.48532699084E+03  0.26623407895E+03  0.27621939267E+03  0.61864500210E+03  0.12699999809E+01 0. -1.
</event>
<event>
 5   0  0.1239119E-04  0.1794804E+04  0.7818609E-02  0.8709067E-01
        1   -1    0    0  501    0  0.00000000000E+00  0.00000000000E+00  0.53257814350E+03  0.53257814353E+03  0.50400001928E-02 0.  1.
       -1   -1    0    0    0  501  0.00000000000E+00  0.00000000000E+00 -0.15121356736E+04  0.15121356736E+04  0.50400001928E-02 0. -1.
    10030    2    1    2    0    0  0.00000000000E+00  0.00000000000E+00 -0.97955753009E+03  0.20447138171E+04  0.17948040671E+04 0.  0.
        5    1    3    3  502    0 -0.82041550570E+03 -0.19565941194E+03 -0.83895949645E+03  0.11896383207E+04  0.46999998093E+01 0. -1.
       -5    1    3    3    0  502  0.82041550570E+03  0.19565941194E+03 -0.14059803363E+03  0.85507549639E+03  0.46999998093E+01 0.  1.
</event>
<event>
 5   0  0.2550616E-04  0.1772208E+04  0.7818609E-02  0.8721220E-01
        2   -1    0    0  501    0  0.00000000000E+00  0.00000000000E+00  0.22326541452E+04  0.22326541452E+04  0.25500000920E-02 0. -1.
       -2   -1    0    0    0  501  0.00000000000E+00  0.00000000000E+00 -0.35168008678E+03  0.35168008679E+03  0.25500000920E-02 0.  1.
    10030    2    1    2    0    0  0.00000000000E+00  0.00000000000E+00  0.18809740584E+04  0.25843342320E+04  0.17722076668E+04 0.  0.
        1    1    3    3  502    0 -0.31291326877E+03  0.43884829329E+01 -0.26841244700E+03  0.41228535541E+03  0.50400001928E-02 0.  1.
       -1    1    3    3    0  502  0.31291326877E+03 -0.43884829329E+01  0.21493865054E+04  0.21720488766E+04  0.50400001928E-02 0. -1.
</event>
<event>
 5   0  0.1330225E-04  0.1809635E+04  0.7818609E-02  0.8701192E-01
        1   -1    0    0  501    0  0.00000000000E+00  0.00000000000E+00  0.17745250802E+04  0.17745250803E+04  0.50400001928E-02 0. -1.
       -1   -1    0    0    0  501  0.00000000000E+00  0.00000000000E+00 -0.46135983465E+03  0.46135983468E+03  0.50400001928E-02 0.  1.
    10030    2    1    2    0    0  0.00000000000E+00  0.00000000000E+00  0.13131652456E+04  0.22358849149E+04  0.18096348777E+04 0.  0.
        3    1    3    3  502    0 -0.30803408999E+03 -0.36492592458E+03  0.16061360851E+04  0.16756279614E+04  0.10100000352E+00 0. -1.
       -3    1    3    3    0  502  0.30803408999E+03  0.36492592458E+03 -0.29297083946E+03  0.56025695355E+03  0.10100000352E+00 0.  1.
</event>
<event>
 5   0  0.1239119E-04  0.1854126E+04  0.7818609E-02  0.8678034E-01
        1   -1    0    0  501    0  0.00000000000E+00  0.00000000000E+00  0.13459978879E+04  0.13459978879E+04  0.50400001928E-02 0.  1.
       -1   -1    0    0    0  501  0.00000000000E+00  0.00000000000E+00 -0.63851944230E+03  0.63851944232E+03  0.50400001928E-02 0. -1.
    10030    2    1    2    0    0  0.00000000000E+00  0.00000000000E+00  0.70747844558E+03  0.19845173302E+04  0.18541260159E+04 0.  0.
        5    1    3    3  502    0 -0.36975533822E+03  0.84945480211E+03  0.31773969368E+03  0.97942486895E+03  0.46999998093E+01 0.  1.
       -5    1    3    3    0  502  0.36975533822E+03 -0.84945480211E+03  0.38973875190E+03  0.10050924613E+04  0.46999998093E+01 0. -1.
</event>
<event>
 5   0  0.1239119E-04  0.1791966E+04  0.7818609E-02  0.8710584E-01
       -1   -1    0    0    0  501  0.00000000000E+00  0.00000000000E+00  0.54267062442E+03  0.54267062444E+03  0.50400001928E-02 0. -1.
        1   -1    0    0  501    0  0.00000000000E+00  0.00000000000E+00 -0.14793235345E+04  0.14793235345E+04  0.50400001928E-02 0.  1.
    10030    2    1    2    0    0  0.00000000000E+00  0.00000000000E+00 -0.93665291011E+03  0.20219941590E+04  0.17919658772E+04 0.  0.
        5    1    3    3  502    0  0.49724461599E+03  0.72729816475E+03 -0.28447366794E+03  0.92583053867E+03  0.46999998093E+01 0. -1.
       -5    1    3    3    0  502 -0.49724461599E+03 -0.72729816475E+03 -0.65217924217E+03  0.10961636203E+04  0.46999998093E+01 0.  1.
</event>
<event>
 5   0  0.2393421E-04  0.1790713E+04  0.7818609E-02  0.8711254E-01
       -2   -1    0    0    0  501  0.00000000000E+00  0.00000000000E+00  0.59945931463E+03  0.59945931463E+03  0.25500000920E-02 0. -1.
        2   -1    0    0  501    0  0.00000000000E+00  0.00000000000E+00 -0.13373107539E+04  0.13373107539E+04  0.25500000920E-02 0.  1.
    10030    2    1    2    0    0  0.00000000000E+00  0.00000000000E+00 -0.73785143926E+03  0.19367700685E+04  0.17907131406E+04 0.  0.
        5    1    3    3  502    0 -0.43603000915E+03 -0.65517495669E+03 -0.83067217608E+03  0.11442966166E+04  0.46999998093E+01 0.  1.
       -5    1    3    3    0  502  0.43603000915E+03  0.65517495669E+03  0.92820736820E+02  0.79247345188E+03  0.46999998093E+01 0. -1.
</event>
<event>
 5   0  0.2393421E-04  0.1737702E+04  0.7818609E-02  0.8740149E-01
        2   -1    0    0  501    0  0.00000000000E+00  0.00000000000E+00  0.10541157596E+04  0.10541157596E+04  0.25500000920E-02 0. -1.
       -2   -1    0    0    0  501  0.00000000000E+00  0.00000000000E+00 -0.71614684501E+03  0.71614684501E+03  0.25500000920E-02 0.  1.
    10030    2    1    2    0    0  0.00000000000E+00  0.00000000000E+00  0.33796891460E+03  0.17702626046E+04  0.17377015573E+04 0.  0.
        5    1    3    3  502    0  0.59439224329E+02  0.86350411594E+03  0.92022824174E+02  0.87043820562E+03  0.46999998093E+01 0. -1.
       -5    1    3    3    0  502 -0.59439224329E+02 -0.86350411594E+03  0.24594609042E+03  0.89982439900E+03  0.46999998093E+01 0.  1.
</event>
<event>
 5   0  0.2417106E-04  0.1881044E+04  0.7818609E-02  0.8664350E-01
       -2   -1    0    0    0  501  0.00000000000E+00  0.00000000000E+00  0.38019922452E+03  0.38019922453E+03  0.25500000920E-02 0. -1.
        2   -1    0    0  501    0  0.00000000000E+00  0.00000000000E+00 -0.23266270855E+04  0.23266270855E+04  0.25500000920E-02 0.  1.
    10030    2    1    2    0    0  0.00000000000E+00  0.00000000000E+00 -0.19464278610E+04  0.27068263100E+04  0.18810441927E+04 0.  0.
        4    1    3    3  502    0 -0.78937169853E+03  0.11580556525E+03 -0.25650774147E+03  0.83804322187E+03  0.12699999809E+01 0. -1.
       -4    1    3    3    0  502  0.78937169853E+03 -0.11580556525E+03 -0.16899201195E+04  0.18687830882E+04  0.12699999809E+01 0.  1.
</event>
<event>
 5   0  0.1214723E-04  0.1788646E+04  0.7818609E-02  0.8712361E-01
        1   -1    0    0  501    0  0.00000000000E+00  0.00000000000E+00  0.95827152143E+03  0.95827152144E+03  0.50400001928E-02 0.  1.
       -1   -1    0    0    0  501  0.00000000000E+00  0.00000000000E+00 -0.83464153598E+03  0.83464153599E+03  0.50400001928E-02 0. -1.
    10030    2    1    2    0    0  0.00000000000E+00  0.00000000000E+00  0.12362998545E+03  0.17929130574E+04  0.17886455373E+04 0.  0.
        1    1    3    3  502    0  0.22066807920E+03  0.71659746094E+03 -0.42679738432E+03  0.86276435340E+03  0.50400001928E-02 0. -1.
       -1    1    3    3    0  502 -0.22066807920E+03 -0.71659746094E+03  0.55042736978E+03  0.93014870404E+03  0.50400001928E-02 0.  1.
</event>
<event>
 5   0  0.2393421E-04  0.1850382E+04  0.7818609E-02  0.8679956E-01
       -2   -1    0    0    0  501  0.00000000000E+00  0.00000000000E+00  0.47480184450E+03  0.47480184451E+03  0.25500000920E-02 0. -1.
        2   -1    0    0  501    0  0.00000000000E+00  0.00000000000E+00 -0.18028121136E+04  0.18028121136E+04  0.25500000920E-02 0.  1.
    10030    2    1    2    0    0  0.00000000000E+00  0.00000000000E+00 -0.13280102691E+04  0.22776139581E+04  0.18503821409E+04 0.  0.
        5    1    3    3  502    0 -0.43848772196E+03 -0.80931821441E+03 -0.77874197734E+03  0.12057066856E+04  0.46999998093E+01 0.  1.
       -5    1    3    3    0  502  0.43848772196E+03  0.80931821441E+03 -0.54926829176E+03  0.10719072725E+04  0.46999998093E+01 0. -1.
</event>
<event>
 5   0  0.1239119E-04  0.1824594E+04  0.7818609E-02  0.8693329E-01
       -1   -1    0    0    0  501  0.00000000000E+00  0.00000000000E+00  0.58171860687E+03  0.58171860689E+03  0.50400001928E-02 0.  1.
        1   -1    0    0  501    0  0.00000000000E+00  0.00000000000E+00 -0.14307356419E+04  0.14307356419E+04  0.50400001928E-02 0. -1.
    10030    2    1    2    0    0  0.00000000000E+00  0.00000000000E+00 -0.84901703503E+03  0.20124542488E+04  0.18245937021E+04 0.  0.
        5    1    3    3  502    0 -0.47640458039E+03 -0.77025513545E+03 -0.30363919244E+03  0.95523460317E+03  0.46999998093E+01 0.  1.
       -5    1    3    3    0  502  0.47640458039E+03  0.77025513545E+03 -0.54537784259E+03  0.10572196456E+04  0.46999998093E+01 0. -1.
</event>
<event>
 5   0  0.2431811E-04  0.1797546E+04  0.7818609E-02  0.8707606E-01
       -2   -1    0    0    0  501  0.00000000000E+00  0.00000000000E+00  0.54525548502E+03  0.54525548503E+03  0.25500000920E-02 0.  1.
        2   -1    0    0  501    0  0.00000000000E+00  0.00000000000E+00 -0.14814937710E+04  0.14814937710E+04  0.25500000920E-02 0. -1.
    10030    2    1    2    0    0  0.00000000000E+00  0.00000000000E+00 -0.93623828599E+03  0.20267492560E+04  0.17975456653E+04 0.  0.
        3    1    3    3  502    0 -0.71149590329E+03  0.36772901639E+03 -0.92797365821E+03  0.12258002164E+04  0.10100000352E+00 0.  1.
       -3    1    3    3    0  502  0.71149590329E+03 -0.36772901639E+03 -0.82646277806E+01  0.80094903968E+03  0.10100000352E+00 0. -1.
</event>
<event>
 5   0  0.2393421E-04  0.1537820E+04  0.7818609E-02  0.8859685E-01
        2   -1    0    0  501    0  0.00000000000E+00  0.00000000000E+00  0.11852019664E+04  0.11852019664E+04  0.25500000920E-02 0.  1.
       -2   -1    0    0    0  501  0.00000000000E+00  0.00000000000E+00 -0.49883714438E+03  0.49883714439E+03  0.25500000920E-02 0. -1.
    10030    2    1    2    0    0  0.00000000000E+00  0.00000000000E+00  0.68636482201E+03  0.16840391108E+04  0.15378202293E+04 0.  0.
        5    1    3    3  502    0 -0.49498624374E+03 -0.58532415535E+03  0.40874962165E+03  0.86874282243E+03  0.46999998093E+01 0.  1.
       -5    1    3    3    0  502  0.49498624374E+03  0.58532415535E+03  0.27761520036E+03  0.81529628835E+03  0.46999998093E+01 0. -1.
</event>
<event>
 5   0  0.1308893E-04  0.1802388E+04  0.7818609E-02  0.8705031E-01
       -1   -1    0    0    0  501  0.00000000000E+00  0.00000000000E+00  0.84685030949E+03  0.84685030950E+03  0.50400001928E-02 0.  1.
        1   -1    0    0  501    0  0.00000000000E+00  0.00000000000E+00 -0.95902465896E+03  0.95902465897E+03  0.50400001928E-02 0. -1.
    10030    2    1    2    0    0  0.00000000000E+00  0.00000000000E+00 -0.11217434947E+03  0.18058749685E+04  0.18023876711E+04 0.  0.
        4    1    3    3  502    0 -0.30176311847E+03  0.80965262572E+03  0.20043624363E+03  0.88700318752E+03  0.12699999809E+01 0.  1.
       -4    1    3    3    0  502  0.30176311847E+03 -0.80965262572E+03 -0.31261059310E+03  0.91887178095E+03  0.12699999809E+01 0. -1.
</event>
<event>
 5   0  0.2431811E-04  0.1803511E+04  0.7818609E-02  0.8704435E-01
        2   -1    0    0  501    0  0.00000000000E+00  0.00000000000E+00  0.85327899082E+03  0.85327899083E+03  0.25500000920E-02 0.  1.
       -2   -1    0    0    0  501  0.00000000000E+00  0.00000000000E+00 -0.95298623742E+03  0.95298623742E+03  0.25500000920E-02 0. -1.
    10030    2    1    2    0    0  0.00000000000E+00  0.00000000000E+00 -0.99707246597E+02  0.18062652282E+04  0.18035111698E+04 0.  0.
        3    1    3    3  502    0  0.49009385030E+03  0.49328643456E+03  0.52516564565E+03  0.87139110288E+03  0.10100000352E+00 0.  1.
       -3    1    3    3    0  502 -0.49009385030E+03 -0.49328643456E+03 -0.62487289224E+03  0.93487412537E+03  0.10100000352E+00 0. -1.
</event>
<event>
 5   0  0.2569405E-04  0.1802531E+04  0.7818609E-02  0.8704955E-01
       -2   -1    0    0    0  501  0.00000000000E+00  0.00000000000E+00  0.49933956860E+03  0.49933956861E+03  0.25500000920E-02 0.  1.
        2   -1    0    0  501    0  0.00000000000E+00  0.00000000000E+00 -0.16267068018E+04  0.16267068018E+04  0.25500000920E-02 0. -1.
    10030    2    1    2    0    0  0.00000000000E+00  0.00000000000E+00 -0.11273672332E+04  0.21260463705E+04  0.18025305242E+04 0.  0.
        2    1    3    3  502    0 -0.79460104615E+03 -0.37396969337E+02 -0.10633842396E+04  0.13279967609E+04  0.25500000920E-02 0.  1.
       -2    1    3    3    0  502  0.79460104615E+03  0.37396969337E+02 -0.63982993648E+02  0.79804960958E+03  0.25500000920E-02 0. -1.
</event>
<event>
 5   0  0.2417106E-04  0.1801609E+04  0.7818609E-02  0.8705444E-01
        2   -1    0    0  501    0  0.00000000000E+00  0.00000000000E+00  0.14097195015E+04  0.14097195015E+04  0.25500000920E-02 0.  1.
       -2   -1    0    0    0  501  0.00000000000E+00  0.00000000000E+00 -0.57560991059E+03  0.57560991060E+03  0.25500000920E-02 0. -1.
    10030    2    1    2    0    0  0.00000000000E+00  0.00000000000E+00  0.83410959086E+03  0.19853294121E+04  0.18016087435E+04 0.  0.
        4    1    3    3  502    0 -0.46937924298E+03 -0.34439401218E+03  0.11745562608E+04  0.13109188121E+04  0.12699999809E+01 0.  1.
       -4    1    3    3    0  502  0.46937924298E+03  0.34439401218E+03 -0.34044666990E+03  0.67441059994E+03  0.12699999809E+01 0. -1.
</event>
<event>
 5   0  0.2431811E-04  0.1654993E+04  0.7818609E-02  0.8787458E-01
       -2   -1    0    0    0  501  0.00000000000E+00  0.00000000000E+00  0.41209117188E+03  0.41209117189E+03  0.25500000920E-02 0.  1.
        2   -1    0    0  501    0  0.00000000000E+00  0.00000000000E+00 -0.16616471700E+04  0.16616471700E+04  0.25500000920E-02 0. -1.
    10030    2    1    2    0    0  0.00000000000E+00  0.00000000000E+00 -0.12495559981E+04  0.20737383419E+04  0.16549926036E+04 0.  0.
        3    1    3    3  502    0 -0.11004737758E+03 -0.74041651517E+03 -0.10667638542E+04  0.13031930678E+04  0.10100000352E+00 0. -1.
       -3    1    3    3    0  502  0.11004737758E+03  0.74041651517E+03 -0.18279214391E+03  0.77054527403E+03  0.10100000352E+00 0.  1.
</event>
<event>
 5   0  0.2550616E-04  0.1526571E+04  0.7818609E-02  0.8866973E-01
        2   -1    0    0  501    0  0.00000000000E+00  0.00000000000E+00  0.10448539288E+04  0.10448539288E+04  0.25500000920E-02 0. -1.
       -2   -1    0    0    0  501  0.00000000000E+00  0.00000000000E+00 -0.55759459157E+03  0.55759459157E+03  0.25500000920E-02 0.  1.
    10030    2    1    2    0    0  0.00000000000E+00  0.00000000000E+00  0.48725933725E+03  0.16024485204E+04  0.15265711902E+04 0.  0.
        1    1    3    3  502    0 -0.38959090989E+03  0.24088226764E+03  0.88455098720E+03  0.99611033170E+03  0.50400001928E-02 0. -1.
       -1    1    3    3    0  502  0.38959090989E+03 -0.24088226764E+03 -0.39729164995E+03  0.60633818870E+03  0.50400001928E-02 0.  1.
</event>
<event>
 5   0  0.2550616E-04  0.1788450E+04  0.7818609E-02  0.8712466E-01
       -2   -1    0    0    0  501  0.00000000000E+00  0.00000000000E+00  0.40932847330E+03  0.40932847331E+03  0.25500000920E-02 0.  1.
        2   -1    0    0  501    0  0.00000000000E+00  0.00000000000E+00 -0.19535372654E+04  0.19535372654E+04  0.25500000920E-02 0. -1.
    10030    2    1    2    0    0  0.00000000000E+00  0.00000000000E+00 -0.15442087921E+04  0.23628657387E+04  0.17884500847E+04 0.  0.
        1    1    3    3  502    0 -0.93762490561E+02  0.47038278935E+03 -0.17692125692E+04  0.18330751453E+04  0.50400001928E-02 0. -1.
       -1    1    3    3    0  502  0.93762490561E+02 -0.47038278935E+03  0.22500377711E+03  0.52979059344E+03  0.50400001928E-02 0.  1.
</event>
<event>
 5   0  0.1214723E-04  0.1802514E+04  0.7818609E-02  0.8704964E-01
       -1   -1    0    0    0  501  0.00000000000E+00  0.00000000000E+00  0.90785637674E+03  0.90785637676E+03  0.50400001928E-02 0.  1.
        1   -1    0    0  501    0  0.00000000000E+00  0.00000000000E+00 -0.89470523225E+03  0.89470523227E+03  0.50400001928E-02 0. -1.
    10030    2    1    2    0    0  0.00000000000E+00  0.00000000000E+00  0.13151144491E+02  0.18025616090E+04  0.18025136343E+04 0.  0.
        1    1    3    3  502    0  0.24145406778E+03 -0.56398405660E+03  0.66680959922E+03  0.90609774560E+03  0.50400001928E-02 0.  1.
       -1    1    3    3    0  502 -0.24145406778E+03  0.56398405660E+03 -0.65365845473E+03  0.89646386342E+03  0.50400001928E-02 0. -1.
</event>
<event>
 5   0  0.1253925E-04  0.1774626E+04  0.7818609E-02  0.8719911E-01
       -1   -1    0    0    0  501  0.00000000000E+00  0.00000000000E+00  0.52539114446E+03  0.52539114449E+03  0.50400001928E-02 0.  1.
        1   -1    0    0  501    0  0.00000000000E+00  0.00000000000E+00 -0.14985484283E+04  0.14985484283E+04  0.50400001928E-02 0. -1.
    10030    2    1    2    0    0  0.00000000000E+00  0.00000000000E+00 -0.97315728379E+03  0.20239395727E+04  0.17746256775E+04 0.  0.
        2    1    3    3  502    0  0.18715763441E+03 -0.65525808047E+03 -0.11346860045E+04  0.13235949006E+04  0.25500000920E-02 0. -1.
       -2    1    3    3    0  502 -0.18715763441E+03  0.65525808047E+03  0.16152872072E+03  0.70034467212E+03  0.25500000920E-02 0.  1.
</event>
<event>
 5   0  0.2550616E-04  0.1792673E+04  0.7818609E-02  0.8710206E-01
       -2   -1    0    0    0  501  0.00000000000E+00  0.00000000000E+00  0.13920234352E+04  0.13920234352E+04  0.25500000920E-02 0. -1.
        2   -1    0    0  501    0  0.00000000000E+00  0.00000000000E+00 -0.57715889028E+03  0.57715889029E+03  0.25500000920E-02 0.  1.
    10030    2    1    2    0    0  0.00000000000E+00  0.00000000000E+00  0.81486454491E+03  0.19691823255E+04  0.17926725313E+04 0.  0.
        1    1    3    3  502    0 -0.58532726913E+03  0.15247169504E+02  0.11529134119E+04  0.12930776556E+04  0.50400001928E-02 0. -1.
       -1    1    3    3    0  502  0.58532726913E+03 -0.15247169504E+02 -0.33804886694E+03  0.67610466988E+03  0.50400001928E-02 0.  1.
</event>
<event>
 5   0  0.1330225E-04  0.1812687E+04  0.7818609E-02  0.8699581E-01
        1   -1    0    0  501    0  0.00000000000E+00  0.00000000000E+00  0.78051350643E+03  0.78051350645E+03  0.50400001928E-02 0.  1.
       -1   -1    0    0    0  501  0.00000000000E+00  0.00000000000E+00 -0.10524594599E+04  0.10524594600E+04  0.50400001928E-02 0. -1.
    10030    2    1    2    0    0  0.00000000000E+00  0.00000000000E+00 -0.27194595351E+03  0.18329729664E+04  0.18126873128E+04 0.  0.
        3    1    3    3  502    0 -0.85444502023E+03  0.47456737092E+02  0.16591515575E+03  0.87169735780E+03  0.10100000352E+00 0.  1.
       -3    1    3    3    0  502  0.85444502023E+03 -0.47456737092E+02 -0.43786110925E+03  0.96127560860E+03  0.10100000352E+00 0. -1.
</event>
<event>
 5   0  0.2393421E-04  0.1786939E+04  0.7818609E-02  0.8713276E-01
       -2   -1    0    0    0  501  0.00000000000E+00  0.00000000000E+00  0.51840540046E+03  0.51840540047E+03  0.25500000920E-02 0.  1.
        2   -1    0    0  501    0  0.00000000000E+00  0.00000000000E+00 -0.15398910194E+04  0.15398910194E+04  0.25500000920E-02 0. -1.
    10030    2    1    2    0    0  0.00000000000E+00  0.00000000000E+00 -0.10214856190E+04  0.20582964199E+04  0.17869390819E+04 0.  0.
        5    1    3    3  502    0 -0.85143626763E+03 -0.22514447163E+03 -0.33745841883E+03  0.94315111482E+03  0.46999998093E+01 0. -1.
       -5    1    3    3    0  502  0.85143626763E+03  0.22514447163E+03 -0.68402720014E+03  0.11151453051E+04  0.46999998093E+01 0.  1.
</event>
<event>
 5   0  0.1330225E-04  0.1796467E+04  0.7818609E-02  0.8708181E-01
        1   -1    0    0  501    0  0.00000000000E+00  0.00000000000E+00  0.11088879100E+04  0.11088879100E+04  0.50400001928E-02 0. -1.
       -1   -1    0    0    0  501  0.00000000000E+00  0.00000000000E+00 -0.72759659987E+03  0.72759659988E+03  0.50400001928E-02 0.  1.
    10030    2    1    2    0    0  0.00000000000E+00  0.00000000000E+00  0.38129131013E+03  0.18364845099E+04  0.17964666131E+04 0.  0.
        3    1    3    3  502    0 -0.60731389719E+03  0.47483032277E+03 -0.28063246517E+03  0.82039538995E+03  0.10100000352E+00 0. -1.
       -3    1    3    3    0  502  0.60731389719E+03 -0.47483032277E+03  0.66192377531E+03  0.10160891199E+04  0.10100000352E+00 0.  1.
</event>
<event>
 5   0  0.2569405E-04  0.1801204E+04  0.7818609E-02  0.8705659E-01
        2   -1    0    0  501    0  0.00000000000E+00  0.00000000000E+00  0.54508184953E+03  0.54508184953E+03  0.25500000920E-02 0. -1.
       -2   -1    0    0    0  501  0.00000000000E+00  0.00000000000E+00 -0.14880046989E+04  0.14880046989E+04  0.25500000920E-02 0.  1.
    10030    2    1    2    0    0  0.00000000000E+00  0.00000000000E+00 -0.94292284934E+03  0.20330865484E+04  0.18012044341E+04 0.  0.
        2    1    3    3  502    0  0.50167973943E+03  0.63350657832E+03 -0.92022670055E+03  0.12246756004E+04  0.25500000920E-02 0. -1.
       -2    1    3    3    0  502 -0.50167973943E+03 -0.63350657832E+03 -0.22696148793E+02  0.80841094804E+03  0.25500000920E-02 0.  1.
</event>
<event>
 5   0  0.1308893E-04  0.1768366E+04  0.7818609E-02  0.8723305E-01
       -1   -1    0    0    0  501  0.00000000000E+00  0.00000000000E+00  0.56792775857E+03  0.56792775859E+03  0.50400001928E-02 0. -1.
        1   -1    0    0  501    0  0.00000000000E+00  0.00000000000E+00 -0.13765480385E+04  0.13765480385E+04  0.50400001928E-02 0.  1.
    10030    2    1    2    0    0  0.00000000000E+00  0.00000000000E+00 -0.80862027990E+03  0.19444757971E+04  0.17683662992E+04 0.  0.
        4    1    3    3  502    0 -0.14375023352E+03  0.50276647208E+03 -0.11882945803E+04  0.12982618678E+04  0.12699999809E+01 0.  1.
       -4    1    3    3    0  502  0.14375023352E+03 -0.50276647208E+03  0.37967430036E+03  0.64621392924E+03  0.12699999809E+01 0. -1.
</event>
<event>
 5   0  0.1239119E-04  0.1803643E+04  0.7818609E-02  0.8704365E-01
        1   -1    0    0  501    0  0.00000000000E+00  0.00000000000E+00  0.11256637953E+04  0.11256637953E+04  0.50400001928E-02 0. -1.
       -1   -1    0    0    0  501  0.00000000000E+00  0.00000000000E+00 -0.72249067250E+03  0.72249067251E+03  0.50400001928E-02 0.  1.
    10030    2    1    2    0    0  0.00000000000E+00  0.00000000000E+00  0.40317312282E+03  0.18481544678E+04  0.18036425283E+04 0.  0.
        5    1    3    3  502    0  0.58629850913E+03 -0.54636932581E+03 -0.22213287736E+03  0.83164324515E+03  0.46999998093E+01 0.  1.
       -5    1    3    3    0  502 -0.58629850913E+03  0.54636932581E+03  0.62530600018E+03  0.10165112227E+04  0.46999998093E+01 0. -1.
</event>
<event>
 5   0  0.1214723E-04  0.1809002E+04  0.7818609E-02  0.8701527E-01
        1   -1    0    0  501    0  0.00000000000E+00  0.00000000000E+00  0.14179047052E+04  0.14179047052E+04  0.50400001928E-02 0. -1.
       -1   -1    0    0    0  501  0.00000000000E+00  0.00000000000E+00 -0.57699354120E+03  0.57699354122E+03  0.50400001928E-02 0.  1.
    10030    2    1    2    0    0  0.00000000000E+00  0.00000000000E+00  0.84091116396E+03  0.19948982464E+04  0.18090017766E+04 0.  0.
        1    1    3    3  502    0  0.60185136477E+00  0.58712916870E+03 -0.33829015590E+03  0.67761438338E+03  0.50400001928E-02 0.  1.
       -1    1    3    3    0  502 -0.60185136477E+00 -0.58712916870E+03  0.11792013199E+04  0.13172838630E+04  0.50400001928E-02 0. -1.
</event>
<event>
 5   0  0.1253925E-04  0.1665225E+04  0.7818609E-02  0.8781450E-01
        1   -1    0    0  501    0  0.00000000000E+00  0.00000000000E+00  0.66891982344E+03  0.66891982346E+03  0.50400001928E-02 0.  1.
       -1   -1    0    0    0  501  0.00000000000E+00  0.00000000000E+00 -0.10363627093E+04  0.10363627093E+04  0.50400001928E-02 0. -1.
    10030    2    1    2    0    0  0.00000000000E+00  0.00000000000E+00 -0.36744288585E+03  0.17052825328E+04  0.16652249824E+04 0.  0.
        2    1    3    3  502    0 -0.77032818078E+03  0.16758413707E+03 -0.45803375967E+03  0.91174825150E+03  0.25500000920E-02 0. -1.
       -2    1    3    3    0  502  0.77032818078E+03 -0.16758413707E+03  0.90590873828E+02  0.79353428126E+03  0.25500000920E-02 0.  1.
</event>
<event>
 5   0  0.2431811E-04  0.1797612E+04  0.7818609E-02  0.8707570E-01
        2   -1    0    0  501    0  0.00000000000E+00  0.00000000000E+00  0.60673335319E+03  0.60673335320E+03  0.25500000920E-02 0. -1.
       -2   -1    0    0    0  501  0.00000000000E+00  0.00000000000E+00 -0.13314781848E+04  0.13314781848E+04  0.25500000920E-02 0.  1.
    10030    2    1    2    0    0  0.00000000000E+00  0.00000000000E+00 -0.72474483158E+03  0.19382115380E+04  0.17976119979E+04 0.  0.
        3    1    3    3  502    0  0.45238243972E+03 -0.66337572339E+03 -0.79786300921E+03  0.11319463829E+04  0.10100000352E+00 0.  1.
       -3    1    3    3    0  502 -0.45238243972E+03  0.66337572339E+03  0.73118177628E+02  0.80626515505E+03  0.10100000352E+00 0. -1.
</event>
<event>
 5   0  0.2550616E-04  0.1782990E+04  0.7818609E-02  0.8715398E-01
       -2   -1    0    0    0  501  0.00000000000E+00  0.00000000000E+00  0.11353826837E+04  0.11353826837E+04  0.25500000920E-02 0.  1.
        2   -1    0    0  501    0  0.00000000000E+00  0.00000000000E+00 -0.69999623491E+03  0.69999623492E+03  0.25500000920E-02 0. -1.
    10030    2    1    2    0    0  0.00000000000E+00  0.00000000000E+00  0.43538644881E+03  0.18353789186E+04  0.17829903015E+04 0.  0.
        1    1    3    3  502    0  0.28734963725E+03  0.73460850991E+03 -0.20989609524E+03  0.81625721907E+03  0.50400001928E-02 0. -1.
       -1    1    3    3    0  502 -0.28734963725E+03 -0.73460850991E+03  0.64528254405E+03  0.10191216996E+04  0.50400001928E-02 0.  1.
</event>
<event>
 5   0  0.1253925E-04  0.1800964E+04  0.7818609E-02  0.8705787E-01
       -1   -1    0    0    0  501  0.00000000000E+00  0.00000000000E+00  0.10546222005E+04  0.10546222005E+04  0.50400001928E-02 0. -1.
        1   -1    0    0  501    0  0.00000000000E+00  0.00000000000E+00 -0.76887034668E+03  0.76887034669E+03  0.50400001928E-02 0.  1.
    10030    2    1    2    0    0  0.00000000000E+00  0.00000000000E+00  0.28575185385E+03  0.18234925472E+04  0.18009638941E+04 0.  0.
        2    1    3    3  502    0 -0.81049066061E+02 -0.48291836200E+03 -0.62228141141E+03  0.79184168270E+03  0.25500000920E-02 0.  1.
       -2    1    3    3    0  502  0.81049066061E+02  0.48291836200E+03  0.90803326526E+03  0.10316508645E+04  0.25500000920E-02 0. -1.
</event>
<event>
 5   0  0.1308893E-04  0.1828485E+04  0.7818609E-02  0.8691297E-01
       -1   -1    0    0    0  501  0.00000000000E+00  0.00000000000E+00  0.64656366877E+03  0.64656366879E+03  0.50400001928E-02 0. -1.
        1   -1    0    0  501    0  0.00000000000E+00  0.00000000000E+00 -0.12927403563E+04  0.12927403564E+04  0.50400001928E-02 0.  1.
    10030    2    1    2    0    0  0.00000000000E+00  0.00000000000E+00 -0.64617668757E+03  0.19393040251E+04  0.18284845611E+04 0.  0.
        4    1    3    3  502    0 -0.72995751362E+02  0.15064345861E+03 -0.12763468582E+04  0.12872780378E+04  0.12699999809E+01 0.  1.
       -4    1    3    3    0  502  0.72995751362E+02 -0.15064345861E+03  0.63017017060E+03  0.65202598733E+03  0.12699999809E+01 0. -1.
</event>
<event>
 5   0  0.1330225E-04  0.1750888E+04  0.7818609E-02  0.8732862E-01
        1   -1    0    0  501    0  0.00000000000E+00  0.00000000000E+00  0.12085829352E+04  0.12085829352E+04  0.50400001928E-02 0. -1.
       -1   -1    0    0    0  501  0.00000000000E+00  0.00000000000E+00 -0.63413301735E+03  0.63413301737E+03  0.50400001928E-02 0.  1.
    10030    2    1    2    0    0  0.00000000000E+00  0.00000000000E+00  0.57444991784E+03  0.18427159526E+04  0.17508881671E+04 0.  0.
        3    1    3    3  502    0 -0.46796696366E+02 -0.42691414204E+03 -0.51564522673E+03  0.67107050711E+03  0.10100000352E+00 0.  1.
       -3    1    3    3    0  502  0.46796696366E+02  0.42691414204E+03  0.10900951446E+04  0.11716454455E+04  0.10100000352E+00 0. -1.
</event>
<event>
 5   0  0.1308893E-04  0.1790314E+04  0.7818609E-02  0.8711468E-01
        1   -1    0    0  501    0  0.00000000000E+00  0.00000000000E+00  0.70785203323E+03  0.70785203325E+03  0.50400001928E-02 0.  1.
       -1   -1    0    0    0  501  0.00000000000E+00  0.00000000000E+00 -0.11320242254E+04  0.11320242255E+04  0.50400001928E-02 0. -1.
    10030    2    1    2    0    0  0.00000000000E+00  0.00000000000E+00 -0.42417219222E+03  0.18398762587E+04  0.17903135476E+04 0.  0.
        4    1    3    3  502    0  0.91710130242E+02  0.39829900124E+03  0.60636015590E+03  0.73125036338E+03  0.12699999809E+01 0.  1.
       -4    1    3    3    0  502 -0.91710130242E+02 -0.39829900124E+03 -0.10305323481E+04  0.11086258953E+04  0.12699999809E+01 0. -1.
</event>
<event>
 5   0  0.2569405E-04  0.1763090E+04  0.7818609E-02  0.8726178E-01
       -2   -1    0    0    0  501  0.00000000000E+00  0.00000000000E+00  0.55435656197E+03  0.55435656198E+03  0.25500000920E-02 0. -1.
        2   -1    0    0  501    0  0.00000000000E+00  0.00000000000E+00 -0.14018447480E+04  0.14018447480E+04  0.25500000920E-02 0.  1.
    10030    2    1    2    0    0  0.00000000000E+00  0.00000000000E+00 -0.84748818600E+03  0.19562013100E+04  0.17630902812E+04 0.  0.
        2    1    3    3  502    0 -0.45722099659E+02 -0.87221712122E+03 -0.29120928630E+03  0.92068239115E+03  0.25500000920E-02 0. -1.
       -2    1    3    3    0  502  0.45722099659E+02  0.87221712122E+03 -0.55627889970E+03  0.10355189188E+04  0.25500000920E-02 0.  1.
</event>
<event>
 5   0  0.2550616E-04  0.1804717E+04  0.7818609E-02  0.8703795E-01
        2   -1    0    0  501    0  0.00000000000E+00  0.00000000000E+00  0.97047199030E+03  0.97047199031E+03  0.25500000920E-02 0.  1.
       -2   -1    0    0    0  501  0.00000000000E+00  0.00000000000E+00 -0.83902540898E+03  0.83902540898E+03  0.25500000920E-02 0. -1.
    10030    2    1    2    0    0  0.00000000000E+00  0.00000000000E+00  0.13144658132E+03  0.18094973993E+04  0.18047167740E+04 0.  0.
        1    1    3    3  502    0 -0.44908313194E+03 -0.81855534071E+02 -0.71471812258E+03  0.84805541247E+03  0.50400001928E-02 0. -1.
       -1    1    3    3    0  502  0.44908313194E+03  0.81855534071E+02  0.84616470390E+03  0.96144198682E+03  0.50400001928E-02 0.  1.
</event>
<event>
 5   0  0.1214723E-04  0.1804171E+04  0.7818609E-02  0.8704085E-01
       -1   -1    0    0    0  501  0.00000000000E+00  0.00000000000E+00  0.11757725188E+04  0.11757725188E+04  0.50400001928E-02 0. -1.
        1   -1    0    0  501    0  0.00000000000E+00  0.00000000000E+00 -0.69210509502E+03  0.69210509504E+03  0.50400001928E-02 0.  1.
    10030    2    1    2    0    0  0.00000000000E+00  0.00000000000E+00  0.48366742377E+03  0.18678776138E+04  0.18041708909E+04 0.  0.
        1    1    3    3  502    0  0.65542671311E+03 -0.31229709332E+03  0.79613074287E+03  0.10774682411E+04  0.50400001928E-02 0. -1.
       -1    1    3    3    0  502 -0.65542671311E+03  0.31229709332E+03 -0.31246331910E+03  0.79040937277E+03  0.50400001928E-02 0.  1.
</event>
<event>
 5   0  0.2569405E-04  0.1815165E+04  0.7818609E-02  0.8698276E-01
        2   -1    0    0  501    0  0.00000000000E+00  0.00000000000E+00  0.22050998839E+04  0.22050998839E+04  0.25500000920E-02 0.  1.
       -2   -1    0    0    0  501  0.00000000000E+00  0.00000000000E+00 -0.37354596948E+03  0.37354596949E+03  0.25500000920E-02 0. -1.
    10030    2    1    2    0    0  0.00000000000E+00  0.00000000000E+00  0.18315539145E+04  0.25786458534E+04  0.18151651979E+04 0.  0.
        2    1    3    3  502    0  0.81728415587E+03 -0.37611191914E+03  0.10856135497E+04  0.14099540228E+04  0.25500000920E-02 0. -1.
       -2    1    3    3    0  502 -0.81728415587E+03  0.37611191914E+03  0.74594036471E+03  0.11686918306E+04  0.25500000920E-02 0.  1.
</event>
<event>
 5   0  0.1330225E-04  0.1804781E+04  0.7818609E-02  0.8703761E-01
       -1   -1    0    0    0  501  0.00000000000E+00  0.00000000000E+00  0.66063015284E+03  0.66063015286E+03  0.50400001928E-02 0.  1.
        1   -1    0    0  501    0  0.00000000000E+00  0.00000000000E+00 -0.12326245294E+04  0.12326245294E+04  0.50400001928E-02 0. -1.
    10030    2    1    2    0    0  0.00000000000E+00  0.00000000000E+00 -0.57199437660E+03  0.18932546823E+04  0.18047813511E+04 0.  0.
        3    1    3    3  502    0  0.29983623136E+03  0.17372853669E+03 -0.11600440982E+04  0.12106963658E+04  0.10100000352E+00 0. -1.
       -3    1    3    3    0  502 -0.29983623136E+03 -0.17372853669E+03  0.58804972164E+03  0.68255831650E+03  0.10100000352E+00 0.  1.
</event>
<event>
 5   0  0.2550616E-04  0.1777120E+04  0.7818609E-02  0.8718562E-01
       -2   -1    0    0    0  501  0.00000000000E+00  0.00000000000E+00  0.70778599935E+03  0.70778599935E+03  0.25500000920E-02 0. -1.
        2   -1    0    0  501    0  0.00000000000E+00  0.00000000000E+00 -0.11155046375E+04  0.11155046375E+04  0.25500000920E-02 0.  1.
    10030    2    1    2    0    0  0.00000000000E+00  0.00000000000E+00 -0.40771863818E+03  0.18232906369E+04  0.17771196523E+04 0.  0.
        1    1    3    3  502    0 -0.40480877530E+03 -0.50788774974E+03  0.41829331589E+03  0.77252146186E+03  0.50400001928E-02 0. -1.
       -1    1    3    3    0  502  0.40480877530E+03  0.50788774974E+03 -0.82601195407E+03  0.10507691750E+04  0.50400001928E-02 0.  1.
</event>
<event>
 5   0  0.1330225E-04  0.1817909E+04  0.7818609E-02  0.8696833E-01
       -1   -1    0    0    0  501  0.00000000000E+00  0.00000000000E+00  0.72833414495E+03  0.72833414496E+03  0.50400001928E-02 0. -1.
        1   -1    0    0  501    0  0.00000000000E+00  0.00000000000E+00 -0.11343667617E+04  0.11343667617E+04  0.50400001928E-02 0.  1.
    10030    2    1    2    0    0  0.00000000000E+00  0.00000000000E+00 -0.40603261679E+03  0.18627009067E+04  0.18179087386E+04 0.  0.
        3    1    3    3  502    0  0.51325458921E+03 -0.66907019744E+03  0.14462623575E+03  0.85557113130E+03  0.10100000352E+00 0.  1.
       -3    1    3    3    0  502 -0.51325458921E+03  0.66907019744E+03 -0.55065885253E+03  0.10071297754E+04  0.10100000352E+00 0. -1.
</event>
<event>
 5   0  0.2393421E-04  0.1814665E+04  0.7818609E-02  0.8698539E-01
       -2   -1    0    0    0  501  0.00000000000E+00  0.00000000000E+00  0.95116492672E+03  0.95116492672E+03  0.25500000920E-02 0. -1.
        2   -1    0    0  501    0  0.00000000000E+00  0.00000000000E+00 -0.86552043951E+03  0.86552043951E+03  0.25500000920E-02 0.  1.
    10030    2    1    2    0    0  0.00000000000E+00  0.00000000000E+00  0.85644487211E+02  0.18166853662E+04  0.18146654628E+04 0.  0.
        5    1    3    3  502    0 -0.27336512207E+03  0.81681741756E+03 -0.24264671790E+03  0.89488474303E+03  0.46999998093E+01 0.  1.
       -5    1    3    3    0  502  0.27336512207E+03 -0.81681741756E+03  0.32829120511E+03  0.92180062321E+03  0.46999998093E+01 0. -1.
</event>
<event>
 5   0  0.2550616E-04  0.1829628E+04  0.7818609E-02  0.8690700E-01
       -2   -1    0    0    0  501  0.00000000000E+00  0.00000000000E+00  0.65188691283E+03  0.65188691284E+03  0.25500000920E-02 0.  1.
        2   -1    0    0  501    0  0.00000000000E+00  0.00000000000E+00 -0.12837881846E+04  0.12837881846E+04  0.25500000920E-02 0. -1.
    10030    2    1    2    0    0  0.00000000000E+00  0.00000000000E+00 -0.63190127177E+03  0.19356750974E+04  0.18296280676E+04 0.  0.
        1    1    3    3  502    0  0.37937853556E+03 -0.76184043567E+03 -0.67088951733E+03  0.10837073715E+04  0.50400001928E-02 0. -1.
       -1    1    3    3    0  502 -0.37937853556E+03  0.76184043567E+03  0.38988245558E+02  0.85196772590E+03  0.50400001928E-02 0.  1.
</event>
<event>
 5   0  0.1253925E-04  0.1780757E+04  0.7818609E-02  0.8716600E-01
       -1   -1    0    0    0  501  0.00000000000E+00  0.00000000000E+00  0.65523576241E+03  0.65523576243E+03  0.50400001928E-02 0. -1.
        1   -1    0    0  501    0  0.00000000000E+00  0.00000000000E+00 -0.12099067831E+04  0.12099067831E+04  0.50400001928E-02 0.  1.
    10030    2    1    2    0    0  0.00000000000E+00  0.00000000000E+00 -0.55467102072E+03  0.18651425456E+04  0.17807573597E+04 0.  0.
        2    1    3    3  502    0 -0.17762188909E+03 -0.70068030484E+03  0.26717669949E+03  0.77063987299E+03  0.25500000920E-02 0. -1.
       -2    1    3    3    0  502  0.17762188909E+03  0.70068030484E+03 -0.82184772021E+03  0.10945026726E+04  0.25500000920E-02 0.  1.
</event>
<event>
 5   0  0.2569405E-04  0.1804274E+04  0.7818609E-02  0.8704030E-01
       -2   -1    0    0    0  501  0.00000000000E+00  0.00000000000E+00  0.58568999352E+03  0.58568999352E+03  0.25500000920E-02 0.  1.
        2   -1    0    0  501    0  0.00000000000E+00  0.00000000000E+00 -0.13895594360E+04  0.13895594360E+04  0.25500000920E-02 0. -1.
    10030    2    1    2    0    0  0.00000000000E+00  0.00000000000E+00 -0.80386944248E+03  0.19752494295E+04  0.18042738784E+04 0.  0.
        2    1    3    3  502    0 -0.18410140337E+03  0.80955696453E+03 -0.15536276431E+02  0.83037171281E+03  0.25500000920E-02 0.  1.
       -2    1    3    3    0  502  0.18410140337E+03 -0.80955696453E+03 -0.78833316605E+03  0.11448777167E+04  0.25500000920E-02 0. -1.
</event>
<event>
 5   0  0.2550616E-04  0.1980645E+04  0.7818609E-02  0.8615723E-01
       -2   -1    0    0    0  501  0.00000000000E+00  0.00000000000E+00  0.97347391122E+03  0.97347391122E+03  0.25500000920E-02 0.  1.
        2   -1    0    0  501    0  0.00000000000E+00  0.00000000000E+00 -0.10074629761E+04  0.10074629761E+04  0.25500000920E-02 0. -1.
    10030    2    1    2    0    0  0.00000000000E+00  0.00000000000E+00 -0.33989064907E+02  0.19809368873E+04  0.19806452724E+04 0.  0.
        1    1    3    3  502    0 -0.64660910831E+03  0.88944095570E+02 -0.76190250758E+03  0.10032496310E+04  0.50400001928E-02 0. -1.
       -1    1    3    3    0  502  0.64660910831E+03 -0.88944095570E+02  0.72791344268E+03  0.97768725631E+03  0.50400001928E-02 0.  1.
</event>
<event>
 5   0  0.1253925E-04  0.1804586E+04  0.7818609E-02  0.8703865E-01
       -1   -1    0    0    0  501  0.00000000000E+00  0.00000000000E+00  0.45413105455E+03  0.45413105457E+03  0.50400001928E-02 0.  1.
        1   -1    0    0  501    0  0.00000000000E+00  0.00000000000E+00 -0.17927258245E+04  0.17927258245E+04  0.50400001928E-02 0. -1.
    10030    2    1    2    0    0  0.00000000000E+00  0.00000000000E+00 -0.13385947699E+04  0.22468568791E+04  0.18045857909E+04 0.  0.
        2    1    3    3  502    0  0.75375799828E+03 -0.21670645096E+03 -0.11384623574E+03  0.79251105434E+03  0.25500000920E-02 0.  1.
       -2    1    3    3    0  502 -0.75375799828E+03  0.21670645096E+03 -0.12247485342E+04  0.14543458247E+04  0.25500000920E-02 0. -1.
</event>
<event>
 5   0  0.1308893E-04  0.1858170E+04  0.7818609E-02  0.8675963E-01
        1   -1    0    0  501    0  0.00000000000E+00  0.00000000000E+00  0.60629650630E+03  0.60629650632E+03  0.50400001928E-02 0.  1.
       -1   -1    0    0    0  501  0.00000000000E+00  0.00000000000E+00 -0.14237242462E+04  0.14237242462E+04  0.50400001928E-02 0. -1.
    10030    2    1    2    0    0  0.00000000000E+00  0.00000000000E+00 -0.81742773991E+03  0.20300207525E+04  0.18581701068E+04 0.  0.
        4    1    3    3  502    0 -0.87740271441E+02  0.66423539173E+03 -0.11118953922E+04  0.12981602317E+04  0.12699999809E+01 0. -1.
       -4    1    3    3    0  502  0.87740271441E+02 -0.66423539173E+03  0.29446765233E+03  0.73186052089E+03  0.12699999809E+01 0.  1.
</event>
<event>
 5   0  0.2393421E-04  0.1809762E+04  0.7818609E-02  0.8701125E-01
        2   -1    0    0  501    0  0.00000000000E+00  0.00000000000E+00  0.97260100369E+03  0.97260100370E+03  0.25500000920E-02 0. -1.
       -2   -1    0    0    0  501  0.00000000000E+00  0.00000000000E+00 -0.84187640272E+03  0.84187640273E+03  0.25500000920E-02 0.  1.
    10030    2    1    2    0    0  0.00000000000E+00  0.00000000000E+00  0.13072460097E+03  0.18144774064E+04  0.18097622322E+04 0.  0.
        5    1    3    3  502    0 -0.74575194968E+02  0.57586988683E+03  0.76114456512E+03  0.95736655743E+03  0.46999998093E+01 0. -1.
       -5    1    3    3    0  502  0.74575194968E+02 -0.57586988683E+03 -0.63041996415E+03  0.85711084900E+03  0.46999998093E+01 0.  1.
</event>
<event>
 5   0  0.1330225E-04  0.1675365E+04  0.7818609E-02  0.8775541E-01
        1   -1    0    0  501    0  0.00000000000E+00  0.00000000000E+00  0.14159167070E+04  0.14159167070E+04  0.50400001928E-02 0. -1.
       -1   -1    0    0    0  501  0.00000000000E+00  0.00000000000E+00 -0.49558859949E+03  0.49558859951E+03  0.50400001928E-02 0.  1.
    10030    2    1    2    0    0  0.00000000000E+00  0.00000000000E+00  0.92032810751E+03  0.19115053065E+04  0.16753652472E+04 0.  0.
        3    1    3    3  502    0  0.83627703730E+03 -0.19851464869E+02  0.40966752987E+03  0.93144020689E+03  0.10100000352E+00 0. -1.
       -3    1    3    3    0  502 -0.83627703730E+03  0.19851464869E+02  0.51066057764E+03  0.98006509964E+03  0.10100000352E+00 0.  1.
</event>
<event>
 5   0  0.1330225E-04  0.1810241E+04  0.7818609E-02  0.8700872E-01
        1   -1    0    0  501    0  0.00000000000E+00  0.00000000000E+00  0.15174783019E+04  0.15174783019E+04  0.50400001928E-02 0. -1.
       -1   -1    0    0    0  501  0.00000000000E+00  0.00000000000E+00 -0.53987134422E+03  0.53987134425E+03  0.50400001928E-02 0.  1.
    10030    2    1    2    0    0  0.00000000000E+00  0.00000000000E+00  0.97760695766E+03  0.20573496461E+04  0.18102409240E+04 0.  0.
        3    1    3    3  502    0  0.78834067726E+03 -0.41448443945E+03  0.67193499970E+03  0.11156948633E+04  0.10100000352E+00 0. -1.
       -3    1    3    3    0  502 -0.78834067726E+03  0.41448443945E+03  0.30567195796E+03  0.94165478284E+03  0.10100000352E+00 0.  1.
</event>
<event>
 5   0  0.2431811E-04  0.1799120E+04  0.7818609E-02  0.8706767E-01
        2   -1    0    0  501    0  0.00000000000E+00  0.00000000000E+00  0.24841628716E+04  0.24841628716E+04  0.25500000920E-02 0. -1.
       -2   -1    0    0    0  501  0.00000000000E+00  0.00000000000E+00 -0.32574690582E+03  0.32574690583E+03  0.25500000920E-02 0.  1.
    10030    2    1    2    0    0  0.00000000000E+00  0.00000000000E+00  0.21584159657E+04  0.28099097774E+04  0.17991201950E+04 0.  0.
        3    1    3    3  502    0  0.66896864010E+03  0.26877930498E+03  0.23894210989E+03  0.75950951166E+03  0.10100000352E+00 0.  1.
       -3    1    3    3    0  502 -0.66896864010E+03 -0.26877930498E+03  0.19194738559E+04  0.20504002657E+04  0.10100000352E+00 0. -1.
</event>
<event>
 5   0  0.2393421E-04  0.1793956E+04  0.7818609E-02  0.8709520E-01
        2   -1    0    0  501    0  0.00000000000E+00  0.00000000000E+00  0.13470759917E+04  0.13470759917E+04  0.25500000920E-02 0.  1.
       -2   -1    0    0    0  501  0.00000000000E+00  0.00000000000E+00 -0.59727105563E+03  0.59727105564E+03  0.25500000920E-02 0. -1.
    10030    2    1    2    0    0  0.00000000000E+00  0.00000000000E+00  0.74980493605E+03  0.19443470473E+04  0.17939559633E+04 0.  0.
        5    1    3    3  502    0  0.62395393164E+03 -0.60114483838E+03  0.12338386101E+03  0.87517957739E+03  0.46999998093E+01 0. -1.
       -5    1    3    3    0  502 -0.62395393164E+03  0.60114483838E+03  0.62642107504E+03  0.10691674699E+04  0.46999998093E+01 0.  1.
</event>
<event>
 5   0  0.1239119E-04  0.1791071E+04  0.7818609E-02  0.8711062E-01
       -1   -1    0    0    0  501  0.00000000000E+00  0.00000000000E+00  0.67297402411E+03  0.67297402413E+03  0.50400001928E-02 0.  1.
        1   -1    0    0  501    0  0.00000000000E+00  0.00000000000E+00 -0.11917010352E+04  0.11917010352E+04  0.50400001928E-02 0. -1.
    10030    2    1    2    0    0  0.00000000000E+00  0.00000000000E+00 -0.51872701104E+03  0.18646750593E+04  0.17910710105E+04 0.  0.
        5    1    3    3  502    0  0.10001587734E+03  0.17069667953E+03  0.64992508124E+03  0.67938592372E+03  0.46999998093E+01 0.  1.
       -5    1    3    3    0  502 -0.10001587734E+03 -0.17069667953E+03 -0.11686520923E+04  0.11852891356E+04  0.46999998093E+01 0. -1.
</event>
<event>
 5   0  0.1253925E-04  0.1810724E+04  0.7818609E-02  0.8700617E-01
        1   -1    0    0  501    0  0.00000000000E+00  0.00000000000E+00  0.16439027285E+04  0.16439027285E+04  0.50400001928E-02 0.  1.
       -1   -1    0    0    0  501  0.00000000000E+00  0.00000000000E+00 -0.49861844586E+03  0.49861844589E+03  0.50400001928E-02 0. -1.
    10030    2    1    2    0    0  0.00000000000E+00  0.00000000000E+00  0.11452842826E+04  0.21425211744E+04  0.18107238593E+04 0.  0.
        2    1    3    3  502    0  0.26075785251E+02  0.23679215475E+03  0.16061533104E+04  0.16237237843E+04  0.25500000920E-02 0.  1.
       -2    1    3    3    0  502 -0.26075785251E+02 -0.23679215475E+03 -0.46086902781E+03  0.51879739006E+03  0.25500000920E-02 0. -1.
</event>
<event>
 5   0  0.2417106E-04  0.1803085E+04  0.7818609E-02  0.8704660E-01
       -2   -1    0    0    0  501  0.00000000000E+00  0.00000000000E+00  0.40277821006E+03  0.40277821007E+03  0.25500000920E-02 0.  1.
        2   -1    0    0  501    0  0.00000000000E+00  0.00000000000E+00 -0.20179323840E+04  0.20179323840E+04  0.25500000920E-02 0. -1.
    10030    2    1    2    0    0  0.00000000000E+00  0.00000000000E+00 -0.16151541739E+04  0.24207105940E+04  0.18030853487E+04 0.  0.
        4    1    3    3  502    0 -0.52429142610E+03  0.68023554831E+03 -0.43947755159E+03  0.96475076155E+03  0.12699999809E+01 0.  1.
       -4    1    3    3    0  502  0.52429142610E+03 -0.68023554831E+03 -0.11756766223E+04  0.14559598325E+04  0.12699999809E+01 0. -1.
</event>
<event>
 5   0  0.2393421E-04  0.1812526E+04  0.7818609E-02  0.8699667E-01
        2   -1    0    0  501    0  0.00000000000E+00  0.00000000000E+00  0.90647494107E+03  0.90647494107E+03  0.25500000920E-02 0.  1.
       -2   -1    0    0    0  501  0.00000000000E+00  0.00000000000E+00 -0.90605076763E+03  0.90605076763E+03  0.25500000920E-02 0. -1.
    10030    2    1    2    0    0  0.00000000000E+00  0.00000000000E+00  0.42417343705E+00  0.18125257087E+04  0.18125256591E+04 0.  0.
        5    1    3    3  502    0  0.18230148165E+03  0.35693333047E+03 -0.81259479672E+03  0.90607263852E+03  0.46999998093E+01 0. -1.
       -5    1    3    3    0  502 -0.18230148165E+03 -0.35693333047E+03  0.81301897016E+03  0.90645307018E+03  0.46999998093E+01 0.  1.
</event>
<event>
 5   0  0.1214723E-04  0.1811550E+04  0.7818609E-02  0.8700181E-01
        1   -1    0    0  501    0  0.00000000000E+00  0.00000000000E+00  0.12523213990E+04  0.12523213990E+04  0.50400001928E-02 0.  1.
       -1   -1    0    0    0  501  0.00000000000E+00  0.00000000000E+00 -0.65512591007E+03  0.65512591009E+03  0.50400001928E-02 0. -1.
    10030    2    1    2    0    0  0.00000000000E+00  0.00000000000E+00  0.59719548897E+03  0.19074473091E+04  0.18115498296E+04 0.  0.
        1    1    3    3  502    0 -0.86386288725E+03  0.14586428368E+03  0.54075652000E+03  0.10295402329E+04  0.50400001928E-02 0.  1.
       -1    1    3    3    0  502  0.86386288725E+03 -0.14586428368E+03  0.56438968962E+02  0.87790707622E+03  0.50400001928E-02 0. -1.
</event>
<event>
 5   0  0.2569405E-04  0.1799230E+04  0.7818609E-02  0.8706709E-01
       -2   -1    0    0    0  501  0.00000000000E+00  0.00000000000E+00  0.46006444702E+03  0.46006444703E+03  0.25500000920E-02 0.  1.
        2   -1    0    0  501    0  0.00000000000E+00  0.00000000000E+00 -0.17591173387E+04  0.17591173388E+04  0.25500000920E-02 0. -1.
    10030    2    1    2    0    0  0.00000000000E+00  0.00000000000E+00 -0.12990528917E+04  0.22191817858E+04  0.17992302195E+04 0.  0.
        2    1    3    3  502    0  0.57096628564E+03  0.10944353600E+02 -0.15068858079E+04  0.16114673798E+04  0.25500000920E-02 0. -1.
       -2    1    3    3    0  502 -0.57096628564E+03 -0.10944353600E+02  0.20783291613E+03  0.60771440599E+03  0.25500000920E-02 0.  1.
</event>
<event>
 5   0  0.1253925E-04  0.1784323E+04  0.7818609E-02  0.8714681E-01
       -1   -1    0    0    0  501  0.00000000000E+00  0.00000000000E+00  0.67242152502E+03  0.67242152504E+03  0.50400001928E-02 0. -1.
        1   -1    0    0  501    0  0.00000000000E+00  0.00000000000E+00 -0.11837106825E+04  0.11837106825E+04  0.50400001928E-02 0.  1.
    10030    2    1    2    0    0  0.00000000000E+00  0.00000000000E+00 -0.51128915751E+03  0.18561322076E+04  0.17843234487E+04 0.  0.
        2    1    3    3  502    0 -0.66995214096E+03  0.44475498327E+02  0.35548329319E+03  0.75972515614E+03  0.25500000920E-02 0. -1.
       -2    1    3    3    0  502  0.66995214096E+03 -0.44475498327E+02 -0.86677245071E+03  0.10964070514E+04  0.25500000920E-02 0.  1.
</event>
<event>
 5   0  0.2550616E-04  0.1741685E+04  0.7818609E-02  0.8737941E-01
        2   -1    0    0  501    0  0.00000000000E+00  0.00000000000E+00  0.13111875880E+04  0.13111875880E+04  0.25500000920E-02 0.  1.
       -2   -1    0    0    0  501  0.00000000000E+00  0.00000000000E+00 -0.57838131074E+03  0.57838131074E+03  0.25500000920E-02 0. -1.
    10030    2    1    2    0    0  0.00000000000E+00  0.00000000000E+00  0.73280627726E+03  0.18895688987E+04  0.17416846968E+04 0.  0.
        1    1    3    3  502    0 -0.15178485043E+01 -0.68791892488E+03 -0.21291337139E+03  0.72011586208E+03  0.50400001928E-02 0. -1.
       -1    1    3    3    0  502  0.15178485043E+01  0.68791892488E+03  0.94571964865E+03  0.11694530367E+04  0.50400001928E-02 0.  1.
</event>
<event>
 5   0  0.1214723E-04  0.1803143E+04  0.7818609E-02  0.8704630E-01
        1   -1    0    0  501    0  0.00000000000E+00  0.00000000000E+00  0.19129590352E+04  0.19129590352E+04  0.50400001928E-02 0. -1.
       -1   -1    0    0    0  501  0.00000000000E+00  0.00000000000E+00 -0.42490796810E+03  0.42490796813E+03  0.50400001928E-02 0.  1.
    10030    2    1    2    0    0  0.00000000000E+00  0.00000000000E+00  0.14880510671E+04  0.23378670034E+04  0.18031434072E+04 0.  0.
        1    1    3    3  502    0 -0.24176274645E+03  0.18370889977E+03 -0.35661806459E+03  0.46837445431E+03  0.50400001928E-02 0.  1.
       -1    1    3    3    0  502  0.24176274645E+03 -0.18370889977E+03  0.18446691317E+04  0.18694925490E+04  0.50400001928E-02 0. -1.
</event>
<event>
 5   0  0.1330225E-04  0.1804791E+04  0.7818609E-02  0.8703756E-01
       -1   -1    0    0    0  501  0.00000000000E+00  0.00000000000E+00  0.49567016672E+03  0.49567016675E+03  0.50400001928E-02 0.  1.
        1   -1    0    0  501    0  0.00000000000E+00  0.00000000000E+00 -0.16428625207E+04  0.16428625207E+04  0.50400001928E-02 0. -1.
    10030    2    1    2    0    0  0.00000000000E+00  0.00000000000E+00 -0.11471923540E+04  0.21385326875E+04  0.18047913337E+04 0.  0.
        3    1    3    3  502    0  0.83801971093E+03  0.24861490545E+03 -0.83916498592E+03  0.12117278122E+04  0.10100000352E+00 0. -1.
       -3    1    3    3    0  502 -0.83801971093E+03 -0.24861490545E+03 -0.30802736810E+03  0.92680487527E+03  0.10100000352E+00 0.  1.
</event>
<event>
 5   0  0.2417106E-04  0.1722323E+04  0.7818609E-02  0.8748734E-01
        2   -1    0    0  501    0  0.00000000000E+00  0.00000000000E+00  0.13675272128E+04  0.13675272128E+04  0.25500000920E-02 0.  1.
       -2   -1    0    0    0  501  0.00000000000E+00  0.00000000000E+00 -0.54229193091E+03  0.54229193091E+03  0.25500000920E-02 0. -1.
    10030    2    1    2    0    0  0.00000000000E+00  0.00000000000E+00  0.82523528189E+03  0.19098191437E+04  0.17223228185E+04 0.  0.
        4    1    3    3  502    0 -0.17138325190E+03 -0.79492847322E+03  0.72686594713E+03  0.10906966648E+04  0.12699999809E+01 0.  1.
       -4    1    3    3    0  502  0.17138325190E+03  0.79492847322E+03  0.98369334764E+02  0.81912247893E+03  0.12699999809E+01 0. -1.
</event>
<event>
 5   0  0.2550616E-04  0.1801790E+04  0.7818609E-02  0.8705348E-01
       -2   -1    0    0    0  501  0.00000000000E+00  0.00000000000E+00  0.61859807462E+03  0.61859807462E+03  0.25500000920E-02 0. -1.
        2   -1    0    0  501    0  0.00000000000E+00  0.00000000000E+00 -0.13120185794E+04  0.13120185795E+04  0.25500000920E-02 0.  1.
    10030    2    1    2    0    0  0.00000000000E+00  0.00000000000E+00 -0.69342050483E+03  0.19306166541E+04  0.18017904064E+04 0.  0.
        1    1    3    3  502    0  0.49552142977E+02  0.88973993734E+03 -0.48853558908E+03  0.10162478009E+04  0.50400001928E-02 0.  1.
       -1    1    3    3    0  502 -0.49552142977E+02 -0.88973993734E+03 -0.20488491576E+03  0.91436885320E+03  0.50400001928E-02 0. -1.
</event>
<event>
 5   0  0.2393421E-04  0.1753580E+04  0.7818609E-02  0.8731382E-01
        2   -1    0    0  501    0  0.00000000000E+00  0.00000000000E+00  0.18646700644E+04  0.18646700644E+04  0.25500000920E-02 0. -1.
       -2   -1    0    0    0  501  0.00000000000E+00  0.00000000000E+00 -0.41227687070E+03  0.41227687071E+03  0.25500000920E-02 0.  1.
    10030    2    1    2    0    0  0.00000000000E+00  0.00000000000E+00  0.14523931937E+04  0.22769469351E+04  0.17535795837E+04 0.  0.
        5    1    3    3  502    0 -0.43917681789E+03 -0.22817664825E+03 -0.21354639029E+03  0.53904082497E+03  0.46999998093E+01 0.  1.
       -5    1    3    3    0  502  0.43917681789E+03  0.22817664825E+03  0.16659395840E+04  0.17379061102E+04  0.46999998093E+01 0. -1.
</event>
<event>
 5   0  0.1308893E-04  0.1822187E+04  0.7818609E-02  0.8694589E-01
        1   -1    0    0  501    0  0.00000000000E+00  0.00000000000E+00  0.13875443003E+04  0.13875443003E+04  0.50400001928E-02 0. -1.
       -1   -1    0    0    0  501  0.00000000000E+00  0.00000000000E+00 -0.59824525072E+03  0.59824525074E+03  0.50400001928E-02 0.  1.
    10030    2    1    2    0    0  0.00000000000E+00  0.00000000000E+00  0.78929904955E+03  0.19857895510E+04  0.18221874633E+04 0.  0.
        4    1    3    3  502    0  0.87509972299E+03  0.24555902292E+03  0.32579956922E+03  0.96552873138E+03  0.12699999809E+01 0.  1.
       -4    1    3    3    0  502 -0.87509972299E+03 -0.24555902292E+03  0.46349948033E+03  0.10202608196E+04  0.12699999809E+01 0. -1.
</event>
<event>
 5   0  0.1239119E-04  0.1802703E+04  0.7818609E-02  0.8704864E-01
        1   -1    0    0  501    0  0.00000000000E+00  0.00000000000E+00  0.56371828398E+03  0.56371828400E+03  0.50400001928E-02 0. -1.
       -1   -1    0    0    0  501  0.00000000000E+00  0.00000000000E+00 -0.14412058712E+04  0.14412058712E+04  0.50400001928E-02 0.  1.
    10030    2    1    2    0    0  0.00000000000E+00  0.00000000000E+00 -0.87748758725E+03  0.20049241552E+04  0.18027025274E+04 0.  0.
        5    1    3    3  502    0  0.23097982888E+03 -0.85945416317E+03 -0.27989755231E+03  0.93294044276E+03  0.46999998093E+01 0. -1.
       -5    1    3    3    0  502 -0.23097982888E+03  0.85945416317E+03 -0.59759003494E+03  0.10719837125E+04  0.46999998093E+01 0.  1.
</event>
<event>
 5   0  0.2569405E-04  0.1895589E+04  0.7818609E-02  0.8657055E-01
       -2   -1    0    0    0  501  0.00000000000E+00  0.00000000000E+00  0.14461414288E+04  0.14461414288E+04  0.25500000920E-02 0.  1.
        2   -1    0    0  501    0  0.00000000000E+00  0.00000000000E+00 -0.62117989976E+03  0.62117989977E+03  0.25500000920E-02 0. -1.
    10030    2    1    2    0    0  0.00000000000E+00  0.00000000000E+00  0.82496152904E+03  0.20673213286E+04  0.18955885501E+04 0.  0.
        2    1    3    3  502    0 -0.36128868964E+03 -0.44480499761E+02  0.13668650467E+04  0.14145063054E+04  0.25500000920E-02 0.  1.
       -2    1    3    3    0  502  0.36128868964E+03  0.44480499761E+02 -0.54190351762E+03  0.65281502321E+03  0.25500000920E-02 0. -1.
</event>
<event>
 5   0  0.1308893E-04  0.1798762E+04  0.7818609E-02  0.8706958E-01
        1   -1    0    0  501    0  0.00000000000E+00  0.00000000000E+00  0.14476219455E+04  0.14476219456E+04  0.50400001928E-02 0.  1.
       -1   -1    0    0    0  501  0.00000000000E+00  0.00000000000E+00 -0.55876923663E+03  0.55876923665E+03  0.50400001928E-02 0. -1.
    10030    2    1    2    0    0  0.00000000000E+00  0.00000000000E+00  0.88885270892E+03  0.20063911822E+04  0.17987624740E+04 0.  0.
        4    1    3    3  502    0 -0.30055394444E+03  0.47935104181E+03 -0.33539700519E+03  0.65772551934E+03  0.12699999809E+01 0. -1.
       -4    1    3    3    0  502  0.30055394444E+03 -0.47935104181E+03  0.12242497141E+04  0.13486656629E+04  0.12699999809E+01 0.  1.
</event>
<event>
 5   0  0.2393421E-04  0.1791845E+04  0.7818609E-02  0.8710648E-01
       -2   -1    0    0    0  501  0.00000000000E+00  0.00000000000E+00  0.69947970184E+03  0.69947970185E+03  0.25500000920E-02 0. -1.
        2   -1    0    0  501    0  0.00000000000E+00  0.00000000000E+00 -0.11475344569E+04  0.11475344569E+04  0.25500000920E-02 0.  1.
    10030    2    1    2    0    0  0.00000000000E+00  0.00000000000E+00 -0.44805475501E+03  0.18470141587E+04  0.17918449260E+04 0.  0.
        5    1    3    3  502    0  0.68760216756E+03 -0.47614180210E+03  0.10702640384E+03  0.84319896682E+03  0.46999998093E+01 0. -1.
       -5    1    3    3    0  502 -0.68760216756E+03  0.47614180210E+03 -0.55508115885E+03  0.10038151919E+04  0.46999998093E+01 0.  1.
</event>
<event>
 5   0  0.1239119E-04  0.1837642E+04  0.7818609E-02  0.8686534E-01
        1   -1    0    0  501    0  0.00000000000E+00  0.00000000000E+00  0.79132640109E+03  0.79132640111E+03  0.50400001928E-02 0.  1.
       -1   -1    0    0    0  501  0.00000000000E+00  0.00000000000E+00 -0.10668567625E+04  0.10668567625E+04  0.50400001928E-02 0. -1.
    10030    2    1    2    0    0  0.00000000000E+00  0.00000000000E+00 -0.27553036142E+03  0.18581831636E+04  0.18376418828E+04 0.  0.
        5    1    3    3  502    0  0.34927330316E+02 -0.88796046662E+03  0.98331632092E+02  0.89408327831E+03  0.46999998093E+01 0.  1.
       -5    1    3    3    0  502 -0.34927330316E+02  0.88796046662E+03 -0.37386199351E+03  0.96409988532E+03  0.46999998093E+01 0. -1.
</event>
<event>
 5   0  0.1214723E-04  0.1800453E+04  0.7818609E-02  0.8706059E-01
        1   -1    0    0  501    0  0.00000000000E+00  0.00000000000E+00  0.50611808800E+03  0.50611808803E+03  0.50400001928E-02 0. -1.
       -1   -1    0    0    0  501  0.00000000000E+00  0.00000000000E+00 -0.16012218159E+04  0.16012218159E+04  0.50400001928E-02 0.  1.
    10030    2    1    2    0    0  0.00000000000E+00  0.00000000000E+00 -0.10951037279E+04  0.21073399039E+04  0.18004525253E+04 0.  0.
        1    1    3    3  502    0 -0.57755518322E+03 -0.48415478096E+03  0.28746550991E+02  0.75418976777E+03  0.50400001928E-02 0. -1.
       -1    1    3    3    0  502  0.57755518322E+03  0.48415478096E+03 -0.11238502789E+04  0.13531501362E+04  0.50400001928E-02 0.  1.
</event>
<event>
 5   0  0.2569405E-04  0.1817803E+04  0.7818609E-02  0.8696889E-01
       -2   -1    0    0    0  501  0.00000000000E+00  0.00000000000E+00  0.36277125439E+03  0.36277125440E+03  0.25500000920E-02 0. -1.
        2   -1    0    0  501    0  0.00000000000E+00  0.00000000000E+00 -0.22771976520E+04  0.22771976520E+04  0.25500000920E-02 0.  1.
    10030    2    1    2    0    0  0.00000000000E+00  0.00000000000E+00 -0.19144263976E+04  0.26399689064E+04  0.18178029032E+04 0.  0.
        2    1    3    3  502    0  0.73626150918E+03  0.91506879012E+02 -0.19473239552E+03  0.76705620698E+03  0.25500000920E-02 0.  1.
       -2    1    3    3    0  502 -0.73626150918E+03 -0.91506879012E+02 -0.17196940021E+04  0.18729126994E+04  0.25500000920E-02 0. -1.
</event>
<event>
 5   0  0.1239119E-04  0.1768836E+04  0.7818609E-02  0.8723050E-01
        1   -1    0    0  501    0  0.00000000000E+00  0.00000000000E+00  0.22348156374E+04  0.22348156374E+04  0.50400001928E-02 0.  1.
       -1   -1    0    0    0  501  0.00000000000E+00  0.00000000000E+00 -0.35000427674E+03  0.35000427678E+03  0.50400001928E-02 0. -1.
    10030    2    1    2    0    0  0.00000000000E+00  0.00000000000E+00  0.18848113607E+04  0.25848199142E+04  0.17688358102E+04 0.  0.
        5    1    3    3  502    0 -0.66685599675E+02  0.88188616440E+03  0.94483546929E+03  0.12941817222E+04  0.46999998093E+01 0.  1.
       -5    1    3    3    0  502  0.66685599675E+02 -0.88188616440E+03  0.93997589139E+03  0.12906381920E+04  0.46999998093E+01 0. -1.
</event>
<event>
 5   0  0.2550616E-04  0.1800894E+04  0.7818609E-02  0.8705824E-01
        2   -1    0    0  501    0  0.00000000000E+00  0.00000000000E+00  0.20475279200E+04  0.20475279200E+04  0.25500000920E-02 0. -1.
       -2   -1    0    0    0  501  0.00000000000E+00  0.00000000000E+00 -0.39599216270E+03  0.39599216271E+03  0.25500000920E-02 0.  1.
    10030    2    1    2    0    0  0.00000000000E+00  0.00000000000E+00  0.16515357573E+04  0.24435200827E+04  0.18008942326E+04 0.  0.
        1    1    3    3  502    0  0.79779866534E+03  0.40810053213E+03  0.94541794332E+03  0.13026295875E+04  0.50400001928E-02 0.  1.
       -1    1    3    3    0  502 -0.79779866534E+03 -0.40810053213E+03  0.70611781396E+03  0.11408904952E+04  0.50400001928E-02 0. -1.
</event>
<event>
 5   0  0.1214723E-04  0.1807003E+04  0.7818609E-02  0.8702584E-01
        1   -1    0    0  501    0  0.00000000000E+00  0.00000000000E+00  0.67767241434E+03  0.67767241436E+03  0.50400001928E-02 0.  1.
       -1   -1    0    0    0  501  0.00000000000E+00  0.00000000000E+00 -0.12045865904E+04  0.12045865905E+04  0.50400001928E-02 0. -1.
    10030    2    1    2    0    0  0.00000000000E+00  0.00000000000E+00 -0.52691417611E+03  0.18822590048E+04  0.18070031578E+04 0.  0.
        1    1    3    3  502    0  0.20293313645E+03  0.66889787733E+02  0.65097529976E+03  0.68514592788E+03  0.50400001928E-02 0.  1.
       -1    1    3    3    0  502 -0.20293313645E+03 -0.66889787733E+02 -0.11778894759E+04  0.11971130769E+04  0.50400001928E-02 0. -1.
</event>
<event>
 5   0  0.1253925E-04  0.1792485E+04  0.7818609E-02  0.8710306E-01
       -1   -1    0    0    0  501  0.00000000000E+00  0.00000000000E+00  0.55397548572E+03  0.55397548574E+03  0.50400001928E-02 0. -1.
        1   -1    0    0  501    0  0.00000000000E+00  0.00000000000E+00 -0.14499742209E+04  0.14499742209E+04  0.50400001928E-02 0.  1.
    10030    2    1    2    0    0  0.00000000000E+00  0.00000000000E+00 -0.89599873519E+03  0.20039497067E+04  0.17924845030E+04 0.  0.
        2    1    3    3  502    0  0.23291517609E+03  0.39153654196E+03  0.41487018845E+03  0.61617174246E+03  0.25500000920E-02 0. -1.
       -2    1    3    3    0  502 -0.23291517609E+03 -0.39153654196E+03 -0.13108689236E+04  0.13877779642E+04  0.25500000920E-02 0.  1.
</event>
<event>
 5   0  0.2417106E-04  0.1824077E+04  0.7818609E-02  0.8693600E-01
        2   -1    0    0  501    0  0.00000000000E+00  0.00000000000E+00  0.14665754573E+04  0.14665754573E+04  0.25500000920E-02 0. -1.
       -2   -1    0    0    0  501  0.00000000000E+00  0.00000000000E+00 -0.56718110008E+03  0.56718110009E+03  0.25500000920E-02 0.  1.
    10030    2    1    2    0    0  0.00000000000E+00  0.00000000000E+00  0.89939435718E+03  0.20337565574E+04  0.18240766225E+04 0.  0.
        4    1    3    3  502    0 -0.34837140936E+03 -0.31993290672E+02  0.13887920252E+04  0.14321770532E+04  0.12699999809E+01 0. -1.
       -4    1    3    3    0  502  0.34837140936E+03  0.31993290672E+02 -0.48939766801E+03  0.60157950419E+03  0.12699999809E+01 0.  1.
</event>
<event>
 5   0  0.2569405E-04  0.1753145E+04  0.7818609E-02  0.8731621E-01
       -2   -1    0    0    0  501  0.00000000000E+00  0.00000000000E+00  0.38069906795E+03  0.38069906796E+03  0.25500000920E-02 0. -1.
        2   -1    0    0  501    0  0.00000000000E+00  0.00000000000E+00 -0.20183370325E+04  0.20183370325E+04  0.25500000920E-02 0.  1.
    10030    2    1    2    0    0  0.00000000000E+00  0.00000000000E+00 -0.16376379645E+04  0.23990361004E+04  0.17531446342E+04 0.  0.
        2    1    3    3  502    0 -0.52806237080E+03 -0.38990187430E+03 -0.16138051727E+04  0.17421941552E+04  0.25500000920E-02 0.  1.
       -2    1    3    3    0  502  0.52806237080E+03  0.38990187430E+03 -0.23832791841E+02  0.65684194523E+03  0.25500000920E-02 0. -1.
</event>
<event>
 5   0  0.2417106E-04  0.1786724E+04  0.7818609E-02  0.8713391E-01
       -2   -1    0    0    0  501  0.00000000000E+00  0.00000000000E+00  0.37918554854E+03  0.37918554855E+03  0.25500000920E-02 0.  1.
        2   -1    0    0  501    0  0.00000000000E+00  0.00000000000E+00 -0.21047635204E+04  0.21047635204E+04  0.25500000920E-02 0. -1.
    10030    2    1    2    0    0  0.00000000000E+00  0.00000000000E+00 -0.17255779718E+04  0.24839490689E+04  0.17867242765E+04 0.  0.
        4    1    3    3  502    0 -0.22351840400E+03  0.29468351064E+03 -0.19933211310E+04  0.20273454547E+04  0.12699999809E+01 0. -1.
       -4    1    3    3    0  502  0.22351840400E+03 -0.29468351064E+03  0.26774315917E+03  0.45660361425E+03  0.12699999809E+01 0.  1.
</event>
<event>
 5   0  0.1253925E-04  0.1494176E+04  0.7818609E-02  0.8888335E-01
       -1   -1    0    0    0  501  0.00000000000E+00  0.00000000000E+00  0.67948231301E+03  0.67948231303E+03  0.50400001928E-02 0.  1.
        1   -1    0    0  501    0  0.00000000000E+00  0.00000000000E+00 -0.82141965231E+03  0.82141965232E+03  0.50400001928E-02 0. -1.
    10030    2    1    2    0    0  0.00000000000E+00  0.00000000000E+00 -0.14193733930E+03  0.15009019654E+04  0.14941755256E+04 0.  0.
        2    1    3    3  502    0 -0.41827307091E+03 -0.61681911928E+03 -0.12337572848E+03  0.75540701489E+03  0.25500000920E-02 0. -1.
       -2    1    3    3    0  502  0.41827307091E+03  0.61681911928E+03 -0.18561610824E+02  0.74549495046E+03  0.25500000920E-02 0.  1.
</event>
<event>
 5   0  0.2550616E-04  0.1808814E+04  0.7818609E-02  0.8701626E-01
       -2   -1    0    0    0  501  0.00000000000E+00  0.00000000000E+00  0.70604212098E+03  0.70604212098E+03  0.25500000920E-02 0. -1.
        2   -1    0    0  501    0  0.00000000000E+00  0.00000000000E+00 -0.11585031495E+04  0.11585031495E+04  0.25500000920E-02 0.  1.
    10030    2    1    2    0    0  0.00000000000E+00  0.00000000000E+00 -0.45246102848E+03  0.18645452704E+04  0.18088139991E+04 0.  0.
        1    1    3    3  502    0  0.57009494334E+03  0.28685976990E+03 -0.88679878743E+03  0.10925698428E+04  0.50400001928E-02 0.  1.
       -1    1    3    3    0  502 -0.57009494334E+03 -0.28685976990E+03  0.43433775894E+03  0.77197542764E+03  0.50400001928E-02 0. -1.
</event>
<event>
 5   0  0.1308893E-04  0.1808654E+04  0.7818609E-02  0.8701711E-01
       -1   -1    0    0    0  501  0.00000000000E+00  0.00000000000E+00  0.92978068460E+03  0.92978068461E+03  0.50400001928E-02 0. -1.
        1   -1    0    0  501    0  0.00000000000E+00  0.00000000000E+00 -0.87957006532E+03  0.87957006533E+03  0.50400001928E-02 0.  1.
    10030    2    1    2    0    0  0.00000000000E+00  0.00000000000E+00  0.50210619277E+02  0.18093507499E+04  0.18086539277E+04 0.  0.
        4    1    3    3  502    0  0.41041859858E+03  0.14654120294E+03  0.81780437098E+03  0.92667327161E+03  0.12699999809E+01 0. -1.
       -4    1    3    3    0  502 -0.41041859858E+03 -0.14654120294E+03 -0.76759375170E+03  0.88267747834E+03  0.12699999809E+01 0.  1.
</event>
<event>
 5   0  0.1253925E-04  0.1761360E+04  0.7818609E-02  0.8727122E-01
       -1   -1    0    0    0  501  0.00000000000E+00  0.00000000000E+00  0.10519918561E+04  0.10519918561E+04  0.50400001928E-02 0. -1.
        1   -1    0    0  501    0  0.00000000000E+00  0.00000000000E+00 -0.73726546205E+03  0.73726546207E+03  0.50400001928E-02 0.  1.
    10030    2    1    2    0    0  0.00000000000E+00  0.00000000000E+00  0.31472639401E+03  0.17892573181E+04  0.17613599994E+04 0.  0.
        2    1    3    3  502    0 -0.54905821057E+03  0.54097299160E+03  0.59011584600E+03  0.97074889026E+03  0.25500000920E-02 0. -1.
       -2    1    3    3    0  502  0.54905821057E+03 -0.54097299160E+03 -0.27538945199E+03  0.81850842788E+03  0.25500000920E-02 0.  1.
</event>
<event>
 5   0  0.1214723E-04  0.1795728E+04  0.7818609E-02  0.8708574E-01
       -1   -1    0    0    0  501  0.00000000000E+00  0.00000000000E+00  0.67186179058E+03  0.67186179059E+03  0.50400001928E-02 0. -1.
        1   -1    0    0  501    0  0.00000000000E+00  0.00000000000E+00 -0.11998898626E+04  0.11998898626E+04  0.50400001928E-02 0.  1.
    10030    2    1    2    0    0  0.00000000000E+00  0.00000000000E+00 -0.52802807200E+03  0.18717516532E+04  0.17957284334E+04 0.  0.
        1    1    3    3  502    0 -0.27131930223E+03 -0.11383517596E+03 -0.11482117416E+04  0.11853112733E+04  0.50400001928E-02 0.  1.
       -1    1    3    3    0  502  0.27131930223E+03  0.11383517596E+03  0.62018366961E+03  0.68644037987E+03  0.50400001928E-02 0. -1.
</event>
<event>
 5   0  0.2550616E-04  0.1802395E+04  0.7818609E-02  0.8705027E-01
       -2   -1    0    0    0  501  0.00000000000E+00  0.00000000000E+00  0.52547196369E+03  0.52547196370E+03  0.25500000920E-02 0. -1.
        2   -1    0    0  501    0  0.00000000000E+00  0.00000000000E+00 -0.15455766680E+04  0.15455766680E+04  0.25500000920E-02 0.  1.
    10030    2    1    2    0    0  0.00000000000E+00  0.00000000000E+00 -0.10201047043E+04  0.20710486317E+04  0.18023953027E+04 0.  0.
        1    1    3    3  502    0 -0.52183064296E+02  0.37071977855E+03  0.43189190663E+03  0.57156525913E+03  0.50400001928E-02 0. -1.
       -1    1    3    3    0  502  0.52183064296E+02 -0.37071977855E+03 -0.14519966110E+04  0.14994833726E+04  0.50400001928E-02 0.  1.
</event>
<event>
 5   0  0.1330225E-04  0.1792314E+04  0.7818609E-02  0.8710397E-01
        1   -1    0    0  501    0  0.00000000000E+00  0.00000000000E+00  0.12626809180E+04  0.12626809180E+04  0.50400001928E-02 0. -1.
       -1   -1    0    0    0  501  0.00000000000E+00  0.00000000000E+00 -0.63602589305E+03  0.63602589307E+03  0.50400001928E-02 0.  1.
    10030    2    1    2    0    0  0.00000000000E+00  0.00000000000E+00  0.62665502495E+03  0.18987068111E+04  0.17923144351E+04 0.  0.
        3    1    3    3  502    0  0.87667402774E+02  0.17723782316E+03  0.12392829377E+04  0.12549585768E+04  0.10100000352E+00 0. -1.
       -3    1    3    3    0  502 -0.87667402774E+02 -0.17723782316E+03 -0.61262791278E+03  0.64374823431E+03  0.10100000352E+00 0.  1.
</event>
<event>
 5   0  0.1239119E-04  0.1800276E+04  0.7818609E-02  0.8706153E-01
        1   -1    0    0  501    0  0.00000000000E+00  0.00000000000E+00  0.94734315447E+03  0.94734315448E+03  0.50400001928E-02 0. -1.
       -1   -1    0    0    0  501  0.00000000000E+00  0.00000000000E+00 -0.85528514901E+03  0.85528514903E+03  0.50400001928E-02 0.  1.
    10030    2    1    2    0    0  0.00000000000E+00  0.00000000000E+00  0.92058005458E+02  0.18026283035E+04  0.18002761244E+04 0.  0.
        5    1    3    3  502    0  0.65004534873E+03 -0.47466402877E+03  0.44949659087E+03  0.92191874415E+03  0.46999998093E+01 0. -1.
       -5    1    3    3    0  502 -0.65004534873E+03  0.47466402877E+03 -0.35743858541E+03  0.88070955936E+03  0.46999998093E+01 0.  1.
</event>
<event>
 5   0  0.1330225E-04  0.1757044E+04  0.7818609E-02  0.8729483E-01
        1   -1    0    0  501    0  0.00000000000E+00  0.00000000000E+00  0.12230214977E+04  0.12230214977E+04  0.50400001928E-02 0.  1.
       -1   -1    0    0    0  501  0.00000000000E+00  0.00000000000E+00 -0.63106070799E+03  0.63106070801E+03  0.50400001928E-02 0. -1.
    10030    2    1    2    0    0  0.00000000000E+00  0.00000000000E+00  0.59196078971E+03  0.18540822057E+04  0.17570438950E+04 0.  0.
        3    1    3    3  502    0 -0.32823640130E+03  0.81415614178E+03  0.25925233447E+03  0.91531477726E+03  0.10100000352E+00 0. -1.
       -3    1    3    3    0  502  0.32823640130E+03 -0.81415614178E+03  0.33270845524E+03  0.93876742846E+03  0.10100000352E+00 0.  1.
</event>
<event>
 5   0  0.2569405E-04  0.1805297E+04  0.7818609E-02  0.8703487E-01
       -2   -1    0    0    0  501  0.00000000000E+00  0.00000000000E+00  0.44702462971E+03  0.44702462972E+03  0.25500000920E-02 0.  1.
        2   -1    0    0  501    0  0.00000000000E+00  0.00000000000E+00 -0.18226615526E+04  0.18226615526E+04  0.25500000920E-02 0. -1.
    10030    2    1    2    0    0  0.00000000000E+00  0.00000000000E+00 -0.13756369229E+04  0.22696861823E+04  0.18052973225E+04 0.  0.
        2    1    3    3  502    0  0.78581943336E+03  0.36736384748E+03 -0.37399688227E+03  0.94463857969E+03  0.25500000920E-02 0.  1.
       -2    1    3    3    0  502 -0.78581943336E+03 -0.36736384748E+03 -0.10016400406E+04  0.13250476027E+04  0.25500000920E-02 0. -1.
</event>
<event>
 5   0  0.2569405E-04  0.1775330E+04  0.7818609E-02  0.8719530E-01
        2   -1    0    0  501    0  0.00000000000E+00  0.00000000000E+00  0.12056622595E+04  0.12056622595E+04  0.25500000920E-02 0. -1.
       -2   -1    0    0    0  501  0.00000000000E+00  0.00000000000E+00 -0.65354081044E+03  0.65354081045E+03  0.25500000920E-02 0.  1.
    10030    2    1    2    0    0  0.00000000000E+00  0.00000000000E+00  0.55212144908E+03  0.18592030700E+04  0.17753303808E+04 0.  0.
        2    1    3    3  502    0  0.37089634943E+03 -0.14927494948E+03 -0.55391016741E+03  0.68312779634E+03  0.25500000920E-02 0.  1.
       -2    1    3    3    0  502 -0.37089634943E+03  0.14927494948E+03  0.11060316165E+04  0.11760752736E+04  0.25500000920E-02 0. -1.
</event>
<event>
 5   0  0.2417106E-04  0.1712933E+04  0.7818609E-02  0.8754023E-01
        2   -1    0    0  501    0  0.00000000000E+00  0.00000000000E+00  0.62494657139E+03  0.62494657140E+03  0.25500000920E-02 0. -1.
       -2   -1    0    0    0  501  0.00000000000E+00  0.00000000000E+00 -0.11737554624E+04  0.11737554624E+04  0.25500000920E-02 0.  1.
    10030    2    1    2    0    0  0.00000000000E+00  0.00000000000E+00 -0.54880889105E+03  0.17987020338E+04  0.17129325170E+04 0.  0.
        4    1    3    3  502    0  0.53233563297E+03  0.35747639467E+03  0.32179429537E+03  0.71744252753E+03  0.12699999809E+01 0. -1.
       -4    1    3    3    0  502 -0.53233563297E+03 -0.35747639467E+03 -0.87060318642E+03  0.10812595063E+04  0.12699999809E+01 0.  1.
</event>
<event>
 5   0  0.9144875E-05  0.1794609E+04  0.7818609E-02  0.8709172E-01
        3   -1    0    0  501    0  0.00000000000E+00  0.00000000000E+00  0.66894936893E+03  0.66894937655E+03  0.10100000352E+00 0.  1.
       -3   -1    0    0    0  501  0.00000000000E+00  0.00000000000E+00 -0.12036116694E+04  0.12036116736E+04  0.10100000352E+00 0. -1.
    10030    2    1    2    0    0  0.00000000000E+00  0.00000000000E+00 -0.53466230043E+03  0.18725610501E+04  0.17946089020E+04 0.  0.
        2    1    3    3  502    0  0.85536623937E+03 -0.25047038288E+03 -0.37560984192E+03  0.96719675843E+03  0.25500000920E-02 0. -1.
       -2    1    3    3    0  502 -0.85536623937E+03  0.25047038288E+03 -0.15905245851E+03  0.90536429172E+03  0.25500000920E-02 0.  1.
</event>
<event>
 5   0  0.1330225E-04  0.1804489E+04  0.7818609E-02  0.8703916E-01
       -1   -1    0    0    0  501  0.00000000000E+00  0.00000000000E+00  0.75287794410E+03  0.75287794412E+03  0.50400001928E-02 0. -1.
        1   -1    0    0  501    0  0.00000000000E+00  0.00000000000E+00 -0.10812450459E+04  0.10812450459E+04  0.50400001928E-02 0.  1.
    10030    2    1    2    0    0  0.00000000000E+00  0.00000000000E+00 -0.32836710184E+03  0.18341229901E+04  0.18044894539E+04 0.  0.
        3    1    3    3  502    0  0.73275161576E+03  0.51000920306E+03 -0.29675250509E+03  0.94079560856E+03  0.10100000352E+00 0.  1.
       -3    1    3    3    0  502 -0.73275161576E+03 -0.51000920306E+03 -0.31614596749E+02  0.89332738150E+03  0.10100000352E+00 0. -1.
</event>
<event>
 5   0  0.1308893E-04  0.1845805E+04  0.7818609E-02  0.8682313E-01
       -1   -1    0    0    0  501  0.00000000000E+00  0.00000000000E+00  0.11264744287E+04  0.11264744287E+04  0.50400001928E-02 0.  1.
        1   -1    0    0  501    0  0.00000000000E+00  0.00000000000E+00 -0.75611966253E+03  0.75611966255E+03  0.50400001928E-02 0. -1.
    10030    2    1    2    0    0  0.00000000000E+00  0.00000000000E+00  0.37035476615E+03  0.18825940912E+04  0.18458054772E+04 0.  0.
        4    1    3    3  502    0  0.39798201460E+03  0.19248131223E+03 -0.64109831174E+03  0.77874732598E+03  0.12699999809E+01 0. -1.
       -4    1    3    3    0  502 -0.39798201460E+03 -0.19248131223E+03  0.10114530779E+04  0.11038467653E+04  0.12699999809E+01 0.  1.
</event>
<event>
 5   0  0.2393421E-04  0.1800448E+04  0.7818609E-02  0.8706061E-01
        2   -1    0    0  501    0  0.00000000000E+00  0.00000000000E+00  0.21156838534E+04  0.21156838534E+04  0.25500000920E-02 0. -1.
       -2   -1    0    0    0  501  0.00000000000E+00  0.00000000000E+00 -0.38304546444E+03  0.38304546445E+03  0.25500000920E-02 0.  1.
    10030    2    1    2    0    0  0.00000000000E+00  0.00000000000E+00  0.17326383890E+04  0.24987293178E+04  0.18004478379E+04 0.  0.
        5    1    3    3  502    0  0.31874980519E+03  0.66644918782E+03  0.15239162991E+03  0.75432171991E+03  0.46999998093E+01 0.  1.
       -5    1    3    3    0  502 -0.31874980519E+03 -0.66644918782E+03  0.15802467590E+04  0.17444075979E+04  0.46999998093E+01 0. -1.
</event>
<event>
 5   0  0.1330225E-04  0.1834681E+04  0.7818609E-02  0.8688071E-01
        1   -1    0    0  501    0  0.00000000000E+00  0.00000000000E+00  0.13447077890E+04  0.13447077890E+04  0.50400001928E-02 0.  1.
       -1   -1    0    0    0  501  0.00000000000E+00  0.00000000000E+00 -0.62579678325E+03  0.62579678327E+03  0.50400001928E-02 0. -1.
    10030    2    1    2    0    0  0.00000000000E+00  0.00000000000E+00  0.71891100579E+03  0.19705045723E+04  0.18346812353E+04 0.  0.
        3    1    3    3  502    0 -0.50857913846E+03 -0.58205648189E+03  0.89006521420E+03  0.11788378107E+04  0.10100000352E+00 0.  1.
       -3    1    3    3    0  502  0.50857913846E+03  0.58205648189E+03 -0.17115420841E+03  0.79166676162E+03  0.10100000352E+00 0. -1.
</event>
<event>
 5   0  0.1253925E-04  0.1777043E+04  0.7818609E-02  0.8718604E-01
       -1   -1    0    0    0  501  0.00000000000E+00  0.00000000000E+00  0.91195155477E+03  0.91195155478E+03  0.50400001928E-02 0. -1.
        1   -1    0    0  501    0  0.00000000000E+00  0.00000000000E+00 -0.86569302079E+03  0.86569302080E+03  0.50400001928E-02 0.  1.
    10030    2    1    2    0    0  0.00000000000E+00  0.00000000000E+00  0.46258533980E+02  0.17776445756E+04  0.17770425952E+04 0.  0.
        2    1    3    3  502    0 -0.84018594566E+03 -0.25230888560E+03 -0.11797843125E+03  0.88515033034E+03  0.25500000920E-02 0.  1.
       -2    1    3    3    0  502  0.84018594566E+03  0.25230888560E+03  0.16423696523E+03  0.89249424525E+03  0.25500000920E-02 0. -1.
</event>
<event>
 5   0  0.2431811E-04  0.1807957E+04  0.7818609E-02  0.8702079E-01
        2   -1    0    0  501    0  0.00000000000E+00  0.00000000000E+00  0.17383986691E+04  0.17383986691E+04  0.25500000920E-02 0.  1.
       -2   -1    0    0    0  501  0.00000000000E+00  0.00000000000E+00 -0.47007459970E+03  0.47007459971E+03  0.25500000920E-02 0. -1.
    10030    2    1    2    0    0  0.00000000000E+00  0.00000000000E+00  0.12683240694E+04  0.22084732688E+04  0.18079569226E+04 0.  0.
        3    1    3    3  502    0  0.36860829277E+03 -0.79118445011E+03  0.92149986284E+03  0.12692544721E+04  0.10100000352E+00 0.  1.
       -3    1    3    3    0  502 -0.36860829277E+03  0.79118445011E+03  0.34682420657E+03  0.93921879669E+03  0.10100000352E+00 0. -1.
</event>
<event>
 5   0  0.1330225E-04  0.1787326E+04  0.7818609E-02  0.8713069E-01
       -1   -1    0    0    0  501  0.00000000000E+00  0.00000000000E+00  0.70872398991E+03  0.70872398993E+03  0.50400001928E-02 0.  1.
        1   -1    0    0  501    0  0.00000000000E+00  0.00000000000E+00 -0.11268608779E+04  0.11268608779E+04  0.50400001928E-02 0. -1.
    10030    2    1    2    0    0  0.00000000000E+00  0.00000000000E+00 -0.41813688799E+03  0.18355848679E+04  0.17873257537E+04 0.  0.
        3    1    3    3  502    0 -0.85235565908E+03  0.22425695860E+03 -0.36081444707E+03  0.95235940089E+03  0.10100000352E+00 0. -1.
       -3    1    3    3    0  502  0.85235565908E+03 -0.22425695860E+03 -0.57322440924E+02  0.88322546696E+03  0.10100000352E+00 0.  1.
</event>
<event>
 5   0  0.1330225E-04  0.1808399E+04  0.7818609E-02  0.8701846E-01
        1   -1    0    0  501    0  0.00000000000E+00  0.00000000000E+00  0.16917003854E+04  0.16917003854E+04  0.50400001928E-02 0.  1.
       -1   -1    0    0    0  501  0.00000000000E+00  0.00000000000E+00 -0.48328685021E+03  0.48328685024E+03  0.50400001928E-02 0. -1.
    10030    2    1    2    0    0  0.00000000000E+00  0.00000000000E+00  0.12084135352E+04  0.21749872357E+04  0.18083987954E+04 0.  0.
        3    1    3    3  502    0 -0.54147237178E+03 -0.35328866745E+03  0.13644624281E+04  0.15098883865E+04  0.10100000352E+00 0.  1.
       -3    1    3    3    0  502  0.54147237178E+03  0.35328866745E+03 -0.15604889287E+03  0.66509884913E+03  0.10100000352E+00 0. -1.
</event>
<event>
 5   0  0.1330225E-04  0.1804578E+04  0.7818609E-02  0.8703869E-01
       -1   -1    0    0    0  501  0.00000000000E+00  0.00000000000E+00  0.79962442042E+03  0.79962442043E+03  0.50400001928E-02 0. -1.
        1   -1    0    0  501    0  0.00000000000E+00  0.00000000000E+00 -0.10181348047E+04  0.10181348047E+04  0.50400001928E-02 0.  1.
    10030    2    1    2    0    0  0.00000000000E+00  0.00000000000E+00 -0.21851038425E+03  0.18177592251E+04  0.18045780151E+04 0.  0.
        3    1    3    3  502    0 -0.38366993942E+03  0.22335939698E+03  0.68199719247E+03  0.81376423082E+03  0.10100000352E+00 0. -1.
       -3    1    3    3    0  502  0.38366993942E+03 -0.22335939698E+03 -0.90050757672E+03  0.10039949943E+04  0.10100000352E+00 0.  1.
</event>
<event>
 5   0  0.2393421E-04  0.1805096E+04  0.7818609E-02  0.8703594E-01
        2   -1    0    0  501    0  0.00000000000E+00  0.00000000000E+00  0.14328893796E+04  0.14328893796E+04  0.25500000920E-02 0.  1.
       -2   -1    0    0    0  501  0.00000000000E+00  0.00000000000E+00 -0.56849676338E+03  0.56849676339E+03  0.25500000920E-02 0. -1.
    10030    2    1    2    0    0  0.00000000000E+00  0.00000000000E+00  0.86439261620E+03  0.20013861430E+04  0.18050960912E+04 0.  0.
        5    1    3    3  502    0  0.36859391907E+02  0.39402125954E+02 -0.56669346256E+03  0.56927560355E+03  0.46999998093E+01 0. -1.
       -5    1    3    3    0  502 -0.36859391907E+02 -0.39402125954E+02  0.14310860788E+04  0.14321105394E+04  0.46999998093E+01 0.  1.
</event>
<event>
 5   0  0.1308893E-04  0.1757237E+04  0.7818609E-02  0.8729377E-01
       -1   -1    0    0    0  501  0.00000000000E+00  0.00000000000E+00  0.57246671345E+03  0.57246671347E+03  0.50400001928E-02 0.  1.
        1   -1    0    0  501    0  0.00000000000E+00  0.00000000000E+00 -0.13484987031E+04  0.13484987031E+04  0.50400001928E-02 0. -1.
    10030    2    1    2    0    0  0.00000000000E+00  0.00000000000E+00 -0.77603198966E+03  0.19209654166E+04  0.17572371732E+04 0.  0.
        4    1    3    3  502    0  0.25696356677E+03  0.71855678528E+03 -0.86403618284E+03  0.11527854382E+04  0.12699999809E+01 0. -1.
       -4    1    3    3    0  502 -0.25696356677E+03 -0.71855678528E+03  0.88004193176E+02  0.76817997841E+03  0.12699999809E+01 0.  1.
</event>
<event>
 5   0  0.1308893E-04  0.1924089E+04  0.7818609E-02  0.8642958E-01
        1   -1    0    0  501    0  0.00000000000E+00  0.00000000000E+00  0.11016520435E+04  0.11016520435E+04  0.50400001928E-02 0. -1.
       -1   -1    0    0    0  501  0.00000000000E+00  0.00000000000E+00 -0.84012843335E+03  0.84012843336E+03  0.50400001928E-02 0.  1.
    10030    2    1    2    0    0  0.00000000000E+00  0.00000000000E+00  0.26152361018E+03  0.19417804769E+04  0.19240885691E+04 0.  0.
        4    1    3    3  502    0  0.70266135475E+02 -0.83845185396E+03 -0.33999140563E+03  0.90748807706E+03  0.12699999809E+01 0.  1.
       -4    1    3    3    0  502 -0.70266135475E+02  0.83845185396E+03  0.60151501581E+03  0.10342923998E+04  0.12699999809E+01 0. -1.
</event>
<event>
 5   0  0.2431811E-04  0.1795021E+04  0.7818609E-02  0.8708952E-01
        2   -1    0    0  501    0  0.00000000000E+00  0.00000000000E+00  0.97864884742E+03  0.97864884742E+03  0.25500000920E-02 0.  1.
       -2   -1    0    0    0  501  0.00000000000E+00  0.00000000000E+00 -0.82309949825E+03  0.82309949826E+03  0.25500000920E-02 0. -1.
    10030    2    1    2    0    0  0.00000000000E+00  0.00000000000E+00  0.15554934917E+03  0.18017483457E+04  0.17950213094E+04 0.  0.
        3    1    3    3  502    0 -0.18056177111E+02  0.23842929150E+03  0.94608934901E+03  0.97583790615E+03  0.10100000352E+00 0.  1.
       -3    1    3    3    0  502  0.18056177111E+02 -0.23842929150E+03 -0.79053999984E+03  0.82591043953E+03  0.10100000352E+00 0. -1.
</event>
<event>
 5   0  0.2417106E-04  0.1801260E+04  0.7818609E-02  0.8705630E-01
       -2   -1    0    0    0  501  0.00000000000E+00  0.00000000000E+00  0.55447589004E+03  0.55447589005E+03  0.25500000920E-02 0. -1.
        2   -1    0    0  501    0  0.00000000000E+00  0.00000000000E+00 -0.14628846462E+04  0.14628846462E+04  0.25500000920E-02 0.  1.
    10030    2    1    2    0    0  0.00000000000E+00  0.00000000000E+00 -0.90840875619E+03  0.20173605363E+04  0.18012598549E+04 0.  0.
        4    1    3    3  502    0 -0.75398764060E+03 -0.47243123126E+03 -0.61037531401E+03  0.10790033676E+04  0.12699999809E+01 0.  1.
       -4    1    3    3    0  502  0.75398764060E+03  0.47243123126E+03 -0.29803344218E+03  0.93835716868E+03  0.12699999809E+01 0. -1.
</event>
<event>
 5   0  0.2417106E-04  0.1821426E+04  0.7818609E-02  0.8694988E-01
       -2   -1    0    0    0  501  0.00000000000E+00  0.00000000000E+00  0.75986483307E+03  0.75986483308E+03  0.25500000920E-02 0.  1.
        2   -1    0    0  501    0  0.00000000000E+00  0.00000000000E+00 -0.10915073884E+04  0.10915073884E+04  0.25500000920E-02 0. -1.
    10030    2    1    2    0    0  0.00000000000E+00  0.00000000000E+00 -0.33164255535E+03  0.18513722215E+04  0.18214259024E+04 0.  0.
        4    1    3    3  502    0 -0.13238166512E+03 -0.90008819295E+03 -0.20788777524E+03  0.93322162445E+03  0.12699999809E+01 0. -1.
       -4    1    3    3    0  502  0.13238166512E+03  0.90008819295E+03 -0.12375478010E+03  0.91815059704E+03  0.12699999809E+01 0.  1.
</event>
<event>
 5   0  0.1239119E-04  0.1799135E+04  0.7818609E-02  0.8706760E-01
        1   -1    0    0  501    0  0.00000000000E+00  0.00000000000E+00  0.11120715641E+04  0.11120715641E+04  0.50400001928E-02 0. -1.
       -1   -1    0    0    0  501  0.00000000000E+00  0.00000000000E+00 -0.72767041726E+03  0.72767041728E+03  0.50400001928E-02 0.  1.
    10030    2    1    2    0    0  0.00000000000E+00  0.00000000000E+00  0.38440114682E+03  0.18397419814E+04  0.17991348800E+04 0.  0.
        5    1    3    3  502    0  0.15103906038E+03  0.51546500407E+03  0.93007030401E+03  0.10740436809E+04  0.46999998093E+01 0. -1.
       -5    1    3    3    0  502 -0.15103906038E+03 -0.51546500407E+03 -0.54566915719E+03  0.76569830043E+03  0.46999998093E+01 0.  1.
</event>
<event>
 5   0  0.1330225E-04  0.1799901E+04  0.7818609E-02  0.8706352E-01
        1   -1    0    0  501    0  0.00000000000E+00  0.00000000000E+00  0.41276645994E+03  0.41276645997E+03  0.50400001928E-02 0. -1.
       -1   -1    0    0    0  501  0.00000000000E+00  0.00000000000E+00 -0.19621533964E+04  0.19621533964E+04  0.50400001928E-02 0.  1.
    10030    2    1    2    0    0  0.00000000000E+00  0.00000000000E+00 -0.15493869364E+04  0.23749198564E+04  0.17999012321E+04 0.  0.
        3    1    3    3  502    0 -0.24930938437E+03  0.12720796252E+03  0.35387895794E+03  0.45118439904E+03  0.10100000352E+00 0. -1.
       -3    1    3    3    0  502  0.24930938437E+03 -0.12720796252E+03 -0.19032658944E+04  0.19237354573E+04  0.10100000352E+00 0.  1.
</event>
<event>
 5   0  0.2417106E-04  0.1891514E+04  0.7818609E-02  0.8659092E-01
        2   -1    0    0  501    0  0.00000000000E+00  0.00000000000E+00  0.12334135158E+04  0.12334135158E+04  0.25500000920E-02 0.  1.
       -2   -1    0    0    0  501  0.00000000000E+00  0.00000000000E+00 -0.72518744969E+03  0.72518744970E+03  0.25500000920E-02 0. -1.
    10030    2    1    2    0    0  0.00000000000E+00  0.00000000000E+00  0.50822606612E+03  0.19586009655E+04  0.18915136816E+04 0.  0.
        4    1    3    3  502    0  0.44653183409E+03 -0.49705318012E+03  0.94718188195E+03  0.11591409203E+04  0.12699999809E+01 0.  1.
       -4    1    3    3    0  502 -0.44653183409E+03  0.49705318012E+03 -0.43895581583E+03  0.79946004521E+03  0.12699999809E+01 0. -1.
</event>
<event>
 5   0  0.2393421E-04  0.1805579E+04  0.7818609E-02  0.8703338E-01
        2   -1    0    0  501    0  0.00000000000E+00  0.00000000000E+00  0.11463148600E+04  0.11463148600E+04  0.25500000920E-02 0. -1.
       -2   -1    0    0    0  501  0.00000000000E+00  0.00000000000E+00 -0.71099932724E+03  0.71099932724E+03  0.25500000920E-02 0.  1.
    10030    2    1    2    0    0  0.00000000000E+00  0.00000000000E+00  0.43531553273E+03  0.18573141872E+04  0.18055792359E+04 0.  0.
        5    1    3    3  502    0  0.23346979737E+03 -0.57445990085E+03 -0.45726288811E+03  0.77046983252E+03  0.46999998093E+01 0.  1.
       -5    1    3    3    0  502 -0.23346979737E+03  0.57445990085E+03  0.89257842085E+03  0.10868443547E+04  0.46999998093E+01 0. -1.
</event>
<event>
 5   0  0.1239119E-04  0.1808001E+04  0.7818609E-02  0.8702056E-01
        1   -1    0    0  501    0  0.00000000000E+00  0.00000000000E+00  0.12531391878E+04  0.12531391878E+04  0.50400001928E-02 0.  1.
       -1   -1    0    0    0  501  0.00000000000E+00  0.00000000000E+00 -0.65213594713E+03  0.65213594715E+03  0.50400001928E-02 0. -1.
    10030    2    1    2    0    0  0.00000000000E+00  0.00000000000E+00  0.60100324065E+03  0.19052751349E+04  0.18080012291E+04 0.  0.
        5    1    3    3  502    0  0.64576680817E+03 -0.60791331511E+03  0.48490687236E+03  0.10108066749E+04  0.46999998093E+01 0.  1.
       -5    1    3    3    0  502 -0.64576680817E+03  0.60791331511E+03  0.11609636829E+03  0.89446846001E+03  0.46999998093E+01 0. -1.
</event>
<event>
 5   0  0.1330225E-04  0.1702414E+04  0.7818609E-02  0.8759989E-01
       -1   -1    0    0    0  501  0.00000000000E+00  0.00000000000E+00  0.70935399679E+03  0.70935399681E+03  0.50400001928E-02 0. -1.
        1   -1    0    0  501    0  0.00000000000E+00  0.00000000000E+00 -0.10214272948E+04  0.10214272948E+04  0.50400001928E-02 0.  1.
    10030    2    1    2    0    0  0.00000000000E+00  0.00000000000E+00 -0.31207329802E+03  0.17307812916E+04  0.17024142082E+04 0.  0.
        3    1    3    3  502    0 -0.38504459206E+03 -0.15445470110E+03 -0.91168319596E+03  0.10016395822E+04  0.10100000352E+00 0.  1.
       -3    1    3    3    0  502  0.38504459206E+03  0.15445470110E+03  0.59960989794E+03  0.72914170946E+03  0.10100000352E+00 0. -1.
</event>
<event>
 5   0  0.2569405E-04  0.1829705E+04  0.7818609E-02  0.8690660E-01
       -2   -1    0    0    0  501  0.00000000000E+00  0.00000000000E+00  0.71241871951E+03  0.71241871951E+03  0.25500000920E-02 0.  1.
        2   -1    0    0  501    0  0.00000000000E+00  0.00000000000E+00 -0.11748083833E+04  0.11748083833E+04  0.25500000920E-02 0. -1.
    10030    2    1    2    0    0  0.00000000000E+00  0.00000000000E+00 -0.46238966374E+03  0.18872271028E+04  0.18297054234E+04 0.  0.
        2    1    3    3  502    0  0.34144446328E+03 -0.63835482379E+03  0.34574154409E+03  0.80225832366E+03  0.25500000920E-02 0.  1.
       -2    1    3    3    0  502 -0.34144446328E+03  0.63835482379E+03 -0.80813120783E+03  0.10849687791E+04  0.25500000920E-02 0. -1.
</event>
<event>
 5   0  0.2393421E-04  0.1798604E+04  0.7818609E-02  0.8707042E-01
        2   -1    0    0  501    0  0.00000000000E+00  0.00000000000E+00  0.55074776235E+03  0.55074776235E+03  0.25500000920E-02 0.  1.
       -2   -1    0    0    0  501  0.00000000000E+00  0.00000000000E+00 -0.14684479620E+04  0.14684479620E+04  0.25500000920E-02 0. -1.
    10030    2    1    2    0    0  0.00000000000E+00  0.00000000000E+00 -0.91770019962E+03  0.20191957243E+04  0.17986043803E+04 0.  0.
        5    1    3    3  502    0  0.62256449480E+03 -0.30323518116E+03  0.18526320698E+03  0.71685610211E+03  0.46999998093E+01 0.  1.
       -5    1    3    3    0  502 -0.62256449480E+03  0.30323518116E+03 -0.11029634066E+04  0.13023396222E+04  0.46999998093E+01 0. -1.
</event>
<event>
 5   0  0.2550616E-04  0.1800090E+04  0.7818609E-02  0.8706252E-01
       -2   -1    0    0    0  501  0.00000000000E+00  0.00000000000E+00  0.36761181876E+03  0.36761181876E+03  0.25500000920E-02 0.  1.
        2   -1    0    0  501    0  0.00000000000E+00  0.00000000000E+00 -0.22036311451E+04  0.22036311451E+04  0.25500000920E-02 0. -1.
    10030    2    1    2    0    0  0.00000000000E+00  0.00000000000E+00 -0.18360193263E+04  0.25712429639E+04  0.18000898346E+04 0.  0.
        1    1    3    3  502    0  0.59827451769E+03  0.39075749107E+03 -0.16996666227E+04  0.18437707134E+04  0.50400001928E-02 0. -1.
       -1    1    3    3    0  502 -0.59827451769E+03 -0.39075749107E+03 -0.13635270365E+03  0.72747225044E+03  0.50400001928E-02 0.  1.
</event>
<event>
 5   0  0.2417106E-04  0.1805407E+04  0.7818609E-02  0.8703429E-01
        2   -1    0    0  501    0  0.00000000000E+00  0.00000000000E+00  0.79067030721E+03  0.79067030722E+03  0.25500000920E-02 0. -1.
       -2   -1    0    0    0  501  0.00000000000E+00  0.00000000000E+00 -0.10306116434E+04  0.10306116434E+04  0.25500000920E-02 0.  1.
    10030    2    1    2    0    0  0.00000000000E+00  0.00000000000E+00 -0.23994133615E+03  0.18212819506E+04  0.18054074606E+04 0.  0.
        4    1    3    3  502    0 -0.38697126120E+03  0.37039960512E+03  0.61300580380E+03  0.81407638024E+03  0.12699999809E+01 0. -1.
       -4    1    3    3    0  502  0.38697126120E+03 -0.37039960512E+03 -0.85294713995E+03  0.10072055703E+04  0.12699999809E+01 0.  1.
</event>
<event>
 5   0  0.2393421E-04  0.1771732E+04  0.7818609E-02  0.8721478E-01
       -2   -1    0    0    0  501  0.00000000000E+00  0.00000000000E+00  0.11015442474E+04  0.11015442474E+04  0.25500000920E-02 0.  1.
        2   -1    0    0  501    0  0.00000000000E+00  0.00000000000E+00 -0.71241704646E+03  0.71241704647E+03  0.25500000920E-02 0. -1.
    10030    2    1    2    0    0  0.00000000000E+00  0.00000000000E+00  0.38912720094E+03  0.18139612939E+04  0.17717323718E+04 0.  0.
        5    1    3    3  502    0  0.40954598627E+03 -0.61005078152E+03 -0.31205045480E+03  0.79830285434E+03  0.46999998093E+01 0. -1.
       -5    1    3    3    0  502 -0.40954598627E+03  0.61005078152E+03  0.70117765574E+03  0.10156584395E+04  0.46999998093E+01 0.  1.
</event>
<event>
 5   0  0.2431811E-04  0.1814626E+04  0.7818609E-02  0.8698560E-01
        2   -1    0    0  501    0  0.00000000000E+00  0.00000000000E+00  0.18381931152E+04  0.18381931152E+04  0.25500000920E-02 0.  1.
       -2   -1    0    0    0  501  0.00000000000E+00  0.00000000000E+00 -0.44784035690E+03  0.44784035691E+03  0.25500000920E-02 0. -1.
    10030    2    1    2    0    0  0.00000000000E+00  0.00000000000E+00  0.13903527583E+04  0.22860334721E+04  0.18146261993E+04 0.  0.
        3    1    3    3  502    0 -0.40924340411E+03 -0.17800813781E+02  0.17150709006E+04  0.17633108737E+04  0.10100000352E+00 0.  1.
       -3    1    3    3    0  502  0.40924340411E+03  0.17800813781E+02 -0.32471814233E+03  0.52272259845E+03  0.10100000352E+00 0. -1.
</event>
<event>
 5   0  0.1253925E-04  0.1820761E+04  0.7818609E-02  0.8695336E-01
       -1   -1    0    0    0  501  0.00000000000E+00  0.00000000000E+00  0.49174990866E+03  0.49174990868E+03  0.50400001928E-02 0. -1.
        1   -1    0    0  501    0  0.00000000000E+00  0.00000000000E+00 -0.16853944137E+04  0.16853944137E+04  0.50400001928E-02 0.  1.
    10030    2    1    2    0    0  0.00000000000E+00  0.00000000000E+00 -0.11936445051E+04  0.21771443224E+04  0.18207608839E+04 0.  0.
        2    1    3    3  502    0 -0.93405981983E+02  0.90392838256E+03 -0.53153312845E+03  0.10527766453E+04  0.25500000920E-02 0.  1.
       -2    1    3    3    0  502  0.93405981983E+02 -0.90392838256E+03 -0.66211137663E+03  0.11243676771E+04  0.25500000920E-02 0. -1.
</event>
<event>
 5   0  0.2393421E-04  0.1804786E+04  0.7818609E-02  0.8703759E-01
       -2   -1    0    0    0  501  0.00000000000E+00  0.00000000000E+00  0.49244539001E+03  0.49244539002E+03  0.25500000920E-02 0.  1.
        2   -1    0    0  501    0  0.00000000000E+00  0.00000000000E+00 -0.16536101555E+04  0.16536101555E+04  0.25500000920E-02 0. -1.
    10030    2    1    2    0    0  0.00000000000E+00  0.00000000000E+00 -0.11611647655E+04  0.21460555455E+04  0.18047855252E+04 0.  0.
        5    1    3    3  502    0 -0.46944675138E+03  0.67427313556E+03 -0.13683269831E+03  0.83292844293E+03  0.46999998093E+01 0.  1.
       -5    1    3    3    0  502  0.46944675138E+03 -0.67427313556E+03 -0.10243320672E+04  0.13131271026E+04  0.46999998093E+01 0. -1.
</event>
<event>
 5   0  0.1239119E-04  0.1796256E+04  0.7818609E-02  0.8708293E-01
       -1   -1    0    0    0  501  0.00000000000E+00  0.00000000000E+00  0.63067861654E+03  0.63067861656E+03  0.50400001928E-02 0.  1.
        1   -1    0    0  501    0  0.00000000000E+00  0.00000000000E+00 -0.12789929776E+04  0.12789929776E+04  0.50400001928E-02 0. -1.
    10030    2    1    2    0    0  0.00000000000E+00  0.00000000000E+00 -0.64831436110E+03  0.19096715942E+04  0.17962555739E+04 0.  0.
        5    1    3    3  502    0 -0.57923588831E+03 -0.41134567076E+03 -0.90829635210E+03  0.11531451896E+04  0.46999998093E+01 0. -1.
       -5    1    3    3    0  502  0.57923588831E+03  0.41134567076E+03  0.25998199100E+03  0.75652640457E+03  0.46999998093E+01 0.  1.
</event>
<event>
 5   0  0.1239119E-04  0.1802877E+04  0.7818609E-02  0.8704771E-01
        1   -1    0    0  501    0  0.00000000000E+00  0.00000000000E+00  0.77348262536E+03  0.77348262538E+03  0.50400001928E-02 0.  1.
       -1   -1    0    0    0  501  0.00000000000E+00  0.00000000000E+00 -0.10505620321E+04  0.10505620321E+04  0.50400001928E-02 0. -1.
    10030    2    1    2    0    0  0.00000000000E+00  0.00000000000E+00 -0.27707940675E+03  0.18240446575E+04  0.18028771214E+04 0.  0.
        5    1    3    3  502    0  0.11922323576E+03  0.38294474416E+03 -0.95530267869E+03  0.10360917696E+04  0.46999998093E+01 0. -1.
       -5    1    3    3    0  502 -0.11922323576E+03 -0.38294474416E+03  0.67822327194E+03  0.78795288795E+03  0.46999998093E+01 0.  1.
</event>
<event>
 5   0  0.1239119E-04  0.1764287E+04  0.7818609E-02  0.8725525E-01
       -1   -1    0    0    0  501  0.00000000000E+00  0.00000000000E+00  0.14215468226E+04  0.14215468226E+04  0.50400001928E-02 0. -1.
        1   -1    0    0  501    0  0.00000000000E+00  0.00000000000E+00 -0.54741581117E+03  0.54741581120E+03  0.50400001928E-02 0.  1.
    10030    2    1    2    0    0  0.00000000000E+00  0.00000000000E+00  0.87413101140E+03  0.19689626338E+04  0.17642870594E+04 0.  0.
        5    1    3    3  502    0 -0.32770184846E+03  0.81725791207E+03  0.37742291428E+03  0.95800268400E+03  0.46999998093E+01 0. -1.
       -5    1    3    3    0  502  0.32770184846E+03 -0.81725791207E+03  0.49670809712E+03  0.10109599498E+04  0.46999998093E+01 0.  1.
</event>
<event>
 5   0  0.1214723E-04  0.1799705E+04  0.7818609E-02  0.8706456E-01
        1   -1    0    0  501    0  0.00000000000E+00  0.00000000000E+00  0.39418261475E+03  0.39418261478E+03  0.50400001928E-02 0. -1.
       -1   -1    0    0    0  501  0.00000000000E+00  0.00000000000E+00 -0.20542113210E+04  0.20542113210E+04  0.50400001928E-02 0.  1.
    10030    2    1    2    0    0  0.00000000000E+00  0.00000000000E+00 -0.16600287063E+04  0.24483939358E+04  0.17997048534E+04 0.  0.
        1    1    3    3  502    0 -0.15798628199E+03  0.83218523604E+02 -0.20298665979E+04  0.20377054236E+04  0.50400001928E-02 0.  1.
       -1    1    3    3    0  502  0.15798628199E+03 -0.83218523604E+02  0.36983789163E+03  0.41068851223E+03  0.50400001928E-02 0. -1.
</event>
<event>
 5   0  0.2431811E-04  0.1791234E+04  0.7818609E-02  0.8710975E-01
        2   -1    0    0  501    0  0.00000000000E+00  0.00000000000E+00  0.17879406071E+04  0.17879406071E+04  0.25500000920E-02 0.  1.
       -2   -1    0    0    0  501  0.00000000000E+00  0.00000000000E+00 -0.44863341843E+03  0.44863341844E+03  0.25500000920E-02 0. -1.
    10030    2    1    2    0    0  0.00000000000E+00  0.00000000000E+00  0.13393071887E+04  0.22365740255E+04  0.17912341070E+04 0.  0.
        3    1    3    3  502    0 -0.33185870024E+03 -0.82071907091E+03  0.83911649357E+03  0.12197649324E+04  0.10100000352E+00 0. -1.
       -3    1    3    3    0  502  0.33185870024E+03  0.82071907091E+03  0.50019069509E+03  0.10168090932E+04  0.10100000352E+00 0.  1.
</event>
<event>
 5   0  0.2393421E-04  0.1816121E+04  0.7818609E-02  0.8697773E-01
        2   -1    0    0  501    0  0.00000000000E+00  0.00000000000E+00  0.10092742464E+04  0.10092742464E+04  0.25500000920E-02 0. -1.
       -2   -1    0    0    0  501  0.00000000000E+00  0.00000000000E+00 -0.81699679874E+03  0.81699679874E+03  0.25500000920E-02 0.  1.
    10030    2    1    2    0    0  0.00000000000E+00  0.00000000000E+00  0.19227744770E+03  0.18262710452E+04  0.18161209524E+04 0.  0.
        5    1    3    3  502    0 -0.44299985536E+02 -0.17881802553E+03 -0.79799513332E+03  0.81899737349E+03  0.46999998093E+01 0.  1.
       -5    1    3    3    0  502  0.44299985536E+02  0.17881802553E+03  0.99027258103E+03  0.10072736717E+04  0.46999998093E+01 0. -1.
</event>
<event>
 5   0  0.1308893E-04  0.1798612E+04  0.7818609E-02  0.8707038E-01
        1   -1    0    0  501    0  0.00000000000E+00  0.00000000000E+00  0.11658804261E+04  0.11658804261E+04  0.50400001928E-02 0.  1.
       -1   -1    0    0    0  501  0.00000000000E+00  0.00000000000E+00 -0.69368287705E+03  0.69368287707E+03  0.50400001928E-02 0. -1.
    10030    2    1    2    0    0  0.00000000000E+00  0.00000000000E+00  0.47219754904E+03  0.18595633032E+04  0.17986120074E+04 0.  0.
        4    1    3    3  502    0 -0.65086029151E+03  0.60574676702E+03  0.96614257843E+02  0.89436245032E+03  0.12699999809E+01 0. -1.
       -4    1    3    3    0  502  0.65086029151E+03 -0.60574676702E+03  0.37558329119E+03  0.96520085285E+03  0.12699999809E+01 0.  1.
</event>
<event>
 5   0  0.2417106E-04  0.1799830E+04  0.7818609E-02  0.8706390E-01
       -2   -1    0    0    0  501  0.00000000000E+00  0.00000000000E+00  0.59765165552E+03  0.59765165552E+03  0.25500000920E-02 0. -1.
        2   -1    0    0  501    0  0.00000000000E+00  0.00000000000E+00 -0.13550479587E+04  0.13550479587E+04  0.25500000920E-02 0.  1.
    10030    2    1    2    0    0  0.00000000000E+00  0.00000000000E+00 -0.75739630319E+03  0.19526996142E+04  0.17998296095E+04 0.  0.
        4    1    3    3  502    0 -0.55338347507E+03  0.55615788958E+03  0.99536062387E+02  0.79085644035E+03  0.12699999809E+01 0. -1.
       -4    1    3    3    0  502  0.55338347507E+03 -0.55615788958E+03 -0.85693236558E+03  0.11618431739E+04  0.12699999809E+01 0.  1.
</event>
<event>
 5   0  0.2569405E-04  0.1817875E+04  0.7818609E-02  0.8696851E-01
        2   -1    0    0  501    0  0.00000000000E+00  0.00000000000E+00  0.21874716619E+04  0.21874716619E+04  0.25500000920E-02 0.  1.
       -2   -1    0    0    0  501  0.00000000000E+00  0.00000000000E+00 -0.37768145562E+03  0.37768145562E+03  0.25500000920E-02 0. -1.
    10030    2    1    2    0    0  0.00000000000E+00  0.00000000000E+00  0.18097902063E+04  0.25651531175E+04  0.18178751128E+04 0.  0.
        2    1    3    3  502    0  0.72648092980E+03  0.54567190166E+03  0.94045624470E+03  0.13076659795E+04  0.25500000920E-02 0.  1.
       -2    1    3    3    0  502 -0.72648092980E+03 -0.54567190166E+03  0.86933396157E+03  0.12574871381E+04  0.25500000920E-02 0. -1.
</event>
<event>
 5   0  0.1214723E-04  0.1878261E+04  0.7818609E-02  0.8665753E-01
       -1   -1    0    0    0  501  0.00000000000E+00  0.00000000000E+00  0.67531377777E+03  0.67531377779E+03  0.50400001928E-02 0.  1.
        1   -1    0    0  501    0  0.00000000000E+00  0.00000000000E+00 -0.13060095767E+04  0.13060095767E+04  0.50400001928E-02 0. -1.
    10030    2    1    2    0    0  0.00000000000E+00  0.00000000000E+00 -0.63069579896E+03  0.19813233545E+04  0.18782611758E+04 0.  0.
        1    1    3    3  502    0  0.40549778759E+03  0.49400110089E+03 -0.10412193209E+04  0.12217214157E+04  0.50400001928E-02 0. -1.
       -1    1    3    3    0  502 -0.40549778759E+03 -0.49400110089E+03  0.41052352190E+03  0.75960193883E+03  0.50400001928E-02 0.  1.
</event>
<event>
 5   0  0.2393421E-04  0.1813820E+04  0.7818609E-02  0.8698985E-01
        2   -1    0    0  501    0  0.00000000000E+00  0.00000000000E+00  0.13712196955E+04  0.13712196955E+04  0.25500000920E-02 0. -1.
       -2   -1    0    0    0  501  0.00000000000E+00  0.00000000000E+00 -0.59982029873E+03  0.59982029874E+03  0.25500000920E-02 0.  1.
    10030    2    1    2    0    0  0.00000000000E+00  0.00000000000E+00  0.77139939681E+03  0.19710399943E+04  0.18138196243E+04 0.  0.
        5    1    3    3  502    0  0.48084801903E+03  0.59165688968E+03  0.91938046517E+03  0.11943848719E+04  0.46999998093E+01 0.  1.
       -5    1    3    3    0  502 -0.48084801903E+03 -0.59165688968E+03 -0.14798106836E+03  0.77665512237E+03  0.46999998093E+01 0. -1.
</event>
<event>
 5   0  0.1330225E-04  0.1799208E+04  0.7818609E-02  0.8706721E-01
       -1   -1    0    0    0  501  0.00000000000E+00  0.00000000000E+00  0.11725063519E+04  0.11725063519E+04  0.50400001928E-02 0.  1.
        1   -1    0    0  501    0  0.00000000000E+00  0.00000000000E+00 -0.69022035200E+03  0.69022035202E+03  0.50400001928E-02 0. -1.
    10030    2    1    2    0    0  0.00000000000E+00  0.00000000000E+00  0.48228599991E+03  0.18627267039E+04  0.17992084337E+04 0.  0.
        3    1    3    3  502    0  0.42487605742E+03  0.78495122018E+03  0.35744612803E+03  0.96147585870E+03  0.10100000352E+00 0.  1.
       -3    1    3    3    0  502 -0.42487605742E+03 -0.78495122018E+03  0.12483987188E+03  0.90125084524E+03  0.10100000352E+00 0. -1.
</event>
<event>
 5   0  0.2417106E-04  0.1973925E+04  0.7818609E-02  0.8618910E-01
        2   -1    0    0  501    0  0.00000000000E+00  0.00000000000E+00  0.14944286297E+04  0.14944286297E+04  0.25500000920E-02 0. -1.
       -2   -1    0    0    0  501  0.00000000000E+00  0.00000000000E+00 -0.65181758734E+03  0.65181758735E+03  0.25500000920E-02 0.  1.
    10030    2    1    2    0    0  0.00000000000E+00  0.00000000000E+00  0.84261104233E+03  0.21462462170E+04  0.19739248860E+04 0.  0.
        4    1    3    3  502    0  0.98165141998E+03  0.99783686446E+02  0.44554415384E+03  0.10826391367E+04  0.12699999809E+01 0.  1.
       -4    1    3    3    0  502 -0.98165141998E+03 -0.99783686446E+02  0.39706688849E+03  0.10636070803E+04  0.12699999809E+01 0. -1.
</event>
<event>
 5   0  0.9144875E-05  0.1941487E+04  0.7818609E-02  0.8634477E-01
       -3   -1    0    0    0  501  0.00000000000E+00  0.00000000000E+00  0.18650997068E+04  0.18650997095E+04  0.10100000352E+00 0.  1.
        3   -1    0    0  501    0  0.00000000000E+00  0.00000000000E+00 -0.50525062472E+03  0.50525063482E+03  0.10100000352E+00 0. -1.
    10030    2    1    2    0    0  0.00000000000E+00  0.00000000000E+00  0.13598490820E+04  0.23703503443E+04  0.19414868603E+04 0.  0.
        3    1    3    3  502    0 -0.34793399289E+03  0.60919033925E+03 -0.13923267063E+03  0.71523190618E+03  0.10100000352E+00 0. -1.
       -3    1    3    3    0  502  0.34793399289E+03 -0.60919033925E+03  0.14990817527E+04  0.16551184381E+04  0.10100000352E+00 0.  1.
</event>
<event>
 5   0  0.2393421E-04  0.1810467E+04  0.7818609E-02  0.8700753E-01
        2   -1    0    0  501    0  0.00000000000E+00  0.00000000000E+00  0.13690651796E+04  0.13690651796E+04  0.25500000920E-02 0. -1.
       -2   -1    0    0    0  501  0.00000000000E+00  0.00000000000E+00 -0.59854556524E+03  0.59854556525E+03  0.25500000920E-02 0.  1.
    10030    2    1    2    0    0  0.00000000000E+00  0.00000000000E+00  0.77051961438E+03  0.19676107449E+04  0.18104672234E+04 0.  0.
        5    1    3    3  502    0  0.16891188302E+03  0.72565311881E+03 -0.17348729061E+03  0.76499908697E+03  0.46999998093E+01 0. -1.
       -5    1    3    3    0  502 -0.16891188302E+03 -0.72565311881E+03  0.94400690498E+03  0.12026116579E+04  0.46999998093E+01 0.  1.
</event>
<event>
 5   0  0.1214723E-04  0.1718628E+04  0.7818609E-02  0.8750811E-01
       -1   -1    0    0    0  501  0.00000000000E+00  0.00000000000E+00  0.11810763338E+04  0.11810763339E+04  0.50400001928E-02 0. -1.
        1   -1    0    0  501    0  0.00000000000E+00  0.00000000000E+00 -0.62520951579E+03  0.62520951581E+03  0.50400001928E-02 0.  1.
    10030    2    1    2    0    0  0.00000000000E+00  0.00000000000E+00  0.55586681806E+03  0.18062858497E+04  0.17186275487E+04 0.  0.
        1    1    3    3  502    0 -0.38547118739E+02 -0.74894929994E+03  0.71886623357E+03  0.10388356925E+04  0.50400001928E-02 0. -1.
       -1    1    3    3    0  502  0.38547118739E+02  0.74894929994E+03 -0.16299941551E+03  0.76745015716E+03  0.50400001928E-02 0.  1.
</event>
<event>
 5   0  0.1214723E-04  0.1831590E+04  0.7818609E-02  0.8689679E-01
       -1   -1    0    0    0  501  0.00000000000E+00  0.00000000000E+00  0.43814098592E+03  0.43814098595E+03  0.50400001928E-02 0. -1.
        1   -1    0    0  501    0  0.00000000000E+00  0.00000000000E+00 -0.19141785565E+04  0.19141785565E+04  0.50400001928E-02 0.  1.
    10030    2    1    2    0    0  0.00000000000E+00  0.00000000000E+00 -0.14760375706E+04  0.23523195425E+04  0.18315895610E+04 0.  0.
        1    1    3    3  502    0  0.81134427329E+03 -0.42342745854E+03 -0.69523508948E+03  0.11493137831E+04  0.50400001928E-02 0.  1.
       -1    1    3    3    0  502 -0.81134427329E+03  0.42342745854E+03 -0.78080248111E+03  0.12030057593E+04  0.50400001928E-02 0. -1.
</event>
<event>
 5   0  0.1330225E-04  0.1789804E+04  0.7818609E-02  0.8711741E-01
        1   -1    0    0  501    0  0.00000000000E+00  0.00000000000E+00  0.14787442466E+04  0.14787442466E+04  0.50400001928E-02 0.  1.
       -1   -1    0    0    0  501  0.00000000000E+00  0.00000000000E+00 -0.54157402708E+03  0.54157402710E+03  0.50400001928E-02 0. -1.
    10030    2    1    2    0    0  0.00000000000E+00  0.00000000000E+00  0.93717021952E+03  0.20203182737E+04  0.17898038738E+04 0.  0.
        3    1    3    3  502    0  0.26281834726E+03 -0.47389873920E+03  0.12724855092E+04  0.13830664771E+04  0.10100000352E+00 0.  1.
       -3    1    3    3    0  502 -0.26281834726E+03  0.47389873920E+03 -0.33531528966E+03  0.63725179666E+03  0.10100000352E+00 0. -1.
</event>
<event>
 5   0  0.2417106E-04  0.1791582E+04  0.7818609E-02  0.8710789E-01
        2   -1    0    0  501    0  0.00000000000E+00  0.00000000000E+00  0.12887538609E+04  0.12887538609E+04  0.25500000920E-02 0. -1.
       -2   -1    0    0    0  501  0.00000000000E+00  0.00000000000E+00 -0.62264883691E+03  0.62264883691E+03  0.25500000920E-02 0.  1.
    10030    2    1    2    0    0  0.00000000000E+00  0.00000000000E+00  0.66610502396E+03  0.19114026978E+04  0.17915815276E+04 0.  0.
        4    1    3    3  502    0  0.76217277504E+03 -0.44266685287E+03  0.16242439772E+03  0.89623913077E+03  0.12699999809E+01 0.  1.
       -4    1    3    3    0  502 -0.76217277504E+03  0.44266685287E+03  0.50368062624E+03  0.10151635670E+04  0.12699999809E+01 0. -1.
</event>
<event>
 5   0  0.2550616E-04  0.1804646E+04  0.7818609E-02  0.8703832E-01
       -2   -1    0    0    0  501  0.00000000000E+00  0.00000000000E+00  0.65329677427E+03  0.65329677427E+03  0.25500000920E-02 0.  1.
        2   -1    0    0  501    0  0.00000000000E+00  0.00000000000E+00 -0.12462746585E+04  0.12462746585E+04  0.25500000920E-02 0. -1.
    10030    2    1    2    0    0  0.00000000000E+00  0.00000000000E+00 -0.59297788425E+03  0.18995714328E+04  0.18046464632E+04 0.  0.
        1    1    3    3  502    0 -0.89840156210E+03  0.49095339758E+02 -0.36827825197E+03  0.97219575707E+03  0.50400001928E-02 0. -1.
       -1    1    3    3    0  502  0.89840156210E+03 -0.49095339758E+02 -0.22469963228E+03  0.92737567573E+03  0.50400001928E-02 0.  1.
</event>
<event>
 5   0  0.2393421E-04  0.1888333E+04  0.7818609E-02  0.8660686E-01
       -2   -1    0    0    0  501  0.00000000000E+00  0.00000000000E+00  0.40819760236E+03  0.40819760237E+03  0.25500000920E-02 0. -1.
        2   -1    0    0  501    0  0.00000000000E+00  0.00000000000E+00 -0.21838692888E+04  0.21838692888E+04  0.25500000920E-02 0.  1.
    10030    2    1    2    0    0  0.00000000000E+00  0.00000000000E+00 -0.17756716864E+04  0.25920668911E+04  0.18883328176E+04 0.  0.
        5    1    3    3  502    0 -0.28198196394E+03  0.73858906423E+03 -0.17934348798E+03  0.81068724578E+03  0.46999998093E+01 0. -1.
       -5    1    3    3    0  502  0.28198196394E+03 -0.73858906423E+03 -0.15963281984E+04  0.17813796453E+04  0.46999998093E+01 0.  1.
</event>
<event>
 5   0  0.1253925E-04  0.1904159E+04  0.7818609E-02  0.8652789E-01
        1   -1    0    0  501    0  0.00000000000E+00  0.00000000000E+00  0.18824470881E+04  0.18824470882E+04  0.50400001928E-02 0.  1.
       -1   -1    0    0    0  501  0.00000000000E+00  0.00000000000E+00 -0.48153017445E+03  0.48153017448E+03  0.50400001928E-02 0. -1.
    10030    2    1    2    0    0  0.00000000000E+00  0.00000000000E+00  0.14009169137E+04  0.23639772626E+04  0.19041586854E+04 0.  0.
        2    1    3    3  502    0 -0.18768561370E+03  0.39172347202E+03 -0.35134939956E+03  0.55867662266E+03  0.25500000920E-02 0. -1.
       -2    1    3    3    0  502  0.18768561370E+03 -0.39172347202E+03  0.17522663133E+04  0.18053006400E+04  0.25500000920E-02 0.  1.
</event>
<event>
 5   0  0.1239119E-04  0.1785829E+04  0.7818609E-02  0.8713872E-01
       -1   -1    0    0    0  501  0.00000000000E+00  0.00000000000E+00  0.75961102406E+03  0.75961102408E+03  0.50400001928E-02 0. -1.
        1   -1    0    0  501    0  0.00000000000E+00  0.00000000000E+00 -0.10496115449E+04  0.10496115449E+04  0.50400001928E-02 0.  1.
    10030    2    1    2    0    0  0.00000000000E+00  0.00000000000E+00 -0.29000052084E+03  0.18092225690E+04  0.17858292197E+04 0.  0.
        5    1    3    3  502    0  0.63749721074E+02 -0.11953819094E+03 -0.10391263755E+04  0.10479308757E+04  0.46999998093E+01 0.  1.
       -5    1    3    3    0  502 -0.63749721074E+02  0.11953819094E+03  0.74912585469E+03  0.76129169324E+03  0.46999998093E+01 0. -1.
</event>
<event>
 5   0  0.2417106E-04  0.1799397E+04  0.7818609E-02  0.8706620E-01
       -2   -1    0    0    0  501  0.00000000000E+00  0.00000000000E+00  0.72622960303E+03  0.72622960303E+03  0.25500000920E-02 0.  1.
        2   -1    0    0  501    0  0.00000000000E+00  0.00000000000E+00 -0.11146029928E+04  0.11146029928E+04  0.25500000920E-02 0. -1.
    10030    2    1    2    0    0  0.00000000000E+00  0.00000000000E+00 -0.38837338982E+03  0.18408325959E+04  0.17993973314E+04 0.  0.
        4    1    3    3  502    0  0.18256895077E+03 -0.10059018078E+02  0.70702050359E+03  0.73028228174E+03  0.12699999809E+01 0.  1.
       -4    1    3    3    0  502 -0.18256895077E+03  0.10059018078E+02 -0.10953938934E+04  0.11105503141E+04  0.12699999809E+01 0. -1.
</event>
<event>
 5   0  0.1330225E-04  0.1777208E+04  0.7818609E-02  0.8718515E-01
        1   -1    0    0  501    0  0.00000000000E+00  0.00000000000E+00  0.76635984045E+03  0.76635984047E+03  0.50400001928E-02 0. -1.
       -1   -1    0    0    0  501  0.00000000000E+00  0.00000000000E+00 -0.10303478879E+04  0.10303478879E+04  0.50400001928E-02 0.  1.
    10030    2    1    2    0    0  0.00000000000E+00  0.00000000000E+00 -0.26398804742E+03  0.17967077284E+04  0.17772081960E+04 0.  0.
        3    1    3    3  502    0  0.13752137358E+03  0.21443242279E+03 -0.99264170404E+03  0.10248077649E+04  0.10100000352E+00 0.  1.
       -3    1    3    3    0  502 -0.13752137358E+03 -0.21443242279E+03  0.72865365661E+03  0.77189996349E+03  0.10100000352E+00 0. -1.
</event>
<event>
 5   0  0.2417106E-04  0.1727747E+04  0.7818609E-02  0.8745695E-01
        2   -1    0    0  501    0  0.00000000000E+00  0.00000000000E+00  0.43580732661E+03  0.43580732661E+03  0.25500000920E-02 0. -1.
       -2   -1    0    0    0  501  0.00000000000E+00  0.00000000000E+00 -0.17124025065E+04  0.17124025065E+04  0.25500000920E-02 0.  1.
    10030    2    1    2    0    0  0.00000000000E+00  0.00000000000E+00 -0.12765951799E+04  0.21482098331E+04  0.17277471556E+04 0.  0.
        4    1    3    3  502    0  0.70061270483E+03 -0.42433658404E+03 -0.97961319392E+03  0.12769351281E+04  0.12699999809E+01 0.  1.
       -4    1    3    3    0  502 -0.70061270483E+03  0.42433658404E+03 -0.29698198595E+03  0.87127470501E+03  0.12699999809E+01 0. -1.
</event>
<event>
 5   0  0.1214723E-04  0.1802019E+04  0.7818609E-02  0.8705226E-01
       -1   -1    0    0    0  501  0.00000000000E+00  0.00000000000E+00  0.95648326456E+03  0.95648326457E+03  0.50400001928E-02 0. -1.
        1   -1    0    0  501    0  0.00000000000E+00  0.00000000000E+00 -0.84875315581E+03  0.84875315583E+03  0.50400001928E-02 0.  1.
    10030    2    1    2    0    0  0.00000000000E+00  0.00000000000E+00  0.10773010874E+03  0.18052364204E+04  0.18020190779E+04 0.  0.
        1    1    3    3  502    0  0.49756301963E+03 -0.32599614929E+03  0.73181236061E+03  0.94307570164E+03  0.50400001928E-02 0. -1.
       -1    1    3    3    0  502 -0.49756301963E+03  0.32599614929E+03 -0.62408225186E+03  0.86216071876E+03  0.50400001928E-02 0.  1.
</event>
<event>
 5   0  0.1214723E-04  0.1799725E+04  0.7818609E-02  0.8706446E-01
       -1   -1    0    0    0  501  0.00000000000E+00  0.00000000000E+00  0.81646774646E+03  0.81646774648E+03  0.50400001928E-02 0. -1.
        1   -1    0    0  501    0  0.00000000000E+00  0.00000000000E+00 -0.99177514438E+03  0.99177514439E+03  0.50400001928E-02 0.  1.
    10030    2    1    2    0    0  0.00000000000E+00  0.00000000000E+00 -0.17530739792E+03  0.18082428909E+04  0.17997248869E+04 0.  0.
        1    1    3    3  502    0 -0.27071073297E+03 -0.70181589790E+03 -0.58387640219E+03  0.95222975618E+03  0.50400001928E-02 0.  1.
       -1    1    3    3    0  502  0.27071073297E+03  0.70181589790E+03  0.40856900427E+03  0.85601313469E+03  0.50400001928E-02 0. -1.
</event>
<event>
 5   0  0.2417106E-04  0.1798856E+04  0.7818609E-02  0.8706908E-01
        2   -1    0    0  501    0  0.00000000000E+00  0.00000000000E+00  0.14339901954E+04  0.14339901954E+04  0.25500000920E-02 0. -1.
       -2   -1    0    0    0  501  0.00000000000E+00  0.00000000000E+00 -0.56413944058E+03  0.56413944058E+03  0.25500000920E-02 0.  1.
    10030    2    1    2    0    0  0.00000000000E+00  0.00000000000E+00  0.86985075481E+03  0.19981296360E+04  0.17988556658E+04 0.  0.
        4    1    3    3  502    0 -0.42330751731E+03 -0.78821665957E+03  0.53729825964E+03  0.10436310600E+04  0.12699999809E+01 0.  1.
       -4    1    3    3    0  502  0.42330751731E+03  0.78821665957E+03  0.33255249517E+03  0.95449857600E+03  0.12699999809E+01 0. -1.
</event>
<event>
 5   0  0.2550616E-04  0.1802043E+04  0.7818609E-02  0.8705214E-01
        2   -1    0    0  501    0  0.00000000000E+00  0.00000000000E+00  0.11511893920E+04  0.11511893920E+04  0.25500000920E-02 0. -1.
       -2   -1    0    0    0  501  0.00000000000E+00  0.00000000000E+00 -0.70521790819E+03  0.70521790820E+03  0.25500000920E-02 0.  1.
    10030    2    1    2    0    0  0.00000000000E+00  0.00000000000E+00  0.44597148382E+03  0.18564073002E+04  0.18020425910E+04 0.  0.
        1    1    3    3  502    0  0.86592317004E+03 -0.24260549824E+03  0.16508504796E+03  0.91429395562E+03  0.50400001928E-02 0. -1.
       -1    1    3    3    0  502 -0.86592317004E+03  0.24260549824E+03  0.28088643586E+03  0.94211334460E+03  0.50400001928E-02 0.  1.
</event>
<event>
 5   0  0.2417106E-04  0.1807286E+04  0.7818609E-02  0.8702435E-01
       -2   -1    0    0    0  501  0.00000000000E+00  0.00000000000E+00  0.12178244742E+04  0.12178244742E+04  0.25500000920E-02 0.  1.
        2   -1    0    0  501    0  0.00000000000E+00  0.00000000000E+00 -0.67051555492E+03  0.67051555492E+03  0.25500000920E-02 0. -1.
    10030    2    1    2    0    0  0.00000000000E+00  0.00000000000E+00  0.54730891933E+03  0.18883400292E+04  0.18072855371E+04 0.  0.
        4    1    3    3  502    0 -0.37742425027E+03 -0.62173438996E+03 -0.28664749441E+03  0.78177433783E+03  0.12699999809E+01 0. -1.
       -4    1    3    3    0  502  0.37742425027E+03  0.62173438996E+03  0.83395641373E+03  0.11065656913E+04  0.12699999809E+01 0.  1.
</event>
<event>
 5   0  0.2417106E-04  0.1828346E+04  0.7818609E-02  0.8691369E-01
       -2   -1    0    0    0  501  0.00000000000E+00  0.00000000000E+00  0.40368339491E+03  0.40368339491E+03  0.25500000920E-02 0.  1.
        2   -1    0    0  501    0  0.00000000000E+00  0.00000000000E+00 -0.20702175038E+04  0.20702175038E+04  0.25500000920E-02 0. -1.
    10030    2    1    2    0    0  0.00000000000E+00  0.00000000000E+00 -0.16665341089E+04  0.24739008987E+04  0.18283461709E+04 0.  0.
        4    1    3    3  502    0  0.25681501482E+02  0.41967716014E+03  0.26508355182E+03  0.49705066201E+03  0.12699999809E+01 0.  1.
       -4    1    3    3    0  502 -0.25681501482E+02 -0.41967716014E+03 -0.19316176607E+04  0.19768502367E+04  0.12699999809E+01 0. -1.
</event>
<event>
 5   0  0.1214723E-04  0.1811693E+04  0.7818609E-02  0.8700106E-01
        1   -1    0    0  501    0  0.00000000000E+00  0.00000000000E+00  0.12280931424E+04  0.12280931424E+04  0.50400001928E-02 0. -1.
       -1   -1    0    0    0  501  0.00000000000E+00  0.00000000000E+00 -0.66815595456E+03  0.66815595458E+03  0.50400001928E-02 0.  1.
    10030    2    1    2    0    0  0.00000000000E+00  0.00000000000E+00  0.55993718784E+03  0.18962490970E+04  0.18116928502E+04 0.  0.
        1    1    3    3  502    0  0.68564344949E+03 -0.52262975960E+03 -0.11053309582E+02  0.86218964337E+03  0.50400001928E-02 0.  1.
       -1    1    3    3    0  502 -0.68564344949E+03  0.52262975960E+03  0.57099049742E+03  0.10340594536E+04  0.50400001928E-02 0. -1.
</event>
<event>
 5   0  0.1330225E-04  0.1584191E+04  0.7818609E-02  0.8830319E-01
        1   -1    0    0  501    0  0.00000000000E+00  0.00000000000E+00  0.12677966743E+04  0.12677966744E+04  0.50400001928E-02 0.  1.
       -1   -1    0    0    0  501  0.00000000000E+00  0.00000000000E+00 -0.49488638659E+03  0.49488638661E+03  0.50400001928E-02 0. -1.
    10030    2    1    2    0    0  0.00000000000E+00  0.00000000000E+00  0.77291028776E+03  0.17626830610E+04  0.15841910429E+04 0.  0.
        3    1    3    3  502    0 -0.56396324825E+03  0.27382049789E+03  0.92513386391E+03  0.11175441319E+04  0.10100000352E+00 0.  1.
       -3    1    3    3    0  502  0.56396324825E+03 -0.27382049789E+03 -0.15222357615E+03  0.64513892905E+03  0.10100000352E+00 0. -1.
</event>
<event>
 5   0  0.2569405E-04  0.1769341E+04  0.7818609E-02  0.8722776E-01
       -2   -1    0    0    0  501  0.00000000000E+00  0.00000000000E+00  0.10041454541E+04  0.10041454541E+04  0.25500000920E-02 0.  1.
        2   -1    0    0  501    0  0.00000000000E+00  0.00000000000E+00 -0.77941077405E+03  0.77941077405E+03  0.25500000920E-02 0. -1.
    10030    2    1    2    0    0  0.00000000000E+00  0.00000000000E+00  0.22473468009E+03  0.17835562282E+04  0.17693408780E+04 0.  0.
        2    1    3    3  502    0 -0.64342343232E+03  0.12647471715E+03 -0.48624905067E+03  0.81635023527E+03  0.25500000920E-02 0. -1.
       -2    1    3    3    0  502  0.64342343232E+03 -0.12647471715E+03  0.71098373076E+03  0.96720599292E+03  0.25500000920E-02 0.  1.
</event>
<event>
 5   0  0.1253925E-04  0.1790985E+04  0.7818609E-02  0.8711108E-01
        1   -1    0    0  501    0  0.00000000000E+00  0.00000000000E+00  0.22223543109E+04  0.22223543109E+04  0.50400001928E-02 0.  1.
       -1   -1    0    0    0  501  0.00000000000E+00  0.00000000000E+00 -0.36083646249E+03  0.36083646252E+03  0.50400001928E-02 0. -1.
    10030    2    1    2    0    0  0.00000000000E+00  0.00000000000E+00  0.18615178485E+04  0.25831907735E+04  0.17909846097E+04 0.  0.
        2    1    3    3  502    0 -0.69403848518E+03 -0.44952554437E+00  0.17469403657E+04  0.18797580329E+04  0.25500000920E-02 0.  1.
       -2    1    3    3    0  502  0.69403848518E+03  0.44952554437E+00  0.11457748280E+03  0.70343274060E+03  0.25500000920E-02 0. -1.
</event>
<event>
 5   0  0.1308893E-04  0.1815714E+04  0.7818609E-02  0.8697987E-01
       -1   -1    0    0    0  501  0.00000000000E+00  0.00000000000E+00  0.75472226440E+03  0.75472226442E+03  0.50400001928E-02 0. -1.
        1   -1    0    0  501    0  0.00000000000E+00  0.00000000000E+00 -0.10920632538E+04  0.10920632538E+04  0.50400001928E-02 0.  1.
    10030    2    1    2    0    0  0.00000000000E+00  0.00000000000E+00 -0.33734098942E+03  0.18467855183E+04  0.18157141315E+04 0.  0.
        4    1    3    3  502    0 -0.72018668360E+02 -0.89559538830E+03 -0.36347909569E+02  0.89922220366E+03  0.12699999809E+01 0. -1.
       -4    1    3    3    0  502  0.72018668360E+02  0.89559538830E+03 -0.30099307985E+03  0.94756331459E+03  0.12699999809E+01 0.  1.
</event>
<event>
 5   0  0.1308893E-04  0.1825484E+04  0.7818609E-02  0.8692863E-01
        1   -1    0    0  501    0  0.00000000000E+00  0.00000000000E+00  0.59225305156E+03  0.59225305158E+03  0.50400001928E-02 0.  1.
       -1   -1    0    0    0  501  0.00000000000E+00  0.00000000000E+00 -0.14066592937E+04  0.14066592938E+04  0.50400001928E-02 0. -1.
    10030    2    1    2    0    0  0.00000000000E+00  0.00000000000E+00 -0.81440624219E+03  0.19989123453E+04  0.18254843294E+04 0.  0.
        4    1    3    3  502    0  0.12096107944E+02 -0.89767200121E+03 -0.22682534634E+03  0.92596581375E+03  0.12699999809E+01 0.  1.
       -4    1    3    3    0  502 -0.12096107944E+02  0.89767200121E+03 -0.58758089585E+03  0.10729465316E+04  0.12699999809E+01 0. -1.
</event>
<event>
 5   0  0.2569405E-04  0.1834591E+04  0.7818609E-02  0.8688118E-01
        2   -1    0    0  501    0  0.00000000000E+00  0.00000000000E+00  0.16621133734E+04  0.16621133734E+04  0.25500000920E-02 0. -1.
       -2   -1    0    0    0  501  0.00000000000E+00  0.00000000000E+00 -0.50624160001E+03  0.50624160002E+03  0.25500000920E-02 0.  1.
    10030    2    1    2    0    0  0.00000000000E+00  0.00000000000E+00  0.11558717734E+04  0.21683549734E+04  0.18345908901E+04 0.  0.
        2    1    3    3  502    0 -0.18536327069E+03  0.32201834312E+03 -0.41331774246E+03  0.55577595456E+03  0.25500000920E-02 0.  1.
       -2    1    3    3    0  502  0.18536327069E+03 -0.32201834312E+03  0.15691895158E+04  0.16125790188E+04  0.25500000920E-02 0. -1.
</event>
<event>
 5   0  0.1214723E-04  0.1806092E+04  0.7818609E-02  0.8703067E-01
       -1   -1    0    0    0  501  0.00000000000E+00  0.00000000000E+00  0.11749581348E+04  0.11749581348E+04  0.50400001928E-02 0.  1.
        1   -1    0    0  501    0  0.00000000000E+00  0.00000000000E+00 -0.69406032482E+03  0.69406032484E+03  0.50400001928E-02 0. -1.
    10030    2    1    2    0    0  0.00000000000E+00  0.00000000000E+00  0.48089781002E+03  0.18690184597E+04  0.18060917194E+04 0.  0.
        1    1    3    3  502    0  0.56070611175E+03 -0.70723258659E+03  0.20901715148E+03  0.92642185042E+03  0.50400001928E-02 0.  1.
       -1    1    3    3    0  502 -0.56070611175E+03  0.70723258659E+03  0.27188065854E+03  0.94259660927E+03  0.50400001928E-02 0. -1.
</event>
<event>
 5   0  0.2569405E-04  0.1818475E+04  0.7818609E-02  0.8696536E-01
       -2   -1    0    0    0  501  0.00000000000E+00  0.00000000000E+00  0.11603457162E+04  0.11603457162E+04  0.25500000920E-02 0.  1.
        2   -1    0    0  501    0  0.00000000000E+00  0.00000000000E+00 -0.71247100954E+03  0.71247100955E+03  0.25500000920E-02 0. -1.
    10030    2    1    2    0    0  0.00000000000E+00  0.00000000000E+00  0.44787470670E+03  0.18728167258E+04  0.18184748377E+04 0.  0.
        2    1    3    3  502    0 -0.82525617862E+03  0.30639408048E+02  0.61573469782E+03  0.10301047285E+04  0.25500000920E-02 0.  1.
       -2    1    3    3    0  502  0.82525617862E+03 -0.30639408048E+02 -0.16785999113E+03  0.84271199724E+03  0.25500000920E-02 0. -1.
</event>
<event>
 5   0  0.2569405E-04  0.1788568E+04  0.7818609E-02  0.8712403E-01
       -2   -1    0    0    0  501  0.00000000000E+00  0.00000000000E+00  0.55381664977E+03  0.55381664978E+03  0.25500000920E-02 0. -1.
        2   -1    0    0  501    0  0.00000000000E+00  0.00000000000E+00 -0.14440591432E+04  0.14440591432E+04  0.25500000920E-02 0.  1.
    10030    2    1    2    0    0  0.00000000000E+00  0.00000000000E+00 -0.89024249340E+03  0.19978757930E+04  0.17885681388E+04 0.  0.
        2    1    3    3  502    0  0.85797314022E+03  0.19803765031E+03 -0.61963182809E+03  0.10766988542E+04  0.25500000920E-02 0.  1.
       -2    1    3    3    0  502 -0.85797314022E+03 -0.19803765031E+03 -0.27061066531E+03  0.92117693874E+03  0.25500000920E-02 0. -1.
</event>
<event>
 5   0  0.2569405E-04  0.1802244E+04  0.7818609E-02  0.8705107E-01
       -2   -1    0    0    0  501  0.00000000000E+00  0.00000000000E+00  0.67297219264E+03  0.67297219264E+03  0.25500000920E-02 0. -1.
        2   -1    0    0  501    0  0.00000000000E+00  0.00000000000E+00 -0.12066182312E+04  0.12066182312E+04  0.25500000920E-02 0.  1.
    10030    2    1    2    0    0  0.00000000000E+00  0.00000000000E+00 -0.53364603852E+03  0.18795904238E+04  0.18022436203E+04 0.  0.
        2    1    3    3  502    0 -0.56898658223E+02  0.89199185837E+03 -0.38634323125E+03  0.97372892791E+03  0.25500000920E-02 0.  1.
       -2    1    3    3    0  502  0.56898658223E+02 -0.89199185837E+03 -0.14730280727E+03  0.90586149589E+03  0.25500000920E-02 0. -1.
</event>
<event>
 5   0  0.2550616E-04  0.1817040E+04  0.7818609E-02  0.8697290E-01
        2   -1    0    0  501    0  0.00000000000E+00  0.00000000000E+00  0.11642827059E+04  0.11642827059E+04  0.25500000920E-02 0.  1.
       -2   -1    0    0    0  501  0.00000000000E+00  0.00000000000E+00 -0.70894166111E+03  0.70894166111E+03  0.25500000920E-02 0. -1.
    10030    2    1    2    0    0  0.00000000000E+00  0.00000000000E+00  0.45534104477E+03  0.18732243670E+04  0.18170399176E+04 0.  0.
        1    1    3    3  502    0 -0.43604826618E+03  0.66850267219E+03 -0.21977122720E+03  0.82784860059E+03  0.50400001928E-02 0. -1.
       -1    1    3    3    0  502  0.43604826618E+03 -0.66850267219E+03  0.67511227198E+03  0.10453757664E+04  0.50400001928E-02 0.  1.
</event>
<event>
 5   0  0.1253925E-04  0.1823251E+04  0.7818609E-02  0.8694031E-01
       -1   -1    0    0    0  501  0.00000000000E+00  0.00000000000E+00  0.49682502414E+03  0.49682502417E+03  0.50400001928E-02 0.  1.
        1   -1    0    0  501    0  0.00000000000E+00  0.00000000000E+00 -0.16727445929E+04  0.16727445929E+04  0.50400001928E-02 0. -1.
    10030    2    1    2    0    0  0.00000000000E+00  0.00000000000E+00 -0.11759195688E+04  0.21695696171E+04  0.18232513516E+04 0.  0.
        2    1    3    3  502    0  0.78050401911E+03  0.46343563052E+03 -0.48767720589E+03  0.10304310577E+04  0.25500000920E-02 0. -1.
       -2    1    3    3    0  502 -0.78050401911E+03 -0.46343563052E+03 -0.68824236289E+03  0.11391385594E+04  0.25500000920E-02 0.  1.
</event>
<event>
 5   0  0.2417106E-04  0.1787232E+04  0.7818609E-02  0.8713119E-01
        2   -1    0    0  501    0  0.00000000000E+00  0.00000000000E+00  0.24832567712E+04  0.24832567712E+04  0.25500000920E-02 0. -1.
       -2   -1    0    0    0  501  0.00000000000E+00  0.00000000000E+00 -0.32157338014E+03  0.32157338015E+03  0.25500000920E-02 0.  1.
    10030    2    1    2    0    0  0.00000000000E+00  0.00000000000E+00  0.21616833910E+04  0.28048301513E+04  0.17872316847E+04 0.  0.
        4    1    3    3  502    0 -0.22464916362E+03 -0.42552071728E+03 -0.10089859168E+03  0.49164750203E+03  0.12699999809E+01 0.  1.
       -4    1    3    3    0  502  0.22464916362E+03  0.42552071728E+03  0.22625819827E+04  0.23131826493E+04  0.12699999809E+01 0. -1.
</event>
<event>
 5   0  0.2393421E-04  0.1808555E+04  0.7818609E-02  0.8701763E-01
       -2   -1    0    0    0  501  0.00000000000E+00  0.00000000000E+00  0.45333601282E+03  0.45333601283E+03  0.25500000920E-02 0. -1.
        2   -1    0    0  501    0  0.00000000000E+00  0.00000000000E+00 -0.18037795785E+04  0.18037795785E+04  0.25500000920E-02 0.  1.
    10030    2    1    2    0    0  0.00000000000E+00  0.00000000000E+00 -0.13504435657E+04  0.22571155914E+04  0.18085554923E+04 0.  0.
        5    1    3    3  502    0  0.39741158177E+03 -0.78995057572E+03 -0.91115481743E+03  0.12697177122E+04  0.46999998093E+01 0.  1.
       -5    1    3    3    0  502 -0.39741158177E+03  0.78995057572E+03 -0.43928874830E+03  0.98739787916E+03  0.46999998093E+01 0. -1.
</event>
<event>
 5   0  0.1330225E-04  0.1839851E+04  0.7818609E-02  0.8685390E-01
       -1   -1    0    0    0  501  0.00000000000E+00  0.00000000000E+00  0.69456736661E+03  0.69456736663E+03  0.50400001928E-02 0. -1.
        1   -1    0    0  501    0  0.00000000000E+00  0.00000000000E+00 -0.12184027364E+04  0.12184027365E+04  0.50400001928E-02 0.  1.
    10030    2    1    2    0    0  0.00000000000E+00  0.00000000000E+00 -0.52383536983E+03  0.19129701031E+04  0.18398508419E+04 0.  0.
        3    1    3    3  502    0 -0.68704997525E+03  0.49713528502E+03  0.10873480397E+03  0.85498796945E+03  0.10100000352E+00 0. -1.
       -3    1    3    3    0  502  0.68704997525E+03 -0.49713528502E+03 -0.63257017380E+03  0.10579821336E+04  0.10100000352E+00 0.  1.
</event>
<event>
 5   0  0.2393421E-04  0.1801949E+04  0.7818609E-02  0.8705264E-01
       -2   -1    0    0    0  501  0.00000000000E+00  0.00000000000E+00  0.78105836431E+03  0.78105836431E+03  0.25500000920E-02 0. -1.
        2   -1    0    0  501    0  0.00000000000E+00  0.00000000000E+00 -0.10393015167E+04  0.10393015167E+04  0.25500000920E-02 0.  1.
    10030    2    1    2    0    0  0.00000000000E+00  0.00000000000E+00 -0.25824315239E+03  0.18203598810E+04  0.18019491032E+04 0.  0.
        5    1    3    3  502    0  0.71567131949E+03 -0.24305892524E+03  0.36626606042E+03  0.83990237272E+03  0.46999998093E+01 0.  1.
       -5    1    3    3    0  502 -0.71567131949E+03  0.24305892524E+03 -0.62450921281E+03  0.98045750829E+03  0.46999998093E+01 0. -1.
</event>
<event>
 5   0  0.1239119E-04  0.1810741E+04  0.7818609E-02  0.8700608E-01
        1   -1    0    0  501    0  0.00000000000E+00  0.00000000000E+00  0.11732334935E+04  0.11732334935E+04  0.50400001928E-02 0.  1.
       -1   -1    0    0    0  501  0.00000000000E+00  0.00000000000E+00 -0.69866381197E+03  0.69866381199E+03  0.50400001928E-02 0. -1.
    10030    2    1    2    0    0  0.00000000000E+00  0.00000000000E+00  0.47456968150E+03  0.18718973055E+04  0.18107410471E+04 0.  0.
        5    1    3    3  502    0 -0.11867072539E+01 -0.70598240164E+03  0.82322702730E+03  0.10844986806E+04  0.46999998093E+01 0.  1.
       -5    1    3    3    0  502  0.11867072539E+01  0.70598240164E+03 -0.34865734580E+03  0.78739862489E+03  0.46999998093E+01 0. -1.
</event>
<event>
 5   0  0.2393421E-04  0.1799569E+04  0.7818609E-02  0.8706529E-01
        2   -1    0    0  501    0  0.00000000000E+00  0.00000000000E+00  0.14090369526E+04  0.14090369526E+04  0.25500000920E-02 0. -1.
       -2   -1    0    0    0  501  0.00000000000E+00  0.00000000000E+00 -0.57458526989E+03  0.57458526990E+03  0.25500000920E-02 0.  1.
    10030    2    1    2    0    0  0.00000000000E+00  0.00000000000E+00  0.83445168270E+03  0.19836222225E+04  0.17995687013E+04 0.  0.
        5    1    3    3  502    0 -0.65932097593E+03  0.58888171264E+03  0.60201408883E+03  0.10695461065E+04  0.46999998093E+01 0. -1.
       -5    1    3    3    0  502  0.65932097593E+03 -0.58888171264E+03  0.23243759387E+03  0.91407611599E+03  0.46999998093E+01 0.  1.
</event>
<event>
 5   0  0.2569405E-04  0.1796630E+04  0.7818609E-02  0.8708094E-01
        2   -1    0    0  501    0  0.00000000000E+00  0.00000000000E+00  0.13482190605E+04  0.13482190605E+04  0.25500000920E-02 0.  1.
       -2   -1    0    0    0  501  0.00000000000E+00  0.00000000000E+00 -0.59854482858E+03  0.59854482858E+03  0.25500000920E-02 0. -1.
    10030    2    1    2    0    0  0.00000000000E+00  0.00000000000E+00  0.74967423194E+03  0.19467638891E+04  0.17966296741E+04 0.  0.
        2    1    3    3  502    0 -0.41499397722E+03 -0.27397852157E+03 -0.43580034512E+03  0.66121567754E+03  0.25500000920E-02 0. -1.
       -2    1    3    3    0  502  0.41499397722E+03  0.27397852157E+03  0.11854745771E+04  0.12855482116E+04  0.25500000920E-02 0.  1.
</event>
<event>
 5   0  0.1214723E-04  0.1736996E+04  0.7818609E-02  0.8740541E-01
        1   -1    0    0  501    0  0.00000000000E+00  0.00000000000E+00  0.30504940731E+04  0.30504940731E+04  0.50400001928E-02 0. -1.
       -1   -1    0    0    0  501  0.00000000000E+00  0.00000000000E+00 -0.24726761344E+03  0.24726761350E+03  0.50400001928E-02 0.  1.
    10030    2    1    2    0    0  0.00000000000E+00  0.00000000000E+00  0.28032264596E+04  0.32977616866E+04  0.17369955548E+04 0.  0.
        1    1    3    3  502    0 -0.64677531534E+03 -0.11208434681E+03  0.24812940582E+04  0.25666517903E+04  0.50400001928E-02 0. -1.
       -1    1    3    3    0  502  0.64677531534E+03  0.11208434681E+03  0.32193240144E+03  0.73110989629E+03  0.50400001928E-02 0.  1.
</event>
<event>
 5   0  0.1214723E-04  0.1781278E+04  0.7818609E-02  0.8716319E-01
       -1   -1    0    0    0  501  0.00000000000E+00  0.00000000000E+00  0.56420429353E+03  0.56420429355E+03  0.50400001928E-02 0.  1.
        1   -1    0    0  501    0  0.00000000000E+00  0.00000000000E+00 -0.14059412879E+04  0.14059412879E+04  0.50400001928E-02 0. -1.
    10030    2    1    2    0    0  0.00000000000E+00  0.00000000000E+00 -0.84173699433E+03  0.19701455814E+04  0.17812783175E+04 0.  0.
        1    1    3    3  502    0  0.39200634190E+03  0.63772066176E+03 -0.95461375457E+03  0.12131133644E+04  0.50400001928E-02 0. -1.
       -1    1    3    3    0  502 -0.39200634190E+03 -0.63772066176E+03  0.11287676024E+03  0.75703221698E+03  0.50400001928E-02 0.  1.
</event>
<event>
 5   0  0.2417106E-04  0.1783779E+04  0.7818609E-02  0.8714974E-01
       -2   -1    0    0    0  501  0.00000000000E+00  0.00000000000E+00  0.12632406881E+04  0.12632406881E+04  0.25500000920E-02 0. -1.
        2   -1    0    0  501    0  0.00000000000E+00  0.00000000000E+00 -0.62970303001E+03  0.62970303002E+03  0.25500000920E-02 0.  1.
    10030    2    1    2    0    0  0.00000000000E+00  0.00000000000E+00  0.63353765811E+03  0.18929437181E+04  0.17837785613E+04 0.  0.
        4    1    3    3  502    0  0.35615627177E+03  0.81614147149E+03  0.37015340250E+03  0.96433881270E+03  0.12699999809E+01 0.  1.
       -4    1    3    3    0  502 -0.35615627177E+03 -0.81614147149E+03  0.26338425561E+03  0.92860490544E+03  0.12699999809E+01 0. -1.
</event>
<event>
 5   0  0.2417106E-04  0.1806370E+04  0.7818609E-02  0.8702919E-01
        2   -1    0    0  501    0  0.00000000000E+00  0.00000000000E+00  0.18250294159E+04  0.18250294159E+04  0.25500000920E-02 0.  1.
       -2   -1    0    0    0  501  0.00000000000E+00  0.00000000000E+00 -0.44697534522E+03  0.44697534522E+03  0.25500000920E-02 0. -1.
    10030    2    1    2    0    0  0.00000000000E+00  0.00000000000E+00  0.13780540707E+04  0.22720047611E+04  0.18063700099E+04 0.  0.
        4    1    3    3  502    0  0.56195681832E+03  0.70558697667E+03  0.63148346751E+03  0.11011000999E+04  0.12699999809E+01 0. -1.
       -4    1    3    3    0  502 -0.56195681832E+03 -0.70558697667E+03  0.74657060315E+03  0.11709046612E+04  0.12699999809E+01 0.  1.
</event>
<event>
 5   0  0.2550616E-04  0.1793606E+04  0.7818609E-02  0.8709707E-01
        2   -1    0    0  501    0  0.00000000000E+00  0.00000000000E+00  0.86909945449E+03  0.86909945449E+03  0.25500000920E-02 0.  1.
       -2   -1    0    0    0  501  0.00000000000E+00  0.00000000000E+00 -0.92538958915E+03  0.92538958915E+03  0.25500000920E-02 0. -1.
    10030    2    1    2    0    0  0.00000000000E+00  0.00000000000E+00 -0.56290134661E+02  0.17944890436E+04  0.17936059624E+04 0.  0.
        1    1    3    3  502    0 -0.32177647724E+03  0.52578482028E+03  0.62353252598E+03  0.87680248033E+03  0.50400001928E-02 0.  1.
       -1    1    3    3    0  502  0.32177647724E+03 -0.52578482028E+03 -0.67982266064E+03  0.91768656331E+03  0.50400001928E-02 0. -1.
</event>
<event>
 5   0  0.2393421E-04  0.1800246E+04  0.7818609E-02  0.8706169E-01
       -2   -1    0    0    0  501  0.00000000000E+00  0.00000000000E+00  0.42118757111E+03  0.42118757111E+03  0.25500000920E-02 0.  1.
        2   -1    0    0  501    0  0.00000000000E+00  0.00000000000E+00 -0.19236590832E+04  0.19236590832E+04  0.25500000920E-02 0. -1.
    10030    2    1    2    0    0  0.00000000000E+00  0.00000000000E+00 -0.15024715121E+04  0.23448466543E+04  0.18002458687E+04 0.  0.
        5    1    3    3  502    0 -0.47243512710E+03 -0.30026773124E+03  0.16686945076E+03  0.58414310176E+03  0.46999998093E+01 0.  1.
       -5    1    3    3    0  502  0.47243512710E+03  0.30026773124E+03 -0.16693409629E+04  0.17607035526E+04  0.46999998093E+01 0. -1.
</event>
<event>
 5   0  0.1330225E-04  0.1796835E+04  0.7818609E-02  0.8707985E-01
        1   -1    0    0  501    0  0.00000000000E+00  0.00000000000E+00  0.10231679259E+04  0.10231679259E+04  0.50400001928E-02 0. -1.
       -1   -1    0    0    0  501  0.00000000000E+00  0.00000000000E+00 -0.78887707672E+03  0.78887707674E+03  0.50400001928E-02 0.  1.
    10030    2    1    2    0    0  0.00000000000E+00  0.00000000000E+00  0.23429084915E+03  0.18120450026E+04  0.17968346862E+04 0.  0.
        3    1    3    3  502    0 -0.52249485821E+03 -0.57216723446E+03 -0.34143180631E+03  0.84673012796E+03  0.10100000352E+00 0.  1.
       -3    1    3    3    0  502  0.52249485821E+03  0.57216723446E+03  0.57572265546E+03  0.96531487467E+03  0.10100000352E+00 0. -1.
</event>
<event>
 5   0  0.1214723E-04  0.1830195E+04  0.7818609E-02  0.8690405E-01
        1   -1    0    0  501    0  0.00000000000E+00  0.00000000000E+00  0.50431136597E+03  0.50431136599E+03  0.50400001928E-02 0.  1.
       -1   -1    0    0    0  501  0.00000000000E+00  0.00000000000E+00 -0.16604886662E+04  0.16604886662E+04  0.50400001928E-02 0. -1.
    10030    2    1    2    0    0  0.00000000000E+00  0.00000000000E+00 -0.11561773003E+04  0.21648000322E+04  0.18301948612E+04 0.  0.
        1    1    3    3  502    0  0.19387462201E+03  0.59578597752E+02  0.47739042996E+03  0.51868931068E+03  0.50400001928E-02 0.  1.
       -1    1    3    3    0  502 -0.19387462201E+03 -0.59578597752E+02 -0.16335677302E+04  0.16461107216E+04  0.50400001928E-02 0. -1.
</event>
<event>
 5   0  0.2569405E-04  0.1818038E+04  0.7818609E-02  0.8696766E-01
        2   -1    0    0  501    0  0.00000000000E+00  0.00000000000E+00  0.97697453734E+03  0.97697453734E+03  0.25500000920E-02 0.  1.
       -2   -1    0    0    0  501  0.00000000000E+00  0.00000000000E+00 -0.84578994031E+03  0.84578994032E+03  0.25500000920E-02 0. -1.
    10030    2    1    2    0    0  0.00000000000E+00  0.00000000000E+00  0.13118459702E+03  0.18227644777E+04  0.18180376626E+04 0.  0.
        2    1    3    3  502    0  0.61464518582E+03  0.22104709618E+02 -0.60550433979E+03  0.86308332630E+03  0.25500000920E-02 0. -1.
       -2    1    3    3    0  502 -0.61464518582E+03 -0.22104709618E+02  0.73668893681E+03  0.95968115135E+03  0.25500000920E-02 0.  1.
</event>
<event>
 5   0  0.1239119E-04  0.1782556E+04  0.7818609E-02  0.8715631E-01
        1   -1    0    0  501    0  0.00000000000E+00  0.00000000000E+00  0.91738975826E+03  0.91738975828E+03  0.50400001928E-02 0.  1.
       -1   -1    0    0    0  501  0.00000000000E+00  0.00000000000E+00 -0.86590950582E+03  0.86590950584E+03  0.50400001928E-02 0. -1.
    10030    2    1    2    0    0  0.00000000000E+00  0.00000000000E+00  0.51480252438E+02  0.17832992641E+04  0.17825560437E+04 0.  0.
        5    1    3    3  502    0  0.70464079942E+03  0.28744680816E+03  0.48984097268E+03  0.90504728730E+03  0.46999998093E+01 0.  1.
       -5    1    3    3    0  502 -0.70464079942E+03 -0.28744680816E+03 -0.43836072025E+03  0.87825197682E+03  0.46999998093E+01 0. -1.
</event>
<event>
 5   0  0.1214723E-04  0.1781610E+04  0.7818609E-02  0.8716140E-01
       -1   -1    0    0    0  501  0.00000000000E+00  0.00000000000E+00  0.37047700675E+03  0.37047700679E+03  0.50400001928E-02 0.  1.
        1   -1    0    0  501    0  0.00000000000E+00  0.00000000000E+00 -0.21419247910E+04  0.21419247910E+04  0.50400001928E-02 0. -1.
    10030    2    1    2    0    0  0.00000000000E+00  0.00000000000E+00 -0.17714477842E+04  0.25124017978E+04  0.17816103786E+04 0.  0.
        1    1    3    3  502    0  0.71689165187E+03  0.25432971925E+03 -0.23197437473E+03  0.79525427203E+03  0.50400001928E-02 0.  1.
       -1    1    3    3    0  502 -0.71689165187E+03 -0.25432971925E+03 -0.15394734095E+04  0.17171475258E+04  0.50400001928E-02 0. -1.
</event>
<event>
 5   0  0.1253925E-04  0.1796264E+04  0.7818609E-02  0.8708289E-01
       -1   -1    0    0    0  501  0.00000000000E+00  0.00000000000E+00  0.11221494797E+04  0.11221494797E+04  0.50400001928E-02 0. -1.
        1   -1    0    0  501    0  0.00000000000E+00  0.00000000000E+00 -0.71883578570E+03  0.71883578572E+03  0.50400001928E-02 0.  1.
    10030    2    1    2    0    0  0.00000000000E+00  0.00000000000E+00  0.40331369399E+03  0.18409852654E+04  0.17962641264E+04 0.  0.
        2    1    3    3  502    0  0.34806684999E+03 -0.82724136620E+03  0.23659955775E+03  0.92814770417E+03  0.25500000920E-02 0.  1.
       -2    1    3    3    0  502 -0.34806684999E+03  0.82724136620E+03  0.16671413624E+03  0.91283756126E+03  0.25500000920E-02 0. -1.
</event>
<event>
 5   0  0.2569405E-04  0.1790912E+04  0.7818609E-02  0.8711148E-01
       -2   -1    0    0    0  501  0.00000000000E+00  0.00000000000E+00  0.41249516276E+03  0.41249516277E+03  0.25500000920E-02 0. -1.
        2   -1    0    0  501    0  0.00000000000E+00  0.00000000000E+00 -0.19438801741E+04  0.19438801741E+04  0.25500000920E-02 0.  1.
    10030    2    1    2    0    0  0.00000000000E+00  0.00000000000E+00 -0.15313850114E+04  0.23563753369E+04  0.17909116883E+04 0.  0.
        2    1    3    3  502    0 -0.77312278274E+03  0.43096773261E+03 -0.94411560010E+03  0.12941430717E+04  0.25500000920E-02 0.  1.
       -2    1    3    3    0  502  0.77312278274E+03 -0.43096773261E+03 -0.58726941126E+03  0.10622322652E+04  0.25500000920E-02 0. -1.
</event>
<event>
 5   0  0.2431811E-04  0.1800612E+04  0.7818609E-02  0.8705974E-01
       -2   -1    0    0    0  501  0.00000000000E+00  0.00000000000E+00  0.74897552399E+03  0.74897552400E+03  0.25500000920E-02 0. -1.
        2   -1    0    0  501    0  0.00000000000E+00  0.00000000000E+00 -0.10822127231E+04  0.10822127232E+04  0.25500000920E-02 0.  1.
    10030    2    1    2    0    0  0.00000000000E+00  0.00000000000E+00 -0.33323719915E+03  0.18311882471E+04  0.18006119420E+04 0.  0.
        3    1    3    3  502    0 -0.14656425724E+03  0.65994108354E+03 -0.77131413380E+03  0.10256358118E+04  0.10100000352E+00 0.  1.
       -3    1    3    3    0  502  0.14656425724E+03 -0.65994108354E+03  0.43807693464E+03  0.80555243535E+03  0.10100000352E+00 0. -1.
</event>
<event>
 5   0  0.1239119E-04  0.1801309E+04  0.7818609E-02  0.8705604E-01
       -1   -1    0    0    0  501  0.00000000000E+00  0.00000000000E+00  0.50774975261E+03  0.50774975263E+03  0.50400001928E-02 0. -1.
        1   -1    0    0  501    0  0.00000000000E+00  0.00000000000E+00 -0.15975956878E+04  0.15975956878E+04  0.50400001928E-02 0.  1.
    10030    2    1    2    0    0  0.00000000000E+00  0.00000000000E+00 -0.10898459352E+04  0.21053454405E+04  0.18013093186E+04 0.  0.
        5    1    3    3  502    0 -0.31360068461E+03  0.83786589665E+03 -0.66634221830E+03  0.11155261951E+04  0.46999998093E+01 0. -1.
       -5    1    3    3    0  502  0.31360068461E+03 -0.83786589665E+03 -0.42350371690E+03  0.98981924531E+03  0.46999998093E+01 0.  1.
</event>
<event>
 5   0  0.1214723E-04  0.1809188E+04  0.7818609E-02  0.8701429E-01
        1   -1    0    0  501    0  0.00000000000E+00  0.00000000000E+00  0.65741421494E+03  0.65741421496E+03  0.50400001928E-02 0. -1.
       -1   -1    0    0    0  501  0.00000000000E+00  0.00000000000E+00 -0.12447101269E+04  0.12447101269E+04  0.50400001928E-02 0.  1.
    10030    2    1    2    0    0  0.00000000000E+00  0.00000000000E+00 -0.58729591194E+03  0.19021243418E+04  0.18091878077E+04 0.  0.
        1    1    3    3  502    0  0.63816279080E+03  0.50014064358E+03  0.12807786852E+03  0.82085099217E+03  0.50400001928E-02 0.  1.
       -1    1    3    3    0  502 -0.63816279080E+03 -0.50014064358E+03 -0.71537378046E+03  0.10812733497E+04  0.50400001928E-02 0. -1.
</event>
<event>
 5   0  0.1330225E-04  0.1778670E+04  0.7818609E-02  0.8717726E-01
       -1   -1    0    0    0  501  0.00000000000E+00  0.00000000000E+00  0.62328757924E+03  0.62328757926E+03  0.50400001928E-02 0.  1.
        1   -1    0    0  501    0  0.00000000000E+00  0.00000000000E+00 -0.12689429602E+04  0.12689429602E+04  0.50400001928E-02 0. -1.
    10030    2    1    2    0    0  0.00000000000E+00  0.00000000000E+00 -0.64565538093E+03  0.18922305394E+04  0.17786695993E+04 0.  0.
        3    1    3    3  502    0 -0.19132324165E+03  0.61700185757E+03 -0.97309828308E+03  0.11679966412E+04  0.10100000352E+00 0. -1.
       -3    1    3    3    0  502  0.19132324165E+03 -0.61700185757E+03  0.32744290215E+03  0.72423389828E+03  0.10100000352E+00 0.  1.
</event>
<event>
 5   0  0.2393421E-04  0.1742301E+04  0.7818609E-02  0.8737600E-01
        2   -1    0    0  501    0  0.00000000000E+00  0.00000000000E+00  0.83540600041E+03  0.83540600041E+03  0.25500000920E-02 0.  1.
       -2   -1    0    0    0  501  0.00000000000E+00  0.00000000000E+00 -0.90842458686E+03  0.90842458686E+03  0.25500000920E-02 0. -1.
    10030    2    1    2    0    0  0.00000000000E+00  0.00000000000E+00 -0.73018586452E+02  0.17438305873E+04  0.17423011804E+04 0.  0.
        5    1    3    3  502    0  0.72433929600E+03 -0.38769143751E+03  0.25341582025E+03  0.85977539764E+03  0.46999998093E+01 0.  1.
       -5    1    3    3    0  502 -0.72433929600E+03  0.38769143751E+03 -0.32643440670E+03  0.88405518963E+03  0.46999998093E+01 0. -1.
</event>
<event>
 5   0  0.9144875E-05  0.1805499E+04  0.7818609E-02  0.8703381E-01
        3   -1    0    0  501    0  0.00000000000E+00  0.00000000000E+00  0.15897044363E+04  0.15897044395E+04  0.10100000352E+00 0. -1.
       -3   -1    0    0    0  501  0.00000000000E+00  0.00000000000E+00 -0.51264652548E+03  0.51264653543E+03  0.10100000352E+00 0.  1.
    10030    2    1    2    0    0  0.00000000000E+00  0.00000000000E+00  0.10770579108E+04  0.21023509750E+04  0.18054987894E+04 0.  0.
        2    1    3    3  502    0 -0.49192093355E+03 -0.43116872543E+02 -0.34144203996E+03  0.60035650760E+03  0.25500000920E-02 0.  1.
       -2    1    3    3    0  502  0.49192093355E+03  0.43116872543E+02  0.14184999508E+04  0.15019944674E+04  0.25500000920E-02 0. -1.
</event>
<event>
 5   0  0.2569405E-04  0.1689096E+04  0.7818609E-02  0.8767608E-01
       -2   -1    0    0    0  501  0.00000000000E+00  0.00000000000E+00  0.55070686323E+03  0.55070686323E+03  0.25500000920E-02 0.  1.
        2   -1    0    0  501    0  0.00000000000E+00  0.00000000000E+00 -0.12951739668E+04  0.12951739668E+04  0.25500000920E-02 0. -1.
    10030    2    1    2    0    0  0.00000000000E+00  0.00000000000E+00 -0.74446710358E+03  0.18458808300E+04  0.16890958441E+04 0.  0.
        2    1    3    3  502    0  0.13834039801E+02 -0.79053025056E+03 -0.47807645959E+02  0.79209534068E+03  0.25500000920E-02 0.  1.
       -2    1    3    3    0  502 -0.13834039801E+02  0.79053025056E+03 -0.69665945762E+03  0.10537854894E+04  0.25500000920E-02 0. -1.
</event>
<event>
 5   0  0.2569405E-04  0.1810568E+04  0.7818609E-02  0.8700700E-01
        2   -1    0    0  501    0  0.00000000000E+00  0.00000000000E+00  0.46856424069E+03  0.46856424069E+03  0.25500000920E-02 0. -1.
       -2   -1    0    0    0  501  0.00000000000E+00  0.00000000000E+00 -0.17490428523E+04  0.17490428523E+04  0.25500000920E-02 0.  1.
    10030    2    1    2    0    0  0.00000000000E+00  0.00000000000E+00 -0.12804786116E+04  0.22176070930E+04  0.18105677961E+04 0.  0.
        2    1    3    3  502    0  0.57086941086E+03  0.81239514426E+02 -0.14950212364E+04  0.16023670741E+04  0.25500000920E-02 0.  1.
       -2    1    3    3    0  502 -0.57086941086E+03 -0.81239514426E+02  0.21454262478E+03  0.61524001887E+03  0.25500000920E-02 0. -1.
</event>
<event>
 5   0  0.2393421E-04  0.1780634E+04  0.7818609E-02  0.8716667E-01
        2   -1    0    0  501    0  0.00000000000E+00  0.00000000000E+00  0.96942640330E+03  0.96942640330E+03  0.25500000920E-02 0. -1.
       -2   -1    0    0    0  501  0.00000000000E+00  0.00000000000E+00 -0.81766296607E+03  0.81766296607E+03  0.25500000920E-02 0.  1.
    10030    2    1    2    0    0  0.00000000000E+00  0.00000000000E+00  0.15176343723E+03  0.17870893694E+04  0.17806336718E+04 0.  0.
        5    1    3    3  502    0  0.35133615914E+03  0.27574094391E+03  0.84885047986E+03  0.95918683896E+03  0.46999998093E+01 0. -1.
       -5    1    3    3    0  502 -0.35133615914E+03 -0.27574094391E+03 -0.69708704263E+03  0.82790253041E+03  0.46999998093E+01 0.  1.
</event>
<event>
 5   0  0.2550616E-04  0.1783410E+04  0.7818609E-02  0.8715172E-01
        2   -1    0    0  501    0  0.00000000000E+00  0.00000000000E+00  0.18197551986E+04  0.18197551986E+04  0.25500000920E-02 0. -1.
       -2   -1    0    0    0  501  0.00000000000E+00  0.00000000000E+00 -0.43694770880E+03  0.43694770881E+03  0.25500000920E-02 0.  1.
    10030    2    1    2    0    0  0.00000000000E+00  0.00000000000E+00  0.13828074898E+04  0.22567029074E+04  0.17834100646E+04 0.  0.
        1    1    3    3  502    0 -0.13676486270E+03  0.28851240707E+03  0.17449425066E+04  0.17739132978E+04  0.50400001928E-02 0. -1.
       -1    1    3    3    0  502  0.13676486270E+03 -0.28851240707E+03 -0.36213501682E+03  0.48278960960E+03  0.50400001928E-02 0.  1.
</event>
<event>
 5   0  0.2569405E-04  0.1798967E+04  0.7818609E-02  0.8706849E-01
       -2   -1    0    0    0  501  0.00000000000E+00  0.00000000000E+00  0.38298324279E+03  0.38298324280E+03  0.25500000920E-02 0.  1.
        2   -1    0    0  501    0  0.00000000000E+00  0.00000000000E+00 -0.21125474337E+04  0.21125474337E+04  0.25500000920E-02 0. -1.
    10030    2    1    2    0    0  0.00000000000E+00  0.00000000000E+00 -0.17295641909E+04  0.24955306765E+04  0.17989666664E+04 0.  0.
        2    1    3    3  502    0 -0.22745590364E+03 -0.68587306520E+03 -0.16078257286E+04  0.17627426424E+04  0.25500000920E-02 0. -1.
       -2    1    3    3    0  502  0.22745590364E+03  0.68587306520E+03 -0.12173846224E+03  0.73278803406E+03  0.25500000920E-02 0.  1.
</event>
<event>
 5   0  0.2550616E-04  0.1801651E+04  0.7818609E-02  0.8705422E-01
       -2   -1    0    0    0  501  0.00000000000E+00  0.00000000000E+00  0.73844919782E+03  0.73844919782E+03  0.25500000920E-02 0. -1.
        2   -1    0    0  501    0  0.00000000000E+00  0.00000000000E+00 -0.10989069693E+04  0.10989069693E+04  0.25500000920E-02 0.  1.
    10030    2    1    2    0    0  0.00000000000E+00  0.00000000000E+00 -0.36045777152E+03  0.18373561672E+04  0.18016514313E+04 0.  0.
        1    1    3    3  502    0  0.28639173595E+03  0.58456478632E+03 -0.81526570452E+03  0.10432614173E+04  0.50400001928E-02 0.  1.
       -1    1    3    3    0  502 -0.28639173595E+03 -0.58456478632E+03  0.45480793299E+03  0.79409474987E+03  0.50400001928E-02 0. -1.
</event>
<event>
 5   0  0.1308893E-04  0.1808712E+04  0.7818609E-02  0.8701680E-01
       -1   -1    0    0    0  501  0.00000000000E+00  0.00000000000E+00  0.41508320380E+03  0.41508320383E+03  0.50400001928E-02 0. -1.
        1   -1    0    0  501    0  0.00000000000E+00  0.00000000000E+00 -0.19703509886E+04  0.19703509886E+04  0.50400001928E-02 0.  1.
    10030    2    1    2    0    0  0.00000000000E+00  0.00000000000E+00 -0.15552677848E+04  0.23854341924E+04  0.18087118079E+04 0.  0.
        4    1    3    3  502    0 -0.85989869013E+03 -0.26007819725E+03 -0.91464009326E+03  0.12820431112E+04  0.12699999809E+01 0. -1.
       -4    1    3    3    0  502  0.85989869013E+03  0.26007819725E+03 -0.64062769150E+03  0.11033910812E+04  0.12699999809E+01 0.  1.
</event>
<event>
 5   0  0.1308893E-04  0.1810589E+04  0.7818609E-02  0.8700688E-01
        1   -1    0    0  501    0  0.00000000000E+00  0.00000000000E+00  0.10169963750E+04  0.10169963751E+04  0.50400001928E-02 0. -1.
       -1   -1    0    0    0  501  0.00000000000E+00  0.00000000000E+00 -0.80586162945E+03  0.80586162947E+03  0.50400001928E-02 0.  1.
    10030    2    1    2    0    0  0.00000000000E+00  0.00000000000E+00  0.21113474559E+03  0.18228580045E+04  0.18105892477E+04 0.  0.
        4    1    3    3  502    0  0.95001634724E+02 -0.60261483772E+02  0.10099303121E+04  0.10161779397E+04  0.12699999809E+01 0. -1.
       -4    1    3    3    0  502 -0.95001634724E+02  0.60261483772E+02 -0.79879556648E+03  0.80668006481E+03  0.12699999809E+01 0.  1.
</event>
<event>
 5   0  0.1308893E-04  0.1784585E+04  0.7818609E-02  0.8714540E-01
        1   -1    0    0  501    0  0.00000000000E+00  0.00000000000E+00  0.13362137294E+04  0.13362137294E+04  0.50400001928E-02 0. -1.
       -1   -1    0    0    0  501  0.00000000000E+00  0.00000000000E+00 -0.59585218350E+03  0.59585218352E+03  0.50400001928E-02 0.  1.
    10030    2    1    2    0    0  0.00000000000E+00  0.00000000000E+00  0.74036154585E+03  0.19320659129E+04  0.17845849582E+04 0.  0.
        4    1    3    3  502    0 -0.58638949543E+03  0.22203258655E+03  0.10574946180E+04  0.12294094476E+04  0.12699999809E+01 0. -1.
       -4    1    3    3    0  502  0.58638949543E+03 -0.22203258655E+03 -0.31713307216E+03  0.70265646528E+03  0.12699999809E+01 0.  1.
</event>
<event>
 5   0  0.2417106E-04  0.1792453E+04  0.7818609E-02  0.8710323E-01
        2   -1    0    0  501    0  0.00000000000E+00  0.00000000000E+00  0.13726356222E+04  0.13726356222E+04  0.25500000920E-02 0.  1.
       -2   -1    0    0    0  501  0.00000000000E+00  0.00000000000E+00 -0.58516794477E+03  0.58516794478E+03  0.25500000920E-02 0. -1.
    10030    2    1    2    0    0  0.00000000000E+00  0.00000000000E+00  0.78746767739E+03  0.19578035670E+04  0.17924534761E+04 0.  0.
        4    1    3    3  502    0  0.40155782219E+03 -0.78226054963E+03  0.58304438502E+03  0.10550462643E+04  0.12699999809E+01 0.  1.
       -4    1    3    3    0  502 -0.40155782219E+03  0.78226054963E+03  0.20442329238E+03  0.90275730262E+03  0.12699999809E+01 0. -1.
</event>
<event>
 5   0  0.1239119E-04  0.1827106E+04  0.7818609E-02  0.8692016E-01
        1   -1    0    0  501    0  0.00000000000E+00  0.00000000000E+00  0.76391629340E+03  0.76391629342E+03  0.50400001928E-02 0. -1.
       -1   -1    0    0    0  501  0.00000000000E+00  0.00000000000E+00 -0.10925001232E+04  0.10925001233E+04  0.50400001928E-02 0.  1.
    10030    2    1    2    0    0  0.00000000000E+00  0.00000000000E+00 -0.32858382984E+03  0.18564164167E+04  0.18271055194E+04 0.  0.
        5    1    3    3  502    0  0.68365916979E+03  0.58474732643E+03 -0.32570281491E+03  0.95677777453E+03  0.46999998093E+01 0.  1.
       -5    1    3    3    0  502 -0.68365916979E+03 -0.58474732643E+03 -0.28810149349E+01  0.89963864214E+03  0.46999998093E+01 0. -1.
</event>
<event>
 5   0  0.1253925E-04  0.1827992E+04  0.7818609E-02  0.8691554E-01
       -1   -1    0    0    0  501  0.00000000000E+00  0.00000000000E+00  0.15431217010E+04  0.15431217010E+04  0.50400001928E-02 0. -1.
        1   -1    0    0  501    0  0.00000000000E+00  0.00000000000E+00 -0.54136297184E+03  0.54136297186E+03  0.50400001928E-02 0.  1.
    10030    2    1    2    0    0  0.00000000000E+00  0.00000000000E+00  0.10017587291E+04  0.20844846728E+04  0.18279922866E+04 0.  0.
        2    1    3    3  502    0  0.55159643712E+03  0.16534417568E+03  0.13102544258E+04  0.14312106715E+04  0.25500000920E-02 0. -1.
       -2    1    3    3    0  502 -0.55159643712E+03 -0.16534417568E+03 -0.30849569671E+03  0.65327400130E+03  0.25500000920E-02 0.  1.
</event>
<event>
 5   0  0.1308893E-04  0.1799782E+04  0.7818609E-02  0.8706415E-01
        1   -1    0    0  501    0  0.00000000000E+00  0.00000000000E+00  0.14378167974E+04  0.14378167974E+04  0.50400001928E-02 0. -1.
       -1   -1    0    0    0  501  0.00000000000E+00  0.00000000000E+00 -0.56321787221E+03  0.56321787224E+03  0.50400001928E-02 0.  1.
    10030    2    1    2    0    0  0.00000000000E+00  0.00000000000E+00  0.87459892519E+03  0.20010346696E+04  0.17997823394E+04 0.  0.
        4    1    3    3  502    0  0.68087945712E+03 -0.11399244771E+03  0.10790918289E+04  0.12810276739E+04  0.12699999809E+01 0. -1.
       -4    1    3    3    0  502 -0.68087945712E+03  0.11399244771E+03 -0.20449290374E+03  0.72000699569E+03  0.12699999809E+01 0.  1.
</event>
<event>
 5   0  0.1308893E-04  0.1683139E+04  0.7818609E-02  0.8771040E-01
       -1   -1    0    0    0  501  0.00000000000E+00  0.00000000000E+00  0.10784588491E+04  0.10784588491E+04  0.50400001928E-02 0. -1.
        1   -1    0    0  501    0  0.00000000000E+00  0.00000000000E+00 -0.65671394718E+03  0.65671394720E+03  0.50400001928E-02 0.  1.
    10030    2    1    2    0    0  0.00000000000E+00  0.00000000000E+00  0.42174490195E+03  0.17351727963E+04  0.16831386963E+04 0.  0.
        4    1    3    3  502    0  0.52138714437E+02  0.83604280013E+03  0.12742980227E+03  0.84730512603E+03  0.12699999809E+01 0.  1.
       -4    1    3    3    0  502 -0.52138714437E+02 -0.83604280013E+03  0.29431509969E+03  0.88786767031E+03  0.12699999809E+01 0. -1.
</event>
<event>
 5   0  0.2431811E-04  0.1837847E+04  0.7818609E-02  0.8686428E-01
       -2   -1    0    0    0  501  0.00000000000E+00  0.00000000000E+00  0.42932308780E+03  0.42932308781E+03  0.25500000920E-02 0. -1.
        2   -1    0    0  501    0  0.00000000000E+00  0.00000000000E+00 -0.19668644307E+04  0.19668644307E+04  0.25500000920E-02 0.  1.
    10030    2    1    2    0    0  0.00000000000E+00  0.00000000000E+00 -0.15375413429E+04  0.23961875185E+04  0.18378469041E+04 0.  0.
        3    1    3    3  502    0 -0.72640455172E+03 -0.49877011745E+03 -0.42881809772E+03  0.97995927158E+03  0.10100000352E+00 0. -1.
       -3    1    3    3    0  502  0.72640455172E+03  0.49877011745E+03 -0.11087232452E+04  0.14162282469E+04  0.10100000352E+00 0.  1.
</event>
<event>
 5   0  0.1253925E-04  0.1792093E+04  0.7818609E-02  0.8710515E-01
        1   -1    0    0  501    0  0.00000000000E+00  0.00000000000E+00  0.12120757132E+04  0.12120757132E+04  0.50400001928E-02 0.  1.
       -1   -1    0    0    0  501  0.00000000000E+00  0.00000000000E+00 -0.66241701850E+03  0.66241701851E+03  0.50400001928E-02 0. -1.
    10030    2    1    2    0    0  0.00000000000E+00  0.00000000000E+00  0.54965869468E+03  0.18744927317E+04  0.17920932790E+04 0.  0.
        2    1    3    3  502    0 -0.36290552562E+03 -0.71696606971E+03  0.68948970866E+03  0.10588374871E+04  0.25500000920E-02 0.  1.
       -2    1    3    3    0  502  0.36290552562E+03  0.71696606971E+03 -0.13983101398E+03  0.81565524465E+03  0.25500000920E-02 0. -1.
</event>
<event>
 5   0  0.2431811E-04  0.1786491E+04  0.7818609E-02  0.8713517E-01
        2   -1    0    0  501    0  0.00000000000E+00  0.00000000000E+00  0.45153424409E+03  0.45153424409E+03  0.25500000920E-02 0. -1.
       -2   -1    0    0    0  501  0.00000000000E+00  0.00000000000E+00 -0.17670581428E+04  0.17670581428E+04  0.25500000920E-02 0.  1.
    10030    2    1    2    0    0  0.00000000000E+00  0.00000000000E+00 -0.13155238987E+04  0.22185923869E+04  0.17864907084E+04 0.  0.
        3    1    3    3  502    0  0.60324859751E+03 -0.37527609817E+03 -0.13301483406E+04  0.15079905963E+04  0.10100000352E+00 0.  1.
       -3    1    3    3    0  502 -0.60324859751E+03  0.37527609817E+03  0.14624441946E+02  0.71060179057E+03  0.10100000352E+00 0. -1.
</event>
<event>
 5   0  0.1239119E-04  0.1780618E+04  0.7818609E-02  0.8716675E-01
       -1   -1    0    0    0  501  0.00000000000E+00  0.00000000000E+00  0.96028732423E+03  0.96028732424E+03  0.50400001928E-02 0.  1.
        1   -1    0    0  501    0  0.00000000000E+00  0.00000000000E+00 -0.82543060236E+03  0.82543060237E+03  0.50400001928E-02 0. -1.
    10030    2    1    2    0    0  0.00000000000E+00  0.00000000000E+00  0.13485672187E+03  0.17857179266E+04  0.17806184819E+04 0.  0.
        5    1    3    3  502    0 -0.60894048483E+03  0.45918691286E+03 -0.39319883339E+03  0.85807257711E+03  0.46999998093E+01 0. -1.
       -5    1    3    3    0  502  0.60894048483E+03 -0.45918691286E+03  0.52805555527E+03  0.92764534950E+03  0.46999998093E+01 0.  1.
</event>
<event>
 5   0  0.2431811E-04  0.1614896E+04  0.7818609E-02  0.8811449E-01
       -2   -1    0    0    0  501  0.00000000000E+00  0.00000000000E+00  0.32548802852E+03  0.32548802853E+03  0.25500000920E-02 0.  1.
        2   -1    0    0  501    0  0.00000000000E+00  0.00000000000E+00 -0.20030600645E+04  0.20030600645E+04  0.25500000920E-02 0. -1.
    10030    2    1    2    0    0  0.00000000000E+00  0.00000000000E+00 -0.16775720360E+04  0.23285480930E+04  0.16148957507E+04 0.  0.
        3    1    3    3  502    0 -0.72368414761E+03  0.23182176101E+03 -0.44518719388E+03  0.88071091862E+03  0.10100000352E+00 0.  1.
       -3    1    3    3    0  502  0.72368414761E+03 -0.23182176101E+03 -0.12323848421E+04  0.14478371744E+04  0.10100000352E+00 0. -1.
</event>
<event>
 5   0  0.1330225E-04  0.1794588E+04  0.7818609E-02  0.8709183E-01
       -1   -1    0    0    0  501  0.00000000000E+00  0.00000000000E+00  0.43212880494E+03  0.43212880497E+03  0.50400001928E-02 0.  1.
        1   -1    0    0  501    0  0.00000000000E+00  0.00000000000E+00 -0.18631866213E+04  0.18631866213E+04  0.50400001928E-02 0. -1.
    10030    2    1    2    0    0  0.00000000000E+00  0.00000000000E+00 -0.14310578164E+04  0.22953154263E+04  0.17945880954E+04 0.  0.
        3    1    3    3  502    0 -0.27295844695E+03  0.77188410856E+02 -0.18043296386E+04  0.18264911222E+04  0.10100000352E+00 0. -1.
       -3    1    3    3    0  502  0.27295844695E+03 -0.77188410856E+02  0.37327182229E+03  0.46882430403E+03  0.10100000352E+00 0.  1.
</event>
<event>
 5   0  0.1239119E-04  0.1685254E+04  0.7818609E-02  0.8769820E-01
       -1   -1    0    0    0  501  0.00000000000E+00  0.00000000000E+00  0.14809573461E+04  0.14809573461E+04  0.50400001928E-02 0.  1.
        1   -1    0    0  501    0  0.00000000000E+00  0.00000000000E+00 -0.47943314157E+03  0.47943314160E+03  0.50400001928E-02 0. -1.
    10030    2    1    2    0    0  0.00000000000E+00  0.00000000000E+00  0.10015242045E+04  0.19603904877E+04  0.16852537293E+04 0.  0.
        5    1    3    3  502    0 -0.13740417366E+03 -0.48524514420E+03 -0.28446530294E+03  0.57903830226E+03  0.46999998093E+01 0. -1.
       -5    1    3    3    0  502  0.13740417366E+03  0.48524514420E+03  0.12859895074E+04  0.13813521854E+04  0.46999998093E+01 0.  1.
</event>
<event>
 5   0  0.2393421E-04  0.1797399E+04  0.7818609E-02  0.8707684E-01
        2   -1    0    0  501    0  0.00000000000E+00  0.00000000000E+00  0.13003738406E+04  0.13003738406E+04  0.25500000920E-02 0.  1.
       -2   -1    0    0    0  501  0.00000000000E+00  0.00000000000E+00 -0.62109918553E+03  0.62109918554E+03  0.25500000920E-02 0. -1.
    10030    2    1    2    0    0  0.00000000000E+00  0.00000000000E+00  0.67927465509E+03  0.19214730262E+04  0.17973993806E+04 0.  0.
        5    1    3    3  502    0 -0.45144510552E+03 -0.16700358089E+03 -0.47166112856E+03  0.67392817831E+03  0.46999998093E+01 0. -1.
       -5    1    3    3    0  502  0.45144510552E+03  0.16700358089E+03  0.11509357836E+04  0.12475448479E+04  0.46999998093E+01 0.  1.
</event>
<event>
 5   0  0.1214723E-04  0.1806589E+04  0.7818609E-02  0.8702803E-01
       -1   -1    0    0    0  501  0.00000000000E+00  0.00000000000E+00  0.93058290150E+03  0.93058290151E+03  0.50400001928E-02 0.  1.
        1   -1    0    0  501    0  0.00000000000E+00  0.00000000000E+00 -0.87680613545E+03  0.87680613546E+03  0.50400001928E-02 0. -1.
    10030    2    1    2    0    0  0.00000000000E+00  0.00000000000E+00  0.53776766047E+02  0.18073890370E+04  0.18065888272E+04 0.  0.
        1    1    3    3  502    0  0.85565199136E+03  0.20950958344E+03  0.22674223364E+03  0.90964093818E+03  0.50400001928E-02 0.  1.
       -1    1    3    3    0  502 -0.85565199136E+03 -0.20950958344E+03 -0.17296546759E+03  0.89774809879E+03  0.50400001928E-02 0. -1.
</event>
<event>
 5   0  0.1253925E-04  0.1806742E+04  0.7818609E-02  0.8702723E-01
        1   -1    0    0  501    0  0.00000000000E+00  0.00000000000E+00  0.16031867861E+04  0.16031867861E+04  0.50400001928E-02 0.  1.
       -1   -1    0    0    0  501  0.00000000000E+00  0.00000000000E+00 -0.50903535789E+03  0.50903535791E+03  0.50400001928E-02 0. -1.
    10030    2    1    2    0    0  0.00000000000E+00  0.00000000000E+00  0.10941514282E+04  0.21122221441E+04  0.18067415526E+04 0.  0.
        2    1    3    3  502    0  0.70995884505E+03 -0.53872464453E+03  0.37441210602E+03  0.96666965890E+03  0.25500000920E-02 0. -1.
       -2    1    3    3    0  502 -0.70995884505E+03  0.53872464453E+03  0.71973932223E+03  0.11455524852E+04  0.25500000920E-02 0.  1.
</event>
<event>
 5   0  0.2569405E-04  0.1799293E+04  0.7818609E-02  0.8706675E-01
       -2   -1    0    0    0  501  0.00000000000E+00  0.00000000000E+00  0.13635767382E+04  0.13635767382E+04  0.25500000920E-02 0. -1.
        2   -1    0    0  501    0  0.00000000000E+00  0.00000000000E+00 -0.59355956703E+03  0.59355956703E+03  0.25500000920E-02 0.  1.
    10030    2    1    2    0    0  0.00000000000E+00  0.00000000000E+00  0.77001717113E+03  0.19571363052E+04  0.17992932149E+04 0.  0.
        2    1    3    3  502    0  0.48674658442E+03 -0.43828172358E+03  0.10558368640E+04  0.12424993320E+04  0.25500000920E-02 0. -1.
       -2    1    3    3    0  502 -0.48674658442E+03  0.43828172358E+03 -0.28581969283E+03  0.71463697321E+03  0.25500000920E-02 0.  1.
</event>
<event>
 5   0  0.2569405E-04  0.1797240E+04  0.7818609E-02  0.8707769E-01
       -2   -1    0    0    0  501  0.00000000000E+00  0.00000000000E+00  0.44671461785E+03  0.44671461786E+03  0.25500000920E-02 0. -1.
        2   -1    0    0  501    0  0.00000000000E+00  0.00000000000E+00 -0.18076815274E+04  0.18076815274E+04  0.25500000920E-02 0.  1.
    10030    2    1    2    0    0  0.00000000000E+00  0.00000000000E+00 -0.13609669095E+04  0.22543961452E+04  0.17972398423E+04 0.  0.
        2    1    3    3  502    0  0.57618020678E+03  0.54918490534E+03 -0.15735115740E+03  0.81138589936E+03  0.25500000920E-02 0. -1.
       -2    1    3    3    0  502 -0.57618020678E+03 -0.54918490534E+03 -0.12036157521E+04  0.14430102459E+04  0.25500000920E-02 0.  1.
</event>
<event>
 5   0  0.2417106E-04  0.1794410E+04  0.7818609E-02  0.8709278E-01
        2   -1    0    0  501    0  0.00000000000E+00  0.00000000000E+00  0.12338098780E+04  0.12338098780E+04  0.25500000920E-02 0.  1.
       -2   -1    0    0    0  501  0.00000000000E+00  0.00000000000E+00 -0.65243195579E+03  0.65243195580E+03  0.25500000920E-02 0. -1.
    10030    2    1    2    0    0  0.00000000000E+00  0.00000000000E+00  0.58137792221E+03  0.18862418338E+04  0.17944102004E+04 0.  0.
        4    1    3    3  502    0 -0.67585917856E+03  0.56072941600E+03  0.97511799574E+02  0.88357980464E+03  0.12699999809E+01 0. -1.
       -4    1    3    3    0  502  0.67585917856E+03 -0.56072941600E+03  0.48386612263E+03  0.10026620292E+04  0.12699999809E+01 0.  1.
</event>
<event>
 5   0  0.2550616E-04  0.1792359E+04  0.7818609E-02  0.8710374E-01
       -2   -1    0    0    0  501  0.00000000000E+00  0.00000000000E+00  0.66575113286E+03  0.66575113286E+03  0.25500000920E-02 0.  1.
        2   -1    0    0  501    0  0.00000000000E+00  0.00000000000E+00 -0.12063629472E+04  0.12063629472E+04  0.25500000920E-02 0. -1.
    10030    2    1    2    0    0  0.00000000000E+00  0.00000000000E+00 -0.54061181436E+03  0.18721140801E+04  0.17923587797E+04 0.  0.
        1    1    3    3  502    0 -0.28328100537E+03  0.66042965166E+02  0.61507289318E+03  0.68038552689E+03  0.50400001928E-02 0.  1.
       -1    1    3    3    0  502  0.28328100537E+03 -0.66042965166E+02 -0.11556847075E+04  0.11917285532E+04  0.50400001928E-02 0. -1.
</event>
<event>
 5   0  0.2393421E-04  0.1803021E+04  0.7818609E-02  0.8704694E-01
        2   -1    0    0  501    0  0.00000000000E+00  0.00000000000E+00  0.11963497002E+04  0.11963497002E+04  0.25500000920E-02 0.  1.
       -2   -1    0    0    0  501  0.00000000000E+00  0.00000000000E+00 -0.67933433668E+03  0.67933433668E+03  0.25500000920E-02 0. -1.
    10030    2    1    2    0    0  0.00000000000E+00  0.00000000000E+00  0.51701536354E+03  0.18756840369E+04  0.18030212756E+04 0.  0.
        5    1    3    3  502    0 -0.66284313903E+03 -0.35997243324E+03  0.77212352625E+03  0.10794155870E+04  0.46999998093E+01 0.  1.
       -5    1    3    3    0  502  0.66284313903E+03  0.35997243324E+03 -0.25510816271E+03  0.79626844991E+03  0.46999998093E+01 0. -1.
</event>
<event>
 5   0  0.2417106E-04  0.1800647E+04  0.7818609E-02  0.8705955E-01
       -2   -1    0    0    0  501  0.00000000000E+00  0.00000000000E+00  0.12569132540E+04  0.12569132540E+04  0.25500000920E-02 0.  1.
        2   -1    0    0  501    0  0.00000000000E+00  0.00000000000E+00 -0.64489933447E+03  0.64489933448E+03  0.25500000920E-02 0. -1.
    10030    2    1    2    0    0  0.00000000000E+00  0.00000000000E+00  0.61201391954E+03  0.19018125885E+04  0.18006471292E+04 0.  0.
        4    1    3    3  502    0 -0.28324544825E+03  0.37433703819E+03  0.11174308628E+04  0.12120270410E+04  0.12699999809E+01 0.  1.
       -4    1    3    3    0  502  0.28324544825E+03 -0.37433703819E+03 -0.50541694324E+03  0.68978554750E+03  0.12699999809E+01 0. -1.
</event>
<event>
 5   0  0.2431811E-04  0.1800124E+04  0.7818609E-02  0.8706234E-01
       -2   -1    0    0    0  501  0.00000000000E+00  0.00000000000E+00  0.90043263407E+03  0.90043263407E+03  0.25500000920E-02 0.  1.
        2   -1    0    0  501    0  0.00000000000E+00  0.00000000000E+00 -0.89969142745E+03  0.89969142745E+03  0.25500000920E-02 0. -1.
    10030    2    1    2    0    0  0.00000000000E+00  0.00000000000E+00  0.74120662234E+00  0.18001240615E+04  0.18001239089E+04 0.  0.
        3    1    3    3  502    0  0.59570809671E+03 -0.61080815530E+03  0.28700065501E+03  0.90018005157E+03  0.10100000352E+00 0.  1.
       -3    1    3    3    0  502 -0.59570809671E+03  0.61080815530E+03 -0.28625944838E+03  0.89994400996E+03  0.10100000352E+00 0. -1.
</event>
<event>
 5   0  0.9144875E-05  0.1792453E+04  0.7818609E-02  0.8710323E-01
       -3   -1    0    0    0  501  0.00000000000E+00  0.00000000000E+00  0.47682172142E+03  0.47682173212E+03  0.10100000352E+00 0.  1.
        3   -1    0    0  501    0  0.00000000000E+00  0.00000000000E+00 -0.16845338333E+04  0.16845338363E+04  0.10100000352E+00 0. -1.
    10030    2    1    2    0    0  0.00000000000E+00  0.00000000000E+00 -0.12077121118E+04  0.21613555684E+04  0.17924534438E+04 0.  0.
        1    1    3    3  502    0  0.27850389765E+03 -0.27561143942E+03 -0.15757827610E+04  0.16237664230E+04  0.50400001928E-02 0. -1.
       -1    1    3    3    0  502 -0.27850389765E+03  0.27561143942E+03  0.36807064912E+03  0.53758914546E+03  0.50400001928E-02 0.  1.
</event>
<event>
 5   0  0.9144875E-05  0.1798115E+04  0.7818609E-02  0.8707303E-01
       -3   -1    0    0    0  501  0.00000000000E+00  0.00000000000E+00  0.11799557597E+04  0.11799557640E+04  0.10100000352E+00 0.  1.
        3   -1    0    0  501    0  0.00000000000E+00  0.00000000000E+00 -0.68502906628E+03  0.68502907373E+03  0.10100000352E+00 0. -1.
    10030    2    1    2    0    0  0.00000000000E+00  0.00000000000E+00  0.49492669342E+03  0.18649848378E+04  0.17981145718E+04 0.  0.
        4    1    3    3  502    0 -0.64435115157E+03  0.16281902935E+03 -0.38053212673E+03  0.76583598454E+03  0.12699999809E+01 0. -1.
       -4    1    3    3    0  502  0.64435115157E+03 -0.16281902935E+03  0.87545882014E+03  0.10991488532E+04  0.12699999809E+01 0.  1.
</event>
<event>
 5   0  0.1330225E-04  0.1697059E+04  0.7818609E-02  0.8763043E-01
        1   -1    0    0  501    0  0.00000000000E+00  0.00000000000E+00  0.12651160094E+04  0.12651160094E+04  0.50400001928E-02 0.  1.
       -1   -1    0    0    0  501  0.00000000000E+00  0.00000000000E+00 -0.56911973645E+03  0.56911973647E+03  0.50400001928E-02 0. -1.
    10030    2    1    2    0    0  0.00000000000E+00  0.00000000000E+00  0.69599627298E+03  0.18342357459E+04  0.16970592092E+04 0.  0.
        3    1    3    3  502    0 -0.11250300483E+03 -0.71710422512E+03 -0.12696210947E+03  0.73689536789E+03  0.10100000352E+00 0. -1.
       -3    1    3    3    0  502  0.11250300483E+03  0.71710422512E+03  0.82295838245E+03  0.10973403780E+04  0.10100000352E+00 0.  1.
</event>
<event>
 5   0  0.2393421E-04  0.1789446E+04  0.7818609E-02  0.8711932E-01
       -2   -1    0    0    0  501  0.00000000000E+00  0.00000000000E+00  0.35469769857E+03  0.35469769857E+03  0.25500000920E-02 0.  1.
        2   -1    0    0  501    0  0.00000000000E+00  0.00000000000E+00 -0.22569333764E+04  0.22569333764E+04  0.25500000920E-02 0. -1.
    10030    2    1    2    0    0  0.00000000000E+00  0.00000000000E+00 -0.19022356779E+04  0.26116310750E+04  0.17894458075E+04 0.  0.
        5    1    3    3  502    0  0.67519155798E+03 -0.57117246870E+03 -0.75322535822E+03  0.11616764434E+04  0.46999998093E+01 0.  1.
       -5    1    3    3    0  502 -0.67519155798E+03  0.57117246870E+03 -0.11490103197E+04  0.14499546316E+04  0.46999998093E+01 0. -1.
</event>
<event>
 5   0  0.1308893E-04  0.1771729E+04  0.7818609E-02  0.8721480E-01
       -1   -1    0    0    0  501  0.00000000000E+00  0.00000000000E+00  0.10099052889E+04  0.10099052889E+04  0.50400001928E-02 0. -1.
        1   -1    0    0  501    0  0.00000000000E+00  0.00000000000E+00 -0.77705905354E+03  0.77705905356E+03  0.50400001928E-02 0.  1.
    10030    2    1    2    0    0  0.00000000000E+00  0.00000000000E+00  0.23284623538E+03  0.17869643425E+04  0.17717291531E+04 0.  0.
        4    1    3    3  502    0  0.85442932395E+03  0.11134423112E+03 -0.91033295814E+02  0.86645004546E+03  0.12699999809E+01 0.  1.
       -4    1    3    3    0  502 -0.85442932395E+03 -0.11134423112E+03  0.32387953119E+03  0.92051429704E+03  0.12699999809E+01 0. -1.
</event>
<event>
 5   0  0.2550616E-04  0.1799638E+04  0.7818609E-02  0.8706492E-01
       -2   -1    0    0    0  501  0.00000000000E+00  0.00000000000E+00  0.52172526046E+03  0.52172526047E+03  0.25500000920E-02 0. -1.
        2   -1    0    0  501    0  0.00000000000E+00  0.00000000000E+00 -0.15519171367E+04  0.15519171367E+04  0.25500000920E-02 0.  1.
    10030    2    1    2    0    0  0.00000000000E+00  0.00000000000E+00 -0.10301918762E+04  0.20736423971E+04  0.17996381551E+04 0.  0.
        1    1    3    3  502    0 -0.25585006035E+02  0.46376651099E+03 -0.14031105381E+04  0.14779895640E+04  0.50400001928E-02 0.  1.
       -1    1    3    3    0  502  0.25585006035E+02 -0.46376651099E+03  0.37291866185E+03  0.59565283314E+03  0.50400001928E-02 0. -1.
</event>
<event>
 5   0  0.2569405E-04  0.1802509E+04  0.7818609E-02  0.8704967E-01
       -2   -1    0    0    0  501  0.00000000000E+00  0.00000000000E+00  0.73906173542E+03  0.73906173542E+03  0.25500000920E-02 0.  1.
        2   -1    0    0  501    0  0.00000000000E+00  0.00000000000E+00 -0.10990412034E+04  0.10990412034E+04  0.25500000920E-02 0. -1.
    10030    2    1    2    0    0  0.00000000000E+00  0.00000000000E+00 -0.35997946799E+03  0.18381029388E+04  0.18025085843E+04 0.  0.
        2    1    3    3  502    0  0.31630659908E+03  0.78717591801E+03  0.13026069573E+03  0.85829111575E+03  0.25500000920E-02 0.  1.
       -2    1    3    3    0  502 -0.31630659908E+03 -0.78717591801E+03 -0.49024016372E+03  0.97981182308E+03  0.25500000920E-02 0. -1.
</event>
<event>
 5   0  0.1239119E-04  0.1679752E+04  0.7818609E-02  0.8772998E-01
        1   -1    0    0  501    0  0.00000000000E+00  0.00000000000E+00  0.21964454521E+04  0.21964454521E+04  0.50400001928E-02 0. -1.
       -1   -1    0    0    0  501  0.00000000000E+00  0.00000000000E+00 -0.32115141764E+03  0.32115141768E+03  0.50400001928E-02 0.  1.
    10030    2    1    2    0    0  0.00000000000E+00  0.00000000000E+00  0.18752940345E+04  0.25175968698E+04  0.16797518516E+04 0.  0.
        5    1    3    3  502    0 -0.57454182374E+03 -0.52933733302E+03  0.47551077444E+03  0.91456487248E+03  0.46999998093E+01 0. -1.
       -5    1    3    3    0  502  0.57454182374E+03  0.52933733302E+03  0.13997832600E+04  0.16030319973E+04  0.46999998093E+01 0.  1.
</event>
<event>
 5   0  0.2417106E-04  0.1818607E+04  0.7818609E-02  0.8696466E-01
        2   -1    0    0  501    0  0.00000000000E+00  0.00000000000E+00  0.81730857574E+03  0.81730857574E+03  0.25500000920E-02 0.  1.
       -2   -1    0    0    0  501  0.00000000000E+00  0.00000000000E+00 -0.10116535476E+04  0.10116535476E+04  0.25500000920E-02 0. -1.
    10030    2    1    2    0    0  0.00000000000E+00  0.00000000000E+00 -0.19434497182E+03  0.18289621233E+04  0.18186072914E+04 0.  0.
        4    1    3    3  502    0 -0.37108870386E+02  0.71960426010E+03 -0.65496925629E+03  0.97375238075E+03  0.12699999809E+01 0. -1.
       -4    1    3    3    0  502  0.37108870386E+02 -0.71960426010E+03  0.46062428447E+03  0.85520974256E+03  0.12699999809E+01 0.  1.
</event>
<event>
 5   0  0.2393421E-04  0.1775739E+04  0.7818609E-02  0.8719309E-01
        2   -1    0    0  501    0  0.00000000000E+00  0.00000000000E+00  0.81969579327E+03  0.81969579328E+03  0.25500000920E-02 0.  1.
       -2   -1    0    0    0  501  0.00000000000E+00  0.00000000000E+00 -0.96171323205E+03  0.96171323205E+03  0.25500000920E-02 0. -1.
    10030    2    1    2    0    0  0.00000000000E+00  0.00000000000E+00 -0.14201743877E+03  0.17814090253E+04  0.17757390469E+04 0.  0.
        5    1    3    3  502    0 -0.61911759432E+02  0.70112253305E+03  0.47190719321E+03  0.84742218599E+03  0.46999998093E+01 0.  1.
       -5    1    3    3    0  502  0.61911759432E+02 -0.70112253305E+03 -0.61392463198E+03  0.93398683934E+03  0.46999998093E+01 0. -1.
</event>
<event>
 5   0  0.1308893E-04  0.1728640E+04  0.7818609E-02  0.8745196E-01
        1   -1    0    0  501    0  0.00000000000E+00  0.00000000000E+00  0.18652982052E+04  0.18652982052E+04  0.50400001928E-02 0. -1.
       -1   -1    0    0    0  501  0.00000000000E+00  0.00000000000E+00 -0.40049865560E+03  0.40049865563E+03  0.50400001928E-02 0.  1.
    10030    2    1    2    0    0  0.00000000000E+00  0.00000000000E+00  0.14647995496E+04  0.22657968609E+04  0.17286404178E+04 0.  0.
        4    1    3    3  502    0  0.63314337423E+03 -0.58571328986E+03  0.65921848490E+03  0.10855879577E+04  0.12699999809E+01 0.  1.
       -4    1    3    3    0  502 -0.63314337423E+03  0.58571328986E+03  0.80558106472E+03  0.11802089031E+04  0.12699999809E+01 0. -1.
</event>
<event>
 5   0  0.2431811E-04  0.1792176E+04  0.7818609E-02  0.8710471E-01
       -2   -1    0    0    0  501  0.00000000000E+00  0.00000000000E+00  0.64924617400E+03  0.64924617400E+03  0.25500000920E-02 0.  1.
        2   -1    0    0  501    0  0.00000000000E+00  0.00000000000E+00 -0.12367787030E+04  0.12367787031E+04  0.25500000920E-02 0. -1.
    10030    2    1    2    0    0  0.00000000000E+00  0.00000000000E+00 -0.58753252905E+03  0.18860248771E+04  0.17921761532E+04 0.  0.
        3    1    3    3  502    0  0.56686636612E+03 -0.18899540147E+03  0.40897229192E+03  0.72409604652E+03  0.10100000352E+00 0.  1.
       -3    1    3    3    0  502 -0.56686636612E+03  0.18899540147E+03 -0.99650482097E+03  0.11619288305E+04  0.10100000352E+00 0. -1.
</event>
<event>
 5   0  0.1239119E-04  0.1801946E+04  0.7818609E-02  0.8705265E-01
        1   -1    0    0  501    0  0.00000000000E+00  0.00000000000E+00  0.19037204121E+04  0.19037204121E+04  0.50400001928E-02 0.  1.
       -1   -1    0    0    0  501  0.00000000000E+00  0.00000000000E+00 -0.42640319841E+03  0.42640319844E+03  0.50400001928E-02 0. -1.
    10030    2    1    2    0    0  0.00000000000E+00  0.00000000000E+00  0.14773172136E+04  0.23301236105E+04  0.18019461397E+04 0.  0.
        5    1    3    3  502    0  0.13998581812E+03 -0.22099248728E+03 -0.37619604277E+03  0.45823494116E+03  0.46999998093E+01 0. -1.
       -5    1    3    3    0  502 -0.13998581812E+03  0.22099248728E+03  0.18535132564E+04  0.18718886693E+04  0.46999998093E+01 0.  1.
</event>
<event>
 5   0  0.1330225E-04  0.1771924E+04  0.7818609E-02  0.8721374E-01
       -1   -1    0    0    0  501  0.00000000000E+00  0.00000000000E+00  0.40785092797E+03  0.40785092800E+03  0.50400001928E-02 0.  1.
        1   -1    0    0  501    0  0.00000000000E+00  0.00000000000E+00 -0.19245471372E+04  0.19245471372E+04  0.50400001928E-02 0. -1.
    10030    2    1    2    0    0  0.00000000000E+00  0.00000000000E+00 -0.15166962092E+04  0.23323980652E+04  0.17719236280E+04 0.  0.
        3    1    3    3  502    0 -0.56278156873E+03 -0.44732575428E+03 -0.14399174509E+04  0.16094053872E+04  0.10100000352E+00 0. -1.
       -3    1    3    3    0  502  0.56278156873E+03  0.44732575428E+03 -0.76778758281E+02  0.72299267802E+03  0.10100000352E+00 0.  1.
</event>
<event>
 5   0  0.1330225E-04  0.1803545E+04  0.7818609E-02  0.8704417E-01
        1   -1    0    0  501    0  0.00000000000E+00  0.00000000000E+00  0.88275743971E+03  0.88275743972E+03  0.50400001928E-02 0. -1.
       -1   -1    0    0    0  501  0.00000000000E+00  0.00000000000E+00 -0.92119668972E+03  0.92119668973E+03  0.50400001928E-02 0.  1.
    10030    2    1    2    0    0  0.00000000000E+00  0.00000000000E+00 -0.38439250009E+02  0.18039541295E+04  0.18035445448E+04 0.  0.
        3    1    3    3  502    0 -0.57606916943E+03  0.56416195224E+03  0.38467750849E+03  0.89337069130E+03  0.10100000352E+00 0. -1.
       -3    1    3    3    0  502  0.57606916943E+03 -0.56416195224E+03 -0.42311675850E+03  0.91058343816E+03  0.10100000352E+00 0.  1.
</event>
<event>
 5   0  0.1308893E-04  0.1788277E+04  0.7818609E-02  0.8712559E-01
       -1   -1    0    0    0  501  0.00000000000E+00  0.00000000000E+00  0.56198513711E+03  0.56198513713E+03  0.50400001928E-02 0.  1.
        1   -1    0    0  501    0  0.00000000000E+00  0.00000000000E+00 -0.14226056592E+04  0.14226056592E+04  0.50400001928E-02 0. -1.
    10030    2    1    2    0    0  0.00000000000E+00  0.00000000000E+00 -0.86062052210E+03  0.19845907963E+04  0.17882765295E+04 0.  0.
        4    1    3    3  502    0  0.30271086811E+02  0.48861931509E+03 -0.12606563114E+04  0.13523761023E+04  0.12699999809E+01 0. -1.
       -4    1    3    3    0  502 -0.30271086811E+02 -0.48861931509E+03  0.40003578927E+03  0.63221469405E+03  0.12699999809E+01 0.  1.
</event>
<event>
 5   0  0.2431811E-04  0.1807530E+04  0.7818609E-02  0.8702305E-01
       -2   -1    0    0    0  501  0.00000000000E+00  0.00000000000E+00  0.49239922692E+03  0.49239922693E+03  0.25500000920E-02 0.  1.
        2   -1    0    0  501    0  0.00000000000E+00  0.00000000000E+00 -0.16587989110E+04  0.16587989110E+04  0.25500000920E-02 0. -1.
    10030    2    1    2    0    0  0.00000000000E+00  0.00000000000E+00 -0.11663996841E+04  0.21511981380E+04  0.18075301396E+04 0.  0.
        3    1    3    3  502    0  0.10268332710E+03  0.81954599297E+03 -0.10198203713E+04  0.13123387902E+04  0.10100000352E+00 0. -1.
       -3    1    3    3    0  502 -0.10268332710E+03 -0.81954599297E+03 -0.14657931282E+03  0.83885934781E+03  0.10100000352E+00 0.  1.
</event>
<event>
 5   0  0.9144875E-05  0.1801814E+04  0.7818609E-02  0.8705336E-01
        3   -1    0    0  501    0  0.00000000000E+00  0.00000000000E+00  0.18964609397E+04  0.18964609424E+04  0.10100000352E+00 0. -1.
       -3   -1    0    0    0  501  0.00000000000E+00  0.00000000000E+00 -0.42797251372E+03  0.42797252564E+03  0.10100000352E+00 0.  1.
    10030    2    1    2    0    0  0.00000000000E+00  0.00000000000E+00  0.14684884260E+04  0.23244334681E+04  0.18018137224E+04 0.  0.
        2    1    3    3  502    0 -0.43628610671E+03 -0.14703568645E+03 -0.26474939102E+03  0.53109067027E+03  0.25500000920E-02 0.  1.
       -2    1    3    3    0  502  0.43628610671E+03  0.14703568645E+03  0.17332378170E+04  0.17933427978E+04  0.25500000920E-02 0. -1.
</event>
<event>
 5   0  0.2431811E-04  0.1801282E+04  0.7818609E-02  0.8705618E-01
       -2   -1    0    0    0  501  0.00000000000E+00  0.00000000000E+00  0.68340089731E+03  0.68340089731E+03  0.25500000920E-02 0.  1.
        2   -1    0    0  501    0  0.00000000000E+00  0.00000000000E+00 -0.11869374144E+04  0.11869374144E+04  0.25500000920E-02 0. -1.
    10030    2    1    2    0    0  0.00000000000E+00  0.00000000000E+00 -0.50353651708E+03  0.18703383117E+04  0.18012818703E+04 0.  0.
        3    1    3    3  502    0  0.53539426900E+02  0.45771620498E+01 -0.11852714895E+04  0.11864889105E+04  0.10100000352E+00 0. -1.
       -3    1    3    3    0  502 -0.53539426900E+02 -0.45771620498E+01  0.68173497246E+03  0.68384940120E+03  0.10100000352E+00 0.  1.
</event>
<event>
 5   0  0.2393421E-04  0.1801597E+04  0.7818609E-02  0.8705451E-01
       -2   -1    0    0    0  501  0.00000000000E+00  0.00000000000E+00  0.87000782285E+03  0.87000782286E+03  0.25500000920E-02 0.  1.
        2   -1    0    0  501    0  0.00000000000E+00  0.00000000000E+00 -0.93267895944E+03  0.93267895944E+03  0.25500000920E-02 0. -1.
    10030    2    1    2    0    0  0.00000000000E+00  0.00000000000E+00 -0.62671136586E+02  0.18026867823E+04  0.18015970592E+04 0.  0.
        5    1    3    3  502    0  0.78885900172E+03 -0.13426770507E+03  0.38254435934E+03  0.88695468773E+03  0.46999998093E+01 0.  1.
       -5    1    3    3    0  502 -0.78885900172E+03  0.13426770507E+03 -0.44521549593E+03  0.91573209457E+03  0.46999998093E+01 0. -1.
</event>
<event>
 5   0  0.1253925E-04  0.1801481E+04  0.7818609E-02  0.8705512E-01
       -1   -1    0    0    0  501  0.00000000000E+00  0.00000000000E+00  0.54926655034E+03  0.54926655036E+03  0.50400001928E-02 0. -1.
        1   -1    0    0  501    0  0.00000000000E+00  0.00000000000E+00 -0.14771218076E+04  0.14771218076E+04  0.50400001928E-02 0.  1.
    10030    2    1    2    0    0  0.00000000000E+00  0.00000000000E+00 -0.92785525725E+03  0.20263883580E+04  0.18014811681E+04 0.  0.
        2    1    3    3  502    0 -0.60390077917E+03 -0.52151414474E+03  0.61723558890E+01  0.79794188524E+03  0.25500000920E-02 0. -1.
       -2    1    3    3    0  502  0.60390077917E+03  0.52151414474E+03 -0.93402761314E+03  0.12284464727E+04  0.25500000920E-02 0.  1.
</event>
<event>
 5   0  0.1308893E-04  0.1791648E+04  0.7818609E-02  0.8710753E-01
        1   -1    0    0  501    0  0.00000000000E+00  0.00000000000E+00  0.54310058210E+03  0.54310058212E+03  0.50400001928E-02 0.  1.
       -1   -1    0    0    0  501  0.00000000000E+00  0.00000000000E+00 -0.14776288116E+04  0.14776288116E+04  0.50400001928E-02 0. -1.
    10030    2    1    2    0    0  0.00000000000E+00  0.00000000000E+00 -0.93452822951E+03  0.20207293937E+04  0.17916484786E+04 0.  0.
        4    1    3    3  502    0  0.52836399535E+03 -0.72139547720E+03 -0.40632302128E+03  0.98218122392E+03  0.12699999809E+01 0.  1.
       -4    1    3    3    0  502 -0.52836399535E+03  0.72139547720E+03 -0.52820520822E+03  0.10385481698E+04  0.12699999809E+01 0. -1.
</event>
<event>
 5   0  0.2569405E-04  0.1796024E+04  0.7818609E-02  0.8708417E-01
        2   -1    0    0  501    0  0.00000000000E+00  0.00000000000E+00  0.82469721302E+03  0.82469721303E+03  0.25500000920E-02 0. -1.
       -2   -1    0    0    0  501  0.00000000000E+00  0.00000000000E+00 -0.97784430108E+03  0.97784430108E+03  0.25500000920E-02 0.  1.
    10030    2    1    2    0    0  0.00000000000E+00  0.00000000000E+00 -0.15314708806E+03  0.18025415141E+04  0.17960239084E+04 0.  0.
        2    1    3    3  502    0 -0.10980382975E+03 -0.72365855336E+03  0.44559026871E+03  0.85690680383E+03  0.25500000920E-02 0. -1.
       -2    1    3    3    0  502  0.10980382975E+03  0.72365855336E+03 -0.59873735677E+03  0.94563471028E+03  0.25500000920E-02 0.  1.
</event>
<event>
 5   0  0.2431811E-04  0.1799474E+04  0.7818609E-02  0.8706579E-01
        2   -1    0    0  501    0  0.00000000000E+00  0.00000000000E+00  0.47086105682E+03  0.47086105683E+03  0.25500000920E-02 0.  1.
       -2   -1    0    0    0  501  0.00000000000E+00  0.00000000000E+00 -0.17192473204E+04  0.17192473204E+04  0.25500000920E-02 0. -1.
    10030    2    1    2    0    0  0.00000000000E+00  0.00000000000E+00 -0.12483862635E+04  0.21901083772E+04  0.17994739345E+04 0.  0.
        3    1    3    3  502    0 -0.73385407954E+03  0.43834929039E+03 -0.96591968567E+03  0.12898421453E+04  0.10100000352E+00 0. -1.
       -3    1    3    3    0  502  0.73385407954E+03 -0.43834929039E+03 -0.28246657786E+03  0.90026623188E+03  0.10100000352E+00 0.  1.
</event>
<event>
 5   0  0.1214723E-04  0.1772686E+04  0.7818609E-02  0.8720961E-01
       -1   -1    0    0    0  501  0.00000000000E+00  0.00000000000E+00  0.45985269452E+03  0.45985269455E+03  0.50400001928E-02 0. -1.
        1   -1    0    0  501    0  0.00000000000E+00  0.00000000000E+00 -0.17083810357E+04  0.17083810357E+04  0.50400001928E-02 0.  1.
    10030    2    1    2    0    0  0.00000000000E+00  0.00000000000E+00 -0.12485283412E+04  0.21682337303E+04  0.17726856716E+04 0.  0.
        1    1    3    3  502    0  0.23295881733E+03 -0.78835762237E+03 -0.10296112852E+04  0.13175268308E+04  0.50400001928E-02 0.  1.
       -1    1    3    3    0  502 -0.23295881733E+03  0.78835762237E+03 -0.21891705597E+03  0.85070689943E+03  0.50400001928E-02 0. -1.
</event>
<event>
 5   0  0.2393421E-04  0.1751791E+04  0.7818609E-02  0.8732365E-01
       -2   -1    0    0    0  501  0.00000000000E+00  0.00000000000E+00  0.59592091532E+03  0.59592091532E+03  0.25500000920E-02 0. -1.
        2   -1    0    0  501    0  0.00000000000E+00  0.00000000000E+00 -0.12874074285E+04  0.12874074285E+04  0.25500000920E-02 0.  1.
    10030    2    1    2    0    0  0.00000000000E+00  0.00000000000E+00 -0.69148651315E+03  0.18833283438E+04  0.17517910985E+04 0.  0.
        5    1    3    3  502    0  0.57037311218E+03  0.50308021653E+03  0.12133946441E+03  0.77016916777E+03  0.46999998093E+01 0. -1.
       -5    1    3    3    0  502 -0.57037311218E+03 -0.50308021653E+03 -0.81282597756E+03  0.11131591760E+04  0.46999998093E+01 0.  1.
</event>
<event>
 5   0  0.1308893E-04  0.1817149E+04  0.7818609E-02  0.8697233E-01
        1   -1    0    0  501    0  0.00000000000E+00  0.00000000000E+00  0.78304972583E+03  0.78304972584E+03  0.50400001928E-02 0.  1.
       -1   -1    0    0    0  501  0.00000000000E+00  0.00000000000E+00 -0.10542212062E+04  0.10542212062E+04  0.50400001928E-02 0. -1.
    10030    2    1    2    0    0  0.00000000000E+00  0.00000000000E+00 -0.27117148037E+03  0.18372709320E+04  0.18171490049E+04 0.  0.
        4    1    3    3  502    0 -0.41976063817E+03 -0.79232670947E+03  0.12754280819E+02  0.89674126284E+03  0.12699999809E+01 0.  1.
       -4    1    3    3    0  502  0.41976063817E+03  0.79232670947E+03 -0.28392576119E+03  0.94052966921E+03  0.12699999809E+01 0. -1.
</event>
<event>
 5   0  0.1239119E-04  0.1796404E+04  0.7818609E-02  0.8708214E-01
        1   -1    0    0  501    0  0.00000000000E+00  0.00000000000E+00  0.69092614797E+03  0.69092614799E+03  0.50400001928E-02 0.  1.
       -1   -1    0    0    0  501  0.00000000000E+00  0.00000000000E+00 -0.11676598385E+04  0.11676598385E+04  0.50400001928E-02 0. -1.
    10030    2    1    2    0    0  0.00000000000E+00  0.00000000000E+00 -0.47673369050E+03  0.18585859865E+04  0.17964038681E+04 0.  0.
        5    1    3    3  502    0  0.28265962991E+03  0.47460966418E+03 -0.97111505709E+03  0.11172454269E+04  0.46999998093E+01 0. -1.
       -5    1    3    3    0  502 -0.28265962991E+03 -0.47460966418E+03  0.49438136659E+03  0.74134055963E+03  0.46999998093E+01 0.  1.
</event>
<event>
 5   0  0.2569405E-04  0.1833910E+04  0.7818609E-02  0.8688471E-01
        2   -1    0    0  501    0  0.00000000000E+00  0.00000000000E+00  0.14846227122E+04  0.14846227122E+04  0.25500000920E-02 0.  1.
       -2   -1    0    0    0  501  0.00000000000E+00  0.00000000000E+00 -0.56634364596E+03  0.56634364597E+03  0.25500000920E-02 0. -1.
    10030    2    1    2    0    0  0.00000000000E+00  0.00000000000E+00  0.91827906621E+03  0.20509663581E+04  0.18339101829E+04 0.  0.
        2    1    3    3  502    0  0.31962565648E+03 -0.83507355490E+03  0.23186737673E+03  0.92372662773E+03  0.25500000920E-02 0. -1.
       -2    1    3    3    0  502 -0.31962565648E+03  0.83507355490E+03  0.68641168948E+03  0.11272397304E+04  0.25500000920E-02 0.  1.
</event>
<event>
 5   0  0.1214723E-04  0.1825319E+04  0.7818609E-02  0.8692950E-01
        1   -1    0    0  501    0  0.00000000000E+00  0.00000000000E+00  0.15664216083E+04  0.15664216083E+04  0.50400001928E-02 0.  1.
       -1   -1    0    0    0  501  0.00000000000E+00  0.00000000000E+00 -0.53175164794E+03  0.53175164796E+03  0.50400001928E-02 0. -1.
    10030    2    1    2    0    0  0.00000000000E+00  0.00000000000E+00  0.10346699604E+04  0.20981732563E+04  0.18253188999E+04 0.  0.
        1    1    3    3  502    0  0.62088928717E+03  0.50387964041E+03  0.10230410239E+04  0.12984649150E+04  0.50400001928E-02 0.  1.
       -1    1    3    3    0  502 -0.62088928717E+03 -0.50387964041E+03  0.11628936519E+02  0.79970834129E+03  0.50400001928E-02 0. -1.
</event>
<event>
 5   0  0.1253925E-04  0.1795964E+04  0.7818609E-02  0.8708449E-01
        1   -1    0    0  501    0  0.00000000000E+00  0.00000000000E+00  0.18251365325E+04  0.18251365325E+04  0.50400001928E-02 0.  1.
       -1   -1    0    0    0  501  0.00000000000E+00  0.00000000000E+00 -0.44181446692E+03  0.44181446695E+03  0.50400001928E-02 0. -1.
    10030    2    1    2    0    0  0.00000000000E+00  0.00000000000E+00  0.13833220656E+04  0.22669509994E+04  0.17959640578E+04 0.  0.
        2    1    3    3  502    0  0.91463759921E+02 -0.30984307289E+03  0.17492431336E+04  0.17788254242E+04  0.25500000920E-02 0.  1.
       -2    1    3    3    0  502 -0.91463759921E+02  0.30984307289E+03 -0.36592106804E+03  0.48812557527E+03  0.25500000920E-02 0. -1.
</event>
<event>
 5   0  0.2393421E-04  0.1808063E+04  0.7818609E-02  0.8702023E-01
        2   -1    0    0  501    0  0.00000000000E+00  0.00000000000E+00  0.93604344887E+03  0.93604344887E+03  0.25500000920E-02 0.  1.
       -2   -1    0    0    0  501  0.00000000000E+00  0.00000000000E+00 -0.87311479511E+03  0.87311479511E+03  0.25500000920E-02 0. -1.
    10030    2    1    2    0    0  0.00000000000E+00  0.00000000000E+00  0.62928653764E+02  0.18091582440E+04  0.18080634768E+04 0.  0.
        5    1    3    3  502    0 -0.74743552991E+02 -0.87101445444E+03  0.26181778412E+03  0.91259159575E+03  0.46999998093E+01 0. -1.
       -5    1    3    3    0  502  0.74743552991E+02  0.87101445444E+03 -0.19888913035E+03  0.89656664823E+03  0.46999998093E+01 0.  1.
</event>
<event>
 5   0  0.2417106E-04  0.1804980E+04  0.7818609E-02  0.8703655E-01
       -2   -1    0    0    0  501  0.00000000000E+00  0.00000000000E+00  0.39566302411E+03  0.39566302412E+03  0.25500000920E-02 0.  1.
        2   -1    0    0  501    0  0.00000000000E+00  0.00000000000E+00 -0.20585408100E+04  0.20585408100E+04  0.25500000920E-02 0. -1.
    10030    2    1    2    0    0  0.00000000000E+00  0.00000000000E+00 -0.16628777859E+04  0.24542038341E+04  0.18049803125E+04 0.  0.
        4    1    3    3  502    0 -0.92677371900E+02 -0.82925501509E+03 -0.36390924389E+03  0.91032111148E+03  0.12699999809E+01 0.  1.
       -4    1    3    3    0  502  0.92677371900E+02  0.82925501509E+03 -0.12989685420E+04  0.15438827226E+04  0.12699999809E+01 0. -1.
</event>
<event>
 5   0  0.1253925E-04  0.1801464E+04  0.7818609E-02  0.8705521E-01
       -1   -1    0    0    0  501  0.00000000000E+00  0.00000000000E+00  0.42053562961E+03  0.42053562964E+03  0.50400001928E-02 0.  1.
        1   -1    0    0  501    0  0.00000000000E+00  0.00000000000E+00 -0.19292490361E+04  0.19292490361E+04  0.50400001928E-02 0. -1.
    10030    2    1    2    0    0  0.00000000000E+00  0.00000000000E+00 -0.15087134064E+04  0.23497846657E+04  0.18014638027E+04 0.  0.
        2    1    3    3  502    0 -0.77883089749E+03  0.44772885844E+03 -0.83968378423E+03  0.12296778257E+04  0.25500000920E-02 0. -1.
       -2    1    3    3    0  502  0.77883089749E+03 -0.44772885844E+03 -0.66902962222E+03  0.11201068400E+04  0.25500000920E-02 0.  1.
</event>
<event>
 5   0  0.1330225E-04  0.1811079E+04  0.7818609E-02  0.8700430E-01
       -1   -1    0    0    0  501  0.00000000000E+00  0.00000000000E+00  0.47152015248E+03  0.47152015251E+03  0.50400001928E-02 0.  1.
        1   -1    0    0  501    0  0.00000000000E+00  0.00000000000E+00 -0.17390599856E+04  0.17390599856E+04  0.50400001928E-02 0. -1.
    10030    2    1    2    0    0  0.00000000000E+00  0.00000000000E+00 -0.12675398331E+04  0.22105801381E+04  0.18110790481E+04 0.  0.
        3    1    3    3  502    0  0.25757147268E+03 -0.85543098758E+03 -0.45315358593E+03  0.10017252222E+04  0.10100000352E+00 0.  1.
       -3    1    3    3    0  502 -0.25757147268E+03  0.85543098758E+03 -0.81438624718E+03  0.12088549160E+04  0.10100000352E+00 0. -1.
</event>
<event>
 5   0  0.1253925E-04  0.1801069E+04  0.7818609E-02  0.8705731E-01
        1   -1    0    0  501    0  0.00000000000E+00  0.00000000000E+00  0.10490883654E+04  0.10490883654E+04  0.50400001928E-02 0.  1.
       -1   -1    0    0    0  501  0.00000000000E+00  0.00000000000E+00 -0.77301620502E+03  0.77301620504E+03  0.50400001928E-02 0. -1.
    10030    2    1    2    0    0  0.00000000000E+00  0.00000000000E+00  0.27607216036E+03  0.18221045704E+04  0.18010689126E+04 0.  0.
        2    1    3    3  502    0 -0.96061674829E+02 -0.71702798943E+03  0.68058815409E+03  0.99325586759E+03  0.25500000920E-02 0.  1.
       -2    1    3    3    0  502  0.96061674829E+02  0.71702798943E+03 -0.40451599374E+03  0.82884870284E+03  0.25500000920E-02 0. -1.
</event>
<event>
 5   0  0.2431811E-04  0.1795715E+04  0.7818609E-02  0.8708581E-01
       -2   -1    0    0    0  501  0.00000000000E+00  0.00000000000E+00  0.39981399542E+03  0.39981399543E+03  0.25500000920E-02 0.  1.
        2   -1    0    0  501    0  0.00000000000E+00  0.00000000000E+00 -0.20163088692E+04  0.20163088692E+04  0.25500000920E-02 0. -1.
    10030    2    1    2    0    0  0.00000000000E+00  0.00000000000E+00 -0.16164948738E+04  0.24161228646E+04  0.17957154619E+04 0.  0.
        3    1    3    3  502    0 -0.21287591062E+03 -0.39108446516E+03  0.24079318959E+03  0.50620606730E+03  0.10100000352E+00 0.  1.
       -3    1    3    3    0  502  0.21287591062E+03  0.39108446516E+03 -0.18572880634E+04  0.19099167973E+04  0.10100000352E+00 0. -1.
</event>
<event>
 5   0  0.1239119E-04  0.1789688E+04  0.7818609E-02  0.8711803E-01
       -1   -1    0    0    0  501  0.00000000000E+00  0.00000000000E+00  0.36142906873E+03  0.36142906876E+03  0.50400001928E-02 0.  1.
        1   -1    0    0  501    0  0.00000000000E+00  0.00000000000E+00 -0.22154988827E+04  0.22154988827E+04  0.50400001928E-02 0. -1.
    10030    2    1    2    0    0  0.00000000000E+00  0.00000000000E+00 -0.18540698139E+04  0.25769279514E+04  0.17896879035E+04 0.  0.
        5    1    3    3  502    0 -0.39950404295E+03  0.79984655930E+03 -0.98024428625E+03  0.13267475078E+04  0.46999998093E+01 0.  1.
       -5    1    3    3    0  502  0.39950404295E+03 -0.79984655930E+03 -0.87382552768E+03  0.12501804436E+04  0.46999998093E+01 0. -1.
</event>
<event>
 5   0  0.1308893E-04  0.1794615E+04  0.7818609E-02  0.8709168E-01
        1   -1    0    0  501    0  0.00000000000E+00  0.00000000000E+00  0.14214473613E+04  0.14214473614E+04  0.50400001928E-02 0. -1.
       -1   -1    0    0    0  501  0.00000000000E+00  0.00000000000E+00 -0.56643757028E+03  0.56643757030E+03  0.50400001928E-02 0.  1.
    10030    2    1    2    0    0  0.00000000000E+00  0.00000000000E+00  0.85500979107E+03  0.19878849317E+04  0.17946154905E+04 0.  0.
        4    1    3    3  502    0 -0.82444381193E+03 -0.32066008647E+03  0.59413495249E+03  0.10656117702E+04  0.12699999809E+01 0. -1.
       -4    1    3    3    0  502  0.82444381193E+03  0.32066008647E+03  0.26087483858E+03  0.92227316148E+03  0.12699999809E+01 0.  1.
</event>
<event>
 5   0  0.1330225E-04  0.1735691E+04  0.7818609E-02  0.8741266E-01
        1   -1    0    0  501    0  0.00000000000E+00  0.00000000000E+00  0.10747127842E+04  0.10747127842E+04  0.50400001928E-02 0. -1.
       -1   -1    0    0    0  501  0.00000000000E+00  0.00000000000E+00 -0.70079745850E+03  0.70079745852E+03  0.50400001928E-02 0.  1.
    10030    2    1    2    0    0  0.00000000000E+00  0.00000000000E+00  0.37391532569E+03  0.17755102427E+04  0.17356912027E+04 0.  0.
        3    1    3    3  502    0 -0.52274120568E+03  0.54272492922E+03 -0.25343878328E+03  0.79500939868E+03  0.10100000352E+00 0.  1.
       -3    1    3    3    0  502  0.52274120568E+03 -0.54272492922E+03  0.62735410897E+03  0.98050084404E+03  0.10100000352E+00 0. -1.
</event>
<event>
 5   0  0.2550616E-04  0.1718851E+04  0.7818609E-02  0.8750686E-01
        2   -1    0    0  501    0  0.00000000000E+00  0.00000000000E+00  0.71065298438E+03  0.71065298438E+03  0.25500000920E-02 0.  1.
       -2   -1    0    0    0  501  0.00000000000E+00  0.00000000000E+00 -0.10393425741E+04  0.10393425741E+04  0.25500000920E-02 0. -1.
    10030    2    1    2    0    0  0.00000000000E+00  0.00000000000E+00 -0.32868958974E+03  0.17499955585E+04  0.17188506649E+04 0.  0.
        1    1    3    3  502    0  0.38087370501E+03  0.17674421297E+03 -0.92780457896E+03  0.10183931622E+04  0.50400001928E-02 0. -1.
       -1    1    3    3    0  502 -0.38087370501E+03 -0.17674421297E+03  0.59911498922E+03  0.73160239633E+03  0.50400001928E-02 0.  1.
</event>
<event>
 5   0  0.1214723E-04  0.1766729E+04  0.7818609E-02  0.8724196E-01
       -1   -1    0    0    0  501  0.00000000000E+00  0.00000000000E+00  0.99152847958E+03  0.99152847959E+03  0.50400001928E-02 0.  1.
        1   -1    0    0  501    0  0.00000000000E+00  0.00000000000E+00 -0.78699979671E+03  0.78699979673E+03  0.50400001928E-02 0. -1.
    10030    2    1    2    0    0  0.00000000000E+00  0.00000000000E+00  0.20452868287E+03  0.17785282763E+04  0.17667288551E+04 0.  0.
        1    1    3    3  502    0  0.11136155194E+03 -0.71627096206E+03 -0.40597105328E+03  0.83081765898E+03  0.50400001928E-02 0. -1.
       -1    1    3    3    0  502 -0.11136155194E+03  0.71627096206E+03  0.61049973615E+03  0.94771061734E+03  0.50400001928E-02 0.  1.
</event>
<event>
 5   0  0.2431811E-04  0.1787547E+04  0.7818609E-02  0.8712950E-01
        2   -1    0    0  501    0  0.00000000000E+00  0.00000000000E+00  0.21069836746E+04  0.21069836746E+04  0.25500000920E-02 0. -1.
       -2   -1    0    0    0  501  0.00000000000E+00  0.00000000000E+00 -0.37913490575E+03  0.37913490576E+03  0.25500000920E-02 0.  1.
    10030    2    1    2    0    0  0.00000000000E+00  0.00000000000E+00  0.17278487688E+04  0.24861185804E+04  0.17875469861E+04 0.  0.
        3    1    3    3  502    0 -0.39237751338E+03  0.93075559083E+02 -0.24541362383E+03  0.47207100066E+03  0.10100000352E+00 0.  1.
       -3    1    3    3    0  502  0.39237751338E+03 -0.93075559083E+02  0.19732623927E+04  0.20140475797E+04  0.10100000352E+00 0. -1.
</event>
<event>
 5   0  0.2431811E-04  0.1964805E+04  0.7818609E-02  0.8623255E-01
       -2   -1    0    0    0  501  0.00000000000E+00  0.00000000000E+00  0.65395316803E+03  0.65395316803E+03  0.25500000920E-02 0.  1.
        2   -1    0    0  501    0  0.00000000000E+00  0.00000000000E+00 -0.14758155452E+04  0.14758155452E+04  0.25500000920E-02 0. -1.
    10030    2    1    2    0    0  0.00000000000E+00  0.00000000000E+00 -0.82186237715E+03  0.21297687132E+04  0.19648045717E+04 0.  0.
        3    1    3    3  502    0 -0.67875807158E+03  0.56554982466E+03  0.54736525773E+02  0.88518654608E+03  0.10100000352E+00 0.  1.
       -3    1    3    3    0  502  0.67875807158E+03 -0.56554982466E+03 -0.87659890293E+03  0.12445821671E+04  0.10100000352E+00 0. -1.
</event>
<event>
 5   0  0.2417106E-04  0.1789039E+04  0.7818609E-02  0.8712150E-01
        2   -1    0    0  501    0  0.00000000000E+00  0.00000000000E+00  0.14293643205E+04  0.14293643205E+04  0.25500000920E-02 0. -1.
       -2   -1    0    0    0  501  0.00000000000E+00  0.00000000000E+00 -0.55980465582E+03  0.55980465582E+03  0.25500000920E-02 0.  1.
    10030    2    1    2    0    0  0.00000000000E+00  0.00000000000E+00  0.86955966470E+03  0.19891689763E+04  0.17890386262E+04 0.  0.
        4    1    3    3  502    0 -0.37110588902E+03  0.81382887526E+03  0.42229078849E+03  0.98912493751E+03  0.12699999809E+01 0. -1.
       -4    1    3    3    0  502  0.37110588902E+03 -0.81382887526E+03  0.44726887621E+03  0.10000440388E+04  0.12699999809E+01 0.  1.
</event>
<event>
 5   0  0.1330225E-04  0.1808000E+04  0.7818609E-02  0.8702057E-01
        1   -1    0    0  501    0  0.00000000000E+00  0.00000000000E+00  0.10956066696E+04  0.10956066696E+04  0.50400001928E-02 0. -1.
       -1   -1    0    0    0  501  0.00000000000E+00  0.00000000000E+00 -0.74590280684E+03  0.74590280685E+03  0.50400001928E-02 0.  1.
    10030    2    1    2    0    0  0.00000000000E+00  0.00000000000E+00  0.34970386277E+03  0.18415094765E+04  0.18080000996E+04 0.  0.
        3    1    3    3  502    0  0.74100957348E+03  0.18102811046E+03 -0.31926797046E+03  0.82692104335E+03  0.10100000352E+00 0.  1.
       -3    1    3    3    0  502 -0.74100957348E+03 -0.18102811046E+03  0.66897183324E+03  0.10145884331E+04  0.10100000352E+00 0. -1.
</event>
<event>
 5   0  0.2417106E-04  0.1802457E+04  0.7818609E-02  0.8704994E-01
        2   -1    0    0  501    0  0.00000000000E+00  0.00000000000E+00  0.81014196654E+03  0.81014196655E+03  0.25500000920E-02 0.  1.
       -2   -1    0    0    0  501  0.00000000000E+00  0.00000000000E+00 -0.10025561971E+04  0.10025561971E+04  0.25500000920E-02 0. -1.
    10030    2    1    2    0    0  0.00000000000E+00  0.00000000000E+00 -0.19241423056E+03  0.18126981636E+04  0.18024570442E+04 0.  0.
        4    1    3    3  502    0  0.46214938850E+03 -0.63406376718E+03  0.34969942571E+03  0.85901700762E+03  0.12699999809E+01 0.  1.
       -4    1    3    3    0  502 -0.46214938850E+03  0.63406376718E+03 -0.54211365627E+03  0.95368115602E+03  0.12699999809E+01 0. -1.
</event>
<event>
 5   0  0.1239119E-04  0.1833059E+04  0.7818609E-02  0.8688914E-01
       -1   -1    0    0    0  501  0.00000000000E+00  0.00000000000E+00  0.61597086561E+03  0.61597086563E+03  0.50400001928E-02 0.  1.
        1   -1    0    0  501    0  0.00000000000E+00  0.00000000000E+00 -0.13637439403E+04  0.13637439403E+04  0.50400001928E-02 0. -1.
    10030    2    1    2    0    0  0.00000000000E+00  0.00000000000E+00 -0.74777307470E+03  0.19797148060E+04  0.18330592303E+04 0.  0.
        5    1    3    3  502    0 -0.76947886320E+03  0.21938916072E+03  0.10883517535E+03  0.80752492850E+03  0.46999998093E+01 0.  1.
       -5    1    3    3    0  502  0.76947886320E+03 -0.21938916072E+03 -0.85660825004E+03  0.11721898774E+04  0.46999998093E+01 0. -1.
</event>
<event>
 5   0  0.2550616E-04  0.1819212E+04  0.7818609E-02  0.8696149E-01
        2   -1    0    0  501    0  0.00000000000E+00  0.00000000000E+00  0.18314516414E+04  0.18314516414E+04  0.25500000920E-02 0.  1.
       -2   -1    0    0    0  501  0.00000000000E+00  0.00000000000E+00 -0.45176376579E+03  0.45176376580E+03  0.25500000920E-02 0. -1.
    10030    2    1    2    0    0  0.00000000000E+00  0.00000000000E+00  0.13796878756E+04  0.22832154072E+04  0.18192124564E+04 0.  0.
        1    1    3    3  502    0  0.25259377712E+03  0.85491545539E+03  0.91679572725E+03  0.12787487860E+04  0.50400001928E-02 0.  1.
       -1    1    3    3    0  502 -0.25259377712E+03 -0.85491545539E+03  0.46289214834E+03  0.10044666212E+04  0.50400001928E-02 0. -1.
</event>
<event>
 5   0  0.1253925E-04  0.1840770E+04  0.7818609E-02  0.8684914E-01
       -1   -1    0    0    0  501  0.00000000000E+00  0.00000000000E+00  0.46790842585E+03  0.46790842587E+03  0.50400001928E-02 0.  1.
        1   -1    0    0  501    0  0.00000000000E+00  0.00000000000E+00 -0.18104157813E+04  0.18104157813E+04  0.50400001928E-02 0. -1.
    10030    2    1    2    0    0  0.00000000000E+00  0.00000000000E+00 -0.13425073554E+04  0.22783242071E+04  0.18407702718E+04 0.  0.
        2    1    3    3  502    0  0.90710509386E+03 -0.46326847186E+02 -0.85534683695E+03  0.12476393868E+04  0.25500000920E-02 0.  1.
       -2    1    3    3    0  502 -0.90710509386E+03  0.46326847186E+02 -0.48716051846E+03  0.10306848203E+04  0.25500000920E-02 0. -1.
</event>
<event>
 5   0  0.2393421E-04  0.1794646E+04  0.7818609E-02  0.8709152E-01
        2   -1    0    0  501    0  0.00000000000E+00  0.00000000000E+00  0.20884740689E+04  0.20884740689E+04  0.25500000920E-02 0.  1.
       -2   -1    0    0    0  501  0.00000000000E+00  0.00000000000E+00 -0.38553900783E+03  0.38553900783E+03  0.25500000920E-02 0. -1.
    10030    2    1    2    0    0  0.00000000000E+00  0.00000000000E+00  0.17029350611E+04  0.24740130767E+04  0.17946456145E+04 0.  0.
        5    1    3    3  502    0 -0.54376079518E+03  0.29767352088E+03  0.17458079263E+04  0.18526070098E+04  0.46999998093E+01 0.  1.
       -5    1    3    3    0  502  0.54376079518E+03 -0.29767352088E+03 -0.42872865210E+02  0.62140606690E+03  0.46999998093E+01 0. -1.
</event>
<event>
 5   0  0.1330225E-04  0.1883069E+04  0.7818609E-02  0.8663330E-01
        1   -1    0    0  501    0  0.00000000000E+00  0.00000000000E+00  0.22103942666E+04  0.22103942666E+04  0.50400001928E-02 0.  1.
       -1   -1    0    0    0  501  0.00000000000E+00  0.00000000000E+00 -0.40105379476E+03  0.40105379479E+03  0.50400001928E-02 0. -1.
    10030    2    1    2    0    0  0.00000000000E+00  0.00000000000E+00  0.18093404719E+04  0.26114480614E+04  0.18830687811E+04 0.  0.
        3    1    3    3  502    0 -0.97117350381E+02  0.43285284720E+02 -0.39270110224E+03  0.40684095359E+03  0.10100000352E+00 0. -1.
       -3    1    3    3    0  502  0.97117350381E+02 -0.43285284720E+02  0.22020415741E+04  0.22046071078E+04  0.10100000352E+00 0.  1.
</event>
<event>
 5   0  0.1330225E-04  0.1813081E+04  0.7818609E-02  0.8699374E-01
       -1   -1    0    0    0  501  0.00000000000E+00  0.00000000000E+00  0.66528994822E+03  0.66528994824E+03  0.50400001928E-02 0.  1.
        1   -1    0    0  501    0  0.00000000000E+00  0.00000000000E+00 -0.12352749846E+04  0.12352749846E+04  0.50400001928E-02 0. -1.
    10030    2    1    2    0    0  0.00000000000E+00  0.00000000000E+00 -0.56998503638E+03  0.19005649329E+04  0.18130813888E+04 0.  0.
        3    1    3    3  502    0  0.32616909536E+03  0.64753902726E+03  0.28543628340E+03  0.77920918416E+03  0.10100000352E+00 0.  1.
       -3    1    3    3    0  502 -0.32616909536E+03 -0.64753902726E+03 -0.85542131979E+03  0.11213557487E+04  0.10100000352E+00 0. -1.
</event>
<event>
 5   0  0.9144875E-05  0.1770630E+04  0.7818609E-02  0.8722076E-01
        3   -1    0    0  501    0  0.00000000000E+00  0.00000000000E+00  0.14336482416E+04  0.14336482452E+04  0.10100000352E+00 0.  1.
       -3   -1    0    0    0  501  0.00000000000E+00  0.00000000000E+00 -0.54670473472E+03  0.54670474405E+03  0.10100000352E+00 0. -1.
    10030    2    1    2    0    0  0.00000000000E+00  0.00000000000E+00  0.88694350693E+03  0.19803529893E+04  0.17706295992E+04 0.  0.
        4    1    3    3  502    0  0.18045755224E+03  0.43173050927E+03 -0.39709393736E+03  0.61371114442E+03  0.12699999809E+01 0. -1.
       -4    1    3    3    0  502 -0.18045755224E+03 -0.43173050927E+03  0.12840374443E+04  0.13666418448E+04  0.12699999809E+01 0.  1.
</event>
<event>
 5   0  0.1214723E-04  0.1811324E+04  0.7818609E-02  0.8700301E-01
        1   -1    0    0  501    0  0.00000000000E+00  0.00000000000E+00  0.93985388105E+03  0.93985388106E+03  0.50400001928E-02 0.  1.
       -1   -1    0    0    0  501  0.00000000000E+00  0.00000000000E+00 -0.87271376423E+03  0.87271376425E+03  0.50400001928E-02 0. -1.
    10030    2    1    2    0    0  0.00000000000E+00  0.00000000000E+00  0.67140116812E+02  0.18125676453E+04  0.18113237352E+04 0.  0.
        1    1    3    3  502    0 -0.61876128463E+03  0.58967735139E+03  0.33317258075E+03  0.91738153170E+03  0.50400001928E-02 0. -1.
       -1    1    3    3    0  502  0.61876128463E+03 -0.58967735139E+03 -0.26603246394E+03  0.89518611361E+03  0.50400001928E-02 0.  1.
</event>
<event>
 5   0  0.1253925E-04  0.1794730E+04  0.7818609E-02  0.8709107E-01
       -1   -1    0    0    0  501  0.00000000000E+00  0.00000000000E+00  0.82614324472E+03  0.82614324473E+03  0.50400001928E-02 0.  1.
        1   -1    0    0  501    0  0.00000000000E+00  0.00000000000E+00 -0.97472676895E+03  0.97472676896E+03  0.50400001928E-02 0. -1.
    10030    2    1    2    0    0  0.00000000000E+00  0.00000000000E+00 -0.14858352423E+03  0.18008700137E+04  0.17947299915E+04 0.  0.
        2    1    3    3  502    0  0.37999327927E+03 -0.42139247493E+03  0.62328256232E+03  0.84288057441E+03  0.25500000920E-02 0.  1.
       -2    1    3    3    0  502 -0.37999327927E+03  0.42139247493E+03 -0.77186608655E+03  0.95798943929E+03  0.25500000920E-02 0. -1.
</event>
<event>
 5   0  0.1239119E-04  0.1797182E+04  0.7818609E-02  0.8707799E-01
       -1   -1    0    0    0  501  0.00000000000E+00  0.00000000000E+00  0.11484626769E+04  0.11484626769E+04  0.50400001928E-02 0. -1.
        1   -1    0    0  501    0  0.00000000000E+00  0.00000000000E+00 -0.70308439278E+03  0.70308439280E+03  0.50400001928E-02 0.  1.
    10030    2    1    2    0    0  0.00000000000E+00  0.00000000000E+00  0.44537828416E+03  0.18515470697E+04  0.17971824436E+04 0.  0.
        5    1    3    3  502    0  0.77985718513E+03 -0.17064817513E+03  0.64765451523E+03  0.10279963473E+04  0.46999998093E+01 0. -1.
       -5    1    3    3    0  502 -0.77985718513E+03  0.17064817513E+03 -0.20227623107E+03  0.82355072250E+03  0.46999998093E+01 0.  1.
</event>
<event>
 5   0  0.2393421E-04  0.1790941E+04  0.7818609E-02  0.8711132E-01
        2   -1    0    0  501    0  0.00000000000E+00  0.00000000000E+00  0.11880698510E+04  0.11880698510E+04  0.25500000920E-02 0. -1.
       -2   -1    0    0    0  501  0.00000000000E+00  0.00000000000E+00 -0.67493288018E+03  0.67493288019E+03  0.25500000920E-02 0.  1.
    10030    2    1    2    0    0  0.00000000000E+00  0.00000000000E+00  0.51313697086E+03  0.18630027312E+04  0.17909409889E+04 0.  0.
        5    1    3    3  502    0  0.46302862484E+03  0.75877903698E+03  0.14402956377E+03  0.90050415858E+03  0.46999998093E+01 0.  1.
       -5    1    3    3    0  502 -0.46302862484E+03 -0.75877903698E+03  0.36910740709E+03  0.96249857265E+03  0.46999998093E+01 0. -1.
</event>
<event>
 5   0  0.1239119E-04  0.1818352E+04  0.7818609E-02  0.8696600E-01
       -1   -1    0    0    0  501  0.00000000000E+00  0.00000000000E+00  0.47993747064E+03  0.47993747067E+03  0.50400001928E-02 0.  1.
        1   -1    0    0  501    0  0.00000000000E+00  0.00000000000E+00 -0.17223105104E+04  0.17223105104E+04  0.50400001928E-02 0. -1.
    10030    2    1    2    0    0  0.00000000000E+00  0.00000000000E+00 -0.12423730398E+04  0.22022479811E+04  0.18183523862E+04 0.  0.
        5    1    3    3  502    0 -0.79675076223E+03 -0.43719276813E+03 -0.65158465025E+03  0.11182727485E+04  0.46999998093E+01 0. -1.
       -5    1    3    3    0  502  0.79675076223E+03  0.43719276813E+03 -0.59078838951E+03  0.10839752326E+04  0.46999998093E+01 0.  1.
</event>
<event>
 5   0  0.2550616E-04  0.1800951E+04  0.7818609E-02  0.8705794E-01
        2   -1    0    0  501    0  0.00000000000E+00  0.00000000000E+00  0.89985549571E+03  0.89985549571E+03  0.25500000920E-02 0.  1.
       -2   -1    0    0    0  501  0.00000000000E+00  0.00000000000E+00 -0.90109612214E+03  0.90109612214E+03  0.25500000920E-02 0. -1.
    10030    2    1    2    0    0  0.00000000000E+00  0.00000000000E+00 -0.12406264297E+01  0.18009516179E+04  0.18009511905E+04 0.  0.
        1    1    3    3  502    0 -0.24410792559E+03  0.34928813523E+03  0.79264238950E+03  0.89992935189E+03  0.50400001928E-02 0.  1.
       -1    1    3    3    0  502  0.24410792559E+03 -0.34928813523E+03 -0.79388301593E+03  0.90102226596E+03  0.50400001928E-02 0. -1.
</event>
<event>
 5   0  0.1214723E-04  0.1796338E+04  0.7818609E-02  0.8708249E-01
       -1   -1    0    0    0  501  0.00000000000E+00  0.00000000000E+00  0.13815640042E+04  0.13815640042E+04  0.50400001928E-02 0.  1.
        1   -1    0    0  501    0  0.00000000000E+00  0.00000000000E+00 -0.58390872749E+03  0.58390872751E+03  0.50400001928E-02 0. -1.
    10030    2    1    2    0    0  0.00000000000E+00  0.00000000000E+00  0.79765527669E+03  0.19654727317E+04  0.17963376962E+04 0.  0.
        1    1    3    3  502    0 -0.28685037906E+03 -0.29058589821E+03  0.12741410628E+04  0.13379681432E+04  0.50400001928E-02 0.  1.
       -1    1    3    3    0  502  0.28685037906E+03  0.29058589821E+03 -0.47648578612E+03  0.62750458852E+03  0.50400001928E-02 0. -1.
</event>
<event>
 5   0  0.2417106E-04  0.1797685E+04  0.7818609E-02  0.8707532E-01
       -2   -1    0    0    0  501  0.00000000000E+00  0.00000000000E+00  0.92446784956E+03  0.92446784957E+03  0.25500000920E-02 0.  1.
        2   -1    0    0  501    0  0.00000000000E+00  0.00000000000E+00 -0.87392729665E+03  0.87392729665E+03  0.25500000920E-02 0. -1.
    10030    2    1    2    0    0  0.00000000000E+00  0.00000000000E+00  0.50540552911E+02  0.17983951462E+04  0.17976848318E+04 0.  0.
        4    1    3    3  502    0  0.36450838893E+02 -0.48572484303E+03  0.78098837456E+03  0.92043562561E+03  0.12699999809E+01 0.  1.
       -4    1    3    3    0  502 -0.36450838893E+02  0.48572484303E+03 -0.73044782164E+03  0.87795952061E+03  0.12699999809E+01 0. -1.
</event>
<event>
 5   0  0.2431811E-04  0.1812360E+04  0.7818609E-02  0.8699754E-01
        2   -1    0    0  501    0  0.00000000000E+00  0.00000000000E+00  0.17196483892E+04  0.17196483892E+04  0.25500000920E-02 0.  1.
       -2   -1    0    0    0  501  0.00000000000E+00  0.00000000000E+00 -0.47751747696E+03  0.47751747697E+03  0.25500000920E-02 0. -1.
    10030    2    1    2    0    0  0.00000000000E+00  0.00000000000E+00  0.12421309122E+04  0.21971658661E+04  0.18123599643E+04 0.  0.
        3    1    3    3  502    0  0.75044116686E+03 -0.49479966267E+03  0.48192002489E+03  0.10199193947E+04  0.10100000352E+00 0. -1.
       -3    1    3    3    0  502 -0.75044116686E+03  0.49479966267E+03  0.76021088732E+03  0.11772464714E+04  0.10100000352E+00 0.  1.
</event>
<event>
 5   0  0.1330225E-04  0.1761415E+04  0.7818609E-02  0.8727092E-01
       -1   -1    0    0    0  501  0.00000000000E+00  0.00000000000E+00  0.37788079176E+03  0.37788079180E+03  0.50400001928E-02 0.  1.
        1   -1    0    0  501    0  0.00000000000E+00  0.00000000000E+00 -0.20526194224E+04  0.20526194224E+04  0.50400001928E-02 0. -1.
    10030    2    1    2    0    0  0.00000000000E+00  0.00000000000E+00 -0.16747386306E+04  0.24305002142E+04  0.17614147184E+04 0.  0.
        3    1    3    3  502    0  0.28948627387E+03  0.70008709279E+03 -0.14571097272E+04  0.16422828647E+04  0.10100000352E+00 0. -1.
       -3    1    3    3    0  502 -0.28948627387E+03 -0.70008709279E+03 -0.21762890339E+03  0.78821734950E+03  0.10100000352E+00 0.  1.
</event>
<event>
 5   0  0.1239119E-04  0.1730863E+04  0.7818609E-02  0.8743955E-01
       -1   -1    0    0    0  501  0.00000000000E+00  0.00000000000E+00  0.56715164044E+03  0.56715164047E+03  0.50400001928E-02 0. -1.
        1   -1    0    0  501    0  0.00000000000E+00  0.00000000000E+00 -0.13205842592E+04  0.13205842592E+04  0.50400001928E-02 0.  1.
    10030    2    1    2    0    0  0.00000000000E+00  0.00000000000E+00 -0.75343261879E+03  0.18877358997E+04  0.17308628241E+04 0.  0.
        5    1    3    3  502    0  0.35930399476E+03 -0.38734505504E+03 -0.11242684847E+04  0.12422307628E+04  0.46999998093E+01 0.  1.
       -5    1    3    3    0  502 -0.35930399476E+03  0.38734505504E+03  0.37083586593E+03  0.64550513691E+03  0.46999998093E+01 0. -1.
</event>
<event>
 5   0  0.9144875E-05  0.1803470E+04  0.7818609E-02  0.8704456E-01
        3   -1    0    0  501    0  0.00000000000E+00  0.00000000000E+00  0.83372839873E+03  0.83372840485E+03  0.10100000352E+00 0. -1.
       -3   -1    0    0    0  501  0.00000000000E+00  0.00000000000E+00 -0.97528878665E+03  0.97528879188E+03  0.10100000352E+00 0.  1.
    10030    2    1    2    0    0  0.00000000000E+00  0.00000000000E+00 -0.14156038792E+03  0.18090171967E+04  0.18034699539E+04 0.  0.
        1    1    3    3  502    0 -0.13706532003E+03  0.51650924468E+03  0.65778528378E+03  0.84749641969E+03  0.50400001928E-02 0. -1.
       -1    1    3    3    0  502  0.13706532003E+03 -0.51650924468E+03 -0.79934567170E+03  0.96152077705E+03  0.50400001928E-02 0.  1.
</event>
<event>
 5   0  0.1253925E-04  0.1840460E+04  0.7818609E-02  0.8685074E-01
        1   -1    0    0  501    0  0.00000000000E+00  0.00000000000E+00  0.13589561837E+04  0.13589561837E+04  0.50400001928E-02 0. -1.
       -1   -1    0    0    0  501  0.00000000000E+00  0.00000000000E+00 -0.62314248861E+03  0.62314248863E+03  0.50400001928E-02 0.  1.
    10030    2    1    2    0    0  0.00000000000E+00  0.00000000000E+00  0.73581369511E+03  0.19820986723E+04  0.18404600928E+04 0.  0.
        2    1    3    3  502    0  0.84307359775E+03 -0.76741244724E+02 -0.20636387013E+02  0.84681058705E+03  0.25500000920E-02 0.  1.
       -2    1    3    3    0  502 -0.84307359775E+03  0.76741244724E+02  0.75645008212E+03  0.11352880853E+04  0.25500000920E-02 0. -1.
</event>
<event>
 5   0  0.2431811E-04  0.1799772E+04  0.7818609E-02  0.8706421E-01
       -2   -1    0    0    0  501  0.00000000000E+00  0.00000000000E+00  0.35582745355E+03  0.35582745356E+03  0.25500000920E-02 0.  1.
        2   -1    0    0  501    0  0.00000000000E+00  0.00000000000E+00 -0.22758074436E+04  0.22758074436E+04  0.25500000920E-02 0. -1.
    10030    2    1    2    0    0  0.00000000000E+00  0.00000000000E+00 -0.19199799901E+04  0.26316348972E+04  0.17997719494E+04 0.  0.
        3    1    3    3  502    0 -0.10304101330E+03 -0.68232183419E+03 -0.18045498536E+04  0.19319887992E+04  0.10100000352E+00 0. -1.
       -3    1    3    3    0  502  0.10304101330E+03  0.68232183419E+03 -0.11543013648E+03  0.69964609800E+03  0.10100000352E+00 0.  1.
</event>
<event>
 5   0  0.2569405E-04  0.1835656E+04  0.7818609E-02  0.8687565E-01
        2   -1    0    0  501    0  0.00000000000E+00  0.00000000000E+00  0.33939241141E+03  0.33939241142E+03  0.25500000920E-02 0.  1.
       -2   -1    0    0    0  501  0.00000000000E+00  0.00000000000E+00 -0.24821063869E+04  0.24821063869E+04  0.25500000920E-02 0. -1.
    10030    2    1    2    0    0  0.00000000000E+00  0.00000000000E+00 -0.21427139755E+04  0.28214987984E+04  0.18356558197E+04 0.  0.
        2    1    3    3  502    0  0.79447190630E+02 -0.27115768028E+03 -0.24135914793E+04  0.24300745199E+04  0.25500000920E-02 0. -1.
       -2    1    3    3    0  502 -0.79447190630E+02  0.27115768028E+03  0.27087750376E+03  0.39142427840E+03  0.25500000920E-02 0.  1.
</event>
<event>
 5   0  0.2431811E-04  0.1703768E+04  0.7818609E-02  0.8759218E-01
        2   -1    0    0  501    0  0.00000000000E+00  0.00000000000E+00  0.94434857107E+03  0.94434857107E+03  0.25500000920E-02 0.  1.
       -2   -1    0    0    0  501  0.00000000000E+00  0.00000000000E+00 -0.76847321735E+03  0.76847321735E+03  0.25500000920E-02 0. -1.
    10030    2    1    2    0    0  0.00000000000E+00  0.00000000000E+00  0.17587535372E+03  0.17128217884E+04  0.17037682762E+04 0.  0.
        3    1    3    3  502    0 -0.38089312047E+03 -0.62728640841E+03 -0.34695644070E+03  0.81175525212E+03  0.10100000352E+00 0. -1.
       -3    1    3    3    0  502  0.38089312047E+03  0.62728640841E+03  0.52283179441E+03  0.90106653631E+03  0.10100000352E+00 0.  1.
</event>
<event>
 5   0  0.2569405E-04  0.1822291E+04  0.7818609E-02  0.8694534E-01
       -2   -1    0    0    0  501  0.00000000000E+00  0.00000000000E+00  0.56239501656E+03  0.56239501656E+03  0.25500000920E-02 0.  1.
        2   -1    0    0  501    0  0.00000000000E+00  0.00000000000E+00 -0.14761621909E+04  0.14761621909E+04  0.25500000920E-02 0. -1.
    10030    2    1    2    0    0  0.00000000000E+00  0.00000000000E+00 -0.91376717434E+03  0.20385572075E+04  0.18222911511E+04 0.  0.
        2    1    3    3  502    0  0.50850654702E+03 -0.28467585286E+03  0.32664402655E+03  0.66806853664E+03  0.25500000920E-02 0.  1.
       -2    1    3    3    0  502 -0.50850654702E+03  0.28467585286E+03 -0.12404112009E+04  0.13704886708E+04  0.25500000920E-02 0. -1.
</event>
<event>
 5   0  0.2431811E-04  0.1790485E+04  0.7818609E-02  0.8711376E-01
       -2   -1    0    0    0  501  0.00000000000E+00  0.00000000000E+00  0.71142924047E+03  0.71142924048E+03  0.25500000920E-02 0.  1.
        2   -1    0    0  501    0  0.00000000000E+00  0.00000000000E+00 -0.11265476035E+04  0.11265476035E+04  0.25500000920E-02 0. -1.
    10030    2    1    2    0    0  0.00000000000E+00  0.00000000000E+00 -0.41511836299E+03  0.18379768439E+04  0.17904847454E+04 0.  0.
        3    1    3    3  502    0  0.52252845452E+03 -0.72688720800E+03 -0.19974836265E+03  0.91722430055E+03  0.10100000352E+00 0. -1.
       -3    1    3    3    0  502 -0.52252845452E+03  0.72688720800E+03 -0.21537000034E+03  0.92075254340E+03  0.10100000352E+00 0.  1.
</event>
<event>
 5   0  0.2393421E-04  0.1818203E+04  0.7818609E-02  0.8696679E-01
       -2   -1    0    0    0  501  0.00000000000E+00  0.00000000000E+00  0.10033550499E+04  0.10033550499E+04  0.25500000920E-02 0. -1.
        2   -1    0    0  501    0  0.00000000000E+00  0.00000000000E+00 -0.82370153650E+03  0.82370153650E+03  0.25500000920E-02 0.  1.
    10030    2    1    2    0    0  0.00000000000E+00  0.00000000000E+00  0.17965351342E+03  0.18270565864E+04  0.18182025149E+04 0.  0.
        5    1    3    3  502    0  0.56128397435E+03  0.45955379686E+03  0.64041246688E+03  0.96766709658E+03  0.46999998093E+01 0. -1.
       -5    1    3    3    0  502 -0.56128397435E+03 -0.45955379686E+03 -0.46075895346E+03  0.85938948985E+03  0.46999998093E+01 0.  1.
</event>
<event>
 5   0  0.2417106E-04  0.1811669E+04  0.7818609E-02  0.8700118E-01
       -2   -1    0    0    0  501  0.00000000000E+00  0.00000000000E+00  0.91279038974E+03  0.91279038975E+03  0.25500000920E-02 0.  1.
        2   -1    0    0  501    0  0.00000000000E+00  0.00000000000E+00 -0.89893202481E+03  0.89893202481E+03  0.25500000920E-02 0. -1.
    10030    2    1    2    0    0  0.00000000000E+00  0.00000000000E+00  0.13858364938E+02  0.18117224146E+04  0.18116694106E+04 0.  0.
        4    1    3    3  502    0 -0.24172024160E+03  0.85058349190E+03  0.20343925340E+03  0.90736436706E+03  0.12699999809E+01 0.  1.
       -4    1    3    3    0  502  0.24172024160E+03 -0.85058349190E+03 -0.18958088846E+03  0.90435804749E+03  0.12699999809E+01 0. -1.
</event>
<event>
 5   0  0.2417106E-04  0.1735597E+04  0.7818609E-02  0.8741318E-01
        2   -1    0    0  501    0  0.00000000000E+00  0.00000000000E+00  0.73217680793E+03  0.73217680794E+03  0.25500000920E-02 0.  1.
       -2   -1    0    0    0  501  0.00000000000E+00  0.00000000000E+00 -0.10285418709E+04  0.10285418709E+04  0.25500000920E-02 0. -1.
    10030    2    1    2    0    0  0.00000000000E+00  0.00000000000E+00 -0.29636506292E+03  0.17607186788E+04  0.17355973079E+04 0.  0.
        4    1    3    3  502    0 -0.35093185142E+03 -0.17498819684E+03  0.63716652915E+03  0.74816898635E+03  0.12699999809E+01 0.  1.
       -4    1    3    3    0  502  0.35093185142E+03  0.17498819684E+03 -0.93353159207E+03  0.10125496924E+04  0.12699999809E+01 0. -1.
</event>
<event>
 5   0  0.1214723E-04  0.1789229E+04  0.7818609E-02  0.8712048E-01
        1   -1    0    0  501    0  0.00000000000E+00  0.00000000000E+00  0.13899391238E+04  0.13899391238E+04  0.50400001928E-02 0. -1.
       -1   -1    0    0    0  501  0.00000000000E+00  0.00000000000E+00 -0.57580617808E+03  0.57580617810E+03  0.50400001928E-02 0.  1.
    10030    2    1    2    0    0  0.00000000000E+00  0.00000000000E+00  0.81413294570E+03  0.19657453019E+04  0.17892294818E+04 0.  0.
        1    1    3    3  502    0 -0.24547756614E+03 -0.42331334043E+03  0.12298716140E+04  0.13236455744E+04  0.50400001928E-02 0. -1.
       -1    1    3    3    0  502  0.24547756614E+03  0.42331334043E+03 -0.41573866833E+03  0.64209972748E+03  0.50400001928E-02 0.  1.
</event>
<event>
 5   0  0.2569405E-04  0.1849320E+04  0.7818609E-02  0.8680503E-01
       -2   -1    0    0    0  501  0.00000000000E+00  0.00000000000E+00  0.89489741896E+03  0.89489741896E+03  0.25500000920E-02 0.  1.
        2   -1    0    0  501    0  0.00000000000E+00  0.00000000000E+00 -0.95541257364E+03  0.95541257364E+03  0.25500000920E-02 0. -1.
    10030    2    1    2    0    0  0.00000000000E+00  0.00000000000E+00 -0.60515154680E+02  0.18503099926E+04  0.18493201412E+04 0.  0.
        2    1    3    3  502    0  0.62273368126E+03  0.68184212140E+03  0.17625429630E+02  0.92358896273E+03  0.25500000920E-02 0.  1.
       -2    1    3    3    0  502 -0.62273368126E+03 -0.68184212140E+03 -0.78140584310E+02  0.92672102988E+03  0.25500000920E-02 0. -1.
</event>
<event>
 5   0  0.1239119E-04  0.1815575E+04  0.7818609E-02  0.8698060E-01
       -1   -1    0    0    0  501  0.00000000000E+00  0.00000000000E+00  0.65033513775E+03  0.65033513777E+03  0.50400001928E-02 0.  1.
        1   -1    0    0  501    0  0.00000000000E+00  0.00000000000E+00 -0.12671597924E+04  0.12671597924E+04  0.50400001928E-02 0. -1.
    10030    2    1    2    0    0  0.00000000000E+00  0.00000000000E+00 -0.61682465465E+03  0.19174949302E+04  0.18155754329E+04 0.  0.
        5    1    3    3  502    0  0.31778852111E+03  0.67469082388E+03 -0.85501683319E+03  0.11345805952E+04  0.46999998093E+01 0. -1.
       -5    1    3    3    0  502 -0.31778852111E+03 -0.67469082388E+03  0.23819217854E+03  0.78291433497E+03  0.46999998093E+01 0.  1.
</event>
<event>
 5   0  0.1308893E-04  0.1797958E+04  0.7818609E-02  0.8707386E-01
        1   -1    0    0  501    0  0.00000000000E+00  0.00000000000E+00  0.26957844825E+04  0.26957844825E+04  0.50400001928E-02 0. -1.
       -1   -1    0    0    0  501  0.00000000000E+00  0.00000000000E+00 -0.29978769550E+03  0.29978769554E+03  0.50400001928E-02 0.  1.
    10030    2    1    2    0    0  0.00000000000E+00  0.00000000000E+00  0.23959967870E+04  0.29955721781E+04  0.17979577499E+04 0.  0.
        4    1    3    3  502    0 -0.65033603987E+03 -0.45353624662E+02  0.22293212257E+04  0.23226856560E+04  0.12699999809E+01 0. -1.
       -4    1    3    3    0  502  0.65033603987E+03  0.45353624662E+02  0.16667556133E+03  0.67288652213E+03  0.12699999809E+01 0.  1.
</event>
<event>
 5   0  0.1239119E-04  0.1837319E+04  0.7818609E-02  0.8686702E-01
        1   -1    0    0  501    0  0.00000000000E+00  0.00000000000E+00  0.11979963223E+04  0.11979963223E+04  0.50400001928E-02 0. -1.
       -1   -1    0    0    0  501  0.00000000000E+00  0.00000000000E+00 -0.70445575054E+03  0.70445575056E+03  0.50400001928E-02 0.  1.
    10030    2    1    2    0    0  0.00000000000E+00  0.00000000000E+00  0.49354057174E+03  0.19024520728E+04  0.18373191322E+04 0.  0.
        5    1    3    3  502    0  0.33178255220E+02  0.86989855721E+03  0.55058093241E+03  0.10300416252E+04  0.46999998093E+01 0. -1.
       -5    1    3    3    0  502 -0.33178255220E+02 -0.86989855721E+03 -0.57040360667E+02  0.87241044767E+03  0.46999998093E+01 0.  1.
</event>
<event>
 5   0  0.2550616E-04  0.1821991E+04  0.7818609E-02  0.8694692E-01
       -2   -1    0    0    0  501  0.00000000000E+00  0.00000000000E+00  0.54509203884E+03  0.54509203885E+03  0.25500000920E-02 0. -1.
        2   -1    0    0  501    0  0.00000000000E+00  0.00000000000E+00 -0.15225183025E+04  0.15225183025E+04  0.25500000920E-02 0.  1.
    10030    2    1    2    0    0  0.00000000000E+00  0.00000000000E+00 -0.97742626364E+03  0.20676103413E+04  0.18219907856E+04 0.  0.
        1    1    3    3  502    0  0.17051799836E+03  0.81854404460E+03 -0.78260837711E+02  0.83977109944E+03  0.50400001928E-02 0. -1.
       -1    1    3    3    0  502 -0.17051799836E+03 -0.81854404460E+03 -0.89916542593E+03  0.12278392419E+04  0.50400001928E-02 0.  1.
</event>
<event>
 5   0  0.2431811E-04  0.1798032E+04  0.7818609E-02  0.8707347E-01
       -2   -1    0    0    0  501  0.00000000000E+00  0.00000000000E+00  0.12697710005E+04  0.12697710005E+04  0.25500000920E-02 0.  1.
        2   -1    0    0  501    0  0.00000000000E+00  0.00000000000E+00 -0.63651641974E+03  0.63651641975E+03  0.25500000920E-02 0. -1.
    10030    2    1    2    0    0  0.00000000000E+00  0.00000000000E+00  0.63325458080E+03  0.19062874203E+04  0.17980323592E+04 0.  0.
        3    1    3    3  502    0 -0.33703917491E+01  0.78166802260E+03 -0.15419775336E+03  0.79673911316E+03  0.10100000352E+00 0. -1.
       -3    1    3    3    0  502  0.33703917491E+01 -0.78166802260E+03  0.78745233416E+03  0.11095483071E+04  0.10100000352E+00 0.  1.
</event>
<event>
 5   0  0.2393421E-04  0.1785944E+04  0.7818609E-02  0.8713810E-01
        2   -1    0    0  501    0  0.00000000000E+00  0.00000000000E+00  0.11670218679E+04  0.11670218679E+04  0.25500000920E-02 0.  1.
       -2   -1    0    0    0  501  0.00000000000E+00  0.00000000000E+00 -0.68327675293E+03  0.68327675293E+03  0.25500000920E-02 0. -1.
    10030    2    1    2    0    0  0.00000000000E+00  0.00000000000E+00  0.48374511496E+03  0.18502986208E+04  0.17859439101E+04 0.  0.
        5    1    3    3  502    0 -0.48880207761E+03 -0.39817495229E+03  0.89704104724E+03  0.10964376381E+04  0.46999998093E+01 0.  1.
       -5    1    3    3    0  502  0.48880207761E+03  0.39817495229E+03 -0.41329593229E+03  0.75386098277E+03  0.46999998093E+01 0. -1.
</event>
<event>
 5   0  0.1239119E-04  0.1797727E+04  0.7818609E-02  0.8707509E-01
        1   -1    0    0  501    0  0.00000000000E+00  0.00000000000E+00  0.83484460284E+03  0.83484460285E+03  0.50400001928E-02 0. -1.
       -1   -1    0    0    0  501  0.00000000000E+00  0.00000000000E+00 -0.96779182660E+03  0.96779182662E+03  0.50400001928E-02 0.  1.
    10030    2    1    2    0    0  0.00000000000E+00  0.00000000000E+00 -0.13294722377E+03  0.18026364295E+04  0.17977272130E+04 0.  0.
        5    1    3    3  502    0  0.73518701832E+03 -0.50628352644E+03 -0.17216891501E+03  0.90911340676E+03  0.46999998093E+01 0.  1.
       -5    1    3    3    0  502 -0.73518701832E+03  0.50628352644E+03  0.39221691245E+02  0.89352302271E+03  0.46999998093E+01 0. -1.
</event>
<event>
 5   0  0.2431811E-04  0.1877983E+04  0.7818609E-02  0.8665894E-01
        2   -1    0    0  501    0  0.00000000000E+00  0.00000000000E+00  0.16475333795E+04  0.16475333795E+04  0.25500000920E-02 0. -1.
       -2   -1    0    0    0  501  0.00000000000E+00  0.00000000000E+00 -0.53516668273E+03  0.53516668274E+03  0.25500000920E-02 0.  1.
    10030    2    1    2    0    0  0.00000000000E+00  0.00000000000E+00  0.11123666968E+04  0.21827000622E+04  0.18779829322E+04 0.  0.
        3    1    3    3  502    0 -0.91228944076E+03  0.13308247276E+03  0.34917747611E+03  0.98585388791E+03  0.10100000352E+00 0.  1.
       -3    1    3    3    0  502  0.91228944076E+03 -0.13308247276E+03  0.76318922067E+03  0.11968461743E+04  0.10100000352E+00 0. -1.
</event>
<event>
 5   0  0.2417106E-04  0.1751737E+04  0.7818609E-02  0.8732395E-01
       -2   -1    0    0    0  501  0.00000000000E+00  0.00000000000E+00  0.98607195729E+03  0.98607195729E+03  0.25500000920E-02 0. -1.
        2   -1    0    0  501    0  0.00000000000E+00  0.00000000000E+00 -0.77798117404E+03  0.77798117405E+03  0.25500000920E-02 0.  1.
    10030    2    1    2    0    0  0.00000000000E+00  0.00000000000E+00  0.20809078324E+03  0.17640531313E+04  0.17517367599E+04 0.  0.
        4    1    3    3  502    0  0.86691033855E+03  0.71374640936E+02  0.77717061156E+00  0.86984486626E+03  0.12699999809E+01 0.  1.
       -4    1    3    3    0  502 -0.86691033855E+03 -0.71374640936E+02  0.20731361263E+03  0.89420826508E+03  0.12699999809E+01 0. -1.
</event>
<event>
 5   0  0.2393421E-04  0.1772918E+04  0.7818609E-02  0.8720835E-01
        2   -1    0    0  501    0  0.00000000000E+00  0.00000000000E+00  0.16543997768E+04  0.16543997768E+04  0.25500000920E-02 0. -1.
       -2   -1    0    0    0  501  0.00000000000E+00  0.00000000000E+00 -0.47498175468E+03  0.47498175469E+03  0.25500000920E-02 0.  1.
    10030    2    1    2    0    0  0.00000000000E+00  0.00000000000E+00  0.11794180222E+04  0.21293815315E+04  0.17729181695E+04 0.  0.
        5    1    3    3  502    0 -0.50698205129E+01  0.15143963974E+03 -0.45929727625E+03  0.48366904546E+03  0.46999998093E+01 0.  1.
       -5    1    3    3    0  502  0.50698205129E+01 -0.15143963974E+03  0.16387152984E+04  0.16457124861E+04  0.46999998093E+01 0. -1.
</event>
<event>
 5   0  0.1239119E-04  0.1797741E+04  0.7818609E-02  0.8707502E-01
       -1   -1    0    0    0  501  0.00000000000E+00  0.00000000000E+00  0.17929831055E+04  0.17929831055E+04  0.50400001928E-02 0.  1.
        1   -1    0    0  501    0  0.00000000000E+00  0.00000000000E+00 -0.45062793730E+03  0.45062793732E+03  0.50400001928E-02 0. -1.
    10030    2    1    2    0    0  0.00000000000E+00  0.00000000000E+00  0.13423551682E+04  0.22436110428E+04  0.17977411143E+04 0.  0.
        5    1    3    3  502    0  0.18767542703E+03  0.23343948770E+03 -0.38649738747E+03  0.48899732193E+03  0.46999998093E+01 0. -1.
       -5    1    3    3    0  502 -0.18767542703E+03 -0.23343948770E+03  0.17288525557E+04  0.17546137209E+04  0.46999998093E+01 0.  1.
</event>
<event>
 5   0  0.2431811E-04  0.1806601E+04  0.7818609E-02  0.8702797E-01
       -2   -1    0    0    0  501  0.00000000000E+00  0.00000000000E+00  0.66713940819E+03  0.66713940819E+03  0.25500000920E-02 0. -1.
        2   -1    0    0  501    0  0.00000000000E+00  0.00000000000E+00 -0.12230600109E+04  0.12230600109E+04  0.25500000920E-02 0.  1.
    10030    2    1    2    0    0  0.00000000000E+00  0.00000000000E+00 -0.55592060268E+03  0.18901994191E+04  0.18066007105E+04 0.  0.
        3    1    3    3  502    0  0.87950857213E+03  0.39789968550E+02 -0.66537980670E+02  0.88291895615E+03  0.10100000352E+00 0. -1.
       -3    1    3    3    0  502 -0.87950857213E+03 -0.39789968550E+02 -0.48938262201E+03  0.10072804629E+04  0.10100000352E+00 0.  1.
</event>
<event>
 5   0  0.2550616E-04  0.1832263E+04  0.7818609E-02  0.8689328E-01
       -2   -1    0    0    0  501  0.00000000000E+00  0.00000000000E+00  0.12674611121E+04  0.12674611121E+04  0.25500000920E-02 0.  1.
        2   -1    0    0  501    0  0.00000000000E+00  0.00000000000E+00 -0.66218759754E+03  0.66218759755E+03  0.25500000920E-02 0. -1.
    10030    2    1    2    0    0  0.00000000000E+00  0.00000000000E+00  0.60527351455E+03  0.19296487097E+04  0.18322631130E+04 0.  0.
        1    1    3    3  502    0  0.33721488347E+03 -0.57624992794E+01  0.11997020858E+04  0.12462071171E+04  0.50400001928E-02 0.  1.
       -1    1    3    3    0  502 -0.33721488347E+03  0.57624992794E+01 -0.59442857126E+03  0.68344159253E+03  0.50400001928E-02 0. -1.
</event>
<event>
 5   0  0.2417106E-04  0.1654104E+04  0.7818609E-02  0.8787982E-01
       -2   -1    0    0    0  501  0.00000000000E+00  0.00000000000E+00  0.42504626657E+03  0.42504626658E+03  0.25500000920E-02 0.  1.
        2   -1    0    0  501    0  0.00000000000E+00  0.00000000000E+00 -0.16092721115E+04  0.16092721115E+04  0.25500000920E-02 0. -1.
    10030    2    1    2    0    0  0.00000000000E+00  0.00000000000E+00 -0.11842258449E+04  0.20343183781E+04  0.16541041115E+04 0.  0.
        4    1    3    3  502    0 -0.74401471202E+02  0.80874703032E+03 -0.39997825299E+03  0.90531295900E+03  0.12699999809E+01 0.  1.
       -4    1    3    3    0  502  0.74401471202E+02 -0.80874703032E+03 -0.78424759193E+03  0.11290054191E+04  0.12699999809E+01 0. -1.
</event>
<event>
 5   0  0.2550616E-04  0.1801007E+04  0.7818609E-02  0.8705764E-01
       -2   -1    0    0    0  501  0.00000000000E+00  0.00000000000E+00  0.61857767412E+03  0.61857767412E+03  0.25500000920E-02 0. -1.
        2   -1    0    0  501    0  0.00000000000E+00  0.00000000000E+00 -0.13109217058E+04  0.13109217058E+04  0.25500000920E-02 0.  1.
    10030    2    1    2    0    0  0.00000000000E+00  0.00000000000E+00 -0.69234403172E+03  0.19294993800E+04  0.18010073845E+04 0.  0.
        1    1    3    3  502    0 -0.99067585444E+02 -0.78301489426E+03  0.11832741942E+03  0.79807774642E+03  0.50400001928E-02 0. -1.
       -1    1    3    3    0  502  0.99067585444E+02  0.78301489426E+03 -0.81067145115E+03  0.11314216335E+04  0.50400001928E-02 0.  1.
</event>
<event>
 5   0  0.2431811E-04  0.1784412E+04  0.7818609E-02  0.8714633E-01
       -2   -1    0    0    0  501  0.00000000000E+00  0.00000000000E+00  0.34519380782E+03  0.34519380783E+03  0.25500000920E-02 0.  1.
        2   -1    0    0  501    0  0.00000000000E+00  0.00000000000E+00 -0.23060421444E+04  0.23060421444E+04  0.25500000920E-02 0. -1.
    10030    2    1    2    0    0  0.00000000000E+00  0.00000000000E+00 -0.19608483366E+04  0.26512359522E+04  0.17844119130E+04 0.  0.
        3    1    3    3  502    0 -0.25167546964E+03  0.55836935472E+03 -0.19443647210E+04  0.20385463097E+04  0.10100000352E+00 0. -1.
       -3    1    3    3    0  502  0.25167546964E+03 -0.55836935472E+03 -0.16483615609E+02  0.61268964255E+03  0.10100000352E+00 0.  1.
</event>
<event>
 5   0  0.2569405E-04  0.1801635E+04  0.7818609E-02  0.8705430E-01
        2   -1    0    0  501    0  0.00000000000E+00  0.00000000000E+00  0.66444654630E+03  0.66444654630E+03  0.25500000920E-02 0. -1.
       -2   -1    0    0    0  501  0.00000000000E+00  0.00000000000E+00 -0.12212758572E+04  0.12212758572E+04  0.25500000920E-02 0.  1.
    10030    2    1    2    0    0  0.00000000000E+00  0.00000000000E+00 -0.55682931088E+03  0.18857224035E+04  0.18016353964E+04 0.  0.
        2    1    3    3  502    0  0.82953097797E+03 -0.14102172410E+03  0.58255774614E+02  0.84344680055E+03  0.25500000920E-02 0. -1.
       -2    1    3    3    0  502 -0.82953097797E+03  0.14102172410E+03 -0.61508508549E+03  0.10422756029E+04  0.25500000920E-02 0.  1.
</event>
<event>
 5   0  0.2550616E-04  0.1813925E+04  0.7818609E-02  0.8698929E-01
        2   -1    0    0  501    0  0.00000000000E+00  0.00000000000E+00  0.14063028132E+04  0.14063028132E+04  0.25500000920E-02 0.  1.
       -2   -1    0    0    0  501  0.00000000000E+00  0.00000000000E+00 -0.58492429024E+03  0.58492429025E+03  0.25500000920E-02 0. -1.
    10030    2    1    2    0    0  0.00000000000E+00  0.00000000000E+00  0.82137852293E+03  0.19912271034E+04  0.18139246675E+04 0.  0.
        1    1    3    3  502    0 -0.28081298894E+03 -0.73818143006E+03 -0.78778222442E+02  0.79370886778E+03  0.50400001928E-02 0. -1.
       -1    1    3    3    0  502  0.28081298894E+03  0.73818143006E+03  0.90015674537E+03  0.11975182356E+04  0.50400001928E-02 0.  1.
</event>
<event>
 5   0  0.2569405E-04  0.1798399E+04  0.7818609E-02  0.8707151E-01
        2   -1    0    0  501    0  0.00000000000E+00  0.00000000000E+00  0.13177339113E+04  0.13177339113E+04  0.25500000920E-02 0. -1.
       -2   -1    0    0    0  501  0.00000000000E+00  0.00000000000E+00 -0.61359855099E+03  0.61359855099E+03  0.25500000920E-02 0.  1.
    10030    2    1    2    0    0  0.00000000000E+00  0.00000000000E+00  0.70413536032E+03  0.19313324623E+04  0.17983988641E+04 0.  0.
        2    1    3    3  502    0 -0.60780311917E+03  0.58012290048E+03  0.80912929354E+01  0.84025750837E+03  0.25500000920E-02 0.  1.
       -2    1    3    3    0  502  0.60780311917E+03 -0.58012290048E+03  0.69604406738E+03  0.10910749539E+04  0.25500000920E-02 0. -1.
</event>
<event>
 5   0  0.1214723E-04  0.1811695E+04  0.7818609E-02  0.8700105E-01
       -1   -1    0    0    0  501  0.00000000000E+00  0.00000000000E+00  0.70375874004E+03  0.70375874006E+03  0.50400001928E-02 0.  1.
        1   -1    0    0  501    0  0.00000000000E+00  0.00000000000E+00 -0.11659669920E+04  0.11659669921E+04  0.50400001928E-02 0. -1.
    10030    2    1    2    0    0  0.00000000000E+00  0.00000000000E+00 -0.46220825200E+03  0.18697257321E+04  0.18116947439E+04 0.  0.
        1    1    3    3  502    0 -0.49253045024E+03 -0.46728670469E+03  0.38778463582E+03  0.78186957518E+03  0.50400001928E-02 0.  1.
       -1    1    3    3    0  502  0.49253045024E+03  0.46728670469E+03 -0.84999288782E+03  0.10878561569E+04  0.50400001928E-02 0. -1.
</event>
<event>
 5   0  0.1253925E-04  0.1800431E+04  0.7818609E-02  0.8706070E-01
       -1   -1    0    0    0  501  0.00000000000E+00  0.00000000000E+00  0.58143484066E+03  0.58143484068E+03  0.50400001928E-02 0.  1.
        1   -1    0    0  501    0  0.00000000000E+00  0.00000000000E+00 -0.13937732538E+04  0.13937732538E+04  0.50400001928E-02 0. -1.
    10030    2    1    2    0    0  0.00000000000E+00  0.00000000000E+00 -0.81233841315E+03  0.19752080945E+04  0.18004314258E+04 0.  0.
        2    1    3    3  502    0  0.35509409590E+03 -0.53657951387E+03  0.28453413461E+03  0.70354037938E+03  0.25500000920E-02 0.  1.
       -2    1    3    3    0  502 -0.35509409590E+03  0.53657951387E+03 -0.10968725478E+04  0.12716677151E+04  0.25500000920E-02 0. -1.
</event>
<event>
 5   0  0.1308893E-04  0.1797249E+04  0.7818609E-02  0.8707764E-01
       -1   -1    0    0    0  501  0.00000000000E+00  0.00000000000E+00  0.10679690397E+04  0.10679690397E+04  0.50400001928E-02 0. -1.
        1   -1    0    0  501    0  0.00000000000E+00  0.00000000000E+00 -0.75613201073E+03  0.75613201075E+03  0.50400001928E-02 0.  1.
    10030    2    1    2    0    0  0.00000000000E+00  0.00000000000E+00  0.31183702895E+03  0.18241010504E+04  0.17972485386E+04 0.  0.
        4    1    3    3  502    0 -0.57070619466E+03  0.67220347882E+03 -0.19759772152E+02  0.88201765235E+03  0.12699999809E+01 0.  1.
       -4    1    3    3    0  502  0.57070619466E+03 -0.67220347882E+03  0.33159680110E+03  0.94208339810E+03  0.12699999809E+01 0. -1.
</event>
<event>
 5   0  0.1239119E-04  0.1804660E+04  0.7818609E-02  0.8703825E-01
        1   -1    0    0  501    0  0.00000000000E+00  0.00000000000E+00  0.71514620629E+03  0.71514620630E+03  0.50400001928E-02 0. -1.
       -1   -1    0    0    0  501  0.00000000000E+00  0.00000000000E+00 -0.11385073183E+04  0.11385073183E+04  0.50400001928E-02 0.  1.
    10030    2    1    2    0    0  0.00000000000E+00  0.00000000000E+00 -0.42336111199E+03  0.18536535246E+04  0.18046597347E+04 0.  0.
        5    1    3    3  502    0  0.12421435838E+03  0.63787916026E+03 -0.85466080143E+03  0.10736788186E+04  0.46999998093E+01 0.  1.
       -5    1    3    3    0  502 -0.12421435838E+03 -0.63787916026E+03  0.43129968944E+03  0.77997470603E+03  0.46999998093E+01 0. -1.
</event>
<event>
 5   0  0.2431811E-04  0.1772222E+04  0.7818609E-02  0.8721213E-01
        2   -1    0    0  501    0  0.00000000000E+00  0.00000000000E+00  0.16597370994E+04  0.16597370994E+04  0.25500000920E-02 0. -1.
       -2   -1    0    0    0  501  0.00000000000E+00  0.00000000000E+00 -0.47308259476E+03  0.47308259477E+03  0.25500000920E-02 0.  1.
    10030    2    1    2    0    0  0.00000000000E+00  0.00000000000E+00  0.11866545046E+04  0.21328196942E+04  0.17722220331E+04 0.  0.
        3    1    3    3  502    0  0.46554710906E+03  0.55665689558E+03  0.12053158244E+04  0.14069069823E+04  0.10100000352E+00 0.  1.
       -3    1    3    3    0  502 -0.46554710906E+03 -0.55665689558E+03 -0.18661319780E+02  0.72591271183E+03  0.10100000352E+00 0. -1.
</event>
<event>
 5   0  0.9144875E-05  0.1714655E+04  0.7818609E-02  0.8753050E-01
       -3   -1    0    0    0  501  0.00000000000E+00  0.00000000000E+00  0.52478346086E+03  0.52478347058E+03  0.10100000352E+00 0. -1.
        3   -1    0    0  501    0  0.00000000000E+00  0.00000000000E+00 -0.14005968720E+04  0.14005968757E+04  0.10100000352E+00 0.  1.
    10030    2    1    2    0    0  0.00000000000E+00  0.00000000000E+00 -0.87581341119E+03  0.19253803463E+04  0.17146545852E+04 0.  0.
        3    1    3    3  502    0  0.68564067248E+03 -0.50115491859E+03 -0.30623205628E+03  0.90279425490E+03  0.10100000352E+00 0. -1.
       -3    1    3    3    0  502 -0.68564067248E+03  0.50115491859E+03 -0.56958135491E+03  0.10225860914E+04  0.10100000352E+00 0.  1.
</event>
<event>
 5   0  0.2431811E-04  0.1696281E+04  0.7818609E-02  0.8763488E-01
       -2   -1    0    0    0  501  0.00000000000E+00  0.00000000000E+00  0.79380654078E+03  0.79380654078E+03  0.25500000920E-02 0. -1.
        2   -1    0    0  501    0  0.00000000000E+00  0.00000000000E+00 -0.90619315160E+03  0.90619315161E+03  0.25500000920E-02 0.  1.
    10030    2    1    2    0    0  0.00000000000E+00  0.00000000000E+00 -0.11238661082E+03  0.16999996924E+04  0.16962806972E+04 0.  0.
        3    1    3    3  502    0 -0.58991486704E+03  0.53147338505E+03  0.24258534251E+03  0.83024765461E+03  0.10100000352E+00 0. -1.
       -3    1    3    3    0  502  0.58991486704E+03 -0.53147338505E+03 -0.35497195334E+03  0.86975203778E+03  0.10100000352E+00 0.  1.
</event>
<event>
 5   0  0.1330225E-04  0.1780428E+04  0.7818609E-02  0.8716777E-01
       -1   -1    0    0    0  501  0.00000000000E+00  0.00000000000E+00  0.95960148113E+03  0.95960148114E+03  0.50400001928E-02 0.  1.
        1   -1    0    0  501    0  0.00000000000E+00  0.00000000000E+00 -0.82584427338E+03  0.82584427339E+03  0.50400001928E-02 0. -1.
    10030    2    1    2    0    0  0.00000000000E+00  0.00000000000E+00  0.13375720775E+03  0.17854457545E+04  0.17804284742E+04 0.  0.
        3    1    3    3  502    0  0.52286508049E+03  0.71830866228E+03  0.12294815862E+03  0.89692334489E+03  0.10100000352E+00 0. -1.
       -3    1    3    3    0  502 -0.52286508049E+03 -0.71830866228E+03  0.10809049135E+02  0.88852240965E+03  0.10100000352E+00 0.  1.
</event>
<event>
 5   0  0.1308893E-04  0.1805842E+04  0.7818609E-02  0.8703199E-01
       -1   -1    0    0    0  501  0.00000000000E+00  0.00000000000E+00  0.88595233150E+03  0.88595233152E+03  0.50400001928E-02 0. -1.
        1   -1    0    0  501    0  0.00000000000E+00  0.00000000000E+00 -0.92021418140E+03  0.92021418141E+03  0.50400001928E-02 0.  1.
    10030    2    1    2    0    0  0.00000000000E+00  0.00000000000E+00 -0.34261849897E+02  0.18061665129E+04  0.18058415208E+04 0.  0.
        4    1    3    3  502    0  0.78355239811E+02  0.80708058391E+03 -0.41437449921E+03  0.91061871879E+03  0.12699999809E+01 0.  1.
       -4    1    3    3    0  502 -0.78355239811E+02 -0.80708058391E+03  0.38011264931E+03  0.89554779414E+03  0.12699999809E+01 0. -1.
</event>
<event>
 5   0  0.1239119E-04  0.1812688E+04  0.7818609E-02  0.8699581E-01
       -1   -1    0    0    0  501  0.00000000000E+00  0.00000000000E+00  0.73091662681E+03  0.73091662683E+03  0.50400001928E-02 0.  1.
        1   -1    0    0  501    0  0.00000000000E+00  0.00000000000E+00 -0.11238757802E+04  0.11238757802E+04  0.50400001928E-02 0. -1.
    10030    2    1    2    0    0  0.00000000000E+00  0.00000000000E+00 -0.39295915334E+03  0.18547924070E+04  0.18126880528E+04 0.  0.
        5    1    3    3  502    0 -0.15880498381E+03  0.10985901293E+03 -0.11025702045E+04  0.11193619483E+04  0.46999998093E+01 0. -1.
       -5    1    3    3    0  502  0.15880498381E+03 -0.10985901293E+03  0.70961105114E+03  0.73543045865E+03  0.46999998093E+01 0.  1.
</event>
<event>
 5   0  0.2417106E-04  0.1793804E+04  0.7818609E-02  0.8709601E-01
       -2   -1    0    0    0  501  0.00000000000E+00  0.00000000000E+00  0.43108823315E+03  0.43108823316E+03  0.25500000920E-02 0. -1.
        2   -1    0    0  501    0  0.00000000000E+00  0.00000000000E+00 -0.18660525664E+04  0.18660525664E+04  0.25500000920E-02 0.  1.
    10030    2    1    2    0    0  0.00000000000E+00  0.00000000000E+00 -0.14349643332E+04  0.22971407995E+04  0.17938041184E+04 0.  0.
        4    1    3    3  502    0  0.47729124577E+03 -0.75586033194E+03 -0.62425400913E+03  0.10903331855E+04  0.12699999809E+01 0.  1.
       -4    1    3    3    0  502 -0.47729124577E+03  0.75586033194E+03 -0.81071032410E+03  0.12068076140E+04  0.12699999809E+01 0. -1.
</event>
<event>
 5   0  0.2417106E-04  0.1746652E+04  0.7818609E-02  0.8735195E-01
       -2   -1    0    0    0  501  0.00000000000E+00  0.00000000000E+00  0.54381936364E+03  0.54381936365E+03  0.25500000920E-02 0. -1.
        2   -1    0    0  501    0  0.00000000000E+00  0.00000000000E+00 -0.14024851561E+04  0.14024851561E+04  0.25500000920E-02 0.  1.
    10030    2    1    2    0    0  0.00000000000E+00  0.00000000000E+00 -0.85866579249E+03  0.19463045198E+04  0.17466523239E+04 0.  0.
        4    1    3    3  502    0  0.77355236098E+03 -0.40320632871E+03 -0.38287325226E+03  0.95265530959E+03  0.12699999809E+01 0.  1.
       -4    1    3    3    0  502 -0.77355236098E+03  0.40320632871E+03 -0.47579254023E+03  0.99364921020E+03  0.12699999809E+01 0. -1.
</event>
<event>
 5   0  0.2431811E-04  0.1794469E+04  0.7818609E-02  0.8709246E-01
       -2   -1    0    0    0  501  0.00000000000E+00  0.00000000000E+00  0.58611803913E+03  0.58611803913E+03  0.25500000920E-02 0. -1.
        2   -1    0    0  501    0  0.00000000000E+00  0.00000000000E+00 -0.13734938349E+04  0.13734938349E+04  0.25500000920E-02 0.  1.
    10030    2    1    2    0    0  0.00000000000E+00  0.00000000000E+00 -0.78737579576E+03  0.19596118740E+04  0.17944687384E+04 0.  0.
        3    1    3    3  502    0 -0.20620293787E+03  0.48253408941E+03 -0.11884499856E+04  0.12991428626E+04  0.10100000352E+00 0.  1.
       -3    1    3    3    0  502  0.20620293787E+03 -0.48253408941E+03  0.40107418986E+03  0.66046901139E+03  0.10100000352E+00 0. -1.
</event>
<event>
 5   0  0.1214723E-04  0.1823559E+04  0.7818609E-02  0.8693871E-01
        1   -1    0    0  501    0  0.00000000000E+00  0.00000000000E+00  0.17429993720E+04  0.17429993720E+04  0.50400001928E-02 0. -1.
       -1   -1    0    0    0  501  0.00000000000E+00  0.00000000000E+00 -0.47696045043E+03  0.47696045046E+03  0.50400001928E-02 0.  1.
    10030    2    1    2    0    0  0.00000000000E+00  0.00000000000E+00  0.12660389216E+04  0.22199598225E+04  0.18235589002E+04 0.  0.
        1    1    3    3  502    0 -0.88437386611E+03  0.12014808011E+03  0.40595627611E+03  0.98048620304E+03  0.50400001928E-02 0. -1.
       -1    1    3    3    0  502  0.88437386611E+03 -0.12014808011E+03  0.86008264546E+03  0.12394736194E+04  0.50400001928E-02 0.  1.
</event>
<event>
 5   0  0.2417106E-04  0.1815026E+04  0.7818609E-02  0.8698349E-01
        2   -1    0    0  501    0  0.00000000000E+00  0.00000000000E+00  0.12684872358E+04  0.12684872358E+04  0.25500000920E-02 0.  1.
       -2   -1    0    0    0  501  0.00000000000E+00  0.00000000000E+00 -0.64926162884E+03  0.64926162884E+03  0.25500000920E-02 0. -1.
    10030    2    1    2    0    0  0.00000000000E+00  0.00000000000E+00  0.61922560698E+03  0.19177488647E+04  0.18150262686E+04 0.  0.
        4    1    3    3  502    0  0.68637811203E+03  0.69119906139E+02  0.93263342602E+03  0.11600427554E+04  0.12699999809E+01 0.  1.
       -4    1    3    3    0  502 -0.68637811203E+03 -0.69119906139E+02 -0.31340781903E+03  0.75770610928E+03  0.12699999809E+01 0. -1.
</event>
<event>
 5   0  0.1308893E-04  0.1864743E+04  0.7818609E-02  0.8672608E-01
       -1   -1    0    0    0  501  0.00000000000E+00  0.00000000000E+00  0.70910004855E+03  0.70910004857E+03  0.50400001928E-02 0. -1.
        1   -1    0    0  501    0  0.00000000000E+00  0.00000000000E+00 -0.12259432016E+04  0.12259432016E+04  0.50400001928E-02 0.  1.
    10030    2    1    2    0    0  0.00000000000E+00  0.00000000000E+00 -0.51684315302E+03  0.19350432502E+04  0.18647427531E+04 0.  0.
        4    1    3    3  502    0  0.20729216671E+03 -0.55929093589E+02  0.68309685239E+03  0.71604540955E+03  0.12699999809E+01 0. -1.
       -4    1    3    3    0  502 -0.20729216671E+03  0.55929093589E+02 -0.11999400054E+04  0.12189978406E+04  0.12699999809E+01 0.  1.
</event>
<event>
 5   0  0.2550616E-04  0.1794748E+04  0.7818609E-02  0.8709098E-01
        2   -1    0    0  501    0  0.00000000000E+00  0.00000000000E+00  0.16748275554E+04  0.16748275554E+04  0.25500000920E-02 0. -1.
       -2   -1    0    0    0  501  0.00000000000E+00  0.00000000000E+00 -0.48081357841E+03  0.48081357841E+03  0.25500000920E-02 0.  1.
    10030    2    1    2    0    0  0.00000000000E+00  0.00000000000E+00  0.11940139770E+04  0.21556411338E+04  0.17947477039E+04 0.  0.
        1    1    3    3  502    0 -0.10422708133E+03 -0.29068680341E+03 -0.41498498165E+03  0.51727617109E+03  0.50400001928E-02 0.  1.
       -1    1    3    3    0  502  0.10422708133E+03  0.29068680341E+03  0.16089989586E+04  0.16383649627E+04  0.50400001928E-02 0. -1.
</event>
<event>
 5   0  0.2393421E-04  0.1773541E+04  0.7818609E-02  0.8720498E-01
       -2   -1    0    0    0  501  0.00000000000E+00  0.00000000000E+00  0.47972557567E+03  0.47972557567E+03  0.25500000920E-02 0.  1.
        2   -1    0    0  501    0  0.00000000000E+00  0.00000000000E+00 -0.16391911620E+04  0.16391911620E+04  0.25500000920E-02 0. -1.
    10030    2    1    2    0    0  0.00000000000E+00  0.00000000000E+00 -0.11594655864E+04  0.21189167377E+04  0.17735410047E+04 0.  0.
        5    1    3    3  502    0  0.50411303302E+03  0.51971178764E+03  0.31932830123E+02  0.72475657149E+03  0.46999998093E+01 0. -1.
       -5    1    3    3    0  502 -0.50411303302E+03 -0.51971178764E+03 -0.11913984165E+04  0.13941601662E+04  0.46999998093E+01 0.  1.
</event>
<event>
 5   0  0.1308893E-04  0.1728309E+04  0.7818609E-02  0.8745381E-01
        1   -1    0    0  501    0  0.00000000000E+00  0.00000000000E+00  0.10422887333E+04  0.10422887334E+04  0.50400001928E-02 0. -1.
       -1   -1    0    0    0  501  0.00000000000E+00  0.00000000000E+00 -0.71646479961E+03  0.71646479962E+03  0.50400001928E-02 0.  1.
    10030    2    1    2    0    0  0.00000000000E+00  0.00000000000E+00  0.32582393374E+03  0.17587535330E+04  0.17283092183E+04 0.  0.
        4    1    3    3  502    0  0.82433274521E+02 -0.85390339470E+03  0.57083308348E+02  0.85977111443E+03  0.12699999809E+01 0.  1.
       -4    1    3    3    0  502 -0.82433274521E+02  0.85390339470E+03  0.26874062539E+03  0.89898241855E+03  0.12699999809E+01 0. -1.
</event>
<event>
 5   0  0.1214723E-04  0.1724099E+04  0.7818609E-02  0.8747738E-01
       -1   -1    0    0    0  501  0.00000000000E+00  0.00000000000E+00  0.28522157440E+03  0.28522157445E+03  0.50400001928E-02 0.  1.
        1   -1    0    0  501    0  0.00000000000E+00  0.00000000000E+00 -0.26054461665E+04  0.26054461665E+04  0.50400001928E-02 0. -1.
    10030    2    1    2    0    0  0.00000000000E+00  0.00000000000E+00 -0.23202245921E+04  0.28906677409E+04  0.17240991360E+04 0.  0.
        1    1    3    3  502    0  0.77127603054E+03  0.22785891246E+03 -0.63970166949E+03  0.10276208568E+04  0.50400001928E-02 0. -1.
       -1    1    3    3    0  502 -0.77127603054E+03 -0.22785891246E+03 -0.16805229226E+04  0.18630468842E+04  0.50400001928E-02 0.  1.
</event>
<event>
 5   0  0.1308893E-04  0.1811217E+04  0.7818609E-02  0.8700357E-01
       -1   -1    0    0    0  501  0.00000000000E+00  0.00000000000E+00  0.44673883916E+03  0.44673883919E+03  0.50400001928E-02 0.  1.
        1   -1    0    0  501    0  0.00000000000E+00  0.00000000000E+00 -0.18358090424E+04  0.18358090425E+04  0.50400001928E-02 0. -1.
    10030    2    1    2    0    0  0.00000000000E+00  0.00000000000E+00 -0.13890702033E+04  0.22825478816E+04  0.18112174917E+04 0.  0.
        4    1    3    3  502    0 -0.79750435405E+03 -0.11373273648E+03 -0.12159366603E+04  0.14585787277E+04  0.12699999809E+01 0. -1.
       -4    1    3    3    0  502  0.79750435405E+03  0.11373273648E+03 -0.17313354299E+03  0.82396915396E+03  0.12699999809E+01 0.  1.
</event>
<event>
 5   0  0.2417106E-04  0.1869753E+04  0.7818609E-02  0.8670060E-01
       -2   -1    0    0    0  501  0.00000000000E+00  0.00000000000E+00  0.79204535623E+03  0.79204535624E+03  0.25500000920E-02 0.  1.
        2   -1    0    0  501    0  0.00000000000E+00  0.00000000000E+00 -0.11034646345E+04  0.11034646345E+04  0.25500000920E-02 0. -1.
    10030    2    1    2    0    0  0.00000000000E+00  0.00000000000E+00 -0.31141927824E+03  0.18955099907E+04  0.18697529671E+04 0.  0.
        4    1    3    3  502    0  0.23790930112E+03  0.75750128846E+03 -0.65605016542E+03  0.10299575088E+04  0.12699999809E+01 0. -1.
       -4    1    3    3    0  502 -0.23790930112E+03 -0.75750128846E+03  0.34463088718E+03  0.86555248187E+03  0.12699999809E+01 0.  1.
</event>
<event>
 5   0  0.1214723E-04  0.1817084E+04  0.7818609E-02  0.8697267E-01
       -1   -1    0    0    0  501  0.00000000000E+00  0.00000000000E+00  0.10658709545E+04  0.10658709545E+04  0.50400001928E-02 0.  1.
        1   -1    0    0  501    0  0.00000000000E+00  0.00000000000E+00 -0.77443536690E+03  0.77443536692E+03  0.50400001928E-02 0. -1.
    10030    2    1    2    0    0  0.00000000000E+00  0.00000000000E+00  0.29143558763E+03  0.18403063215E+04  0.18170835575E+04 0.  0.
        1    1    3    3  502    0 -0.46275209084E+03  0.42523007643E+03 -0.51878340480E+03  0.81492106158E+03  0.50400001928E-02 0. -1.
       -1    1    3    3    0  502  0.46275209084E+03 -0.42523007643E+03  0.81021899243E+03  0.10253852599E+04  0.50400001928E-02 0.  1.
</event>
<event>
 5   0  0.2550616E-04  0.1797682E+04  0.7818609E-02  0.8707533E-01
        2   -1    0    0  501    0  0.00000000000E+00  0.00000000000E+00  0.17119464001E+04  0.17119464001E+04  0.25500000920E-02 0.  1.
       -2   -1    0    0    0  501  0.00000000000E+00  0.00000000000E+00 -0.47192793052E+03  0.47192793053E+03  0.25500000920E-02 0. -1.
    10030    2    1    2    0    0  0.00000000000E+00  0.00000000000E+00  0.12400184696E+04  0.21838743306E+04  0.17976821986E+04 0.  0.
        1    1    3    3  502    0 -0.22861889926E+03 -0.71684475201E+03  0.22661807013E+02  0.75275929559E+03  0.50400001928E-02 0. -1.
       -1    1    3    3    0  502  0.22861889926E+03  0.71684475201E+03  0.12173566626E+04  0.14311150350E+04  0.50400001928E-02 0.  1.
</event>
<event>
 5   0  0.9144875E-05  0.1806171E+04  0.7818609E-02  0.8703025E-01
       -3   -1    0    0    0  501  0.00000000000E+00  0.00000000000E+00  0.64072675671E+03  0.64072676467E+03  0.10100000352E+00 0. -1.
        3   -1    0    0  501    0  0.00000000000E+00  0.00000000000E+00 -0.12728726638E+04  0.12728726679E+04  0.10100000352E+00 0.  1.
    10030    2    1    2    0    0  0.00000000000E+00  0.00000000000E+00 -0.63214590713E+03  0.19135994325E+04  0.18061711824E+04 0.  0.
        4    1    3    3  502    0 -0.84144188442E+03 -0.95092366534E+02  0.16432788003E+02  0.84695847151E+03  0.12699999809E+01 0.  1.
       -4    1    3    3    0  502  0.84144188442E+03  0.95092366534E+02 -0.64857869514E+03  0.10666409610E+04  0.12699999809E+01 0. -1.
</event>
<event>
 5   0  0.1239119E-04  0.1785132E+04  0.7818609E-02  0.8714246E-01
       -1   -1    0    0    0  501  0.00000000000E+00  0.00000000000E+00  0.45906738507E+03  0.45906738510E+03  0.50400001928E-02 0. -1.
        1   -1    0    0  501    0  0.00000000000E+00  0.00000000000E+00 -0.17354182260E+04  0.17354182260E+04  0.50400001928E-02 0.  1.
    10030    2    1    2    0    0  0.00000000000E+00  0.00000000000E+00 -0.12763508409E+04  0.21944856111E+04  0.17851318238E+04 0.  0.
        5    1    3    3  502    0  0.30135418098E+03 -0.59133123544E+03  0.95472972145E+02  0.67054019329E+03  0.46999998093E+01 0. -1.
       -5    1    3    3    0  502 -0.30135418098E+03  0.59133123544E+03 -0.13718238131E+04  0.15239454178E+04  0.46999998093E+01 0.  1.
</event>
<event>
 5   0  0.2431811E-04  0.1753564E+04  0.7818609E-02  0.8731391E-01
       -2   -1    0    0    0  501  0.00000000000E+00  0.00000000000E+00  0.52243428215E+03  0.52243428215E+03  0.25500000920E-02 0. -1.
        2   -1    0    0  501    0  0.00000000000E+00  0.00000000000E+00 -0.14714707524E+04  0.14714707524E+04  0.25500000920E-02 0.  1.
    10030    2    1    2    0    0  0.00000000000E+00  0.00000000000E+00 -0.94903647030E+03  0.19939050346E+04  0.17535641035E+04 0.  0.
        3    1    3    3  502    0  0.65185434750E+03  0.77379840024E+02 -0.11354271166E+04  0.13115244859E+04  0.10100000352E+00 0.  1.
       -3    1    3    3    0  502 -0.65185434750E+03 -0.77379840024E+02  0.18639064625E+03  0.68238054867E+03  0.10100000352E+00 0. -1.
</event>
<event>
 5   0  0.1214723E-04  0.1809904E+04  0.7818609E-02  0.8701050E-01
       -1   -1    0    0    0  501  0.00000000000E+00  0.00000000000E+00  0.86419700835E+03  0.86419700836E+03  0.50400001928E-02 0.  1.
        1   -1    0    0  501    0  0.00000000000E+00  0.00000000000E+00 -0.94762919395E+03  0.94762919396E+03  0.50400001928E-02 0. -1.
    10030    2    1    2    0    0  0.00000000000E+00  0.00000000000E+00 -0.83432185600E+02  0.18118262023E+04  0.18099042123E+04 0.  0.
        1    1    3    3  502    0 -0.44797044091E+03 -0.36191813900E+03  0.65707680494E+03  0.87373461811E+03  0.50400001928E-02 0.  1.
       -1    1    3    3    0  502  0.44797044091E+03  0.36191813900E+03 -0.74050899054E+03  0.93809158421E+03  0.50400001928E-02 0. -1.
</event>
<event>
 5   0  0.1239119E-04  0.1830492E+04  0.7818609E-02  0.8690250E-01
        1   -1    0    0  501    0  0.00000000000E+00  0.00000000000E+00  0.11017331693E+04  0.11017331693E+04  0.50400001928E-02 0.  1.
       -1   -1    0    0    0  501  0.00000000000E+00  0.00000000000E+00 -0.76032508912E+03  0.76032508914E+03  0.50400001928E-02 0. -1.
    10030    2    1    2    0    0  0.00000000000E+00  0.00000000000E+00  0.34140808021E+03  0.18620582585E+04  0.18304921417E+04 0.  0.
        5    1    3    3  502    0 -0.88794902454E+03 -0.22156158329E+03  0.18138630979E+03  0.93298772165E+03  0.46999998093E+01 0. -1.
       -5    1    3    3    0  502  0.88794902454E+03  0.22156158329E+03  0.16002177042E+03  0.92907053682E+03  0.46999998093E+01 0.  1.
</event>
<event>
 5   0  0.9144875E-05  0.1775846E+04  0.7818609E-02  0.8719251E-01
       -3   -1    0    0    0  501  0.00000000000E+00  0.00000000000E+00  0.11679889500E+04  0.11679889543E+04  0.10100000352E+00 0.  1.
        3   -1    0    0  501    0  0.00000000000E+00  0.00000000000E+00 -0.67501264850E+03  0.67501265606E+03  0.10100000352E+00 0. -1.
    10030    2    1    2    0    0  0.00000000000E+00  0.00000000000E+00  0.49297630146E+03  0.18430016104E+04  0.17758460806E+04 0.  0.
        5    1    3    3  502    0 -0.75352791717E+02 -0.49316751227E+03  0.10087659991E+04  0.11253991156E+04  0.46999998093E+01 0.  1.
       -5    1    3    3    0  502  0.75352791717E+02  0.49316751227E+03 -0.51578969764E+03  0.71760249482E+03  0.46999998093E+01 0. -1.
</event>
<event>
 5   0  0.2393421E-04  0.1788044E+04  0.7818609E-02  0.8712684E-01
       -2   -1    0    0    0  501  0.00000000000E+00  0.00000000000E+00  0.42031294166E+03  0.42031294167E+03  0.25500000920E-02 0. -1.
        2   -1    0    0  501    0  0.00000000000E+00  0.00000000000E+00 -0.19016194683E+04  0.19016194683E+04  0.25500000920E-02 0.  1.
    10030    2    1    2    0    0  0.00000000000E+00  0.00000000000E+00 -0.14813065267E+04  0.23219324100E+04  0.17880439286E+04 0.  0.
        5    1    3    3  502    0 -0.47369885895E+03 -0.46844830020E+03  0.33526054846E+02  0.66706859114E+03  0.46999998093E+01 0.  1.
       -5    1    3    3    0  502  0.47369885895E+03  0.46844830020E+03 -0.15148325815E+04  0.16548638189E+04  0.46999998093E+01 0. -1.
</event>
<event>
 5   0  0.1214723E-04  0.1799454E+04  0.7818609E-02  0.8706590E-01
       -1   -1    0    0    0  501  0.00000000000E+00  0.00000000000E+00  0.84910932249E+03  0.84910932251E+03  0.50400001928E-02 0. -1.
        1   -1    0    0  501    0  0.00000000000E+00  0.00000000000E+00 -0.95336201007E+03  0.95336201008E+03  0.50400001928E-02 0.  1.
    10030    2    1    2    0    0  0.00000000000E+00  0.00000000000E+00 -0.10425268758E+03  0.18024713326E+04  0.17994538844E+04 0.  0.
        1    1    3    3  502    0 -0.82721393240E+02  0.53667188547E+03  0.66646705580E+03  0.85967312279E+03  0.50400001928E-02 0. -1.
       -1    1    3    3    0  502  0.82721393240E+02 -0.53667188547E+03 -0.77071974337E+03  0.94279820980E+03  0.50400001928E-02 0.  1.
</event>
<event>
 5   0  0.1239119E-04  0.1809507E+04  0.7818609E-02  0.8701260E-01
        1   -1    0    0  501    0  0.00000000000E+00  0.00000000000E+00  0.84503850286E+03  0.84503850288E+03  0.50400001928E-02 0.  1.
       -1   -1    0    0    0  501  0.00000000000E+00  0.00000000000E+00 -0.96868824275E+03  0.96868824276E+03  0.50400001928E-02 0. -1.
    10030    2    1    2    0    0  0.00000000000E+00  0.00000000000E+00 -0.12364973989E+03  0.18137267456E+04  0.18095069631E+04 0.  0.
        5    1    3    3  502    0  0.37932893684E+03  0.20988834160E+03  0.73413859163E+03  0.85259903823E+03  0.46999998093E+01 0.  1.
       -5    1    3    3    0  502 -0.37932893684E+03 -0.20988834160E+03 -0.85778833152E+03  0.96112770741E+03  0.46999998093E+01 0. -1.
</event>
<event>
 5   0  0.1330225E-04  0.1790460E+04  0.7818609E-02  0.8711389E-01
       -1   -1    0    0    0  501  0.00000000000E+00  0.00000000000E+00  0.65430552472E+03  0.65430552474E+03  0.50400001928E-02 0. -1.
        1   -1    0    0  501    0  0.00000000000E+00  0.00000000000E+00 -0.12248658640E+04  0.12248658640E+04  0.50400001928E-02 0.  1.
    10030    2    1    2    0    0  0.00000000000E+00  0.00000000000E+00 -0.57056033925E+03  0.18791713887E+04  0.17904597196E+04 0.  0.
        3    1    3    3  502    0  0.74714298774E+03 -0.79958792637E+01 -0.80281418102E+03  0.10967211121E+04  0.10100000352E+00 0.  1.
       -3    1    3    3    0  502 -0.74714298774E+03  0.79958792637E+01  0.23225384177E+03  0.78245027665E+03  0.10100000352E+00 0. -1.
</event>
<event>
 5   0  0.2417106E-04  0.1807796E+04  0.7818609E-02  0.8702164E-01
       -2   -1    0    0    0  501  0.00000000000E+00  0.00000000000E+00  0.78692533128E+03  0.78692533129E+03  0.25500000920E-02 0.  1.
        2   -1    0    0  501    0  0.00000000000E+00  0.00000000000E+00 -0.10382585925E+04  0.10382585925E+04  0.25500000920E-02 0. -1.
    10030    2    1    2    0    0  0.00000000000E+00  0.00000000000E+00 -0.25133326120E+03  0.18251839238E+04  0.18077964342E+04 0.  0.
        4    1    3    3  502    0  0.50870509193E+03  0.95567072249E+01  0.62861885966E+03  0.80872460382E+03  0.12699999809E+01 0.  1.
       -4    1    3    3    0  502 -0.50870509193E+03 -0.95567072249E+01 -0.87995212085E+03  0.10164593199E+04  0.12699999809E+01 0. -1.
</event>
<event>
 5   0  0.1253925E-04  0.1855960E+04  0.7818609E-02  0.8677094E-01
        1   -1    0    0  501    0  0.00000000000E+00  0.00000000000E+00  0.14732966973E+04  0.14732966973E+04  0.50400001928E-02 0. -1.
       -1   -1    0    0    0  501  0.00000000000E+00  0.00000000000E+00 -0.58450328700E+03  0.58450328703E+03  0.50400001928E-02 0.  1.
    10030    2    1    2    0    0  0.00000000000E+00  0.00000000000E+00  0.88879341028E+03  0.20577999843E+04  0.18559598728E+04 0.  0.
        2    1    3    3  502    0 -0.74693155898E+03  0.32701946456E+03  0.93563568706E+03  0.12410731739E+04  0.25500000920E-02 0. -1.
       -2    1    3    3    0  502  0.74693155898E+03 -0.32701946456E+03 -0.46842276776E+02  0.81672681045E+03  0.25500000920E-02 0.  1.
</event>
<event>
 5   0  0.9144875E-05  0.1785040E+04  0.7818609E-02  0.8714296E-01
       -3   -1    0    0    0  501  0.00000000000E+00  0.00000000000E+00  0.89584200765E+03  0.89584201334E+03  0.10100000352E+00 0. -1.
        3   -1    0    0  501    0  0.00000000000E+00  0.00000000000E+00 -0.88921062453E+03  0.88921063027E+03  0.10100000352E+00 0.  1.
    10030    2    1    2    0    0  0.00000000000E+00  0.00000000000E+00  0.66313831142E+01  0.17850526436E+04  0.17850403259E+04 0.  0.
        2    1    3    3  502    0  0.54457863367E+03  0.58870959686E+02 -0.70135970620E+03  0.88990848723E+03  0.25500000920E-02 0.  1.
       -2    1    3    3    0  502 -0.54457863367E+03 -0.58870959686E+02  0.70799108932E+03  0.89514415638E+03  0.25500000920E-02 0. -1.
</event>
<event>
 5   0  0.2550616E-04  0.1787467E+04  0.7818609E-02  0.8712993E-01
        2   -1    0    0  501    0  0.00000000000E+00  0.00000000000E+00  0.51777501271E+03  0.51777501272E+03  0.25500000920E-02 0.  1.
       -2   -1    0    0    0  501  0.00000000000E+00  0.00000000000E+00 -0.15426770200E+04  0.15426770200E+04  0.25500000920E-02 0. -1.
    10030    2    1    2    0    0  0.00000000000E+00  0.00000000000E+00 -0.10249020073E+04  0.20604520327E+04  0.17874670499E+04 0.  0.
        1    1    3    3  502    0  0.53621417763E+03 -0.31042203280E+03 -0.12549255930E+04  0.13995448284E+04  0.50400001928E-02 0. -1.
       -1    1    3    3    0  502 -0.53621417763E+03  0.31042203280E+03  0.23002358568E+03  0.66090720433E+03  0.50400001928E-02 0.  1.
</event>
<event>
 5   0  0.2417106E-04  0.1481816E+04  0.7818609E-02  0.8896636E-01
        2   -1    0    0  501    0  0.00000000000E+00  0.00000000000E+00  0.93985812037E+03  0.93985812038E+03  0.25500000920E-02 0. -1.
       -2   -1    0    0    0  501  0.00000000000E+00  0.00000000000E+00 -0.58407220206E+03  0.58407220207E+03  0.25500000920E-02 0.  1.
    10030    2    1    2    0    0  0.00000000000E+00  0.00000000000E+00  0.35578591831E+03  0.15239303224E+04  0.14818164556E+04 0.  0.
        4    1    3    3  502    0  0.26182482952E+03  0.19055831598E+03 -0.50743848265E+03  0.60196357009E+03  0.12699999809E+01 0.  1.
       -4    1    3    3    0  502 -0.26182482952E+03 -0.19055831598E+03  0.86322440096E+03  0.92196675236E+03  0.12699999809E+01 0. -1.
</event>
<event>
 5   0  0.2417106E-04  0.1789359E+04  0.7818609E-02  0.8711979E-01
       -2   -1    0    0    0  501  0.00000000000E+00  0.00000000000E+00  0.10784760214E+04  0.10784760214E+04  0.25500000920E-02 0. -1.
        2   -1    0    0  501    0  0.00000000000E+00  0.00000000000E+00 -0.74220595507E+03  0.74220595508E+03  0.25500000920E-02 0.  1.
    10030    2    1    2    0    0  0.00000000000E+00  0.00000000000E+00  0.33627006633E+03  0.18206819765E+04  0.17893589081E+04 0.  0.
        4    1    3    3  502    0 -0.63125531048E+03 -0.62440075484E+03  0.28001500566E+03  0.93100461114E+03  0.12699999809E+01 0.  1.
       -4    1    3    3    0  502  0.63125531048E+03  0.62440075484E+03  0.56255060679E+02  0.88967736535E+03  0.12699999809E+01 0. -1.
</event>
<event>
 5   0  0.2417106E-04  0.1810449E+04  0.7818609E-02  0.8700762E-01
       -2   -1    0    0    0  501  0.00000000000E+00  0.00000000000E+00  0.48692123428E+03  0.48692123429E+03  0.25500000920E-02 0.  1.
        2   -1    0    0  501    0  0.00000000000E+00  0.00000000000E+00 -0.16828833089E+04  0.16828833089E+04  0.25500000920E-02 0. -1.
    10030    2    1    2    0    0  0.00000000000E+00  0.00000000000E+00 -0.11959620746E+04  0.21698045432E+04  0.18104492458E+04 0.  0.
        4    1    3    3  502    0  0.40911562209E+03  0.48298298568E+03 -0.13735638648E+04  0.15123913052E+04  0.12699999809E+01 0. -1.
       -4    1    3    3    0  502 -0.40911562209E+03 -0.48298298568E+03  0.17760179013E+03  0.65741323796E+03  0.12699999809E+01 0.  1.
</event>
<event>
 5   0  0.2431811E-04  0.1798390E+04  0.7818609E-02  0.8707156E-01
        2   -1    0    0  501    0  0.00000000000E+00  0.00000000000E+00  0.14143392658E+04  0.14143392658E+04  0.25500000920E-02 0. -1.
       -2   -1    0    0    0  501  0.00000000000E+00  0.00000000000E+00 -0.57168155643E+03  0.57168155644E+03  0.25500000920E-02 0.  1.
    10030    2    1    2    0    0  0.00000000000E+00  0.00000000000E+00  0.84265770934E+03  0.19860208222E+04  0.17983900275E+04 0.  0.
        3    1    3    3  502    0  0.61834217132E+03  0.30505251374E+03 -0.21608022706E+03  0.72256124425E+03  0.10100000352E+00 0. -1.
       -3    1    3    3    0  502 -0.61834217132E+03 -0.30505251374E+03  0.10587379364E+04  0.12634595780E+04  0.10100000352E+00 0.  1.
</event>
<event>
 5   0  0.1330225E-04  0.1817404E+04  0.7818609E-02  0.8697099E-01
        1   -1    0    0  501    0  0.00000000000E+00  0.00000000000E+00  0.14302801120E+04  0.14302801120E+04  0.50400001928E-02 0.  1.
       -1   -1    0    0    0  501  0.00000000000E+00  0.00000000000E+00 -0.57732692211E+03  0.57732692213E+03  0.50400001928E-02 0. -1.
    10030    2    1    2    0    0  0.00000000000E+00  0.00000000000E+00  0.85295318991E+03  0.20076070342E+04  0.18174038790E+04 0.  0.
        3    1    3    3  502    0  0.25658433885E+03 -0.84581311499E+03  0.65951423842E+03  0.11028120372E+04  0.10100000352E+00 0.  1.
       -3    1    3    3    0  502 -0.25658433885E+03  0.84581311499E+03  0.19343895150E+03  0.90479499700E+03  0.10100000352E+00 0. -1.
</event>
<event>
 5   0  0.1308893E-04  0.1823383E+04  0.7818609E-02  0.8693962E-01
       -1   -1    0    0    0  501  0.00000000000E+00  0.00000000000E+00  0.73192520169E+03  0.73192520171E+03  0.50400001928E-02 0. -1.
        1   -1    0    0  501    0  0.00000000000E+00  0.00000000000E+00 -0.11356099621E+04  0.11356099621E+04  0.50400001928E-02 0.  1.
    10030    2    1    2    0    0  0.00000000000E+00  0.00000000000E+00 -0.40368476043E+03  0.18675351638E+04  0.18233831749E+04 0.  0.
        4    1    3    3  502    0 -0.85451324323E+03 -0.13296485043E+03  0.93776824227E+02  0.86986679438E+03  0.12699999809E+01 0. -1.
       -4    1    3    3    0  502  0.85451324323E+03  0.13296485043E+03 -0.49746158465E+03  0.99766836945E+03  0.12699999809E+01 0.  1.
</event>
<event>
 5   0  0.2431811E-04  0.1796063E+04  0.7818609E-02  0.8708396E-01
        2   -1    0    0  501    0  0.00000000000E+00  0.00000000000E+00  0.16153023312E+04  0.16153023312E+04  0.25500000920E-02 0. -1.
       -2   -1    0    0    0  501  0.00000000000E+00  0.00000000000E+00 -0.49926308150E+03  0.49926308151E+03  0.25500000920E-02 0.  1.
    10030    2    1    2    0    0  0.00000000000E+00  0.00000000000E+00  0.11160392497E+04  0.21145654127E+04  0.17960632722E+04 0.  0.
        3    1    3    3  502    0 -0.20885975576E+03  0.21654059503E+03  0.15542055674E+04  0.15830562791E+04  0.10100000352E+00 0. -1.
       -3    1    3    3    0  502  0.20885975576E+03 -0.21654059503E+03 -0.43816631773E+03  0.53150913357E+03  0.10100000352E+00 0.  1.
</event>
<event>
 5   0  0.2569405E-04  0.1949768E+04  0.7818609E-02  0.8630473E-01
        2   -1    0    0  501    0  0.00000000000E+00  0.00000000000E+00  0.13871629525E+04  0.13871629525E+04  0.25500000920E-02 0.  1.
       -2   -1    0    0    0  501  0.00000000000E+00  0.00000000000E+00 -0.68513858424E+03  0.68513858424E+03  0.25500000920E-02 0. -1.
    10030    2    1    2    0    0  0.00000000000E+00  0.00000000000E+00  0.70202436825E+03  0.20723015367E+04  0.19497680492E+04 0.  0.
        2    1    3    3  502    0 -0.39180683222E+03  0.46558704002E+03  0.11605311688E+04  0.13103879118E+04  0.25500000920E-02 0.  1.
       -2    1    3    3    0  502  0.39180683222E+03 -0.46558704002E+03 -0.45850680059E+03  0.76191362490E+03  0.25500000920E-02 0. -1.
</event>
<event>
 5   0  0.1214723E-04  0.1788528E+04  0.7818609E-02  0.8712424E-01
       -1   -1    0    0    0  501  0.00000000000E+00  0.00000000000E+00  0.58814525460E+03  0.58814525462E+03  0.50400001928E-02 0.  1.
        1   -1    0    0  501    0  0.00000000000E+00  0.00000000000E+00 -0.13597112607E+04  0.13597112607E+04  0.50400001928E-02 0. -1.
    10030    2    1    2    0    0  0.00000000000E+00  0.00000000000E+00 -0.77156600607E+03  0.19478565153E+04  0.17885275795E+04 0.  0.
        1    1    3    3  502    0  0.24429272654E+03  0.29423371532E+03 -0.12661611760E+04  0.13226551097E+04  0.50400001928E-02 0. -1.
       -1    1    3    3    0  502 -0.24429272654E+03 -0.29423371532E+03  0.49459516993E+03  0.62520140564E+03  0.50400001928E-02 0.  1.
</event>
<event>
 5   0  0.2550616E-04  0.1725868E+04  0.7818609E-02  0.8746747E-01
       -2   -1    0    0    0  501  0.00000000000E+00  0.00000000000E+00  0.50610318297E+03  0.50610318298E+03  0.25500000920E-02 0.  1.
        2   -1    0    0  501    0  0.00000000000E+00  0.00000000000E+00 -0.14713501973E+04  0.14713501973E+04  0.25500000920E-02 0. -1.
    10030    2    1    2    0    0  0.00000000000E+00  0.00000000000E+00 -0.96524701435E+03  0.19774533803E+04  0.17258679186E+04 0.  0.
        1    1    3    3  502    0  0.74862493443E+03  0.42026992634E+03 -0.38281017998E+03  0.94000517943E+03  0.50400001928E-02 0.  1.
       -1    1    3    3    0  502 -0.74862493443E+03 -0.42026992634E+03 -0.58243683436E+03  0.10374482009E+04  0.50400001928E-02 0. -1.
</event>
<event>
 5   0  0.1253925E-04  0.1780574E+04  0.7818609E-02  0.8716699E-01
       -1   -1    0    0    0  501  0.00000000000E+00  0.00000000000E+00  0.43506128964E+03  0.43506128967E+03  0.50400001928E-02 0. -1.
        1   -1    0    0  501    0  0.00000000000E+00  0.00000000000E+00 -0.18218365700E+04  0.18218365700E+04  0.50400001928E-02 0.  1.
    10030    2    1    2    0    0  0.00000000000E+00  0.00000000000E+00 -0.13867752803E+04  0.22568978596E+04  0.17805735791E+04 0.  0.
        2    1    3    3  502    0 -0.49631864655E+03 -0.11781179748E+03 -0.16182359198E+04  0.16967319501E+04  0.25500000920E-02 0.  1.
       -2    1    3    3    0  502  0.49631864655E+03  0.11781179748E+03  0.23146063947E+03  0.56016590950E+03  0.25500000920E-02 0. -1.
</event>
<event>
 5   0  0.2393421E-04  0.1803093E+04  0.7818609E-02  0.8704656E-01
       -2   -1    0    0    0  501  0.00000000000E+00  0.00000000000E+00  0.72837651557E+03  0.72837651558E+03  0.25500000920E-02 0. -1.
        2   -1    0    0  501    0  0.00000000000E+00  0.00000000000E+00 -0.11158873130E+04  0.11158873130E+04  0.25500000920E-02 0.  1.
    10030    2    1    2    0    0  0.00000000000E+00  0.00000000000E+00 -0.38751079742E+03  0.18442638286E+04  0.18030930235E+04 0.  0.
        5    1    3    3  502    0 -0.32402362869E+03 -0.23949327041E+03 -0.10186537171E+04  0.10954569018E+04  0.46999998093E+01 0.  1.
       -5    1    3    3    0  502  0.32402362869E+03  0.23949327041E+03  0.63114291964E+03  0.74880692673E+03  0.46999998093E+01 0. -1.
</event>
<event>
 5   0  0.1253925E-04  0.1790906E+04  0.7818609E-02  0.8711151E-01
        1   -1    0    0  501    0  0.00000000000E+00  0.00000000000E+00  0.98079819892E+03  0.98079819893E+03  0.50400001928E-02 0. -1.
       -1   -1    0    0    0  501  0.00000000000E+00  0.00000000000E+00 -0.81753376581E+03  0.81753376583E+03  0.50400001928E-02 0.  1.
    10030    2    1    2    0    0  0.00000000000E+00  0.00000000000E+00  0.16326443311E+03  0.17983319648E+04  0.17909055197E+04 0.  0.
        2    1    3    3  502    0 -0.55644236965E+03  0.42231365024E+03  0.64418630469E+03  0.95023835171E+03  0.25500000920E-02 0. -1.
       -2    1    3    3    0  502  0.55644236965E+03 -0.42231365024E+03 -0.48092187158E+03  0.84809361304E+03  0.25500000920E-02 0.  1.
</event>
<event>
 5   0  0.1330225E-04  0.1802961E+04  0.7818609E-02  0.8704727E-01
       -1   -1    0    0    0  501  0.00000000000E+00  0.00000000000E+00  0.54506297326E+03  0.54506297329E+03  0.50400001928E-02 0. -1.
        1   -1    0    0  501    0  0.00000000000E+00  0.00000000000E+00 -0.14909597036E+04  0.14909597036E+04  0.50400001928E-02 0.  1.
    10030    2    1    2    0    0  0.00000000000E+00  0.00000000000E+00 -0.94589673030E+03  0.20360226769E+04  0.18029608194E+04 0.  0.
        3    1    3    3  502    0 -0.20340504406E+03  0.49948911633E+03  0.34278832122E+03  0.63903586179E+03  0.10100000352E+00 0. -1.
       -3    1    3    3    0  502  0.20340504406E+03 -0.49948911633E+03 -0.12886850515E+04  0.13969868151E+04  0.10100000352E+00 0.  1.
</event>
<event>
 5   0  0.1239119E-04  0.1790466E+04  0.7818609E-02  0.8711386E-01
        1   -1    0    0  501    0  0.00000000000E+00  0.00000000000E+00  0.12573916296E+04  0.12573916296E+04  0.50400001928E-02 0. -1.
       -1   -1    0    0    0  501  0.00000000000E+00  0.00000000000E+00 -0.63738441808E+03  0.63738441810E+03  0.50400001928E-02 0.  1.
    10030    2    1    2    0    0  0.00000000000E+00  0.00000000000E+00  0.62000721153E+03  0.18947760477E+04  0.17904656737E+04 0.  0.
        5    1    3    3  502    0 -0.10204279994E+03 -0.47355784301E+03  0.11066904450E+04  0.12080792999E+04  0.46999998093E+01 0. -1.
       -5    1    3    3    0  502  0.10204279994E+03  0.47355784301E+03 -0.48668323351E+03  0.68669674782E+03  0.46999998093E+01 0.  1.
</event>
<event>
 5   0  0.2550616E-04  0.1811602E+04  0.7818609E-02  0.8700154E-01
       -2   -1    0    0    0  501  0.00000000000E+00  0.00000000000E+00  0.10692906106E+04  0.10692906106E+04  0.25500000920E-02 0. -1.
        2   -1    0    0  501    0  0.00000000000E+00  0.00000000000E+00 -0.76730824114E+03  0.76730824115E+03  0.25500000920E-02 0.  1.
    10030    2    1    2    0    0  0.00000000000E+00  0.00000000000E+00  0.30198236949E+03  0.18365988518E+04  0.18116020509E+04 0.  0.
        1    1    3    3  502    0 -0.14388995946E+03 -0.17270027862E+02 -0.75547870898E+03  0.76925330942E+03  0.50400001928E-02 0.  1.
       -1    1    3    3    0  502  0.14388995946E+03  0.17270027862E+02  0.10574610785E+04  0.10673455424E+04  0.50400001928E-02 0. -1.
</event>
<event>
 5   0  0.1330225E-04  0.1778682E+04  0.7818609E-02  0.8717719E-01
        1   -1    0    0  501    0  0.00000000000E+00  0.00000000000E+00  0.65885491284E+03  0.65885491286E+03  0.50400001928E-02 0.  1.
       -1   -1    0    0    0  501  0.00000000000E+00  0.00000000000E+00 -0.12004580924E+04  0.12004580924E+04  0.50400001928E-02 0. -1.
    10030    2    1    2    0    0  0.00000000000E+00  0.00000000000E+00 -0.54160317959E+03  0.18593130053E+04  0.17786823346E+04 0.  0.
        3    1    3    3  502    0 -0.85834377104E+03 -0.12909452944E+02 -0.27872671637E+02  0.85889322927E+03  0.10100000352E+00 0.  1.
       -3    1    3    3    0  502  0.85834377104E+03  0.12909452944E+02 -0.51373050796E+03  0.10004197760E+04  0.10100000352E+00 0. -1.
</event>
<event>
 5   0  0.2569405E-04  0.1865232E+04  0.7818609E-02  0.8672359E-01
       -2   -1    0    0    0  501  0.00000000000E+00  0.00000000000E+00  0.82639718628E+03  0.82639718628E+03  0.25500000920E-02 0. -1.
        2   -1    0    0  501    0  0.00000000000E+00  0.00000000000E+00 -0.10524879090E+04  0.10524879090E+04  0.25500000920E-02 0.  1.
    10030    2    1    2    0    0  0.00000000000E+00  0.00000000000E+00 -0.22609072271E+03  0.18788850953E+04  0.18652324751E+04 0.  0.
        2    1    3    3  502    0  0.87667438498E+03  0.80798197113E+02  0.19691901984E+03  0.90214379470E+03  0.25500000920E-02 0. -1.
       -2    1    3    3    0  502 -0.87667438498E+03 -0.80798197113E+02 -0.42300974255E+03  0.97674130057E+03  0.25500000920E-02 0.  1.
</event>
<event>
 5   0  0.1308893E-04  0.1794380E+04  0.7818609E-02  0.8709294E-01
        1   -1    0    0  501    0  0.00000000000E+00  0.00000000000E+00  0.12315677974E+04  0.12315677974E+04  0.50400001928E-02 0.  1.
       -1   -1    0    0    0  501  0.00000000000E+00  0.00000000000E+00 -0.65359800862E+03  0.65359800864E+03  0.50400001928E-02 0. -1.
    10030    2    1    2    0    0  0.00000000000E+00  0.00000000000E+00  0.57796978878E+03  0.18851658060E+04  0.17943804055E+04 0.  0.
        4    1    3    3  502    0  0.66641010734E+02  0.62101297105E+03 -0.38769122658E+03  0.73512191818E+03  0.12699999809E+01 0. -1.
       -4    1    3    3    0  502 -0.66641010734E+02 -0.62101297105E+03  0.96566101536E+03  0.11500438879E+04  0.12699999809E+01 0.  1.
</event>
<event>
 5   0  0.1239119E-04  0.1794511E+04  0.7818609E-02  0.8709224E-01
       -1   -1    0    0    0  501  0.00000000000E+00  0.00000000000E+00  0.12860426044E+04  0.12860426044E+04  0.50400001928E-02 0.  1.
        1   -1    0    0  501    0  0.00000000000E+00  0.00000000000E+00 -0.62600353507E+03  0.62600353509E+03  0.50400001928E-02 0. -1.
    10030    2    1    2    0    0  0.00000000000E+00  0.00000000000E+00  0.66003906930E+03  0.19120461395E+04  0.17945107596E+04 0.  0.
        5    1    3    3  502    0  0.83074082329E+03  0.33256679517E+03  0.26003544582E+03  0.93186453512E+03  0.46999998093E+01 0. -1.
       -5    1    3    3    0  502 -0.83074082329E+03 -0.33256679517E+03  0.40000362348E+03  0.98018160436E+03  0.46999998093E+01 0.  1.
</event>
<event>
 5   0  0.2393421E-04  0.1796367E+04  0.7818609E-02  0.8708234E-01
        2   -1    0    0  501    0  0.00000000000E+00  0.00000000000E+00  0.16184664636E+04  0.16184664636E+04  0.25500000920E-02 0.  1.
       -2   -1    0    0    0  501  0.00000000000E+00  0.00000000000E+00 -0.49845550390E+03  0.49845550391E+03  0.25500000920E-02 0. -1.
    10030    2    1    2    0    0  0.00000000000E+00  0.00000000000E+00  0.11200109597E+04  0.21169219675E+04  0.17963669076E+04 0.  0.
        5    1    3    3  502    0 -0.14516586474E+03 -0.33195947523E+03  0.15285142981E+04  0.15708750017E+04  0.46999998093E+01 0.  1.
       -5    1    3    3    0  502  0.14516586474E+03  0.33195947523E+03 -0.40850333836E+03  0.54604696586E+03  0.46999998093E+01 0. -1.
</event>
<event>
 5   0  0.1239119E-04  0.1813884E+04  0.7818609E-02  0.8698951E-01
        1   -1    0    0  501    0  0.00000000000E+00  0.00000000000E+00  0.18150750981E+04  0.18150750981E+04  0.50400001928E-02 0. -1.
       -1   -1    0    0    0  501  0.00000000000E+00  0.00000000000E+00 -0.45317335870E+03  0.45317335873E+03  0.50400001928E-02 0.  1.
    10030    2    1    2    0    0  0.00000000000E+00  0.00000000000E+00  0.13619017394E+04  0.22682484569E+04  0.18138838756E+04 0.  0.
        5    1    3    3  502    0  0.23941318624E+03  0.81986347203E+03  0.29954691692E+03  0.90512166694E+03  0.46999998093E+01 0.  1.
       -5    1    3    3    0  502 -0.23941318624E+03 -0.81986347203E+03  0.10623548225E+04  0.13631267899E+04  0.46999998093E+01 0. -1.
</event>
<event>
 5   0  0.1253925E-04  0.1795966E+04  0.7818609E-02  0.8708448E-01
        1   -1    0    0  501    0  0.00000000000E+00  0.00000000000E+00  0.15953432844E+04  0.15953432844E+04  0.50400001928E-02 0. -1.
       -1   -1    0    0    0  501  0.00000000000E+00  0.00000000000E+00 -0.50545454407E+03  0.50545454409E+03  0.50400001928E-02 0.  1.
    10030    2    1    2    0    0  0.00000000000E+00  0.00000000000E+00  0.10898887403E+04  0.21007978285E+04  0.17959660492E+04 0.  0.
        2    1    3    3  502    0 -0.38965053406E+02  0.85074381245E+02  0.15896248934E+04  0.15923765972E+04  0.25500000920E-02 0. -1.
       -2    1    3    3    0  502  0.38965053406E+02 -0.85074381245E+02 -0.49973615305E+03  0.50842123127E+03  0.25500000920E-02 0.  1.
</event>
<event>
 5   0  0.2550616E-04  0.1803812E+04  0.7818609E-02  0.8704275E-01
       -2   -1    0    0    0  501  0.00000000000E+00  0.00000000000E+00  0.48169917539E+03  0.48169917540E+03  0.25500000920E-02 0.  1.
        2   -1    0    0  501    0  0.00000000000E+00  0.00000000000E+00 -0.16886778533E+04  0.16886778533E+04  0.25500000920E-02 0. -1.
    10030    2    1    2    0    0  0.00000000000E+00  0.00000000000E+00 -0.12069786779E+04  0.21703770287E+04  0.18038123289E+04 0.  0.
        1    1    3    3  502    0 -0.14539200825E+03 -0.39158470385E+03 -0.15652782284E+04  0.16200535018E+04  0.50400001928E-02 0. -1.
       -1    1    3    3    0  502  0.14539200825E+03  0.39158470385E+03  0.35829955049E+03  0.55032352690E+03  0.50400001928E-02 0.  1.
</event>
<event>
 5   0  0.1308893E-04  0.1802890E+04  0.7818609E-02  0.8704764E-01
       -1   -1    0    0    0  501  0.00000000000E+00  0.00000000000E+00  0.69098929453E+03  0.69098929455E+03  0.50400001928E-02 0. -1.
        1   -1    0    0  501    0  0.00000000000E+00  0.00000000000E+00 -0.11759991086E+04  0.11759991086E+04  0.50400001928E-02 0.  1.
    10030    2    1    2    0    0  0.00000000000E+00  0.00000000000E+00 -0.48500981411E+03  0.18669884032E+04  0.18028896743E+04 0.  0.
        4    1    3    3  502    0 -0.43524828913E+03  0.23852508692E+03  0.53675560655E+03  0.73105641666E+03  0.12699999809E+01 0. -1.
       -4    1    3    3    0  502  0.43524828913E+03 -0.23852508692E+03 -0.10217654207E+04  0.11359319865E+04  0.12699999809E+01 0.  1.
</event>
<event>
 5   0  0.2550616E-04  0.1800400E+04  0.7818609E-02  0.8706087E-01
       -2   -1    0    0    0  501  0.00000000000E+00  0.00000000000E+00  0.97142319598E+03  0.97142319599E+03  0.25500000920E-02 0. -1.
        2   -1    0    0  501    0  0.00000000000E+00  0.00000000000E+00 -0.83419846859E+03  0.83419846859E+03  0.25500000920E-02 0.  1.
    10030    2    1    2    0    0  0.00000000000E+00  0.00000000000E+00  0.13722472740E+03  0.18056216646E+04  0.18003996695E+04 0.  0.
        1    1    3    3  502    0  0.36371432370E+03  0.37818219342E+03 -0.66498026787E+03  0.84705881576E+03  0.50400001928E-02 0.  1.
       -1    1    3    3    0  502 -0.36371432370E+03 -0.37818219342E+03  0.80220499526E+03  0.95856284882E+03  0.50400001928E-02 0. -1.
</event>
<event>
 5   0  0.2550616E-04  0.1824152E+04  0.7818609E-02  0.8693560E-01
        2   -1    0    0  501    0  0.00000000000E+00  0.00000000000E+00  0.11740763623E+04  0.11740763624E+04  0.25500000920E-02 0.  1.
       -2   -1    0    0    0  501  0.00000000000E+00  0.00000000000E+00 -0.70854202037E+03  0.70854202037E+03  0.25500000920E-02 0. -1.
    10030    2    1    2    0    0  0.00000000000E+00  0.00000000000E+00  0.46553434198E+03  0.18826183827E+04  0.18241517896E+04 0.  0.
        1    1    3    3  502    0 -0.64334810035E+02  0.65415916177E+03 -0.41981195442E+03  0.77993926290E+03  0.50400001928E-02 0. -1.
       -1    1    3    3    0  502  0.64334810035E+02 -0.65415916177E+03  0.88534629640E+03  0.11026791198E+04  0.50400001928E-02 0.  1.
</event>
<event>
 5   0  0.1308893E-04  0.1769264E+04  0.7818609E-02  0.8722817E-01
        1   -1    0    0  501    0  0.00000000000E+00  0.00000000000E+00  0.13337984189E+04  0.13337984190E+04  0.50400001928E-02 0. -1.
       -1   -1    0    0    0  501  0.00000000000E+00  0.00000000000E+00 -0.58672585153E+03  0.58672585155E+03  0.50400001928E-02 0.  1.
    10030    2    1    2    0    0  0.00000000000E+00  0.00000000000E+00  0.74707256742E+03  0.19205242705E+04  0.17692642687E+04 0.  0.
        4    1    3    3  502    0 -0.64346830972E+03  0.41086874147E+03  0.85862885045E+03  0.11489602709E+04  0.12699999809E+01 0. -1.
       -4    1    3    3    0  502  0.64346830972E+03 -0.41086874147E+03 -0.11155628303E+03  0.77156399962E+03  0.12699999809E+01 0.  1.
</event>
<event>
 5   0  0.1330225E-04  0.1806456E+04  0.7818609E-02  0.8702874E-01
        1   -1    0    0  501    0  0.00000000000E+00  0.00000000000E+00  0.78440773088E+03  0.78440773090E+03  0.50400001928E-02 0. -1.
       -1   -1    0    0    0  501  0.00000000000E+00  0.00000000000E+00 -0.10400469390E+04  0.10400469390E+04  0.50400001928E-02 0.  1.
    10030    2    1    2    0    0  0.00000000000E+00  0.00000000000E+00 -0.25563920813E+03  0.18244546699E+04  0.18064560437E+04 0.  0.
        3    1    3    3  502    0  0.34553630457E+03 -0.14282199109E+03 -0.95822053095E+03  0.10285815743E+04  0.10100000352E+00 0.  1.
       -3    1    3    3    0  502 -0.34553630457E+03  0.14282199109E+03  0.70258132282E+03  0.79587309560E+03  0.10100000352E+00 0. -1.
</event>
<event>
 5   0  0.2417106E-04  0.1804222E+04  0.7818609E-02  0.8704057E-01
       -2   -1    0    0    0  501  0.00000000000E+00  0.00000000000E+00  0.71285157851E+03  0.71285157852E+03  0.25500000920E-02 0. -1.
        2   -1    0    0  501    0  0.00000000000E+00  0.00000000000E+00 -0.11416184198E+04  0.11416184198E+04  0.25500000920E-02 0.  1.
    10030    2    1    2    0    0  0.00000000000E+00  0.00000000000E+00 -0.42876684126E+03  0.18544699983E+04  0.18042222619E+04 0.  0.
        4    1    3    3  502    0  0.62928545612E+03 -0.34354803901E+03 -0.77715122960E+03  0.10573509762E+04  0.12699999809E+01 0.  1.
       -4    1    3    3    0  502 -0.62928545612E+03  0.34354803901E+03  0.34838438834E+03  0.79711902205E+03  0.12699999809E+01 0. -1.
</event>
<event>
 5   0  0.1308893E-04  0.1791609E+04  0.7818609E-02  0.8710775E-01
        1   -1    0    0  501    0  0.00000000000E+00  0.00000000000E+00  0.83851137435E+03  0.83851137437E+03  0.50400001928E-02 0.  1.
       -1   -1    0    0    0  501  0.00000000000E+00  0.00000000000E+00 -0.95701187301E+03  0.95701187302E+03  0.50400001928E-02 0. -1.
    10030    2    1    2    0    0  0.00000000000E+00  0.00000000000E+00 -0.11850049865E+03  0.17955232474E+04  0.17916085967E+04 0.  0.
        4    1    3    3  502    0 -0.41220847583E+02  0.71332173310E+03  0.48224197341E+03  0.86202435407E+03  0.12699999809E+01 0.  1.
       -4    1    3    3    0  502  0.41220847583E+02 -0.71332173310E+03 -0.60074247206E+03  0.93349889332E+03  0.12699999809E+01 0. -1.
</event>
<event>
 5   0  0.1214723E-04  0.1647125E+04  0.7818609E-02  0.8792109E-01
        1   -1    0    0  501    0  0.00000000000E+00  0.00000000000E+00  0.25001324222E+04  0.25001324222E+04  0.50400001928E-02 0.  1.
       -1   -1    0    0    0  501  0.00000000000E+00  0.00000000000E+00 -0.27128786487E+03  0.27128786492E+03  0.50400001928E-02 0. -1.
    10030    2    1    2    0    0  0.00000000000E+00  0.00000000000E+00  0.22288445574E+04  0.27714202872E+04  0.16471254801E+04 0.  0.
        1    1    3    3  502    0 -0.11789490610E+03  0.56103856951E+03  0.21092697767E+04  0.21857910413E+04  0.50400001928E-02 0.  1.
       -1    1    3    3    0  502  0.11789490610E+03 -0.56103856951E+03  0.11957478063E+03  0.58562924581E+03  0.50400001928E-02 0. -1.
</event>
<event>
 5   0  0.1239119E-04  0.1834340E+04  0.7818609E-02  0.8688248E-01
        1   -1    0    0  501    0  0.00000000000E+00  0.00000000000E+00  0.81051735376E+03  0.81051735377E+03  0.50400001928E-02 0.  1.
       -1   -1    0    0    0  501  0.00000000000E+00  0.00000000000E+00 -0.10378569346E+04  0.10378569346E+04  0.50400001928E-02 0. -1.
    10030    2    1    2    0    0  0.00000000000E+00  0.00000000000E+00 -0.22733958086E+03  0.18483742884E+04  0.18343402697E+04 0.  0.
        5    1    3    3  502    0 -0.79309408329E+02  0.73639268069E+03 -0.65874717744E+03  0.99122857919E+03  0.46999998093E+01 0. -1.
       -5    1    3    3    0  502  0.79309408329E+02 -0.73639268069E+03  0.43140759658E+03  0.85714570921E+03  0.46999998093E+01 0.  1.
</event>
<event>
 5   0  0.2417106E-04  0.1795372E+04  0.7818609E-02  0.8708765E-01
       -2   -1    0    0    0  501  0.00000000000E+00  0.00000000000E+00  0.37021248804E+03  0.37021248805E+03  0.25500000920E-02 0. -1.
        2   -1    0    0  501    0  0.00000000000E+00  0.00000000000E+00 -0.21766960109E+04  0.21766960109E+04  0.25500000920E-02 0.  1.
    10030    2    1    2    0    0  0.00000000000E+00  0.00000000000E+00 -0.18064835229E+04  0.25469084990E+04  0.17953718789E+04 0.  0.
        4    1    3    3  502    0  0.80010993340E+03 -0.37665832115E+03 -0.11220509758E+04  0.14286523026E+04  0.12699999809E+01 0.  1.
       -4    1    3    3    0  502 -0.80010993340E+03  0.37665832115E+03 -0.68443254709E+03  0.11182561964E+04  0.12699999809E+01 0. -1.
</event>
<event>
 5   0  0.2569405E-04  0.1807951E+04  0.7818609E-02  0.8702083E-01
        2   -1    0    0  501    0  0.00000000000E+00  0.00000000000E+00  0.67741361422E+03  0.67741361423E+03  0.25500000920E-02 0.  1.
       -2   -1    0    0    0  501  0.00000000000E+00  0.00000000000E+00 -0.12063111450E+04  0.12063111450E+04  0.25500000920E-02 0. -1.
    10030    2    1    2    0    0  0.00000000000E+00  0.00000000000E+00 -0.52889753077E+03  0.18837247592E+04  0.18079508761E+04 0.  0.
        2    1    3    3  502    0  0.72666021032E+03 -0.51390114549E+03 -0.42932823222E+03  0.98815594902E+03  0.25500000920E-02 0. -1.
       -2    1    3    3    0  502 -0.72666021032E+03  0.51390114549E+03 -0.99569298546E+02  0.89556881020E+03  0.25500000920E-02 0.  1.
</event>
<event>
 5   0  0.1239119E-04  0.1742836E+04  0.7818609E-02  0.8737303E-01
       -1   -1    0    0    0  501  0.00000000000E+00  0.00000000000E+00  0.74475234793E+03  0.74475234794E+03  0.50400001928E-02 0.  1.
        1   -1    0    0  501    0  0.00000000000E+00  0.00000000000E+00 -0.10196270929E+04  0.10196270930E+04  0.50400001928E-02 0. -1.
    10030    2    1    2    0    0  0.00000000000E+00  0.00000000000E+00 -0.27487474502E+03  0.17643794409E+04  0.17428363911E+04 0.  0.
        5    1    3    3  502    0  0.46135208227E+03 -0.17704253350E+03  0.58917953658E+03  0.76898921891E+03  0.46999998093E+01 0.  1.
       -5    1    3    3    0  502 -0.46135208227E+03  0.17704253350E+03 -0.86405428160E+03  0.99539022199E+03  0.46999998093E+01 0. -1.
</event>
<event>
 5   0  0.1214723E-04  0.1792338E+04  0.7818609E-02  0.8710385E-01
        1   -1    0    0  501    0  0.00000000000E+00  0.00000000000E+00  0.29558567477E+04  0.29558567477E+04  0.50400001928E-02 0.  1.
       -1   -1    0    0    0  501  0.00000000000E+00  0.00000000000E+00 -0.27170427095E+03  0.27170427100E+03  0.50400001928E-02 0. -1.
    10030    2    1    2    0    0  0.00000000000E+00  0.00000000000E+00  0.26841524767E+04  0.32275610187E+04  0.17923380292E+04 0.  0.
        1    1    3    3  502    0  0.14145890886E+03  0.47299722145E+03 -0.47412593893E+01  0.49372003601E+03  0.50400001928E-02 0. -1.
       -1    1    3    3    0  502 -0.14145890886E+03 -0.47299722145E+03  0.26888937361E+04  0.27338409827E+04  0.50400001928E-02 0.  1.
</event>
<event>
 5   0  0.2431811E-04  0.1934023E+04  0.7818609E-02  0.8638104E-01
       -2   -1    0    0    0  501  0.00000000000E+00  0.00000000000E+00  0.16370313156E+04  0.16370313156E+04  0.25500000920E-02 0. -1.
        2   -1    0    0  501    0  0.00000000000E+00  0.00000000000E+00 -0.57122393905E+03  0.57122393905E+03  0.25500000920E-02 0.  1.
    10030    2    1    2    0    0  0.00000000000E+00  0.00000000000E+00  0.10658073766E+04  0.22082552547E+04  0.19340232433E+04 0.  0.
        3    1    3    3  502    0 -0.41949981129E+03 -0.80029353016E+03  0.13958665308E+03  0.91429441101E+03  0.10100000352E+00 0.  1.
       -3    1    3    3    0  502  0.41949981129E+03  0.80029353016E+03  0.92622072349E+03  0.12939608437E+04  0.10100000352E+00 0. -1.
</event>
<event>
 5   0  0.2417106E-04  0.1785030E+04  0.7818609E-02  0.8714301E-01
        2   -1    0    0  501    0  0.00000000000E+00  0.00000000000E+00  0.78750087897E+03  0.78750087898E+03  0.25500000920E-02 0.  1.
       -2   -1    0    0    0  501  0.00000000000E+00  0.00000000000E+00 -0.10115331621E+04  0.10115331621E+04  0.25500000920E-02 0. -1.
    10030    2    1    2    0    0  0.00000000000E+00  0.00000000000E+00 -0.22403228313E+03  0.17990340411E+04  0.17850302566E+04 0.  0.
        4    1    3    3  502    0  0.21265613187E+03  0.63851624046E+03 -0.70283694414E+03  0.97309146677E+03  0.12699999809E+01 0. -1.
       -4    1    3    3    0  502 -0.21265613187E+03 -0.63851624046E+03  0.47880466101E+03  0.82594257431E+03  0.12699999809E+01 0.  1.
</event>
<event>
 5   0  0.2417106E-04  0.1801860E+04  0.7818609E-02  0.8705311E-01
        2   -1    0    0  501    0  0.00000000000E+00  0.00000000000E+00  0.13348335469E+04  0.13348335469E+04  0.25500000920E-02 0. -1.
       -2   -1    0    0    0  501  0.00000000000E+00  0.00000000000E+00 -0.60807229543E+03  0.60807229543E+03  0.25500000920E-02 0.  1.
    10030    2    1    2    0    0  0.00000000000E+00  0.00000000000E+00  0.72676125148E+03  0.19429058423E+04  0.18018604817E+04 0.  0.
        4    1    3    3  502    0  0.46307658338E+03  0.13573731174E+03 -0.45696768148E+03  0.66459432339E+03  0.12699999809E+01 0.  1.
       -4    1    3    3    0  502 -0.46307658338E+03 -0.13573731174E+03  0.11837289330E+04  0.12783115189E+04  0.12699999809E+01 0. -1.
</event>
<event>
 5   0  0.1330225E-04  0.1732689E+04  0.7818609E-02  0.8742937E-01
        1   -1    0    0  501    0  0.00000000000E+00  0.00000000000E+00  0.13672281319E+04  0.13672281320E+04  0.50400001928E-02 0.  1.
       -1   -1    0    0    0  501  0.00000000000E+00  0.00000000000E+00 -0.54895961427E+03  0.54895961429E+03  0.50400001928E-02 0. -1.
    10030    2    1    2    0    0  0.00000000000E+00  0.00000000000E+00  0.81826851767E+03  0.19161877462E+04  0.17326892716E+04 0.  0.
        3    1    3    3  502    0 -0.44377944004E+02  0.13046283231E+03 -0.53676145534E+03  0.55416858687E+03  0.10100000352E+00 0. -1.
       -3    1    3    3    0  502  0.44377944004E+02 -0.13046283231E+03  0.13550299730E+04  0.13620191594E+04  0.10100000352E+00 0.  1.
</event>
<event>
 5   0  0.1330225E-04  0.1803870E+04  0.7818609E-02  0.8704244E-01
        1   -1    0    0  501    0  0.00000000000E+00  0.00000000000E+00  0.42888314540E+03  0.42888314543E+03  0.50400001928E-02 0. -1.
       -1   -1    0    0    0  501  0.00000000000E+00  0.00000000000E+00 -0.18967553964E+04  0.18967553964E+04  0.50400001928E-02 0.  1.
    10030    2    1    2    0    0  0.00000000000E+00  0.00000000000E+00 -0.14678722510E+04  0.23256385419E+04  0.18038696411E+04 0.  0.
        3    1    3    3  502    0 -0.32152910569E+03  0.78484764972E+03 -0.33840822042E+03  0.91317409781E+03  0.10100000352E+00 0. -1.
       -3    1    3    3    0  502  0.32152910569E+03 -0.78484764972E+03 -0.11294640306E+04  0.14124644440E+04  0.10100000352E+00 0.  1.
</event>
<event>
 5   0  0.1214723E-04  0.1783382E+04  0.7818609E-02  0.8715187E-01
       -1   -1    0    0    0  501  0.00000000000E+00  0.00000000000E+00  0.65958165416E+03  0.65958165418E+03  0.50400001928E-02 0. -1.
        1   -1    0    0  501    0  0.00000000000E+00  0.00000000000E+00 -0.12054803021E+04  0.12054803022E+04  0.50400001928E-02 0.  1.
    10030    2    1    2    0    0  0.00000000000E+00  0.00000000000E+00 -0.54589864799E+03  0.18650619563E+04  0.17833818344E+04 0.  0.
        1    1    3    3  502    0  0.72895218425E+03  0.34490054752E+03  0.12498439047E+03  0.81605684390E+03  0.50400001928E-02 0. -1.
       -1    1    3    3    0  502 -0.72895218425E+03 -0.34490054752E+03 -0.67088303846E+03  0.10490051124E+04  0.50400001928E-02 0.  1.
</event>
<event>
 5   0  0.1253925E-04  0.1792992E+04  0.7818609E-02  0.8710035E-01
        1   -1    0    0  501    0  0.00000000000E+00  0.00000000000E+00  0.62632574927E+03  0.62632574929E+03  0.50400001928E-02 0. -1.
       -1   -1    0    0    0  501  0.00000000000E+00  0.00000000000E+00 -0.12832055517E+04  0.12832055517E+04  0.50400001928E-02 0.  1.
    10030    2    1    2    0    0  0.00000000000E+00  0.00000000000E+00 -0.65687980247E+03  0.19095313010E+04  0.17929915546E+04 0.  0.
        2    1    3    3  502    0  0.70088711657E+03 -0.55813777390E+03 -0.36116416798E+03  0.96602281601E+03  0.25500000920E-02 0. -1.
       -2    1    3    3    0  502 -0.70088711657E+03  0.55813777390E+03 -0.29571563449E+03  0.94350848502E+03  0.25500000920E-02 0.  1.
</event>
<event>
 5   0  0.2431811E-04  0.1773760E+04  0.7818609E-02  0.8720379E-01
       -2   -1    0    0    0  501  0.00000000000E+00  0.00000000000E+00  0.10612218794E+04  0.10612218794E+04  0.25500000920E-02 0.  1.
        2   -1    0    0  501    0  0.00000000000E+00  0.00000000000E+00 -0.74118004723E+03  0.74118004724E+03  0.25500000920E-02 0. -1.
    10030    2    1    2    0    0  0.00000000000E+00  0.00000000000E+00  0.32004183216E+03  0.18024019266E+04  0.17737603927E+04 0.  0.
        3    1    3    3  502    0 -0.79405435199E+03  0.11384975035E+03 -0.22433592053E+03  0.83295299688E+03  0.10100000352E+00 0. -1.
       -3    1    3    3    0  502  0.79405435199E+03 -0.11384975035E+03  0.54437775270E+03  0.96944892975E+03  0.10100000352E+00 0.  1.
</event>
<event>
 5   0  0.2431811E-04  0.1800189E+04  0.7818609E-02  0.8706199E-01
       -2   -1    0    0    0  501  0.00000000000E+00  0.00000000000E+00  0.58782700378E+03  0.58782700379E+03  0.25500000920E-02 0. -1.
        2   -1    0    0  501    0  0.00000000000E+00  0.00000000000E+00 -0.13782464719E+04  0.13782464719E+04  0.25500000920E-02 0.  1.
    10030    2    1    2    0    0  0.00000000000E+00  0.00000000000E+00 -0.79041946814E+03  0.19660734757E+04  0.18001894279E+04 0.  0.
        3    1    3    3  502    0  0.93182540119E+02  0.18921693756E+03 -0.13508764279E+04  0.13672429077E+04  0.10100000352E+00 0.  1.
       -3    1    3    3    0  502 -0.93182540119E+02 -0.18921693756E+03  0.56045695972E+03  0.59883056797E+03  0.10100000352E+00 0. -1.
</event>
<event>
 5   0  0.1330225E-04  0.1801066E+04  0.7818609E-02  0.8705733E-01
       -1   -1    0    0    0  501  0.00000000000E+00  0.00000000000E+00  0.47767701291E+03  0.47767701294E+03  0.50400001928E-02 0. -1.
        1   -1    0    0  501    0  0.00000000000E+00  0.00000000000E+00 -0.16977159239E+04  0.16977159239E+04  0.50400001928E-02 0.  1.
    10030    2    1    2    0    0  0.00000000000E+00  0.00000000000E+00 -0.12200389110E+04  0.21753929368E+04  0.18010662079E+04 0.  0.
        3    1    3    3  502    0 -0.20905994715E+03 -0.79543555983E+03 -0.16699530205E+03  0.83923252585E+03  0.10100000352E+00 0. -1.
       -3    1    3    3    0  502  0.20905994715E+03  0.79543555983E+03 -0.10530436089E+04  0.13361604110E+04  0.10100000352E+00 0.  1.
</event>
<event>
 5   0  0.2569405E-04  0.1770320E+04  0.7818609E-02  0.8722244E-01
        2   -1    0    0  501    0  0.00000000000E+00  0.00000000000E+00  0.98790926450E+03  0.98790926450E+03  0.25500000920E-02 0.  1.
       -2   -1    0    0    0  501  0.00000000000E+00  0.00000000000E+00 -0.79309767853E+03  0.79309767853E+03  0.25500000920E-02 0. -1.
    10030    2    1    2    0    0  0.00000000000E+00  0.00000000000E+00  0.19481158597E+03  0.17810069430E+04  0.17703203600E+04 0.  0.
        2    1    3    3  502    0  0.38623748819E+03  0.22520453687E+03  0.86596243223E+03  0.97457037445E+03  0.25500000920E-02 0.  1.
       -2    1    3    3    0  502 -0.38623748819E+03 -0.22520453687E+03 -0.67115084626E+03  0.80643656859E+03  0.25500000920E-02 0. -1.
</event>
<event>
 5   0  0.2550616E-04  0.1792231E+04  0.7818609E-02  0.8710442E-01
       -2   -1    0    0    0  501  0.00000000000E+00  0.00000000000E+00  0.99976822576E+03  0.99976822577E+03  0.25500000920E-02 0. -1.
        2   -1    0    0  501    0  0.00000000000E+00  0.00000000000E+00 -0.80320953035E+03  0.80320953035E+03  0.25500000920E-02 0.  1.
    10030    2    1    2    0    0  0.00000000000E+00  0.00000000000E+00  0.19655869541E+03  0.18029777561E+04  0.17922314215E+04 0.  0.
        1    1    3    3  502    0  0.93237113959E+02 -0.27678390785E+03  0.95054320409E+03  0.99440176686E+03  0.50400001928E-02 0. -1.
       -1    1    3    3    0  502 -0.93237113959E+02  0.27678390785E+03 -0.75398450868E+03  0.80857598926E+03  0.50400001928E-02 0.  1.
</event>
<event>
 5   0  0.2417106E-04  0.1796215E+04  0.7818609E-02  0.8708315E-01
        2   -1    0    0  501    0  0.00000000000E+00  0.00000000000E+00  0.45810248189E+03  0.45810248189E+03  0.25500000920E-02 0. -1.
       -2   -1    0    0    0  501  0.00000000000E+00  0.00000000000E+00 -0.17607342972E+04  0.17607342972E+04  0.25500000920E-02 0.  1.
    10030    2    1    2    0    0  0.00000000000E+00  0.00000000000E+00 -0.13026318153E+04  0.22188367791E+04  0.17962146325E+04 0.  0.
        4    1    3    3  502    0 -0.13349765499E+03 -0.71639006791E+02  0.44220175695E+03  0.46743745884E+03  0.12699999809E+01 0. -1.
       -4    1    3    3    0  502  0.13349765499E+03  0.71639006791E+02 -0.17448335723E+04  0.17513993203E+04  0.12699999809E+01 0.  1.
</event>
<event>
 5   0  0.1239119E-04  0.1854458E+04  0.7818609E-02  0.8677864E-01
        1   -1    0    0  501    0  0.00000000000E+00  0.00000000000E+00  0.59057052121E+03  0.59057052123E+03  0.50400001928E-02 0. -1.
       -1   -1    0    0    0  501  0.00000000000E+00  0.00000000000E+00 -0.14558015611E+04  0.14558015611E+04  0.50400001928E-02 0.  1.
    10030    2    1    2    0    0  0.00000000000E+00  0.00000000000E+00 -0.86523103985E+03  0.20463720823E+04  0.18544578579E+04 0.  0.
        5    1    3    3  502    0 -0.72863309950E+03 -0.29031679054E+03 -0.97830276042E+03  0.12539092525E+04  0.46999998093E+01 0. -1.
       -5    1    3    3    0  502  0.72863309950E+03  0.29031679054E+03  0.11307172057E+03  0.79246282976E+03  0.46999998093E+01 0.  1.
</event>
<event>
 5   0  0.2550616E-04  0.1685997E+04  0.7818609E-02  0.8769391E-01
       -2   -1    0    0    0  501  0.00000000000E+00  0.00000000000E+00  0.79235456498E+03  0.79235456498E+03  0.25500000920E-02 0. -1.
        2   -1    0    0  501    0  0.00000000000E+00  0.00000000000E+00 -0.89687903985E+03  0.89687903985E+03  0.25500000920E-02 0.  1.
    10030    2    1    2    0    0  0.00000000000E+00  0.00000000000E+00 -0.10452447487E+03  0.16892336048E+04  0.16859966803E+04 0.  0.
        1    1    3    3  502    0  0.16612381719E+03  0.21059397017E+03 -0.85298320923E+03  0.89416290359E+03  0.50400001928E-02 0.  1.
       -1    1    3    3    0  502 -0.16612381719E+03 -0.21059397017E+03  0.74845873436E+03  0.79507070124E+03  0.50400001928E-02 0. -1.
</event>
<event>
 5   0  0.2431811E-04  0.1811146E+04  0.7818609E-02  0.8700394E-01
        2   -1    0    0  501    0  0.00000000000E+00  0.00000000000E+00  0.97447081837E+03  0.97447081837E+03  0.25500000920E-02 0. -1.
       -2   -1    0    0    0  501  0.00000000000E+00  0.00000000000E+00 -0.84154662318E+03  0.84154662319E+03  0.25500000920E-02 0.  1.
    10030    2    1    2    0    0  0.00000000000E+00  0.00000000000E+00  0.13292419519E+03  0.18160174416E+04  0.18111461858E+04 0.  0.
        3    1    3    3  502    0 -0.37422602820E+03 -0.81180033927E+03 -0.78833490950E+02  0.89737374629E+03  0.10100000352E+00 0.  1.
       -3    1    3    3    0  502  0.37422602820E+03  0.81180033927E+03  0.21175768614E+03  0.91864369527E+03  0.10100000352E+00 0. -1.
</event>
<event>
 5   0  0.1308893E-04  0.1849890E+04  0.7818609E-02  0.8680209E-01
        1   -1    0    0  501    0  0.00000000000E+00  0.00000000000E+00  0.12486682834E+04  0.12486682834E+04  0.50400001928E-02 0.  1.
       -1   -1    0    0    0  501  0.00000000000E+00  0.00000000000E+00 -0.68514864738E+03  0.68514864739E+03  0.50400001928E-02 0. -1.
    10030    2    1    2    0    0  0.00000000000E+00  0.00000000000E+00  0.56351963604E+03  0.19338169308E+04  0.18498901432E+04 0.  0.
        4    1    3    3  502    0 -0.76439968073E+03  0.30049169106E+03  0.72640366044E+03  0.10964789187E+04  0.12699999809E+01 0.  1.
       -4    1    3    3    0  502  0.76439968073E+03 -0.30049169106E+03 -0.16288402440E+03  0.83733801215E+03  0.12699999809E+01 0. -1.
</event>
<event>
 5   0  0.2393421E-04  0.1813127E+04  0.7818609E-02  0.8699350E-01
        2   -1    0    0  501    0  0.00000000000E+00  0.00000000000E+00  0.12072994210E+04  0.12072994210E+04  0.25500000920E-02 0. -1.
       -2   -1    0    0    0  501  0.00000000000E+00  0.00000000000E+00 -0.68074008596E+03  0.68074008596E+03  0.25500000920E-02 0.  1.
    10030    2    1    2    0    0  0.00000000000E+00  0.00000000000E+00  0.52655933507E+03  0.18880395070E+04  0.18131267045E+04 0.  0.
        5    1    3    3  502    0  0.11324494041E+03  0.14515892979E+03  0.11876145799E+04  0.12018094740E+04  0.46999998093E+01 0. -1.
       -5    1    3    3    0  502 -0.11324494041E+03 -0.14515892979E+03 -0.66105524484E+03  0.68623003298E+03  0.46999998093E+01 0.  1.
</event>
<event>
 5   0  0.2569405E-04  0.1814365E+04  0.7818609E-02  0.8698697E-01
        2   -1    0    0  501    0  0.00000000000E+00  0.00000000000E+00  0.68906814819E+03  0.68906814819E+03  0.25500000920E-02 0. -1.
       -2   -1    0    0    0  501  0.00000000000E+00  0.00000000000E+00 -0.11943381106E+04  0.11943381106E+04  0.25500000920E-02 0.  1.
    10030    2    1    2    0    0  0.00000000000E+00  0.00000000000E+00 -0.50526996237E+03  0.18834062588E+04  0.18143652886E+04 0.  0.
        2    1    3    3  502    0 -0.82444013666E+02  0.88426306266E+03 -0.60491029410E+02  0.89015579761E+03  0.25500000920E-02 0. -1.
       -2    1    3    3    0  502  0.82444013666E+02 -0.88426306266E+03 -0.44477893296E+03  0.99325046115E+03  0.25500000920E-02 0.  1.
</event>
<event>
 5   0  0.2569405E-04  0.1813539E+04  0.7818609E-02  0.8699133E-01
       -2   -1    0    0    0  501  0.00000000000E+00  0.00000000000E+00  0.68428424368E+03  0.68428424368E+03  0.25500000920E-02 0.  1.
        2   -1    0    0  501    0  0.00000000000E+00  0.00000000000E+00 -0.12015924452E+04  0.12015924452E+04  0.25500000920E-02 0. -1.
    10030    2    1    2    0    0  0.00000000000E+00  0.00000000000E+00 -0.51730820156E+03  0.18858766889E+04  0.18135388362E+04 0.  0.
        2    1    3    3  502    0 -0.26980940240E+03 -0.86129744726E+03 -0.34931162133E+03  0.96780629006E+03  0.25500000920E-02 0. -1.
       -2    1    3    3    0  502  0.26980940240E+03  0.86129744726E+03 -0.16799658022E+03  0.91807039886E+03  0.25500000920E-02 0.  1.
</event>
<event>
 5   0  0.1330225E-04  0.1805010E+04  0.7818609E-02  0.8703640E-01
        1   -1    0    0  501    0  0.00000000000E+00  0.00000000000E+00  0.17646950817E+04  0.17646950817E+04  0.50400001928E-02 0. -1.
       -1   -1    0    0    0  501  0.00000000000E+00  0.00000000000E+00 -0.46156154544E+03  0.46156154547E+03  0.50400001928E-02 0.  1.
    10030    2    1    2    0    0  0.00000000000E+00  0.00000000000E+00  0.13031335363E+04  0.22262566272E+04  0.18050101265E+04 0.  0.
        3    1    3    3  502    0 -0.31211136762E+02 -0.93568302878E+02  0.17580270973E+04  0.17607919943E+04  0.10100000352E+00 0. -1.
       -3    1    3    3    0  502  0.31211136762E+02  0.93568302878E+02 -0.45489356102E+03  0.46546463284E+03  0.10100000352E+00 0.  1.
</event>
<event>
 5   0  0.1253925E-04  0.1799265E+04  0.7818609E-02  0.8706690E-01
        1   -1    0    0  501    0  0.00000000000E+00  0.00000000000E+00  0.12775279025E+04  0.12775279025E+04  0.50400001928E-02 0.  1.
       -1   -1    0    0    0  501  0.00000000000E+00  0.00000000000E+00 -0.63351960152E+03  0.63351960154E+03  0.50400001928E-02 0. -1.
    10030    2    1    2    0    0  0.00000000000E+00  0.00000000000E+00  0.64400830098E+03  0.19110475041E+04  0.17992653698E+04 0.  0.
        2    1    3    3  502    0 -0.43517021772E+03 -0.50348722049E+03  0.96497810774E+03  0.11722010271E+04  0.25500000920E-02 0.  1.
       -2    1    3    3    0  502  0.43517021772E+03  0.50348722049E+03 -0.32096980676E+03  0.73884647692E+03  0.25500000920E-02 0. -1.
</event>
<event>
 5   0  0.2550616E-04  0.1803496E+04  0.7818609E-02  0.8704443E-01
       -2   -1    0    0    0  501  0.00000000000E+00  0.00000000000E+00  0.41774099824E+03  0.41774099825E+03  0.25500000920E-02 0.  1.
        2   -1    0    0  501    0  0.00000000000E+00  0.00000000000E+00 -0.19465396297E+04  0.19465396297E+04  0.25500000920E-02 0. -1.
    10030    2    1    2    0    0  0.00000000000E+00  0.00000000000E+00 -0.15287986315E+04  0.23642806280E+04  0.18034959474E+04 0.  0.
        1    1    3    3  502    0  0.59955211093E+02 -0.28872134350E+03  0.35274790756E+03  0.45976703649E+03  0.50400001928E-02 0.  1.
       -1    1    3    3    0  502 -0.59955211093E+02  0.28872134350E+03 -0.18815465390E+04  0.19045135915E+04  0.50400001928E-02 0. -1.
</event>
<event>
 5   0  0.9144875E-05  0.1817465E+04  0.7818609E-02  0.8697066E-01
        4   -1    0    0  501    0  0.00000000000E+00  0.00000000000E+00  0.55344902673E+03  0.55345048387E+03  0.12699999809E+01 0.  1.
       -4   -1    0    0    0  501  0.00000000000E+00  0.00000000000E+00 -0.14920848965E+04  0.14920854370E+04  0.12699999809E+01 0. -1.
    10030    2    1    2    0    0  0.00000000000E+00  0.00000000000E+00 -0.93863586974E+03  0.20455359208E+04  0.18174652424E+04 0.  0.
        1    1    3    3  502    0  0.61792156034E+03  0.10305427291E+03  0.27158150039E+03  0.68279114616E+03  0.50400001928E-02 0.  1.
       -1    1    3    3    0  502 -0.61792156034E+03 -0.10305427291E+03 -0.12102173701E+04  0.13627447747E+04  0.50400001928E-02 0. -1.
</event>
<event>
 5   0  0.1239119E-04  0.1792304E+04  0.7818609E-02  0.8710403E-01
        1   -1    0    0  501    0  0.00000000000E+00  0.00000000000E+00  0.10379777482E+04  0.10379777482E+04  0.50400001928E-02 0. -1.
       -1   -1    0    0    0  501  0.00000000000E+00  0.00000000000E+00 -0.77370466397E+03  0.77370466398E+03  0.50400001928E-02 0.  1.
    10030    2    1    2    0    0  0.00000000000E+00  0.00000000000E+00  0.26427308427E+03  0.18116824122E+04  0.17923037967E+04 0.  0.
        5    1    3    3  502    0 -0.61677402355E+03  0.24885762525E+03 -0.47496181664E+03  0.81728277300E+03  0.46999998093E+01 0.  1.
       -5    1    3    3    0  502  0.61677402355E+03 -0.24885762525E+03  0.73923490091E+03  0.99439963923E+03  0.46999998093E+01 0. -1.
</event>
<event>
 5   0  0.2393421E-04  0.1792529E+04  0.7818609E-02  0.8710283E-01
        2   -1    0    0  501    0  0.00000000000E+00  0.00000000000E+00  0.11165960883E+04  0.11165960883E+04  0.25500000920E-02 0. -1.
       -2   -1    0    0    0  501  0.00000000000E+00  0.00000000000E+00 -0.71940945990E+03  0.71940945991E+03  0.25500000920E-02 0.  1.
    10030    2    1    2    0    0  0.00000000000E+00  0.00000000000E+00  0.39718662841E+03  0.18360055482E+04  0.17925287042E+04 0.  0.
        5    1    3    3  502    0 -0.14612757358E+03 -0.79045473246E+02  0.11006738589E+04  0.11131516017E+04  0.46999998093E+01 0. -1.
       -5    1    3    3    0  502  0.14612757358E+03  0.79045473246E+02 -0.70348723049E+03  0.72285394657E+03  0.46999998093E+01 0.  1.
</event>
<event>
 5   0  0.1253925E-04  0.1792610E+04  0.7818609E-02  0.8710239E-01
        1   -1    0    0  501    0  0.00000000000E+00  0.00000000000E+00  0.63215320727E+03  0.63215320729E+03  0.50400001928E-02 0.  1.
       -1   -1    0    0    0  501  0.00000000000E+00  0.00000000000E+00 -0.12708348331E+04  0.12708348331E+04  0.50400001928E-02 0. -1.
    10030    2    1    2    0    0  0.00000000000E+00  0.00000000000E+00 -0.63868162580E+03  0.19029880404E+04  0.17926096236E+04 0.  0.
        2    1    3    3  502    0  0.30556238420E+03 -0.35655655346E+03 -0.11298033997E+04  0.12235018056E+04  0.25500000920E-02 0. -1.
       -2    1    3    3    0  502 -0.30556238420E+03  0.35655655346E+03  0.49112177385E+03  0.67948623475E+03  0.25500000920E-02 0.  1.
</event>
<event>
 5   0  0.1330225E-04  0.1821567E+04  0.7818609E-02  0.8694914E-01
       -1   -1    0    0    0  501  0.00000000000E+00  0.00000000000E+00  0.57058577680E+03  0.57058577682E+03  0.50400001928E-02 0.  1.
        1   -1    0    0  501    0  0.00000000000E+00  0.00000000000E+00 -0.14538155945E+04  0.14538155945E+04  0.50400001928E-02 0. -1.
    10030    2    1    2    0    0  0.00000000000E+00  0.00000000000E+00 -0.88322981767E+03  0.20244013713E+04  0.18215669083E+04 0.  0.
        3    1    3    3  502    0  0.63070568394E+03  0.22524802899E+03  0.24436922571E+03  0.71291139912E+03  0.10100000352E+00 0.  1.
       -3    1    3    3    0  502 -0.63070568394E+03 -0.22524802899E+03 -0.11275990434E+04  0.13114899722E+04  0.10100000352E+00 0. -1.
</event>
<event>
 5   0  0.1330225E-04  0.1792857E+04  0.7818609E-02  0.8710107E-01
       -1   -1    0    0    0  501  0.00000000000E+00  0.00000000000E+00  0.78940575149E+03  0.78940575150E+03  0.50400001928E-02 0. -1.
        1   -1    0    0  501    0  0.00000000000E+00  0.00000000000E+00 -0.10179609618E+04  0.10179609618E+04  0.50400001928E-02 0.  1.
    10030    2    1    2    0    0  0.00000000000E+00  0.00000000000E+00 -0.22855521034E+03  0.18073667133E+04  0.17928572035E+04 0.  0.
        3    1    3    3  502    0 -0.45067749484E+03 -0.38748589878E+03  0.56221864378E+03  0.81813528204E+03  0.10100000352E+00 0. -1.
       -3    1    3    3    0  502  0.45067749484E+03  0.38748589878E+03 -0.79077385412E+03  0.98923143129E+03  0.10100000352E+00 0.  1.
</event>
<event>
 5   0  0.2569405E-04  0.1768753E+04  0.7818609E-02  0.8723095E-01
       -2   -1    0    0    0  501  0.00000000000E+00  0.00000000000E+00  0.98988248403E+03  0.98988248403E+03  0.25500000920E-02 0.  1.
        2   -1    0    0  501    0  0.00000000000E+00  0.00000000000E+00 -0.79011567051E+03  0.79011567051E+03  0.25500000920E-02 0. -1.
    10030    2    1    2    0    0  0.00000000000E+00  0.00000000000E+00  0.19976681352E+03  0.17799981545E+04  0.17687528517E+04 0.  0.
        2    1    3    3  502    0  0.68641904810E+02 -0.87637543627E+03  0.19732901445E+03  0.90093526756E+03  0.25500000920E-02 0. -1.
       -2    1    3    3    0  502 -0.68641904810E+02  0.87637543627E+03  0.24377990660E+01  0.87906288698E+03  0.25500000920E-02 0.  1.
</event>
<event>
 5   0  0.2550616E-04  0.1786547E+04  0.7818609E-02  0.8713486E-01
        2   -1    0    0  501    0  0.00000000000E+00  0.00000000000E+00  0.10767386521E+04  0.10767386521E+04  0.25500000920E-02 0.  1.
       -2   -1    0    0    0  501  0.00000000000E+00  0.00000000000E+00 -0.74106911701E+03  0.74106911701E+03  0.25500000920E-02 0. -1.
    10030    2    1    2    0    0  0.00000000000E+00  0.00000000000E+00  0.33566953508E+03  0.18178077691E+04  0.17865472422E+04 0.  0.
        1    1    3    3  502    0  0.15079624009E+03 -0.73587704294E+03  0.65970124786E+03  0.99973009598E+03  0.50400001928E-02 0.  1.
       -1    1    3    3    0  502 -0.15079624009E+03  0.73587704294E+03 -0.32403171278E+03  0.81807767312E+03  0.50400001928E-02 0. -1.
</event>
<event>
 5   0  0.1214723E-04  0.1759683E+04  0.7818609E-02  0.8728038E-01
       -1   -1    0    0    0  501  0.00000000000E+00  0.00000000000E+00  0.14299592885E+04  0.14299592886E+04  0.50400001928E-02 0. -1.
        1   -1    0    0  501    0  0.00000000000E+00  0.00000000000E+00 -0.54135902867E+03  0.54135902870E+03  0.50400001928E-02 0.  1.
    10030    2    1    2    0    0  0.00000000000E+00  0.00000000000E+00  0.88860025987E+03  0.19713183173E+04  0.17596833482E+04 0.  0.
        1    1    3    3  502    0 -0.33597455739E+03  0.51125959337E+03  0.11526928574E+04  0.13049774322E+04  0.50400001928E-02 0. -1.
       -1    1    3    3    0  502  0.33597455739E+03 -0.51125959337E+03 -0.26409259752E+03  0.66634088507E+03  0.50400001928E-02 0.  1.
</event>
<event>
 5   0  0.2550616E-04  0.1786638E+04  0.7818609E-02  0.8713438E-01
       -2   -1    0    0    0  501  0.00000000000E+00  0.00000000000E+00  0.46972876993E+03  0.46972876994E+03  0.25500000920E-02 0.  1.
        2   -1    0    0  501    0  0.00000000000E+00  0.00000000000E+00 -0.16988932792E+04  0.16988932792E+04  0.25500000920E-02 0. -1.
    10030    2    1    2    0    0  0.00000000000E+00  0.00000000000E+00 -0.12291645093E+04  0.21686220491E+04  0.17866382402E+04 0.  0.
        1    1    3    3  502    0 -0.79019109330E+01 -0.89146540607E+02 -0.16934380580E+04  0.16958012861E+04  0.50400001928E-02 0. -1.
       -1    1    3    3    0  502  0.79019109330E+01  0.89146540607E+02  0.46427354868E+03  0.47282076301E+03  0.50400001928E-02 0.  1.
</event>
<event>
 5   0  0.2550616E-04  0.1788713E+04  0.7818609E-02  0.8712325E-01
        2   -1    0    0  501    0  0.00000000000E+00  0.00000000000E+00  0.14178912526E+04  0.14178912526E+04  0.25500000920E-02 0. -1.
       -2   -1    0    0    0  501  0.00000000000E+00  0.00000000000E+00 -0.56412883343E+03  0.56412883344E+03  0.25500000920E-02 0.  1.
    10030    2    1    2    0    0  0.00000000000E+00  0.00000000000E+00  0.85376241914E+03  0.19820200860E+04  0.17887127643E+04 0.  0.
        1    1    3    3  502    0 -0.61630324689E+03 -0.60807003809E+03  0.17838052799E+03  0.88396746329E+03  0.50400001928E-02 0. -1.
       -1    1    3    3    0  502  0.61630324689E+03  0.60807003809E+03  0.67538189115E+03  0.10980526227E+04  0.50400001928E-02 0.  1.
</event>
<event>
 5   0  0.2393421E-04  0.1812292E+04  0.7818609E-02  0.8699790E-01
        2   -1    0    0  501    0  0.00000000000E+00  0.00000000000E+00  0.78117770187E+03  0.78117770187E+03  0.25500000920E-02 0.  1.
       -2   -1    0    0    0  501  0.00000000000E+00  0.00000000000E+00 -0.10511057722E+04  0.10511057722E+04  0.25500000920E-02 0. -1.
    10030    2    1    2    0    0  0.00000000000E+00  0.00000000000E+00 -0.26992807036E+03  0.18322834741E+04  0.18122917994E+04 0.  0.
        5    1    3    3  502    0 -0.24562634620E+03 -0.19568271647E+03  0.72438525321E+03  0.78954424356E+03  0.46999998093E+01 0.  1.
       -5    1    3    3    0  502  0.24562634620E+03  0.19568271647E+03 -0.99431332357E+03  0.10427392305E+04  0.46999998093E+01 0. -1.
</event>
<event>
 5   0  0.2431811E-04  0.1802862E+04  0.7818609E-02  0.8704779E-01
       -2   -1    0    0    0  501  0.00000000000E+00  0.00000000000E+00  0.36927372912E+03  0.36927372913E+03  0.25500000920E-02 0.  1.
        2   -1    0    0  501    0  0.00000000000E+00  0.00000000000E+00 -0.22004761840E+04  0.22004761840E+04  0.25500000920E-02 0. -1.
    10030    2    1    2    0    0  0.00000000000E+00  0.00000000000E+00 -0.18312024549E+04  0.25697499132E+04  0.18028622203E+04 0.  0.
        3    1    3    3  502    0  0.51034618071E+03 -0.44582961867E+03 -0.17629017692E+04  0.18886608831E+04  0.10100000352E+00 0. -1.
       -3    1    3    3    0  502 -0.51034618071E+03  0.44582961867E+03 -0.68300685663E+02  0.68108903009E+03  0.10100000352E+00 0.  1.
</event>
<event>
 5   0  0.1214723E-04  0.1808644E+04  0.7818609E-02  0.8701716E-01
       -1   -1    0    0    0  501  0.00000000000E+00  0.00000000000E+00  0.63312726214E+03  0.63312726216E+03  0.50400001928E-02 0. -1.
        1   -1    0    0  501    0  0.00000000000E+00  0.00000000000E+00 -0.12916810372E+04  0.12916810373E+04  0.50400001928E-02 0.  1.
    10030    2    1    2    0    0  0.00000000000E+00  0.00000000000E+00 -0.65855377510E+03  0.19248082994E+04  0.18086442201E+04 0.  0.
        1    1    3    3  502    0  0.81006172515E+03  0.69009457068E+02 -0.75073795104E+03  0.11066028081E+04  0.50400001928E-02 0. -1.
       -1    1    3    3    0  502 -0.81006172515E+03 -0.69009457068E+02  0.92184175944E+02  0.81820549133E+03  0.50400001928E-02 0.  1.
</event>
<event>
 5   0  0.1214723E-04  0.1805244E+04  0.7818609E-02  0.8703516E-01
        1   -1    0    0  501    0  0.00000000000E+00  0.00000000000E+00  0.72623376230E+03  0.72623376232E+03  0.50400001928E-02 0. -1.
       -1   -1    0    0    0  501  0.00000000000E+00  0.00000000000E+00 -0.11218518819E+04  0.11218518819E+04  0.50400001928E-02 0.  1.
    10030    2    1    2    0    0  0.00000000000E+00  0.00000000000E+00 -0.39561811960E+03  0.18480856442E+04  0.18052442638E+04 0.  0.
        1    1    3    3  502    0 -0.33282407480E+03  0.30094455138E+03  0.60396773604E+03  0.75240714641E+03  0.50400001928E-02 0. -1.
       -1    1    3    3    0  502  0.33282407480E+03 -0.30094455138E+03 -0.99958585564E+03  0.10956784978E+04  0.50400001928E-02 0.  1.
</event>
<event>
 5   0  0.1214723E-04  0.1800498E+04  0.7818609E-02  0.8706035E-01
       -1   -1    0    0    0  501  0.00000000000E+00  0.00000000000E+00  0.64947303440E+03  0.64947303442E+03  0.50400001928E-02 0.  1.
        1   -1    0    0  501    0  0.00000000000E+00  0.00000000000E+00 -0.12478546133E+04  0.12478546134E+04  0.50400001928E-02 0. -1.
    10030    2    1    2    0    0  0.00000000000E+00  0.00000000000E+00 -0.59838157895E+03  0.18973276478E+04  0.18004976226E+04 0.  0.
        1    1    3    3  502    0 -0.24893126328E+03 -0.55932260478E+03  0.39633517118E+03  0.72930797198E+03  0.50400001928E-02 0.  1.
       -1    1    3    3    0  502  0.24893126328E+03  0.55932260478E+03 -0.99471675013E+03  0.11680196758E+04  0.50400001928E-02 0. -1.
</event>
<event>
 5   0  0.2393421E-04  0.1777344E+04  0.7818609E-02  0.8718441E-01
        2   -1    0    0  501    0  0.00000000000E+00  0.00000000000E+00  0.65891889917E+03  0.65891889917E+03  0.25500000920E-02 0. -1.
       -2   -1    0    0    0  501  0.00000000000E+00  0.00000000000E+00 -0.11985356508E+04  0.11985356508E+04  0.25500000920E-02 0.  1.
    10030    2    1    2    0    0  0.00000000000E+00  0.00000000000E+00 -0.53961675167E+03  0.18574545500E+04  0.17773438516E+04 0.  0.
        5    1    3    3  502    0 -0.48836202354E+03  0.51457539386E+03 -0.82912315373E+03  0.10912161088E+04  0.46999998093E+01 0.  1.
       -5    1    3    3    0  502  0.48836202354E+03 -0.51457539386E+03  0.28950640206E+03  0.76623844124E+03  0.46999998093E+01 0. -1.
</event>
<event>
 5   0  0.2550616E-04  0.1867276E+04  0.7818609E-02  0.8671319E-01
        2   -1    0    0  501    0  0.00000000000E+00  0.00000000000E+00  0.13124727026E+04  0.13124727026E+04  0.25500000920E-02 0.  1.
       -2   -1    0    0    0  501  0.00000000000E+00  0.00000000000E+00 -0.66415092364E+03  0.66415092365E+03  0.25500000920E-02 0. -1.
    10030    2    1    2    0    0  0.00000000000E+00  0.00000000000E+00  0.64832177895E+03  0.19766236262E+04  0.18672760457E+04 0.  0.
        1    1    3    3  502    0 -0.78523375020E+03 -0.27752428440E+03  0.77085335216E+03  0.11348245069E+04  0.50400001928E-02 0.  1.
       -1    1    3    3    0  502  0.78523375020E+03  0.27752428440E+03 -0.12253157321E+03  0.84179911935E+03  0.50400001928E-02 0. -1.
</event>
<event>
 5   0  0.1239119E-04  0.1806145E+04  0.7818609E-02  0.8703038E-01
       -1   -1    0    0    0  501  0.00000000000E+00  0.00000000000E+00  0.57680486351E+03  0.57680486353E+03  0.50400001928E-02 0. -1.
        1   -1    0    0  501    0  0.00000000000E+00  0.00000000000E+00 -0.14138926737E+04  0.14138926737E+04  0.50400001928E-02 0.  1.
    10030    2    1    2    0    0  0.00000000000E+00  0.00000000000E+00 -0.83708781017E+03  0.19906975372E+04  0.18061452552E+04 0.  0.
        5    1    3    3  502    0  0.40274495944E+03 -0.69082091050E+03 -0.88104089631E+03  0.11898286363E+04  0.46999998093E+01 0.  1.
       -5    1    3    3    0  502 -0.40274495944E+03  0.69082091050E+03  0.43953086140E+02  0.80086890095E+03  0.46999998093E+01 0. -1.
</event>
<event>
 5   0  0.1330225E-04  0.1791160E+04  0.7818609E-02  0.8711015E-01
       -1   -1    0    0    0  501  0.00000000000E+00  0.00000000000E+00  0.15179512673E+04  0.15179512673E+04  0.50400001928E-02 0.  1.
        1   -1    0    0  501    0  0.00000000000E+00  0.00000000000E+00 -0.52838546187E+03  0.52838546189E+03  0.50400001928E-02 0. -1.
    10030    2    1    2    0    0  0.00000000000E+00  0.00000000000E+00  0.98956580540E+03  0.20463367292E+04  0.17911598270E+04 0.  0.
        3    1    3    3  502    0  0.35104637122E+03  0.51926133034E+03  0.12256009076E+04  0.13765767247E+04  0.10100000352E+00 0.  1.
       -3    1    3    3    0  502 -0.35104637122E+03 -0.51926133034E+03 -0.23603510223E+03  0.66976000450E+03  0.10100000352E+00 0. -1.
</event>
<event>
 5   0  0.2550616E-04  0.1797266E+04  0.7818609E-02  0.8707755E-01
       -2   -1    0    0    0  501  0.00000000000E+00  0.00000000000E+00  0.13814958633E+04  0.13814958633E+04  0.25500000920E-02 0.  1.
        2   -1    0    0  501    0  0.00000000000E+00  0.00000000000E+00 -0.58454133574E+03  0.58454133574E+03  0.25500000920E-02 0. -1.
    10030    2    1    2    0    0  0.00000000000E+00  0.00000000000E+00  0.79695452757E+03  0.19660371990E+04  0.17972661876E+04 0.  0.
        1    1    3    3  502    0  0.60201282173E+03  0.66350940821E+03  0.47487271493E+03  0.10139863252E+04  0.50400001928E-02 0.  1.
       -1    1    3    3    0  502 -0.60201282173E+03 -0.66350940821E+03  0.32208181264E+03  0.95205087384E+03  0.50400001928E-02 0. -1.
</event>
<event>
 5   0  0.1214723E-04  0.1870877E+04  0.7818609E-02  0.8669490E-01
       -1   -1    0    0    0  501  0.00000000000E+00  0.00000000000E+00  0.21979210032E+04  0.21979210032E+04  0.50400001928E-02 0.  1.
        1   -1    0    0  501    0  0.00000000000E+00  0.00000000000E+00 -0.39812418266E+03  0.39812418269E+03  0.50400001928E-02 0. -1.
    10030    2    1    2    0    0  0.00000000000E+00  0.00000000000E+00  0.17997968205E+04  0.25960451859E+04  0.18708773375E+04 0.  0.
        1    1    3    3  502    0 -0.44573105952E+03 -0.66332630513E+03  0.22527586729E+03  0.83031751813E+03  0.50400001928E-02 0. -1.
       -1    1    3    3    0  502  0.44573105952E+03  0.66332630513E+03  0.15745209532E+04  0.17657276677E+04  0.50400001928E-02 0.  1.
</event>
<event>
 5   0  0.1253925E-04  0.1801259E+04  0.7818609E-02  0.8705630E-01
       -1   -1    0    0    0  501  0.00000000000E+00  0.00000000000E+00  0.49137096190E+03  0.49137096192E+03  0.50400001928E-02 0.  1.
        1   -1    0    0  501    0  0.00000000000E+00  0.00000000000E+00 -0.16507554184E+04  0.16507554184E+04  0.50400001928E-02 0. -1.
    10030    2    1    2    0    0  0.00000000000E+00  0.00000000000E+00 -0.11593844565E+04  0.21421263804E+04  0.18012587575E+04 0.  0.
        2    1    3    3  502    0  0.29165468476E+03  0.62299647093E+03 -0.12710339721E+04  0.14452385327E+04  0.25500000920E-02 0. -1.
       -2    1    3    3    0  502 -0.29165468476E+03 -0.62299647093E+03  0.11164951561E+03  0.69688784770E+03  0.25500000920E-02 0.  1.
</event>
<event>
 5   0  0.1308893E-04  0.1799357E+04  0.7818609E-02  0.8706641E-01
        1   -1    0    0  501    0  0.00000000000E+00  0.00000000000E+00  0.83021412700E+03  0.83021412701E+03  0.50400001928E-02 0. -1.
       -1   -1    0    0    0  501  0.00000000000E+00  0.00000000000E+00 -0.97495525052E+03  0.97495525054E+03  0.50400001928E-02 0.  1.
    10030    2    1    2    0    0  0.00000000000E+00  0.00000000000E+00 -0.14474112353E+03  0.18051693775E+04  0.17993572432E+04 0.  0.
        4    1    3    3  502    0 -0.64197119151E+03  0.61843300960E+03  0.49816158378E+02  0.89278757867E+03  0.12699999809E+01 0. -1.
       -4    1    3    3    0  502  0.64197119151E+03 -0.61843300960E+03 -0.19455728191E+03  0.91238179888E+03  0.12699999809E+01 0.  1.
</event>
<event>
 5   0  0.1253925E-04  0.1756043E+04  0.7818609E-02  0.8730031E-01
        1   -1    0    0  501    0  0.00000000000E+00  0.00000000000E+00  0.85875772916E+03  0.85875772917E+03  0.50400001928E-02 0. -1.
       -1   -1    0    0    0  501  0.00000000000E+00  0.00000000000E+00 -0.89771774789E+03  0.89771774790E+03  0.50400001928E-02 0.  1.
    10030    2    1    2    0    0  0.00000000000E+00  0.00000000000E+00 -0.38960018734E+02  0.17564754771E+04  0.17560433419E+04 0.  0.
        2    1    3    3  502    0  0.29473012300E+03 -0.49921653261E+03  0.64010554498E+03  0.86360760798E+03  0.25500000920E-02 0. -1.
       -2    1    3    3    0  502 -0.29473012300E+03  0.49921653261E+03 -0.67906556372E+03  0.89286786910E+03  0.25500000920E-02 0.  1.
</event>
<event>
 5   0  0.1214723E-04  0.1772351E+04  0.7818609E-02  0.8721142E-01
        1   -1    0    0  501    0  0.00000000000E+00  0.00000000000E+00  0.82884000208E+03  0.82884000209E+03  0.50400001928E-02 0. -1.
       -1   -1    0    0    0  501  0.00000000000E+00  0.00000000000E+00 -0.94747753117E+03  0.94747753118E+03  0.50400001928E-02 0.  1.
    10030    2    1    2    0    0  0.00000000000E+00  0.00000000000E+00 -0.11863752909E+03  0.17763175333E+04  0.17723512958E+04 0.  0.
        1    1    3    3  502    0 -0.44677690243E+03  0.83142655645E+02 -0.82180045697E+03  0.93908375177E+03  0.50400001928E-02 0.  1.
       -1    1    3    3    0  502  0.44677690243E+03 -0.83142655645E+02  0.70316292788E+03  0.83723378151E+03  0.50400001928E-02 0. -1.
</event>
<event>
 5   0  0.1330225E-04  0.1800770E+04  0.7818609E-02  0.8705890E-01
        1   -1    0    0  501    0  0.00000000000E+00  0.00000000000E+00  0.83444536672E+03  0.83444536674E+03  0.50400001928E-02 0.  1.
       -1   -1    0    0    0  501  0.00000000000E+00  0.00000000000E+00 -0.97153527965E+03  0.97153527966E+03  0.50400001928E-02 0. -1.
    10030    2    1    2    0    0  0.00000000000E+00  0.00000000000E+00 -0.13708991292E+03  0.18059806464E+04  0.18007699606E+04 0.  0.
        3    1    3    3  502    0  0.56066292044E+03 -0.42444688846E+02  0.63673145820E+03  0.84945360205E+03  0.10100000352E+00 0.  1.
       -3    1    3    3    0  502 -0.56066292044E+03  0.42444688846E+02 -0.77382137112E+03  0.95652704435E+03  0.10100000352E+00 0. -1.
</event>
<event>
 5   0  0.1308893E-04  0.1881527E+04  0.7818609E-02  0.8664107E-01
        1   -1    0    0  501    0  0.00000000000E+00  0.00000000000E+00  0.83779489102E+03  0.83779489104E+03  0.50400001928E-02 0. -1.
       -1   -1    0    0    0  501  0.00000000000E+00  0.00000000000E+00 -0.10563869584E+04  0.10563869584E+04  0.50400001928E-02 0.  1.
    10030    2    1    2    0    0  0.00000000000E+00  0.00000000000E+00 -0.21859206735E+03  0.18941818494E+04  0.18815266107E+04 0.  0.
        4    1    3    3  502    0  0.20808286287E+03 -0.13567557201E+03 -0.10227731134E+04  0.10525078589E+04  0.12699999809E+01 0.  1.
       -4    1    3    3    0  502 -0.20808286287E+03  0.13567557201E+03  0.80418104603E+03  0.84167399054E+03  0.12699999809E+01 0. -1.
</event>
<event>
 5   0  0.2431811E-04  0.1796662E+04  0.7818609E-02  0.8708077E-01
        2   -1    0    0  501    0  0.00000000000E+00  0.00000000000E+00  0.82765455296E+03  0.82765455297E+03  0.25500000920E-02 0.  1.
       -2   -1    0    0    0  501  0.00000000000E+00  0.00000000000E+00 -0.97504276291E+03  0.97504276292E+03  0.25500000920E-02 0. -1.
    10030    2    1    2    0    0  0.00000000000E+00  0.00000000000E+00 -0.14738820995E+03  0.18026973159E+04  0.17966619961E+04 0.  0.
        3    1    3    3  502    0  0.68089972357E+03 -0.53609480489E+03 -0.31108239645E+03  0.92075748217E+03  0.10100000352E+00 0. -1.
       -3    1    3    3    0  502 -0.68089972357E+03  0.53609480489E+03  0.16369418649E+03  0.88193983371E+03  0.10100000352E+00 0.  1.
</event>
<event>
 5   0  0.1253925E-04  0.1787494E+04  0.7818609E-02  0.8712978E-01
        1   -1    0    0  501    0  0.00000000000E+00  0.00000000000E+00  0.95708912917E+03  0.95708912918E+03  0.50400001928E-02 0.  1.
       -1   -1    0    0    0  501  0.00000000000E+00  0.00000000000E+00 -0.83459733857E+03  0.83459733859E+03  0.50400001928E-02 0. -1.
    10030    2    1    2    0    0  0.00000000000E+00  0.00000000000E+00  0.12249179059E+03  0.17916864678E+04  0.17874943804E+04 0.  0.
        2    1    3    3  502    0 -0.32487789902E+03 -0.48157692322E+03  0.74204572543E+03  0.94238730938E+03  0.25500000920E-02 0.  1.
       -2    1    3    3    0  502  0.32487789902E+03  0.48157692322E+03 -0.61955393484E+03  0.84929915838E+03  0.25500000920E-02 0. -1.
</event>
<event>
 5   0  0.1330225E-04  0.1785765E+04  0.7818609E-02  0.8713906E-01
       -1   -1    0    0    0  501  0.00000000000E+00  0.00000000000E+00  0.32022019337E+03  0.32022019341E+03  0.50400001928E-02 0. -1.
        1   -1    0    0  501    0  0.00000000000E+00  0.00000000000E+00 -0.24896604148E+04  0.24896604148E+04  0.50400001928E-02 0.  1.
    10030    2    1    2    0    0  0.00000000000E+00  0.00000000000E+00 -0.21694402214E+04  0.28098806082E+04  0.17857654264E+04 0.  0.
        3    1    3    3  502    0  0.17239695311E+03  0.80997339443E+03 -0.55939674646E+03  0.99935095901E+03  0.10100000352E+00 0. -1.
       -3    1    3    3    0  502 -0.17239695311E+03 -0.80997339443E+03 -0.16100434749E+04  0.18105296492E+04  0.10100000352E+00 0.  1.
</event>
<event>
 5   0  0.1253925E-04  0.1783614E+04  0.7818609E-02  0.8715062E-01
       -1   -1    0    0    0  501  0.00000000000E+00  0.00000000000E+00  0.13880627229E+04  0.13880627229E+04  0.50400001928E-02 0. -1.
        1   -1    0    0  501    0  0.00000000000E+00  0.00000000000E+00 -0.57297098855E+03  0.57297098858E+03  0.50400001928E-02 0.  1.
    10030    2    1    2    0    0  0.00000000000E+00  0.00000000000E+00  0.81509173436E+03  0.19610337115E+04  0.17836139387E+04 0.  0.
        2    1    3    3  502    0  0.53950083491E+03 -0.22602006991E+03 -0.33259848548E+03  0.67288035743E+03  0.25500000920E-02 0. -1.
       -2    1    3    3    0  502 -0.53950083491E+03  0.22602006991E+03  0.11476902198E+04  0.12881533541E+04  0.25500000920E-02 0.  1.
</event>
<event>
 5   0  0.2550616E-04  0.1773149E+04  0.7818609E-02  0.8720710E-01
       -2   -1    0    0    0  501  0.00000000000E+00  0.00000000000E+00  0.43305579006E+03  0.43305579007E+03  0.25500000920E-02 0. -1.
        2   -1    0    0  501    0  0.00000000000E+00  0.00000000000E+00 -0.18150423981E+04  0.18150423981E+04  0.25500000920E-02 0.  1.
    10030    2    1    2    0    0  0.00000000000E+00  0.00000000000E+00 -0.13819866080E+04  0.22480981881E+04  0.17731493109E+04 0.  0.
        1    1    3    3  502    0 -0.36600728675E+03 -0.17504443095E+03  0.30845432466E+03  0.50965278100E+03  0.50400001928E-02 0. -1.
       -1    1    3    3    0  502  0.36600728675E+03  0.17504443095E+03 -0.16904409327E+04  0.17384454071E+04  0.50400001928E-02 0.  1.
</event>
<event>
 5   0  0.1214723E-04  0.1826269E+04  0.7818609E-02  0.8692453E-01
        1   -1    0    0  501    0  0.00000000000E+00  0.00000000000E+00  0.16257737377E+04  0.16257737377E+04  0.50400001928E-02 0. -1.
       -1   -1    0    0    0  501  0.00000000000E+00  0.00000000000E+00 -0.51287263691E+03  0.51287263693E+03  0.50400001928E-02 0.  1.
    10030    2    1    2    0    0  0.00000000000E+00  0.00000000000E+00  0.11129011008E+04  0.21386463746E+04  0.18262692725E+04 0.  0.
        1    1    3    3  502    0 -0.10704406853E+03  0.20594441357E+03  0.15906533092E+04  0.16074978956E+04  0.50400001928E-02 0. -1.
       -1    1    3    3    0  502  0.10704406853E+03 -0.20594441357E+03 -0.47775220846E+03  0.53114847905E+03  0.50400001928E-02 0.  1.
</event>
<event>
 5   0  0.2569405E-04  0.1803367E+04  0.7818609E-02  0.8704511E-01
        2   -1    0    0  501    0  0.00000000000E+00  0.00000000000E+00  0.14204684810E+04  0.14204684810E+04  0.25500000920E-02 0. -1.
       -2   -1    0    0    0  501  0.00000000000E+00  0.00000000000E+00 -0.57236956600E+03  0.57236956601E+03  0.25500000920E-02 0.  1.
    10030    2    1    2    0    0  0.00000000000E+00  0.00000000000E+00  0.84809891503E+03  0.19928380470E+04  0.18033667714E+04 0.  0.
        2    1    3    3  502    0 -0.40234154706E+02 -0.66528044867E+03  0.10951581410E+04  0.12820250451E+04  0.25500000920E-02 0. -1.
       -2    1    3    3    0  502  0.40234154706E+02  0.66528044867E+03 -0.24705922593E+03  0.71081300193E+03  0.25500000920E-02 0.  1.
</event>
<event>
 5   0  0.1239119E-04  0.1781554E+04  0.7818609E-02  0.8716171E-01
        1   -1    0    0  501    0  0.00000000000E+00  0.00000000000E+00  0.13931914263E+04  0.13931914264E+04  0.50400001928E-02 0.  1.
       -1   -1    0    0    0  501  0.00000000000E+00  0.00000000000E+00 -0.56954385240E+03  0.56954385242E+03  0.50400001928E-02 0. -1.
    10030    2    1    2    0    0  0.00000000000E+00  0.00000000000E+00  0.82364757395E+03  0.19627352788E+04  0.17815539421E+04 0.  0.
        5    1    3    3  502    0 -0.83406706231E+02 -0.72981936426E+03 -0.14327105785E+03  0.74842612802E+03  0.46999998093E+01 0. -1.
       -5    1    3    3    0  502  0.83406706231E+02  0.72981936426E+03  0.96691863180E+03  0.12143091508E+04  0.46999998093E+01 0.  1.
</event>
<event>
 5   0  0.1308893E-04  0.1798973E+04  0.7818609E-02  0.8706846E-01
       -1   -1    0    0    0  501  0.00000000000E+00  0.00000000000E+00  0.98433599285E+03  0.98433599287E+03  0.50400001928E-02 0.  1.
        1   -1    0    0  501    0  0.00000000000E+00  0.00000000000E+00 -0.82195139959E+03  0.82195139961E+03  0.50400001928E-02 0. -1.
    10030    2    1    2    0    0  0.00000000000E+00  0.00000000000E+00  0.16238459326E+03  0.18062873925E+04  0.17989734262E+04 0.  0.
        4    1    3    3  502    0 -0.71830793972E+03  0.25466918293E+03  0.56089199042E+03  0.94626852786E+03  0.12699999809E+01 0.  1.
       -4    1    3    3    0  502  0.71830793972E+03 -0.25466918293E+03 -0.39850739716E+03  0.86001886461E+03  0.12699999809E+01 0. -1.
</event>
<event>
 5   0  0.1330225E-04  0.1788367E+04  0.7818609E-02  0.8712511E-01
        1   -1    0    0  501    0  0.00000000000E+00  0.00000000000E+00  0.12431695700E+04  0.12431695700E+04  0.50400001928E-02 0. -1.
       -1   -1    0    0    0  501  0.00000000000E+00  0.00000000000E+00 -0.64316550801E+03  0.64316550803E+03  0.50400001928E-02 0.  1.
    10030    2    1    2    0    0  0.00000000000E+00  0.00000000000E+00  0.60000406199E+03  0.18863350780E+04  0.17883666157E+04 0.  0.
        3    1    3    3  502    0 -0.31841588576E+03  0.83387258330E+03  0.24387404039E+03  0.92531438942E+03  0.10100000352E+00 0. -1.
       -3    1    3    3    0  502  0.31841588576E+03 -0.83387258330E+03  0.35613002160E+03  0.96102068863E+03  0.10100000352E+00 0.  1.
</event>
<event>
 5   0  0.9144875E-05  0.1802805E+04  0.7818609E-02  0.8704809E-01
        3   -1    0    0  501    0  0.00000000000E+00  0.00000000000E+00  0.93325770728E+03  0.93325771274E+03  0.10100000352E+00 0. -1.
       -3   -1    0    0    0  501  0.00000000000E+00  0.00000000000E+00 -0.87063443395E+03  0.87063443980E+03  0.10100000352E+00 0.  1.
    10030    2    1    2    0    0  0.00000000000E+00  0.00000000000E+00  0.62623273329E+02  0.18038921525E+04  0.18028048213E+04 0.  0.
        5    1    3    3  502    0 -0.10779469376E+03 -0.35893565626E+03 -0.78896918714E+03  0.87346950124E+03  0.46999998093E+01 0.  1.
       -5    1    3    3    0  502  0.10779469376E+03  0.35893565626E+03  0.85159246047E+03  0.93042265131E+03  0.46999998093E+01 0. -1.
</event>
<event>
 5   0  0.2431811E-04  0.1810518E+04  0.7818609E-02  0.8700726E-01
        2   -1    0    0  501    0  0.00000000000E+00  0.00000000000E+00  0.11560431563E+04  0.11560431563E+04  0.25500000920E-02 0.  1.
       -2   -1    0    0    0  501  0.00000000000E+00  0.00000000000E+00 -0.70887826354E+03  0.70887826355E+03  0.25500000920E-02 0. -1.
    10030    2    1    2    0    0  0.00000000000E+00  0.00000000000E+00  0.44716489276E+03  0.18649214199E+04  0.18105180090E+04 0.  0.
        3    1    3    3  502    0  0.67461483897E+03  0.54584118089E+03  0.48909946826E+03  0.99612553213E+03  0.10100000352E+00 0.  1.
       -3    1    3    3    0  502 -0.67461483897E+03 -0.54584118089E+03 -0.41934575495E+02  0.86879588773E+03  0.10100000352E+00 0. -1.
</event>
<event>
 5   0  0.2417106E-04  0.1807408E+04  0.7818609E-02  0.8702370E-01
       -2   -1    0    0    0  501  0.00000000000E+00  0.00000000000E+00  0.35906791883E+03  0.35906791884E+03  0.25500000920E-02 0.  1.
        2   -1    0    0  501    0  0.00000000000E+00  0.00000000000E+00 -0.22744476740E+04  0.22744476740E+04  0.25500000920E-02 0. -1.
    10030    2    1    2    0    0  0.00000000000E+00  0.00000000000E+00 -0.19153797552E+04  0.26335155929E+04  0.18074083023E+04 0.  0.
        4    1    3    3  502    0  0.62233337666E+03 -0.64726565948E+03 -0.80889830043E+03  0.12085403340E+04  0.12699999809E+01 0. -1.
       -4    1    3    3    0  502 -0.62233337666E+03  0.64726565948E+03 -0.11064814548E+04  0.14249752588E+04  0.12699999809E+01 0.  1.
</event>
<event>
 5   0  0.1308893E-04  0.1785316E+04  0.7818609E-02  0.8714147E-01
        1   -1    0    0  501    0  0.00000000000E+00  0.00000000000E+00  0.62110282417E+03  0.62110282419E+03  0.50400001928E-02 0. -1.
       -1   -1    0    0    0  501  0.00000000000E+00  0.00000000000E+00 -0.12829417185E+04  0.12829417186E+04  0.50400001928E-02 0.  1.
    10030    2    1    2    0    0  0.00000000000E+00  0.00000000000E+00 -0.66183889438E+03  0.19040445428E+04  0.17853164702E+04 0.  0.
        4    1    3    3  502    0 -0.27463050625E+03  0.23922309468E+03  0.53825558818E+03  0.64990021934E+03  0.12699999809E+01 0. -1.
       -4    1    3    3    0  502  0.27463050625E+03 -0.23922309468E+03 -0.12000944826E+04  0.12541443234E+04  0.12699999809E+01 0.  1.
</event>
<event>
 5   0  0.1239119E-04  0.1810987E+04  0.7818609E-02  0.8700478E-01
        1   -1    0    0  501    0  0.00000000000E+00  0.00000000000E+00  0.86220395164E+03  0.86220395166E+03  0.50400001928E-02 0.  1.
       -1   -1    0    0    0  501  0.00000000000E+00  0.00000000000E+00 -0.95095664705E+03  0.95095664707E+03  0.50400001928E-02 0. -1.
    10030    2    1    2    0    0  0.00000000000E+00  0.00000000000E+00 -0.88752695409E+02  0.18131605987E+04  0.18109871109E+04 0.  0.
        5    1    3    3  502    0 -0.20079482250E+03 -0.31405244251E+03 -0.87056305667E+03  0.94702144803E+03  0.46999998093E+01 0. -1.
       -5    1    3    3    0  502  0.20079482250E+03  0.31405244251E+03  0.78181036126E+03  0.86613915069E+03  0.46999998093E+01 0.  1.
</event>
<event>
 5   0  0.2431811E-04  0.1801934E+04  0.7818609E-02  0.8705272E-01
       -2   -1    0    0    0  501  0.00000000000E+00  0.00000000000E+00  0.78771855327E+03  0.78771855328E+03  0.25500000920E-02 0.  1.
        2   -1    0    0  501    0  0.00000000000E+00  0.00000000000E+00 -0.10304972650E+04  0.10304972650E+04  0.25500000920E-02 0. -1.
    10030    2    1    2    0    0  0.00000000000E+00  0.00000000000E+00 -0.24277871177E+03  0.18182158183E+04  0.18019343104E+04 0.  0.
        3    1    3    3  502    0 -0.24260229851E+03  0.85867088642E+03 -0.24729758180E+03  0.92591990507E+03  0.10100000352E+00 0.  1.
       -3    1    3    3    0  502  0.24260229851E+03 -0.85867088642E+03  0.45188700303E+01  0.89229591326E+03  0.10100000352E+00 0. -1.
</event>
<event>
 5   0  0.1308893E-04  0.1809875E+04  0.7818609E-02  0.8701065E-01
        1   -1    0    0  501    0  0.00000000000E+00  0.00000000000E+00  0.74018187494E+03  0.74018187496E+03  0.50400001928E-02 0.  1.
       -1   -1    0    0    0  501  0.00000000000E+00  0.00000000000E+00 -0.11063662861E+04  0.11063662861E+04  0.50400001928E-02 0. -1.
    10030    2    1    2    0    0  0.00000000000E+00  0.00000000000E+00 -0.36618441119E+03  0.18465481611E+04  0.18098754345E+04 0.  0.
        4    1    3    3  502    0  0.53811884842E+03  0.19010211289E+03 -0.89960420219E+03  0.10653638073E+04  0.12699999809E+01 0. -1.
       -4    1    3    3    0  502 -0.53811884842E+03 -0.19010211289E+03  0.53341979099E+03  0.78118435383E+03  0.12699999809E+01 0.  1.
</event>
<event>
 5   0  0.2431811E-04  0.1828280E+04  0.7818609E-02  0.8691404E-01
        2   -1    0    0  501    0  0.00000000000E+00  0.00000000000E+00  0.14219577322E+04  0.14219577322E+04  0.25500000920E-02 0. -1.
       -2   -1    0    0    0  501  0.00000000000E+00  0.00000000000E+00 -0.58767692500E+03  0.58767692501E+03  0.25500000920E-02 0.  1.
    10030    2    1    2    0    0  0.00000000000E+00  0.00000000000E+00  0.83428080717E+03  0.20096346572E+04  0.18282797899E+04 0.  0.
        3    1    3    3  502    0  0.25350971159E+03  0.12487495640E+03 -0.53845764954E+03  0.60810984136E+03  0.10100000352E+00 0.  1.
       -3    1    3    3    0  502 -0.25350971159E+03 -0.12487495640E+03  0.13727384567E+04  0.14015248158E+04  0.10100000352E+00 0. -1.
</event>
<event>
 5   0  0.1239119E-04  0.1796645E+04  0.7818609E-02  0.8708086E-01
       -1   -1    0    0    0  501  0.00000000000E+00  0.00000000000E+00  0.10735504490E+04  0.10735504490E+04  0.50400001928E-02 0.  1.
        1   -1    0    0  501    0  0.00000000000E+00  0.00000000000E+00 -0.75169583608E+03  0.75169583610E+03  0.50400001928E-02 0. -1.
    10030    2    1    2    0    0  0.00000000000E+00  0.00000000000E+00  0.32185461290E+03  0.18252462851E+04  0.17966450983E+04 0.  0.
        5    1    3    3  502    0  0.61066341769E+03  0.63147824854E+03 -0.29910689917E+02  0.87897174440E+03  0.46999998093E+01 0.  1.
       -5    1    3    3    0  502 -0.61066341769E+03 -0.63147824854E+03  0.35176530282E+03  0.94627454069E+03  0.46999998093E+01 0. -1.
</event>
<event>
 5   0  0.1253925E-04  0.1792187E+04  0.7818609E-02  0.8710466E-01
       -1   -1    0    0    0  501  0.00000000000E+00  0.00000000000E+00  0.56962811614E+03  0.56962811616E+03  0.50400001928E-02 0. -1.
        1   -1    0    0  501    0  0.00000000000E+00  0.00000000000E+00 -0.14096621612E+04  0.14096621612E+04  0.50400001928E-02 0.  1.
    10030    2    1    2    0    0  0.00000000000E+00  0.00000000000E+00 -0.84003404508E+03  0.19792902774E+04  0.17921865989E+04 0.  0.
        2    1    3    3  502    0 -0.43693830399E+02 -0.71028970655E+03  0.18141208619E+03  0.73439155977E+03  0.25500000920E-02 0. -1.
       -2    1    3    3    0  502  0.43693830399E+02  0.71028970655E+03 -0.10214461313E+04  0.12448987176E+04  0.25500000920E-02 0.  1.
</event>
<event>
 5   0  0.2393421E-04  0.1812744E+04  0.7818609E-02  0.8699552E-01
       -2   -1    0    0    0  501  0.00000000000E+00  0.00000000000E+00  0.12717036894E+04  0.12717036895E+04  0.25500000920E-02 0. -1.
        2   -1    0    0  501    0  0.00000000000E+00  0.00000000000E+00 -0.64599182488E+03  0.64599182489E+03  0.25500000920E-02 0.  1.
    10030    2    1    2    0    0  0.00000000000E+00  0.00000000000E+00  0.62571186457E+03  0.19176955143E+04  0.18127439831E+04 0.  0.
        5    1    3    3  502    0  0.21087842265E+03  0.75561286417E+03 -0.16737267049E+03  0.80215722303E+03  0.46999998093E+01 0.  1.
       -5    1    3    3    0  502 -0.21087842265E+03 -0.75561286417E+03  0.79308453506E+03  0.11155382913E+04  0.46999998093E+01 0. -1.
</event>
<event>
 5   0  0.1214723E-04  0.1798539E+04  0.7818609E-02  0.8707077E-01
       -1   -1    0    0    0  501  0.00000000000E+00  0.00000000000E+00  0.71537279381E+03  0.71537279382E+03  0.50400001928E-02 0.  1.
        1   -1    0    0  501    0  0.00000000000E+00  0.00000000000E+00 -0.11304394266E+04  0.11304394266E+04  0.50400001928E-02 0. -1.
    10030    2    1    2    0    0  0.00000000000E+00  0.00000000000E+00 -0.41506663282E+03  0.18458122205E+04  0.17985389747E+04 0.  0.
        1    1    3    3  502    0 -0.54505281643E+03  0.65587449887E+03  0.85329584924E+02  0.85705021385E+03  0.50400001928E-02 0.  1.
       -1    1    3    3    0  502  0.54505281643E+03 -0.65587449887E+03 -0.50039621774E+03  0.98876200661E+03  0.50400001928E-02 0. -1.
</event>
<event>
 5   0  0.1214723E-04  0.1789524E+04  0.7818609E-02  0.8711891E-01
       -1   -1    0    0    0  501  0.00000000000E+00  0.00000000000E+00  0.47748038756E+03  0.47748038759E+03  0.50400001928E-02 0.  1.
        1   -1    0    0  501    0  0.00000000000E+00  0.00000000000E+00 -0.16767153242E+04  0.16767153242E+04  0.50400001928E-02 0. -1.
    10030    2    1    2    0    0  0.00000000000E+00  0.00000000000E+00 -0.11992349367E+04  0.21541957118E+04  0.17895236046E+04 0.  0.
        1    1    3    3  502    0  0.53609630424E+03 -0.25112376631E+02  0.26221690412E+03  0.59731698763E+03  0.50400001928E-02 0.  1.
       -1    1    3    3    0  502 -0.53609630424E+03  0.25112376631E+02 -0.14614518408E+04  0.15568787242E+04  0.50400001928E-02 0. -1.
</event>
<event>
 5   0  0.2431811E-04  0.1794637E+04  0.7818609E-02  0.8709156E-01
       -2   -1    0    0    0  501  0.00000000000E+00  0.00000000000E+00  0.65431931399E+03  0.65431931400E+03  0.25500000920E-02 0.  1.
        2   -1    0    0  501    0  0.00000000000E+00  0.00000000000E+00 -0.12305626843E+04  0.12305626843E+04  0.25500000920E-02 0. -1.
    10030    2    1    2    0    0  0.00000000000E+00  0.00000000000E+00 -0.57624337030E+03  0.18848819983E+04  0.17946374914E+04 0.  0.
        3    1    3    3  502    0  0.63155520955E+03 -0.22993594066E+03  0.33628916565E+03  0.75154702624E+03  0.10100000352E+00 0.  1.
       -3    1    3    3    0  502 -0.63155520955E+03  0.22993594066E+03 -0.91253253595E+03  0.11333349721E+04  0.10100000352E+00 0. -1.
</event>
<event>
 5   0  0.1308893E-04  0.1870103E+04  0.7818609E-02  0.8669883E-01
        1   -1    0    0  501    0  0.00000000000E+00  0.00000000000E+00  0.81333731061E+03  0.81333731063E+03  0.50400001928E-02 0.  1.
       -1   -1    0    0    0  501  0.00000000000E+00  0.00000000000E+00 -0.10749798302E+04  0.10749798302E+04  0.50400001928E-02 0. -1.
    10030    2    1    2    0    0  0.00000000000E+00  0.00000000000E+00 -0.26164251958E+03  0.18883171408E+04  0.18701028892E+04 0.  0.
        4    1    3    3  502    0 -0.49051799159E+03  0.77390062667E+03 -0.31915737032E+03  0.97025415225E+03  0.12699999809E+01 0.  1.
       -4    1    3    3    0  502  0.49051799159E+03 -0.77390062667E+03  0.57514850739E+02  0.91806298858E+03  0.12699999809E+01 0. -1.
</event>
<event>
 5   0  0.1214723E-04  0.1759068E+04  0.7818609E-02  0.8728375E-01
       -1   -1    0    0    0  501  0.00000000000E+00  0.00000000000E+00  0.46144564849E+03  0.46144564852E+03  0.50400001928E-02 0. -1.
        1   -1    0    0  501    0  0.00000000000E+00  0.00000000000E+00 -0.16764276287E+04  0.16764276287E+04  0.50400001928E-02 0.  1.
    10030    2    1    2    0    0  0.00000000000E+00  0.00000000000E+00 -0.12149819802E+04  0.21378732772E+04  0.17590682014E+04 0.  0.
        1    1    3    3  502    0  0.10374009319E+03  0.54461213129E+03  0.22234601912E+03  0.59732916614E+03  0.50400001928E-02 0. -1.
       -1    1    3    3    0  502 -0.10374009319E+03 -0.54461213129E+03 -0.14373279993E+04  0.15405441111E+04  0.50400001928E-02 0.  1.
</event>
<event>
 5   0  0.2393421E-04  0.1758337E+04  0.7818609E-02  0.8728775E-01
       -2   -1    0    0    0  501  0.00000000000E+00  0.00000000000E+00  0.83567346086E+03  0.83567346086E+03  0.25500000920E-02 0. -1.
        2   -1    0    0  501    0  0.00000000000E+00  0.00000000000E+00 -0.92492694805E+03  0.92492694805E+03  0.25500000920E-02 0.  1.
    10030    2    1    2    0    0  0.00000000000E+00  0.00000000000E+00 -0.89253487189E+02  0.17606004089E+04  0.17583366045E+04 0.  0.
        5    1    3    3  502    0  0.11121554575E+03  0.59476672998E+02 -0.91580924256E+03  0.92446472675E+03  0.46999998093E+01 0.  1.
       -5    1    3    3    0  502 -0.11121554575E+03 -0.59476672998E+02  0.82655575537E+03  0.83613568216E+03  0.46999998093E+01 0. -1.
</event>
<event>
 5   0  0.1239119E-04  0.1752533E+04  0.7818609E-02  0.8731957E-01
        1   -1    0    0  501    0  0.00000000000E+00  0.00000000000E+00  0.13602961098E+04  0.13602961098E+04  0.50400001928E-02 0. -1.
       -1   -1    0    0    0  501  0.00000000000E+00  0.00000000000E+00 -0.56446776094E+03  0.56446776097E+03  0.50400001928E-02 0.  1.
    10030    2    1    2    0    0  0.00000000000E+00  0.00000000000E+00  0.79582834883E+03  0.19247638708E+04  0.17525333655E+04 0.  0.
        5    1    3    3  502    0  0.19571956257E+03 -0.96329696517E+02  0.13299840474E+04  0.13477630407E+04  0.46999998093E+01 0. -1.
       -5    1    3    3    0  502 -0.19571956257E+03  0.96329696517E+02 -0.53415569854E+03  0.57700083006E+03  0.46999998093E+01 0.  1.
</event>
<event>
 5   0  0.2431811E-04  0.1793613E+04  0.7818609E-02  0.8709704E-01
        2   -1    0    0  501    0  0.00000000000E+00  0.00000000000E+00  0.14460250557E+04  0.14460250557E+04  0.25500000920E-02 0. -1.
       -2   -1    0    0    0  501  0.00000000000E+00  0.00000000000E+00 -0.55618787869E+03  0.55618787870E+03  0.25500000920E-02 0.  1.
    10030    2    1    2    0    0  0.00000000000E+00  0.00000000000E+00  0.88983717702E+03  0.20022129344E+04  0.17936126764E+04 0.  0.
        3    1    3    3  502    0  0.46797864461E+03 -0.15096712654E+03  0.12821199649E+04  0.13731812333E+04  0.10100000352E+00 0. -1.
       -3    1    3    3    0  502 -0.46797864461E+03  0.15096712654E+03 -0.39228278784E+03  0.62903170106E+03  0.10100000352E+00 0.  1.
</event>
<event>
 5   0  0.1253925E-04  0.1780304E+04  0.7818609E-02  0.8716844E-01
       -1   -1    0    0    0  501  0.00000000000E+00  0.00000000000E+00  0.11665620544E+04  0.11665620545E+04  0.50400001928E-02 0. -1.
        1   -1    0    0  501    0  0.00000000000E+00  0.00000000000E+00 -0.67923602183E+03  0.67923602184E+03  0.50400001928E-02 0.  1.
    10030    2    1    2    0    0  0.00000000000E+00  0.00000000000E+00  0.48732603262E+03  0.18457980763E+04  0.17803044336E+04 0.  0.
        2    1    3    3  502    0 -0.44122677294E+03  0.72155567695E+03 -0.44122314540E+02  0.84691820074E+03  0.25500000920E-02 0. -1.
       -2    1    3    3    0  502  0.44122677294E+03 -0.72155567695E+03  0.53144834716E+03  0.99887987556E+03  0.25500000920E-02 0.  1.
</event>
<event>
 5   0  0.1308893E-04  0.1791239E+04  0.7818609E-02  0.8710973E-01
       -1   -1    0    0    0  501  0.00000000000E+00  0.00000000000E+00  0.15392439652E+04  0.15392439652E+04  0.50400001928E-02 0. -1.
        1   -1    0    0  501    0  0.00000000000E+00  0.00000000000E+00 -0.52112204044E+03  0.52112204047E+03  0.50400001928E-02 0.  1.
    10030    2    1    2    0    0  0.00000000000E+00  0.00000000000E+00  0.10181219248E+04  0.20603660057E+04  0.17912386284E+04 0.  0.
        4    1    3    3  502    0 -0.61505979545E+02 -0.76337311120E+03 -0.25043536232E+02  0.76625732233E+03  0.12699999809E+01 0.  1.
       -4    1    3    3    0  502  0.61505979545E+02  0.76337311120E+03  0.10431654610E+04  0.12941086834E+04  0.12699999809E+01 0. -1.
</event>
<event>
 5   0  0.1214723E-04  0.1806864E+04  0.7818609E-02  0.8702658E-01
       -1   -1    0    0    0  501  0.00000000000E+00  0.00000000000E+00  0.41760295572E+03  0.41760295575E+03  0.50400001928E-02 0. -1.
        1   -1    0    0  501    0  0.00000000000E+00  0.00000000000E+00 -0.19544626931E+04  0.19544626931E+04  0.50400001928E-02 0.  1.
    10030    2    1    2    0    0  0.00000000000E+00  0.00000000000E+00 -0.15368597373E+04  0.23720656488E+04  0.18068640209E+04 0.  0.
        1    1    3    3  502    0  0.26786854224E+03 -0.15966922075E+03 -0.18815653740E+04  0.19072325691E+04  0.50400001928E-02 0.  1.
       -1    1    3    3    0  502 -0.26786854224E+03  0.15966922075E+03  0.34470563669E+03  0.46483307969E+03  0.50400001928E-02 0. -1.
</event>
<event>
 5   0  0.1308893E-04  0.1803832E+04  0.7818609E-02  0.8704264E-01
       -1   -1    0    0    0  501  0.00000000000E+00  0.00000000000E+00  0.77973682047E+03  0.77973682049E+03  0.50400001928E-02 0. -1.
        1   -1    0    0  501    0  0.00000000000E+00  0.00000000000E+00 -0.10432398761E+04  0.10432398762E+04  0.50400001928E-02 0.  1.
    10030    2    1    2    0    0  0.00000000000E+00  0.00000000000E+00 -0.26350305568E+03  0.18229766966E+04  0.18038320809E+04 0.  0.
        4    1    3    3  502    0 -0.27414977347E+03  0.22140642920E+03 -0.97078702903E+03  0.10327671440E+04  0.12699999809E+01 0.  1.
       -4    1    3    3    0  502  0.27414977347E+03 -0.22140642920E+03  0.70728397335E+03  0.79020955261E+03  0.12699999809E+01 0. -1.
</event>
<event>
 5   0  0.2569405E-04  0.1807590E+04  0.7818609E-02  0.8702273E-01
       -2   -1    0    0    0  501  0.00000000000E+00  0.00000000000E+00  0.64696463491E+03  0.64696463491E+03  0.25500000920E-02 0. -1.
        2   -1    0    0  501    0  0.00000000000E+00  0.00000000000E+00 -0.12625819160E+04  0.12625819160E+04  0.25500000920E-02 0.  1.
    10030    2    1    2    0    0  0.00000000000E+00  0.00000000000E+00 -0.61561728109E+03  0.19095465509E+04  0.18075904938E+04 0.  0.
        2    1    3    3  502    0  0.45921970493E+03  0.25338682288E+03 -0.10853669372E+04  0.12054497118E+04  0.25500000920E-02 0.  1.
       -2    1    3    3    0  502 -0.45921970493E+03 -0.25338682288E+03  0.46974965610E+03  0.70409683909E+03  0.25500000920E-02 0. -1.
</event>
<event>
 5   0  0.2550616E-04  0.1796920E+04  0.7818609E-02  0.8707939E-01
        2   -1    0    0  501    0  0.00000000000E+00  0.00000000000E+00  0.19932413742E+04  0.19932413742E+04  0.25500000920E-02 0.  1.
       -2   -1    0    0    0  501  0.00000000000E+00  0.00000000000E+00 -0.40498394833E+03  0.40498394834E+03  0.25500000920E-02 0. -1.
    10030    2    1    2    0    0  0.00000000000E+00  0.00000000000E+00  0.15882574258E+04  0.23982253225E+04  0.17969204342E+04 0.  0.
        1    1    3    3  502    0  0.61464024905E+03  0.56832779323E+03  0.35867968422E+03  0.91073060353E+03  0.50400001928E-02 0.  1.
       -1    1    3    3    0  502 -0.61464024905E+03 -0.56832779323E+03  0.12295777416E+04  0.14874947190E+04  0.50400001928E-02 0. -1.
</event>
<event>
 5   0  0.2431811E-04  0.1852870E+04  0.7818609E-02  0.8678678E-01
        2   -1    0    0  501    0  0.00000000000E+00  0.00000000000E+00  0.12928710196E+04  0.12928710196E+04  0.25500000920E-02 0. -1.
       -2   -1    0    0    0  501  0.00000000000E+00  0.00000000000E+00 -0.66385756023E+03  0.66385756023E+03  0.25500000920E-02 0.  1.
    10030    2    1    2    0    0  0.00000000000E+00  0.00000000000E+00  0.62901345933E+03  0.19567285798E+04  0.18528704226E+04 0.  0.
        3    1    3    3  502    0 -0.32075874219E+02 -0.36361522780E+03 -0.58471276355E+03  0.68929958774E+03  0.10100000352E+00 0.  1.
       -3    1    3    3    0  502  0.32075874219E+02  0.36361522780E+03  0.12137262229E+04  0.12674289921E+04  0.10100000352E+00 0. -1.
</event>
<event>
 5   0  0.2550616E-04  0.1808906E+04  0.7818609E-02  0.8701578E-01
       -2   -1    0    0    0  501  0.00000000000E+00  0.00000000000E+00  0.60243207698E+03  0.60243207698E+03  0.25500000920E-02 0. -1.
        2   -1    0    0  501    0  0.00000000000E+00  0.00000000000E+00 -0.13578873005E+04  0.13578873005E+04  0.25500000920E-02 0.  1.
    10030    2    1    2    0    0  0.00000000000E+00  0.00000000000E+00 -0.75545522350E+03  0.19603193775E+04  0.18089055992E+04 0.  0.
        1    1    3    3  502    0 -0.81852125886E+03 -0.32620543226E+03 -0.15656733409E+03  0.89493036900E+03  0.50400001928E-02 0. -1.
       -1    1    3    3    0  502  0.81852125886E+03  0.32620543226E+03 -0.59888788941E+03  0.10653890085E+04  0.50400001928E-02 0.  1.
</event>
<event>
 5   0  0.2417106E-04  0.1705956E+04  0.7818609E-02  0.8757975E-01
        2   -1    0    0  501    0  0.00000000000E+00  0.00000000000E+00  0.15297826246E+04  0.15297826246E+04  0.25500000920E-02 0. -1.
       -2   -1    0    0    0  501  0.00000000000E+00  0.00000000000E+00 -0.47560453986E+03  0.47560453986E+03  0.25500000920E-02 0.  1.
    10030    2    1    2    0    0  0.00000000000E+00  0.00000000000E+00  0.10541780847E+04  0.20053871645E+04  0.17059561088E+04 0.  0.
        4    1    3    3  502    0 -0.34480518965E+03  0.59569740458E+03 -0.65149491260E+02  0.69136971712E+03  0.12699999809E+01 0.  1.
       -4    1    3    3    0  502  0.34480518965E+03 -0.59569740458E+03  0.11193275760E+04  0.13140174473E+04  0.12699999809E+01 0. -1.
</event>
<event>
 5   0  0.1330225E-04  0.1794429E+04  0.7818609E-02  0.8709268E-01
        1   -1    0    0  501    0  0.00000000000E+00  0.00000000000E+00  0.25089358171E+04  0.25089358171E+04  0.50400001928E-02 0. -1.
       -1   -1    0    0    0  501  0.00000000000E+00  0.00000000000E+00 -0.32085073191E+03  0.32085073195E+03  0.50400001928E-02 0.  1.
    10030    2    1    2    0    0  0.00000000000E+00  0.00000000000E+00  0.21880850852E+04  0.28297865491E+04  0.17944290382E+04 0.  0.
        3    1    3    3  502    0  0.68940271428E+03 -0.41439417310E+03  0.17208720099E+04  0.18995786685E+04  0.10100000352E+00 0. -1.
       -3    1    3    3    0  502 -0.68940271428E+03  0.41439417310E+03  0.46721307534E+03  0.93020788060E+03  0.10100000352E+00 0.  1.
</event>
<event>
 5   0  0.1214723E-04  0.1790936E+04  0.7818609E-02  0.8711134E-01
        1   -1    0    0  501    0  0.00000000000E+00  0.00000000000E+00  0.55577024020E+03  0.55577024022E+03  0.50400001928E-02 0.  1.
       -1   -1    0    0    0  501  0.00000000000E+00  0.00000000000E+00 -0.14427959165E+04  0.14427959165E+04  0.50400001928E-02 0. -1.
    10030    2    1    2    0    0  0.00000000000E+00  0.00000000000E+00 -0.88702567634E+03  0.19985661568E+04  0.17909361051E+04 0.  0.
        1    1    3    3  502    0 -0.32707669152E+03 -0.57049040460E+03  0.23475515689E+03  0.69824669536E+03  0.50400001928E-02 0.  1.
       -1    1    3    3    0  502  0.32707669152E+03  0.57049040460E+03 -0.11217808332E+04  0.13003194614E+04  0.50400001928E-02 0. -1.
</event>
<event>
 5   0  0.1239119E-04  0.1796187E+04  0.7818609E-02  0.8708330E-01
        1   -1    0    0  501    0  0.00000000000E+00  0.00000000000E+00  0.82719367732E+03  0.82719367734E+03  0.50400001928E-02 0.  1.
       -1   -1    0    0    0  501  0.00000000000E+00  0.00000000000E+00 -0.97506985942E+03  0.97506985943E+03  0.50400001928E-02 0. -1.
    10030    2    1    2    0    0  0.00000000000E+00  0.00000000000E+00 -0.14787618210E+03  0.18022635368E+04  0.17961866525E+04 0.  0.
        5    1    3    3  502    0  0.86319213595E+03  0.35824289424E+02 -0.32005449350E+03  0.92132568187E+03  0.46999998093E+01 0. -1.
       -5    1    3    3    0  502 -0.86319213595E+03 -0.35824289424E+02  0.17217831140E+03  0.88093785490E+03  0.46999998093E+01 0.  1.
</event>
<event>
 5   0  0.1214723E-04  0.1795955E+04  0.7818609E-02  0.8708454E-01
       -1   -1    0    0    0  501  0.00000000000E+00  0.00000000000E+00  0.87126376268E+03  0.87126376270E+03  0.50400001928E-02 0. -1.
        1   -1    0    0  501    0  0.00000000000E+00  0.00000000000E+00 -0.92551029937E+03  0.92551029939E+03  0.50400001928E-02 0.  1.
    10030    2    1    2    0    0  0.00000000000E+00  0.00000000000E+00 -0.54246536690E+02  0.17967740621E+04  0.17959549948E+04 0.  0.
        1    1    3    3  502    0 -0.11725249504E+03 -0.98880551730E+02  0.85806161818E+03  0.87166234961E+03  0.50400001928E-02 0. -1.
       -1    1    3    3    0  502  0.11725249504E+03  0.98880551730E+02 -0.91230815487E+03  0.92511171248E+03  0.50400001928E-02 0.  1.
</event>
<event>
 5   0  0.1308893E-04  0.1809918E+04  0.7818609E-02  0.8701043E-01
        1   -1    0    0  501    0  0.00000000000E+00  0.00000000000E+00  0.13847574197E+04  0.13847574197E+04  0.50400001928E-02 0. -1.
       -1   -1    0    0    0  501  0.00000000000E+00  0.00000000000E+00 -0.59140351259E+03  0.59140351261E+03  0.50400001928E-02 0.  1.
    10030    2    1    2    0    0  0.00000000000E+00  0.00000000000E+00  0.79335390708E+03  0.19761609323E+04  0.18099175695E+04 0.  0.
        4    1    3    3  502    0  0.16664717187E+03 -0.55749534673E+03  0.11534303285E+04  0.12918883377E+04  0.12699999809E+01 0. -1.
       -4    1    3    3    0  502 -0.16664717187E+03  0.55749534673E+03 -0.36007642142E+03  0.68427259457E+03  0.12699999809E+01 0.  1.
</event>
<event>
 5   0  0.1330225E-04  0.1780740E+04  0.7818609E-02  0.8716609E-01
        1   -1    0    0  501    0  0.00000000000E+00  0.00000000000E+00  0.12140495329E+04  0.12140495330E+04  0.50400001928E-02 0. -1.
       -1   -1    0    0    0  501  0.00000000000E+00  0.00000000000E+00 -0.65298710564E+03  0.65298710566E+03  0.50400001928E-02 0.  1.
    10030    2    1    2    0    0  0.00000000000E+00  0.00000000000E+00  0.56106242731E+03  0.18670366386E+04  0.17807399481E+04 0.  0.
        3    1    3    3  502    0  0.80282990514E+03  0.26907533288E+03 -0.81695422838E+01  0.84676097157E+03  0.10100000352E+00 0.  1.
       -3    1    3    3    0  502 -0.80282990514E+03 -0.26907533288E+03  0.56923196959E+03  0.10202756670E+04  0.10100000352E+00 0. -1.
</event>
<event>
 5   0  0.2417106E-04  0.1794131E+04  0.7818609E-02  0.8709427E-01
        2   -1    0    0  501    0  0.00000000000E+00  0.00000000000E+00  0.68021258721E+03  0.68021258722E+03  0.25500000920E-02 0.  1.
       -2   -1    0    0    0  501  0.00000000000E+00  0.00000000000E+00 -0.11830516624E+04  0.11830516624E+04  0.25500000920E-02 0. -1.
    10030    2    1    2    0    0  0.00000000000E+00  0.00000000000E+00 -0.50283907523E+03  0.18632642497E+04  0.17941311347E+04 0.  0.
        4    1    3    3  502    0 -0.16873163052E+03  0.78454658923E+03  0.16495485667E+03  0.81926517773E+03  0.12699999809E+01 0. -1.
       -4    1    3    3    0  502  0.16873163052E+03 -0.78454658923E+03 -0.66779393190E+03  0.10439990719E+04  0.12699999809E+01 0.  1.
</event>
<event>
 5   0  0.1253925E-04  0.1767260E+04  0.7818609E-02  0.8723907E-01
       -1   -1    0    0    0  501  0.00000000000E+00  0.00000000000E+00  0.13101041593E+04  0.13101041593E+04  0.50400001928E-02 0. -1.
        1   -1    0    0  501    0  0.00000000000E+00  0.00000000000E+00 -0.59598452467E+03  0.59598452469E+03  0.50400001928E-02 0.  1.
    10030    2    1    2    0    0  0.00000000000E+00  0.00000000000E+00  0.71411963459E+03  0.19060886840E+04  0.17672598051E+04 0.  0.
        2    1    3    3  502    0  0.40902828464E+03 -0.29604644366E+03  0.11391833700E+04  0.12460683709E+04  0.25500000920E-02 0. -1.
       -2    1    3    3    0  502 -0.40902828464E+03  0.29604644366E+03 -0.42506373544E+03  0.66002031304E+03  0.25500000920E-02 0.  1.
</event>
<event>
 5   0  0.1330225E-04  0.1806880E+04  0.7818609E-02  0.8702649E-01
       -1   -1    0    0    0  501  0.00000000000E+00  0.00000000000E+00  0.11809272536E+04  0.11809272536E+04  0.50400001928E-02 0. -1.
        1   -1    0    0  501    0  0.00000000000E+00  0.00000000000E+00 -0.69115496574E+03  0.69115496576E+03  0.50400001928E-02 0.  1.
    10030    2    1    2    0    0  0.00000000000E+00  0.00000000000E+00  0.48977228782E+03  0.18720822193E+04  0.18068798914E+04 0.  0.
        3    1    3    3  502    0  0.55967537341E+03 -0.52764651626E+03  0.73585993496E+03  0.10644891844E+04  0.10100000352E+00 0. -1.
       -3    1    3    3    0  502 -0.55967537341E+03  0.52764651626E+03 -0.24608764714E+03  0.80759303489E+03  0.10100000352E+00 0.  1.
</event>
<event>
 5   0  0.2393421E-04  0.1808327E+04  0.7818609E-02  0.8701884E-01
       -2   -1    0    0    0  501  0.00000000000E+00  0.00000000000E+00  0.48911460992E+03  0.48911460992E+03  0.25500000920E-02 0. -1.
        2   -1    0    0  501    0  0.00000000000E+00  0.00000000000E+00 -0.16714110707E+04  0.16714110707E+04  0.25500000920E-02 0.  1.
    10030    2    1    2    0    0  0.00000000000E+00  0.00000000000E+00 -0.11822964608E+04  0.21605256807E+04  0.18083269327E+04 0.  0.
        5    1    3    3  502    0  0.59908581044E+03 -0.16655069604E+03  0.19308237606E+03  0.65111123209E+03  0.46999998093E+01 0. -1.
       -5    1    3    3    0  502 -0.59908581044E+03  0.16655069604E+03 -0.13753788369E+04  0.15094144486E+04  0.46999998093E+01 0.  1.
</event>
<event>
 5   0  0.1253925E-04  0.1789145E+04  0.7818609E-02  0.8712094E-01
       -1   -1    0    0    0  501  0.00000000000E+00  0.00000000000E+00  0.47776472854E+03  0.47776472856E+03  0.50400001928E-02 0. -1.
        1   -1    0    0  501    0  0.00000000000E+00  0.00000000000E+00 -0.16750080111E+04  0.16750080111E+04  0.50400001928E-02 0.  1.
    10030    2    1    2    0    0  0.00000000000E+00  0.00000000000E+00 -0.11972432826E+04  0.21527727397E+04  0.17891447653E+04 0.  0.
        2    1    3    3  502    0 -0.97654755769E+01  0.57374932812E+03 -0.14243783943E+04  0.15356228268E+04  0.25500000920E-02 0.  1.
       -2    1    3    3    0  502  0.97654755769E+01 -0.57374932812E+03  0.22713511170E+03  0.61714991291E+03  0.25500000920E-02 0. -1.
</event>
<event>
 5   0  0.1239119E-04  0.1811942E+04  0.7818609E-02  0.8699974E-01
        1   -1    0    0  501    0  0.00000000000E+00  0.00000000000E+00  0.21857443617E+04  0.21857443617E+04  0.50400001928E-02 0. -1.
       -1   -1    0    0    0  501  0.00000000000E+00  0.00000000000E+00 -0.37551675407E+03  0.37551675410E+03  0.50400001928E-02 0.  1.
    10030    2    1    2    0    0  0.00000000000E+00  0.00000000000E+00  0.18102276077E+04  0.25612611158E+04  0.18119421933E+04 0.  0.
        5    1    3    3  502    0  0.18085374823E+03  0.17454318522E+03  0.21354565145E+04  0.21502023200E+04  0.46999998093E+01 0. -1.
       -5    1    3    3    0  502 -0.18085374823E+03 -0.17454318522E+03 -0.32522890685E+03  0.41105879580E+03  0.46999998093E+01 0.  1.
</event>
<event>
 5   0  0.1239119E-04  0.1806753E+04  0.7818609E-02  0.8702716E-01
        1   -1    0    0  501    0  0.00000000000E+00  0.00000000000E+00  0.92700819511E+03  0.92700819512E+03  0.50400001928E-02 0.  1.
       -1   -1    0    0    0  501  0.00000000000E+00  0.00000000000E+00 -0.88034759741E+03  0.88034759742E+03  0.50400001928E-02 0. -1.
    10030    2    1    2    0    0  0.00000000000E+00  0.00000000000E+00  0.46660597702E+02  0.18073557925E+04  0.18067533726E+04 0.  0.
        5    1    3    3  502    0 -0.67747682940E+03  0.36579497877E+03  0.49601989122E+03  0.91588134785E+03  0.46999998093E+01 0.  1.
       -5    1    3    3    0  502  0.67747682940E+03 -0.36579497877E+03 -0.44935929351E+03  0.89147444469E+03  0.46999998093E+01 0. -1.
</event>
<event>
 5   0  0.2569405E-04  0.1806480E+04  0.7818609E-02  0.8702861E-01
        2   -1    0    0  501    0  0.00000000000E+00  0.00000000000E+00  0.53080067223E+03  0.53080067223E+03  0.25500000920E-02 0. -1.
       -2   -1    0    0    0  501  0.00000000000E+00  0.00000000000E+00 -0.15370031713E+04  0.15370031713E+04  0.25500000920E-02 0.  1.
    10030    2    1    2    0    0  0.00000000000E+00  0.00000000000E+00 -0.10062024991E+04  0.20678038435E+04  0.18064797995E+04 0.  0.
        2    1    3    3  502    0 -0.39843037003E+03  0.45272308784E+03  0.26658092207E+03  0.65937117168E+03  0.25500000920E-02 0. -1.
       -2    1    3    3    0  502  0.39843037003E+03 -0.45272308784E+03 -0.12727834211E+04  0.14084326718E+04  0.25500000920E-02 0.  1.
</event>
<event>
 5   0  0.2569405E-04  0.1758019E+04  0.7818609E-02  0.8728949E-01
       -2   -1    0    0    0  501  0.00000000000E+00  0.00000000000E+00  0.89353227521E+03  0.89353227521E+03  0.25500000920E-02 0. -1.
        2   -1    0    0  501    0  0.00000000000E+00  0.00000000000E+00 -0.86472261024E+03  0.86472261024E+03  0.25500000920E-02 0.  1.
    10030    2    1    2    0    0  0.00000000000E+00  0.00000000000E+00  0.28809664971E+02  0.17582548855E+04  0.17580188410E+04 0.  0.
        2    1    3    3  502    0 -0.63491193573E+03 -0.18757242559E+03  0.59272202390E+03  0.88860338655E+03  0.25500000920E-02 0. -1.
       -2    1    3    3    0  502  0.63491193573E+03  0.18757242559E+03 -0.56391235893E+03  0.86965149890E+03  0.25500000920E-02 0.  1.
</event>
<event>
 5   0  0.2431811E-04  0.1765324E+04  0.7818609E-02  0.8724960E-01
        2   -1    0    0  501    0  0.00000000000E+00  0.00000000000E+00  0.18740587612E+04  0.18740587612E+04  0.25500000920E-02 0.  1.
       -2   -1    0    0    0  501  0.00000000000E+00  0.00000000000E+00 -0.41572465587E+03  0.41572465588E+03  0.25500000920E-02 0. -1.
    10030    2    1    2    0    0  0.00000000000E+00  0.00000000000E+00  0.14583341053E+04  0.22897834170E+04  0.17653242576E+04 0.  0.
        3    1    3    3  502    0  0.23428342465E+03 -0.81257853881E+02  0.18279486890E+04  0.18446918393E+04  0.10100000352E+00 0.  1.
       -3    1    3    3    0  502 -0.23428342465E+03  0.81257853881E+02 -0.36961458375E+03  0.44509157777E+03  0.10100000352E+00 0. -1.
</event>
<event>
 5   0  0.2417106E-04  0.1804350E+04  0.7818609E-02  0.8703989E-01
        2   -1    0    0  501    0  0.00000000000E+00  0.00000000000E+00  0.12422154187E+04  0.12422154187E+04  0.25500000920E-02 0.  1.
       -2   -1    0    0    0  501  0.00000000000E+00  0.00000000000E+00 -0.65521645870E+03  0.65521645870E+03  0.25500000920E-02 0. -1.
    10030    2    1    2    0    0  0.00000000000E+00  0.00000000000E+00  0.58699896003E+03  0.18974318774E+04  0.18043502848E+04 0.  0.
        4    1    3    3  502    0  0.84363958570E+03 -0.30582032624E+03  0.39138498850E+03  0.97899828633E+03  0.12699999809E+01 0. -1.
       -4    1    3    3    0  502 -0.84363958570E+03  0.30582032624E+03  0.19561397153E+03  0.91843359110E+03  0.12699999809E+01 0.  1.
</event>
<event>
 5   0  0.1214723E-04  0.1850790E+04  0.7818609E-02  0.8679747E-01
       -1   -1    0    0    0  501  0.00000000000E+00  0.00000000000E+00  0.53480013448E+03  0.53480013451E+03  0.50400001928E-02 0. -1.
        1   -1    0    0  501    0  0.00000000000E+00  0.00000000000E+00 -0.16012633795E+04  0.16012633795E+04  0.50400001928E-02 0.  1.
    10030    2    1    2    0    0  0.00000000000E+00  0.00000000000E+00 -0.10664632450E+04  0.21360635140E+04  0.18507899618E+04 0.  0.
        1    1    3    3  502    0 -0.54022500806E+03 -0.61206557692E+03 -0.30302939171E+02  0.81693671600E+03  0.50400001928E-02 0. -1.
       -1    1    3    3    0  502  0.54022500806E+03  0.61206557692E+03 -0.10361603058E+04  0.13191267980E+04  0.50400001928E-02 0.  1.
</event>
<event>
 5   0  0.2417106E-04  0.1804884E+04  0.7818609E-02  0.8703706E-01
        2   -1    0    0  501    0  0.00000000000E+00  0.00000000000E+00  0.17613161306E+04  0.17613161306E+04  0.25500000920E-02 0.  1.
       -2   -1    0    0    0  501  0.00000000000E+00  0.00000000000E+00 -0.46238260564E+03  0.46238260565E+03  0.25500000920E-02 0. -1.
    10030    2    1    2    0    0  0.00000000000E+00  0.00000000000E+00  0.12989335250E+04  0.22236987363E+04  0.18048844194E+04 0.  0.
        4    1    3    3  502    0 -0.64115978305E+03  0.89418965546E+01 -0.13289100142E+03  0.65484918574E+03  0.12699999809E+01 0. -1.
       -4    1    3    3    0  502  0.64115978305E+03 -0.89418965546E+01  0.14318245264E+04  0.15688495506E+04  0.12699999809E+01 0.  1.
</event>
<event>
 5   0  0.1308893E-04  0.1791576E+04  0.7818609E-02  0.8710792E-01
       -1   -1    0    0    0  501  0.00000000000E+00  0.00000000000E+00  0.95430356373E+03  0.95430356374E+03  0.50400001928E-02 0. -1.
        1   -1    0    0  501    0  0.00000000000E+00  0.00000000000E+00 -0.84086050468E+03  0.84086050470E+03  0.50400001928E-02 0.  1.
    10030    2    1    2    0    0  0.00000000000E+00  0.00000000000E+00  0.11344305905E+03  0.17951640684E+04  0.17915760394E+04 0.  0.
        4    1    3    3  502    0  0.91402531957E+02 -0.16825934306E+03  0.93355632024E+03  0.95299246867E+03  0.12699999809E+01 0. -1.
       -4    1    3    3    0  502 -0.91402531957E+02  0.16825934306E+03 -0.82011326119E+03  0.84217159977E+03  0.12699999809E+01 0.  1.
</event>
<event>
 5   0  0.2550616E-04  0.1799412E+04  0.7818609E-02  0.8706612E-01
       -2   -1    0    0    0  501  0.00000000000E+00  0.00000000000E+00  0.13156929988E+04  0.13156929988E+04  0.25500000920E-02 0. -1.
        2   -1    0    0  501    0  0.00000000000E+00  0.00000000000E+00 -0.61524290281E+03  0.61524290281E+03  0.25500000920E-02 0.  1.
    10030    2    1    2    0    0  0.00000000000E+00  0.00000000000E+00  0.70045009599E+03  0.19309359016E+04  0.17994118815E+04 0.  0.
        1    1    3    3  502    0  0.26869898927E+03  0.85757544122E+03  0.39620548402E+03  0.98214742774E+03  0.50400001928E-02 0. -1.
       -1    1    3    3    0  502 -0.26869898927E+03 -0.85757544122E+03  0.30424461198E+03  0.94878847388E+03  0.50400001928E-02 0.  1.
</event>
<event>
 5   0  0.1330225E-04  0.1867288E+04  0.7818609E-02  0.8671313E-01
       -1   -1    0    0    0  501  0.00000000000E+00  0.00000000000E+00  0.96595915834E+03  0.96595915836E+03  0.50400001928E-02 0. -1.
        1   -1    0    0  501    0  0.00000000000E+00  0.00000000000E+00 -0.90241007093E+03  0.90241007094E+03  0.50400001928E-02 0.  1.
    10030    2    1    2    0    0  0.00000000000E+00  0.00000000000E+00  0.63549087413E+02  0.18683692293E+04  0.18672881648E+04 0.  0.
        3    1    3    3  502    0  0.48079418452E+03  0.78871330089E+03  0.16771910598E+03  0.93880851486E+03  0.10100000352E+00 0. -1.
       -3    1    3    3    0  502 -0.48079418452E+03 -0.78871330089E+03 -0.10417001857E+03  0.92956071444E+03  0.10100000352E+00 0.  1.
</event>
<event>
 5   0  0.2431811E-04  0.1800346E+04  0.7818609E-02  0.8706116E-01
        2   -1    0    0  501    0  0.00000000000E+00  0.00000000000E+00  0.10293618964E+04  0.10293618964E+04  0.25500000920E-02 0. -1.
       -2   -1    0    0    0  501  0.00000000000E+00  0.00000000000E+00 -0.78719771105E+03  0.78719771105E+03  0.25500000920E-02 0.  1.
    10030    2    1    2    0    0  0.00000000000E+00  0.00000000000E+00  0.24216418533E+03  0.18165596074E+04  0.18003458875E+04 0.  0.
        3    1    3    3  502    0  0.16286912749E+03  0.54468273970E+03  0.82529713652E+03  0.10021581778E+04  0.10100000352E+00 0. -1.
       -3    1    3    3    0  502 -0.16286912749E+03 -0.54468273970E+03 -0.58313295118E+03  0.81440142962E+03  0.10100000352E+00 0.  1.
</event>
<event>
 5   0  0.1239119E-04  0.1784626E+04  0.7818609E-02  0.8714518E-01
       -1   -1    0    0    0  501  0.00000000000E+00  0.00000000000E+00  0.35982997280E+03  0.35982997284E+03  0.50400001928E-02 0. -1.
        1   -1    0    0  501    0  0.00000000000E+00  0.00000000000E+00 -0.22127734183E+04  0.22127734183E+04  0.50400001928E-02 0.  1.
    10030    2    1    2    0    0  0.00000000000E+00  0.00000000000E+00 -0.18529434455E+04  0.25726033911E+04  0.17846256739E+04 0.  0.
        5    1    3    3  502    0  0.65401947245E+02  0.85781184512E+03 -0.58509363746E+03  0.10404206990E+04  0.46999998093E+01 0.  1.
       -5    1    3    3    0  502 -0.65401947245E+02 -0.85781184512E+03 -0.12678498080E+04  0.15321826921E+04  0.46999998093E+01 0. -1.
</event>
<event>
 5   0  0.2550616E-04  0.1751602E+04  0.7818609E-02  0.8732469E-01
        2   -1    0    0  501    0  0.00000000000E+00  0.00000000000E+00  0.55189494566E+03  0.55189494567E+03  0.25500000920E-02 0. -1.
       -2   -1    0    0    0  501  0.00000000000E+00  0.00000000000E+00 -0.13898072132E+04  0.13898072132E+04  0.25500000920E-02 0.  1.
    10030    2    1    2    0    0  0.00000000000E+00  0.00000000000E+00 -0.83791226757E+03  0.19417021589E+04  0.17516022110E+04 0.  0.
        1    1    3    3  502    0 -0.85995631568E+03  0.10815055439E+03 -0.55832329084E+03  0.10309928731E+04  0.50400001928E-02 0.  1.
       -1    1    3    3    0  502  0.85995631568E+03 -0.10815055439E+03 -0.27958897673E+03  0.91070928579E+03  0.50400001928E-02 0. -1.
</event>
<event>
 5   0  0.2431811E-04  0.1812985E+04  0.7818609E-02  0.8699424E-01
       -2   -1    0    0    0  501  0.00000000000E+00  0.00000000000E+00  0.73468429781E+03  0.73468429781E+03  0.25500000920E-02 0.  1.
        2   -1    0    0  501    0  0.00000000000E+00  0.00000000000E+00 -0.11184787216E+04  0.11184787216E+04  0.25500000920E-02 0. -1.
    10030    2    1    2    0    0  0.00000000000E+00  0.00000000000E+00 -0.38379442378E+03  0.18531630194E+04  0.18129851121E+04 0.  0.
        3    1    3    3  502    0  0.71555775363E+03  0.15217235091E+03  0.35526885316E+03  0.81326212957E+03  0.10100000352E+00 0.  1.
       -3    1    3    3    0  502 -0.71555775363E+03 -0.15217235091E+03 -0.73906327694E+03  0.10399008898E+04  0.10100000352E+00 0. -1.
</event>
<event>
 5   0  0.1239119E-04  0.1813894E+04  0.7818609E-02  0.8698946E-01
       -1   -1    0    0    0  501  0.00000000000E+00  0.00000000000E+00  0.71427016952E+03  0.71427016954E+03  0.50400001928E-02 0. -1.
        1   -1    0    0  501    0  0.00000000000E+00  0.00000000000E+00 -0.11515990191E+04  0.11515990191E+04  0.50400001928E-02 0.  1.
    10030    2    1    2    0    0  0.00000000000E+00  0.00000000000E+00 -0.43732884960E+03  0.18658691887E+04  0.18138939623E+04 0.  0.
        5    1    3    3  502    0 -0.15696104137E+03  0.87347690181E+02  0.69577616080E+03  0.71860485903E+03  0.46999998093E+01 0. -1.
       -5    1    3    3    0  502  0.15696104137E+03 -0.87347690181E+02 -0.11331050104E+04  0.11472643296E+04  0.46999998093E+01 0.  1.
</event>
<event>
 5   0  0.1308893E-04  0.1940900E+04  0.7818609E-02  0.8634762E-01
        1   -1    0    0  501    0  0.00000000000E+00  0.00000000000E+00  0.14612356341E+04  0.14612356341E+04  0.50400001928E-02 0. -1.
       -1   -1    0    0    0  501  0.00000000000E+00  0.00000000000E+00 -0.64450452882E+03  0.64450452884E+03  0.50400001928E-02 0.  1.
    10030    2    1    2    0    0  0.00000000000E+00  0.00000000000E+00  0.81673110523E+03  0.21057401629E+04  0.19408997747E+04 0.  0.
        4    1    3    3  502    0 -0.38484279547E+03  0.69456336062E+03  0.10136447461E+04  0.12876333031E+04  0.12699999809E+01 0. -1.
       -4    1    3    3    0  502  0.38484279547E+03 -0.69456336062E+03 -0.19691364088E+03  0.81810685977E+03  0.12699999809E+01 0.  1.
</event>
<event>
 5   0  0.1253925E-04  0.1793437E+04  0.7818609E-02  0.8709797E-01
        1   -1    0    0  501    0  0.00000000000E+00  0.00000000000E+00  0.99765413677E+03  0.99765413678E+03  0.50400001928E-02 0. -1.
       -1   -1    0    0    0  501  0.00000000000E+00  0.00000000000E+00 -0.80599513728E+03  0.80599513729E+03  0.50400001928E-02 0.  1.
    10030    2    1    2    0    0  0.00000000000E+00  0.00000000000E+00  0.19165899949E+03  0.18036492741E+04  0.17934373509E+04 0.  0.
        2    1    3    3  502    0  0.27393525896E+03 -0.84709849980E+03  0.20362183394E+03  0.91327884336E+03  0.25500000920E-02 0. -1.
       -2    1    3    3    0  502 -0.27393525896E+03  0.84709849980E+03 -0.11962834449E+02  0.89037043071E+03  0.25500000920E-02 0.  1.
</event>
<event>
 5   0  0.2417106E-04  0.1780221E+04  0.7818609E-02  0.8716889E-01
       -2   -1    0    0    0  501  0.00000000000E+00  0.00000000000E+00  0.26493986139E+03  0.26493986141E+03  0.25500000920E-02 0. -1.
        2   -1    0    0  501    0  0.00000000000E+00  0.00000000000E+00 -0.29904786907E+04  0.29904786907E+04  0.25500000920E-02 0.  1.
    10030    2    1    2    0    0  0.00000000000E+00  0.00000000000E+00 -0.27255388293E+04  0.32554185521E+04  0.17802213456E+04 0.  0.
        4    1    3    3  502    0  0.63579424901E+03 -0.36485446258E+03 -0.43944616348E+03  0.85467400185E+03  0.12699999809E+01 0. -1.
       -4    1    3    3    0  502 -0.63579424901E+03  0.36485446258E+03 -0.22860926658E+04  0.24007445502E+04  0.12699999809E+01 0.  1.
</event>
<event>
 5   0  0.2550616E-04  0.1815096E+04  0.7818609E-02  0.8698313E-01
        2   -1    0    0  501    0  0.00000000000E+00  0.00000000000E+00  0.16648525421E+04  0.16648525421E+04  0.25500000920E-02 0.  1.
       -2   -1    0    0    0  501  0.00000000000E+00  0.00000000000E+00 -0.49472428507E+03  0.49472428508E+03  0.25500000920E-02 0. -1.
    10030    2    1    2    0    0  0.00000000000E+00  0.00000000000E+00  0.11701282570E+04  0.21595768272E+04  0.18150955718E+04 0.  0.
        1    1    3    3  502    0 -0.83928826054E+03 -0.22689005888E+03  0.27535573343E+03  0.91197843343E+03  0.50400001928E-02 0. -1.
       -1    1    3    3    0  502  0.83928826054E+03  0.22689005888E+03  0.89477252362E+03  0.12475983938E+04  0.50400001928E-02 0.  1.
</event>
<event>
 5   0  0.1214723E-04  0.1703770E+04  0.7818609E-02  0.8759217E-01
       -1   -1    0    0    0  501  0.00000000000E+00  0.00000000000E+00  0.12465729500E+04  0.12465729500E+04  0.50400001928E-02 0. -1.
        1   -1    0    0  501    0  0.00000000000E+00  0.00000000000E+00 -0.58216218389E+03  0.58216218391E+03  0.50400001928E-02 0.  1.
    10030    2    1    2    0    0  0.00000000000E+00  0.00000000000E+00  0.66441076608E+03  0.18287351339E+04  0.17037695043E+04 0.  0.
        1    1    3    3  502    0  0.35127859709E+03  0.17128172622E+03  0.11446752348E+04  0.12095517665E+04  0.50400001928E-02 0. -1.
       -1    1    3    3    0  502 -0.35127859709E+03 -0.17128172622E+03 -0.48026446876E+03  0.61918336741E+03  0.50400001928E-02 0.  1.
</event>
<event>
 5   0  0.2393421E-04  0.1799558E+04  0.7818609E-02  0.8706535E-01
        2   -1    0    0  501    0  0.00000000000E+00  0.00000000000E+00  0.15497885592E+04  0.15497885592E+04  0.25500000920E-02 0. -1.
       -2   -1    0    0    0  501  0.00000000000E+00  0.00000000000E+00 -0.52239500871E+03  0.52239500872E+03  0.25500000920E-02 0.  1.
    10030    2    1    2    0    0  0.00000000000E+00  0.00000000000E+00  0.10273935505E+04  0.20721835679E+04  0.17995575100E+04 0.  0.
        5    1    3    3  502    0 -0.42817710352E+03 -0.33278079398E+03 -0.31305904977E+03  0.62618427596E+03  0.46999998093E+01 0.  1.
       -5    1    3    3    0  502  0.42817710352E+03  0.33278079398E+03  0.13404526003E+04  0.14459992920E+04  0.46999998093E+01 0. -1.
</event>
<event>
 5   0  0.1308893E-04  0.1774981E+04  0.7818609E-02  0.8719718E-01
        1   -1    0    0  501    0  0.00000000000E+00  0.00000000000E+00  0.86444280947E+03  0.86444280948E+03  0.50400001928E-02 0. -1.
       -1   -1    0    0    0  501  0.00000000000E+00  0.00000000000E+00 -0.91115319659E+03  0.91115319661E+03  0.50400001928E-02 0.  1.
    10030    2    1    2    0    0  0.00000000000E+00  0.00000000000E+00 -0.46710387125E+02  0.17755960061E+04  0.17749814975E+04 0.  0.
        4    1    3    3  502    0  0.67518969671E+02 -0.25710345324E+03 -0.87039341485E+03  0.91008093401E+03  0.12699999809E+01 0.  1.
       -4    1    3    3    0  502 -0.67518969671E+02  0.25710345324E+03  0.82368302773E+03  0.86551507208E+03  0.12699999809E+01 0. -1.
</event>
<event>
 5   0  0.1330225E-04  0.1831872E+04  0.7818609E-02  0.8689532E-01
       -1   -1    0    0    0  501  0.00000000000E+00  0.00000000000E+00  0.44819283135E+03  0.44819283138E+03  0.50400001928E-02 0.  1.
        1   -1    0    0  501    0  0.00000000000E+00  0.00000000000E+00 -0.18718247385E+04  0.18718247385E+04  0.50400001928E-02 0. -1.
    10030    2    1    2    0    0  0.00000000000E+00  0.00000000000E+00 -0.14236319071E+04  0.23200175698E+04  0.18318716433E+04 0.  0.
        3    1    3    3  502    0 -0.87974814178E+03  0.24068620617E+03 -0.60546399337E+03  0.10947480533E+04  0.10100000352E+00 0.  1.
       -3    1    3    3    0  502  0.87974814178E+03 -0.24068620617E+03 -0.81816791373E+03  0.12252695165E+04  0.10100000352E+00 0. -1.
</event>
<event>
 5   0  0.9144875E-05  0.1796868E+04  0.7818609E-02  0.8707967E-01
        3   -1    0    0  501    0  0.00000000000E+00  0.00000000000E+00  0.21892429795E+04  0.21892429819E+04  0.10100000352E+00 0.  1.
       -3   -1    0    0    0  501  0.00000000000E+00  0.00000000000E+00 -0.36870433274E+03  0.36870434657E+03  0.10100000352E+00 0. -1.
    10030    2    1    2    0    0  0.00000000000E+00  0.00000000000E+00  0.18205386468E+04  0.25579473284E+04  0.17968677109E+04 0.  0.
        5    1    3    3  502    0 -0.94856971139E+02 -0.27812910142E+03  0.21188765584E+04  0.21391618923E+04  0.46999998093E+01 0.  1.
       -5    1    3    3    0  502  0.94856971139E+02  0.27812910142E+03 -0.29833791156E+03  0.41878543611E+03  0.46999998093E+01 0. -1.
</event>
<event>
 5   0  0.1253925E-04  0.1803731E+04  0.7818609E-02  0.8704318E-01
        1   -1    0    0  501    0  0.00000000000E+00  0.00000000000E+00  0.83610657107E+03  0.83610657108E+03  0.50400001928E-02 0. -1.
       -1   -1    0    0    0  501  0.00000000000E+00  0.00000000000E+00 -0.97279671747E+03  0.97279671748E+03  0.50400001928E-02 0.  1.
    10030    2    1    2    0    0  0.00000000000E+00  0.00000000000E+00 -0.13669014640E+03  0.18089032886E+04  0.18037313856E+04 0.  0.
        2    1    3    3  502    0  0.56314991297E+03 -0.37447574010E+02 -0.77379761571E+03  0.95775930972E+03  0.25500000920E-02 0.  1.
       -2    1    3    3    0  502 -0.56314991297E+03  0.37447574010E+02  0.63710746931E+03  0.85114397885E+03  0.25500000920E-02 0. -1.
</event>
<event>
 5   0  0.2417106E-04  0.1790124E+04  0.7818609E-02  0.8711569E-01
       -2   -1    0    0    0  501  0.00000000000E+00  0.00000000000E+00  0.48717405378E+03  0.48717405378E+03  0.25500000920E-02 0. -1.
        2   -1    0    0  501    0  0.00000000000E+00  0.00000000000E+00 -0.16444546620E+04  0.16444546620E+04  0.25500000920E-02 0.  1.
    10030    2    1    2    0    0  0.00000000000E+00  0.00000000000E+00 -0.11572806082E+04  0.21316287158E+04  0.17901236202E+04 0.  0.
        4    1    3    3  502    0 -0.63916700729E+03 -0.62386550762E+03 -0.50929488052E+03  0.10281660970E+04  0.12699999809E+01 0. -1.
       -4    1    3    3    0  502  0.63916700729E+03  0.62386550762E+03 -0.64798572769E+03  0.11034626188E+04  0.12699999809E+01 0.  1.
</event>
<event>
 5   0  0.1214723E-04  0.1799888E+04  0.7818609E-02  0.8706359E-01
        1   -1    0    0  501    0  0.00000000000E+00  0.00000000000E+00  0.84360159317E+03  0.84360159319E+03  0.50400001928E-02 0. -1.
       -1   -1    0    0    0  501  0.00000000000E+00  0.00000000000E+00 -0.96004909454E+03  0.96004909455E+03  0.50400001928E-02 0.  1.
    10030    2    1    2    0    0  0.00000000000E+00  0.00000000000E+00 -0.11644750137E+03  0.18036506877E+04  0.17998877139E+04 0.  0.
        1    1    3    3  502    0 -0.71141969185E+03 -0.68047298269E+02  0.48986628883E+03  0.86643949224E+03  0.50400001928E-02 0. -1.
       -1    1    3    3    0  502  0.71141969185E+03  0.68047298269E+02 -0.60631379019E+03  0.93721119549E+03  0.50400001928E-02 0.  1.
</event>
<event>
 5   0  0.1330225E-04  0.1804013E+04  0.7818609E-02  0.8704168E-01
       -1   -1    0    0    0  501  0.00000000000E+00  0.00000000000E+00  0.78203418145E+03  0.78203418146E+03  0.50400001928E-02 0. -1.
        1   -1    0    0  501    0  0.00000000000E+00  0.00000000000E+00 -0.10403841673E+04  0.10403841673E+04  0.50400001928E-02 0.  1.
    10030    2    1    2    0    0  0.00000000000E+00  0.00000000000E+00 -0.25834998585E+03  0.18224183488E+04  0.18040132823E+04 0.  0.
        3    1    3    3  502    0 -0.63266397107E+03  0.47565030262E+03 -0.56614915363E+03  0.97315558110E+03  0.10100000352E+00 0.  1.
       -3    1    3    3    0  502  0.63266397107E+03 -0.47565030262E+03  0.30779916778E+03  0.84926276767E+03  0.10100000352E+00 0. -1.
</event>
<event>
 5   0  0.2569405E-04  0.1794518E+04  0.7818609E-02  0.8709220E-01
       -2   -1    0    0    0  501  0.00000000000E+00  0.00000000000E+00  0.76565168415E+03  0.76565168415E+03  0.25500000920E-02 0. -1.
        2   -1    0    0  501    0  0.00000000000E+00  0.00000000000E+00 -0.10514885443E+04  0.10514885443E+04  0.25500000920E-02 0.  1.
    10030    2    1    2    0    0  0.00000000000E+00  0.00000000000E+00 -0.28583686017E+03  0.18171402285E+04  0.17945182917E+04 0.  0.
        2    1    3    3  502    0  0.29662086678E+03  0.60346588649E+03 -0.74447718109E+03  0.10031955382E+04  0.25500000920E-02 0.  1.
       -2    1    3    3    0  502 -0.29662086678E+03 -0.60346588649E+03  0.45864032092E+03  0.81394469023E+03  0.25500000920E-02 0. -1.
</event>
<event>
 5   0  0.2417106E-04  0.1793042E+04  0.7818609E-02  0.8710009E-01
        2   -1    0    0  501    0  0.00000000000E+00  0.00000000000E+00  0.58810934707E+03  0.58810934707E+03  0.25500000920E-02 0. -1.
       -2   -1    0    0    0  501  0.00000000000E+00  0.00000000000E+00 -0.13666668036E+04  0.13666668036E+04  0.25500000920E-02 0.  1.
    10030    2    1    2    0    0  0.00000000000E+00  0.00000000000E+00 -0.77855745654E+03  0.19547761507E+04  0.17930415740E+04 0.  0.
        4    1    3    3  502    0 -0.65883089067E+03  0.31569524659E+03  0.17723401971E+03  0.75175470857E+03  0.12699999809E+01 0. -1.
       -4    1    3    3    0  502  0.65883089067E+03 -0.31569524659E+03 -0.95579147625E+03  0.12030214421E+04  0.12699999809E+01 0.  1.
</event>
<event>
 5   0  0.1239119E-04  0.1805149E+04  0.7818609E-02  0.8703566E-01
       -1   -1    0    0    0  501  0.00000000000E+00  0.00000000000E+00  0.75130445317E+03  0.75130445318E+03  0.50400001928E-02 0.  1.
        1   -1    0    0  501    0  0.00000000000E+00  0.00000000000E+00 -0.10843020947E+04  0.10843020947E+04  0.50400001928E-02 0. -1.
    10030    2    1    2    0    0  0.00000000000E+00  0.00000000000E+00 -0.33299764157E+03  0.18356065479E+04  0.18051492929E+04 0.  0.
        5    1    3    3  502    0 -0.17667460402E+03 -0.19352841153E+03  0.71175862118E+03  0.75847846812E+03  0.46999998093E+01 0.  1.
       -5    1    3    3    0  502  0.17667460402E+03  0.19352841153E+03 -0.10447562627E+04  0.10771280798E+04  0.46999998093E+01 0. -1.
</event>
<event>
 5   0  0.2417106E-04  0.1803246E+04  0.7818609E-02  0.8704575E-01
        2   -1    0    0  501    0  0.00000000000E+00  0.00000000000E+00  0.15086809178E+04  0.15086809178E+04  0.25500000920E-02 0. -1.
       -2   -1    0    0    0  501  0.00000000000E+00  0.00000000000E+00 -0.53883069234E+03  0.53883069235E+03  0.25500000920E-02 0.  1.
    10030    2    1    2    0    0  0.00000000000E+00  0.00000000000E+00  0.96985022548E+03  0.20475116102E+04  0.18032455002E+04 0.  0.
        4    1    3    3  502    0 -0.13961022958E+03 -0.45369681814E+03 -0.38545462058E+03  0.61148074084E+03  0.12699999809E+01 0.  1.
       -4    1    3    3    0  502  0.13961022958E+03  0.45369681814E+03  0.13553048461E+04  0.14360308693E+04  0.12699999809E+01 0. -1.
</event>
<event>
 5   0  0.1253925E-04  0.1574547E+04  0.7818609E-02  0.8836339E-01
        1   -1    0    0  501    0  0.00000000000E+00  0.00000000000E+00  0.66246257108E+03  0.66246257110E+03  0.50400001928E-02 0. -1.
       -1   -1    0    0    0  501  0.00000000000E+00  0.00000000000E+00 -0.93559953212E+03  0.93559953213E+03  0.50400001928E-02 0.  1.
    10030    2    1    2    0    0  0.00000000000E+00  0.00000000000E+00 -0.27313696104E+03  0.15980621032E+04  0.15745471369E+04 0.  0.
        2    1    3    3  502    0  0.18203909757E+03 -0.57798565612E+03 -0.64666166209E+03  0.88621496091E+03  0.25500000920E-02 0.  1.
       -2    1    3    3    0  502 -0.18203909757E+03  0.57798565612E+03  0.37352470105E+03  0.71184714232E+03  0.25500000920E-02 0. -1.
</event>
<event>
 5   0  0.2393421E-04  0.1788254E+04  0.7818609E-02  0.8712571E-01
        2   -1    0    0  501    0  0.00000000000E+00  0.00000000000E+00  0.95086094965E+03  0.95086094965E+03  0.25500000920E-02 0. -1.
       -2   -1    0    0    0  501  0.00000000000E+00  0.00000000000E+00 -0.84077779558E+03  0.84077779558E+03  0.25500000920E-02 0.  1.
    10030    2    1    2    0    0  0.00000000000E+00  0.00000000000E+00  0.11008315407E+03  0.17916387452E+04  0.17882536433E+04 0.  0.
        5    1    3    3  502    0  0.38355223497E+03  0.80677253062E+03  0.16937359612E+02  0.89347814593E+03  0.46999998093E+01 0.  1.
       -5    1    3    3    0  502 -0.38355223497E+03 -0.80677253062E+03  0.93145794463E+02  0.89816059930E+03  0.46999998093E+01 0. -1.
</event>
<event>
 5   0  0.1253925E-04  0.1798058E+04  0.7818609E-02  0.8707333E-01
        1   -1    0    0  501    0  0.00000000000E+00  0.00000000000E+00  0.20085767836E+04  0.20085767836E+04  0.50400001928E-02 0. -1.
       -1   -1    0    0    0  501  0.00000000000E+00  0.00000000000E+00 -0.40240109251E+03  0.40240109254E+03  0.50400001928E-02 0.  1.
    10030    2    1    2    0    0  0.00000000000E+00  0.00000000000E+00  0.16061756911E+04  0.24109778762E+04  0.17980583886E+04 0.  0.
        2    1    3    3  502    0  0.53754822726E+03  0.68034433547E+03  0.48457068094E+03  0.99329515063E+03  0.25500000920E-02 0. -1.
       -2    1    3    3    0  502 -0.53754822726E+03 -0.68034433547E+03  0.11216050102E+04  0.14176827255E+04  0.25500000920E-02 0.  1.
</event>
<event>
 5   0  0.2431811E-04  0.1938007E+04  0.7818609E-02  0.8636166E-01
        2   -1    0    0  501    0  0.00000000000E+00  0.00000000000E+00  0.13951525897E+04  0.13951525897E+04  0.25500000920E-02 0. -1.
       -2   -1    0    0    0  501  0.00000000000E+00  0.00000000000E+00 -0.67302143651E+03  0.67302143651E+03  0.25500000920E-02 0.  1.
    10030    2    1    2    0    0  0.00000000000E+00  0.00000000000E+00  0.72213115315E+03  0.20681740262E+04  0.19380068112E+04 0.  0.
        3    1    3    3  502    0  0.83108642505E+03  0.18175608279E+03  0.85615179017E+03  0.12069531132E+04  0.10100000352E+00 0. -1.
       -3    1    3    3    0  502 -0.83108642505E+03 -0.18175608279E+03 -0.13402063702E+03  0.86122091294E+03  0.10100000352E+00 0.  1.
</event>
<event>
 5   0  0.9144875E-05  0.1793388E+04  0.7818609E-02  0.8709823E-01
       -4   -1    0    0    0  501  0.00000000000E+00  0.00000000000E+00  0.43315903418E+03  0.43316089596E+03  0.12699999809E+01 0. -1.
        4   -1    0    0  501    0  0.00000000000E+00  0.00000000000E+00 -0.18562645693E+04  0.18562650037E+04  0.12699999809E+01 0.  1.
    10030    2    1    2    0    0  0.00000000000E+00  0.00000000000E+00 -0.14231055351E+04  0.22894258997E+04  0.17933882976E+04 0.  0.
        2    1    3    3  502    0 -0.27731092525E+03  0.46659156970E+03  0.19962606171E+03  0.57832482801E+03  0.25500000920E-02 0. -1.
       -2    1    3    3    0  502  0.27731092525E+03 -0.46659156970E+03 -0.16227315968E+04  0.17111010717E+04  0.25500000920E-02 0.  1.
</event>
<event>
 5   0  0.2569405E-04  0.1796094E+04  0.7818609E-02  0.8708380E-01
        2   -1    0    0  501    0  0.00000000000E+00  0.00000000000E+00  0.10006258175E+04  0.10006258175E+04  0.25500000920E-02 0. -1.
       -2   -1    0    0    0  501  0.00000000000E+00  0.00000000000E+00 -0.80598371778E+03  0.80598371778E+03  0.25500000920E-02 0.  1.
    10030    2    1    2    0    0  0.00000000000E+00  0.00000000000E+00  0.19464209974E+03  0.18066095353E+04  0.17960936685E+04 0.  0.
        2    1    3    3  502    0  0.63377717106E+03  0.37945522455E+03 -0.41638266968E+03  0.84795890090E+03  0.25500000920E-02 0.  1.
       -2    1    3    3    0  502 -0.63377717106E+03 -0.37945522455E+03  0.61102476943E+03  0.95865063441E+03  0.25500000920E-02 0. -1.
</event>
<event>
 5   0  0.9144875E-05  0.1758534E+04  0.7818609E-02  0.8728667E-01
        3   -1    0    0  501    0  0.00000000000E+00  0.00000000000E+00  0.10374130458E+04  0.10374130507E+04  0.10100000352E+00 0.  1.
       -3   -1    0    0    0  501  0.00000000000E+00  0.00000000000E+00 -0.74522941018E+03  0.74522941703E+03  0.10100000352E+00 0. -1.
    10030    2    1    2    0    0  0.00000000000E+00  0.00000000000E+00  0.29218363558E+03  0.17826424677E+04  0.17585343018E+04 0.  0.
        2    1    3    3  502    0 -0.15300863167E+03 -0.46011174030E+02 -0.73038985186E+03  0.74766169168E+03  0.25500000920E-02 0. -1.
       -2    1    3    3    0  502  0.15300863167E+03  0.46011174030E+02  0.10225734874E+04  0.10349807760E+04  0.25500000920E-02 0.  1.
</event>
<event>
 5   0  0.2417106E-04  0.1797684E+04  0.7818609E-02  0.8707532E-01
        2   -1    0    0  501    0  0.00000000000E+00  0.00000000000E+00  0.17755987658E+04  0.17755987658E+04  0.25500000920E-02 0. -1.
       -2   -1    0    0    0  501  0.00000000000E+00  0.00000000000E+00 -0.45501089685E+03  0.45501089685E+03  0.25500000920E-02 0.  1.
    10030    2    1    2    0    0  0.00000000000E+00  0.00000000000E+00  0.13205878690E+04  0.22306096627E+04  0.17976838286E+04 0.  0.
        4    1    3    3  502    0 -0.55710499867E+03 -0.23466454890E+03 -0.16509367691E+03  0.62665059252E+03  0.12699999809E+01 0.  1.
       -4    1    3    3    0  502  0.55710499867E+03  0.23466454890E+03  0.14856815459E+04  0.16039590702E+04  0.12699999809E+01 0. -1.
</event>
<event>
 5   0  0.2393421E-04  0.1814568E+04  0.7818609E-02  0.8698590E-01
       -2   -1    0    0    0  501  0.00000000000E+00  0.00000000000E+00  0.41546860032E+03  0.41546860033E+03  0.25500000920E-02 0.  1.
        2   -1    0    0  501    0  0.00000000000E+00  0.00000000000E+00 -0.19812919714E+04  0.19812919714E+04  0.25500000920E-02 0. -1.
    10030    2    1    2    0    0  0.00000000000E+00  0.00000000000E+00 -0.15658233711E+04  0.23967605717E+04  0.18145683809E+04 0.  0.
        5    1    3    3  502    0  0.72973619483E+03 -0.48702867656E+03 -0.47759776363E+03  0.99891619251E+03  0.46999998093E+01 0. -1.
       -5    1    3    3    0  502 -0.72973619483E+03  0.48702867656E+03 -0.10882256074E+04  0.13978443792E+04  0.46999998093E+01 0.  1.
</event>
<event>
 5   0  0.1308893E-04  0.1784813E+04  0.7818609E-02  0.8714418E-01
        1   -1    0    0  501    0  0.00000000000E+00  0.00000000000E+00  0.17663506545E+04  0.17663506545E+04  0.50400001928E-02 0. -1.
       -1   -1    0    0    0  501  0.00000000000E+00  0.00000000000E+00 -0.45086691418E+03  0.45086691420E+03  0.50400001928E-02 0.  1.
    10030    2    1    2    0    0  0.00000000000E+00  0.00000000000E+00  0.13154837403E+04  0.22172175687E+04  0.17848126725E+04 0.  0.
        4    1    3    3  502    0  0.37929119580E+03 -0.14548285266E+03 -0.32934263442E+03  0.52296773837E+03  0.12699999809E+01 0.  1.
       -4    1    3    3    0  502 -0.37929119580E+03  0.14548285266E+03  0.16448263747E+04  0.16942498303E+04  0.12699999809E+01 0. -1.
</event>
<event>
 5   0  0.9144875E-05  0.1790769E+04  0.7818609E-02  0.8711224E-01
        4   -1    0    0  501    0  0.00000000000E+00  0.00000000000E+00  0.70922776282E+03  0.70922889990E+03  0.12699999809E+01 0. -1.
       -4   -1    0    0    0  501  0.00000000000E+00  0.00000000000E+00 -0.11304014888E+04  0.11304022022E+04  0.12699999809E+01 0.  1.
    10030    2    1    2    0    0  0.00000000000E+00  0.00000000000E+00 -0.42117372601E+03  0.18396311021E+04  0.17907694672E+04 0.  0.
        1    1    3    3  502    0 -0.56979509221E+03  0.55011716651E+03 -0.63961651350E+03  0.10180396006E+04  0.50400001928E-02 0.  1.
       -1    1    3    3    0  502  0.56979509221E+03 -0.55011716651E+03  0.21844278750E+03  0.82159150156E+03  0.50400001928E-02 0. -1.
</event>
<event>
 5   0  0.2393421E-04  0.1816169E+04  0.7818609E-02  0.8697748E-01
       -2   -1    0    0    0  501  0.00000000000E+00  0.00000000000E+00  0.10243031712E+04  0.10243031712E+04  0.25500000920E-02 0.  1.
        2   -1    0    0  501    0  0.00000000000E+00  0.00000000000E+00 -0.80505253068E+03  0.80505253069E+03  0.25500000920E-02 0. -1.
    10030    2    1    2    0    0  0.00000000000E+00  0.00000000000E+00  0.21925064049E+03  0.18293557019E+04  0.18161694416E+04 0.  0.
        5    1    3    3  502    0 -0.46334435638E+03 -0.54918466576E+03  0.66890798739E+03  0.98170859999E+03  0.46999998093E+01 0.  1.
       -5    1    3    3    0  502  0.46334435638E+03  0.54918466576E+03 -0.44965734690E+03  0.84764710187E+03  0.46999998093E+01 0. -1.
</event>
<event>
 5   0  0.1330225E-04  0.1779869E+04  0.7818609E-02  0.8717079E-01
       -1   -1    0    0    0  501  0.00000000000E+00  0.00000000000E+00  0.47409736638E+03  0.47409736641E+03  0.50400001928E-02 0. -1.
        1   -1    0    0  501    0  0.00000000000E+00  0.00000000000E+00 -0.16705076769E+04  0.16705076769E+04  0.50400001928E-02 0.  1.
    10030    2    1    2    0    0  0.00000000000E+00  0.00000000000E+00 -0.11964103105E+04  0.21446050433E+04  0.17798688605E+04 0.  0.
        3    1    3    3  502    0 -0.18563841255E+03  0.34084477022E+03  0.36674678407E+03  0.53398501049E+03  0.10100000352E+00 0. -1.
       -3    1    3    3    0  502  0.18563841255E+03 -0.34084477022E+03 -0.15631570945E+04  0.16106200328E+04  0.10100000352E+00 0.  1.
</event>
<event>
 5   0  0.2550616E-04  0.1828582E+04  0.7818609E-02  0.8691246E-01
        2   -1    0    0  501    0  0.00000000000E+00  0.00000000000E+00  0.15465063639E+04  0.15465063639E+04  0.25500000920E-02 0. -1.
       -2   -1    0    0    0  501  0.00000000000E+00  0.00000000000E+00 -0.54052677615E+03  0.54052677616E+03  0.25500000920E-02 0.  1.
    10030    2    1    2    0    0  0.00000000000E+00  0.00000000000E+00  0.10059795877E+04  0.20870331400E+04  0.18285820727E+04 0.  0.
        1    1    3    3  502    0  0.55479099255E+03 -0.35287763014E+03 -0.22210895368E+03  0.69400868482E+03  0.50400001928E-02 0.  1.
       -1    1    3    3    0  502 -0.55479099255E+03  0.35287763014E+03  0.12280885414E+04  0.13930244552E+04  0.50400001928E-02 0. -1.
</event>
<event>
 5   0  0.1214723E-04  0.1793603E+04  0.7818609E-02  0.8709709E-01
       -1   -1    0    0    0  501  0.00000000000E+00  0.00000000000E+00  0.68767965990E+03  0.68767965992E+03  0.50400001928E-02 0.  1.
        1   -1    0    0  501    0  0.00000000000E+00  0.00000000000E+00 -0.11695173475E+04  0.11695173475E+04  0.50400001928E-02 0. -1.
    10030    2    1    2    0    0  0.00000000000E+00  0.00000000000E+00 -0.48183768763E+03  0.18571970075E+04  0.17936034030E+04 0.  0.
        1    1    3    3  502    0  0.25656875995E+03  0.44690718543E+03  0.51906600681E+03  0.73142537584E+03  0.50400001928E-02 0.  1.
       -1    1    3    3    0  502 -0.25656875995E+03 -0.44690718543E+03 -0.10009036944E+04  0.11257716316E+04  0.50400001928E-02 0. -1.
</event>
<event>
 5   0  0.2550616E-04  0.1791666E+04  0.7818609E-02  0.8710744E-01
        2   -1    0    0  501    0  0.00000000000E+00  0.00000000000E+00  0.10301913376E+04  0.10301913376E+04  0.25500000920E-02 0. -1.
       -2   -1    0    0    0  501  0.00000000000E+00  0.00000000000E+00 -0.77899807807E+03  0.77899807807E+03  0.25500000920E-02 0.  1.
    10030    2    1    2    0    0  0.00000000000E+00  0.00000000000E+00  0.25119325958E+03  0.18091894157E+04  0.17916663440E+04 0.  0.
        1    1    3    3  502    0  0.59272137101E+03  0.59457666181E+03 -0.18999331064E+03  0.86077725838E+03  0.50400001928E-02 0.  1.
       -1    1    3    3    0  502 -0.59272137101E+03 -0.59457666181E+03  0.44118657022E+03  0.94841215734E+03  0.50400001928E-02 0. -1.
</event>
<event>
 5   0  0.2550616E-04  0.1787259E+04  0.7818609E-02  0.8713104E-01
       -2   -1    0    0    0  501  0.00000000000E+00  0.00000000000E+00  0.87524829293E+03  0.87524829293E+03  0.25500000920E-02 0. -1.
        2   -1    0    0  501    0  0.00000000000E+00  0.00000000000E+00 -0.91239715439E+03  0.91239715439E+03  0.25500000920E-02 0.  1.
    10030    2    1    2    0    0  0.00000000000E+00  0.00000000000E+00 -0.37148861459E+02  0.17876454473E+04  0.17872594125E+04 0.  0.
        1    1    3    3  502    0 -0.53488719631E+03 -0.66925826673E+03  0.23557317360E+03  0.88854131053E+03  0.50400001928E-02 0. -1.
       -1    1    3    3    0  502  0.53488719631E+03  0.66925826673E+03 -0.27272203506E+03  0.89910413679E+03  0.50400001928E-02 0.  1.
</event>
<event>
 5   0  0.2393421E-04  0.1606240E+04  0.7818609E-02  0.8816724E-01
        2   -1    0    0  501    0  0.00000000000E+00  0.00000000000E+00  0.89237272423E+03  0.89237272423E+03  0.25500000920E-02 0.  1.
       -2   -1    0    0    0  501  0.00000000000E+00  0.00000000000E+00 -0.72279396649E+03  0.72279396649E+03  0.25500000920E-02 0. -1.
    10030    2    1    2    0    0  0.00000000000E+00  0.00000000000E+00  0.16957875774E+03  0.16151666907E+04  0.16062398587E+04 0.  0.
        5    1    3    3  502    0 -0.16424818673E+02 -0.16118445997E+03 -0.70617568473E+03  0.72453874466E+03  0.46999998093E+01 0. -1.
       -5    1    3    3    0  502  0.16424818673E+02  0.16118445997E+03  0.87575444247E+03  0.89062794606E+03  0.46999998093E+01 0.  1.
</event>
<event>
 5   0  0.2431811E-04  0.1786542E+04  0.7818609E-02  0.8713489E-01
       -2   -1    0    0    0  501  0.00000000000E+00  0.00000000000E+00  0.50200444432E+03  0.50200444433E+03  0.25500000920E-02 0. -1.
        2   -1    0    0  501    0  0.00000000000E+00  0.00000000000E+00 -0.15894940108E+04  0.15894940108E+04  0.25500000920E-02 0.  1.
    10030    2    1    2    0    0  0.00000000000E+00  0.00000000000E+00 -0.10874895665E+04  0.20914984551E+04  0.17865419756E+04 0.  0.
        3    1    3    3  502    0  0.55825405501E+03  0.35573212113E+03  0.15841953855E+03  0.68065387116E+03  0.10100000352E+00 0. -1.
       -3    1    3    3    0  502 -0.55825405501E+03 -0.35573212113E+03 -0.12459091050E+04  0.14108445840E+04  0.10100000352E+00 0.  1.
</event>
<event>
 5   0  0.1253925E-04  0.1819522E+04  0.7818609E-02  0.8695986E-01
        1   -1    0    0  501    0  0.00000000000E+00  0.00000000000E+00  0.11475950463E+04  0.11475950463E+04  0.50400001928E-02 0.  1.
       -1   -1    0    0    0  501  0.00000000000E+00  0.00000000000E+00 -0.72121684741E+03  0.72121684743E+03  0.50400001928E-02 0. -1.
    10030    2    1    2    0    0  0.00000000000E+00  0.00000000000E+00  0.42637819890E+03  0.18688118937E+04  0.18195217849E+04 0.  0.
        2    1    3    3  502    0 -0.50408486371E+02 -0.55010684123E+03 -0.52923849868E+03  0.76501760813E+03  0.25500000920E-02 0. -1.
       -2    1    3    3    0  502  0.50408486371E+02  0.55010684123E+03  0.95561669757E+03  0.11037942856E+04  0.25500000920E-02 0.  1.
</event>
<event>
 5   0  0.1330225E-04  0.1792328E+04  0.7818609E-02  0.8710390E-01
        1   -1    0    0  501    0  0.00000000000E+00  0.00000000000E+00  0.57351843978E+03  0.57351843981E+03  0.50400001928E-02 0.  1.
       -1   -1    0    0    0  501  0.00000000000E+00  0.00000000000E+00 -0.14003213151E+04  0.14003213151E+04  0.50400001928E-02 0. -1.
    10030    2    1    2    0    0  0.00000000000E+00  0.00000000000E+00 -0.82680287529E+03  0.19738397549E+04  0.17923282019E+04 0.  0.
        3    1    3    3  502    0  0.16865231729E+03  0.68484862493E+03  0.19544214258E+03  0.73188720750E+03  0.10100000352E+00 0.  1.
       -3    1    3    3    0  502 -0.16865231729E+03 -0.68484862493E+03 -0.10222450179E+04  0.12419525474E+04  0.10100000352E+00 0. -1.
</event>
<event>
 5   0  0.9144875E-05  0.1805632E+04  0.7818609E-02  0.8703310E-01
       -3   -1    0    0    0  501  0.00000000000E+00  0.00000000000E+00  0.55526986013E+03  0.55526986931E+03  0.10100000352E+00 0.  1.
        3   -1    0    0  501    0  0.00000000000E+00  0.00000000000E+00 -0.14678929255E+04  0.14678929290E+04  0.10100000352E+00 0. -1.
    10030    2    1    2    0    0  0.00000000000E+00  0.00000000000E+00 -0.91262306539E+03  0.20231627983E+04  0.18056319805E+04 0.  0.
        1    1    3    3  502    0  0.49600576406E+03  0.49858742597E+03 -0.10906079858E+04  0.12977044802E+04  0.50400001928E-02 0. -1.
       -1    1    3    3    0  502 -0.49600576406E+03 -0.49858742597E+03  0.17798492042E+03  0.72545831806E+03  0.50400001928E-02 0.  1.
</event>
<event>
 5   0  0.1253925E-04  0.1806525E+04  0.7818609E-02  0.8702837E-01
       -1   -1    0    0    0  501  0.00000000000E+00  0.00000000000E+00  0.67649704306E+03  0.67649704308E+03  0.50400001928E-02 0. -1.
        1   -1    0    0  501    0  0.00000000000E+00  0.00000000000E+00 -0.12060408556E+04  0.12060408556E+04  0.50400001928E-02 0.  1.
    10030    2    1    2    0    0  0.00000000000E+00  0.00000000000E+00 -0.52954381252E+03  0.18825378987E+04  0.18065249211E+04 0.  0.
        2    1    3    3  502    0  0.82203908731E+03 -0.37359262335E+03 -0.24003792270E+03  0.93431146500E+03  0.25500000920E-02 0. -1.
       -2    1    3    3    0  502 -0.82203908731E+03  0.37359262335E+03 -0.28950588982E+03  0.94822643368E+03  0.25500000920E-02 0.  1.
</event>
<event>
 5   0  0.1214723E-04  0.1818669E+04  0.7818609E-02  0.8696434E-01
        1   -1    0    0  501    0  0.00000000000E+00  0.00000000000E+00  0.10782662959E+04  0.10782662959E+04  0.50400001928E-02 0. -1.
       -1   -1    0    0    0  501  0.00000000000E+00  0.00000000000E+00 -0.76686936676E+03  0.76686936678E+03  0.50400001928E-02 0.  1.
    10030    2    1    2    0    0  0.00000000000E+00  0.00000000000E+00  0.31139692909E+03  0.18451356626E+04  0.18186691745E+04 0.  0.
        1    1    3    3  502    0  0.85024242520E+03 -0.31428156316E+03  0.82507725509E+02  0.91021569276E+03  0.50400001928E-02 0.  1.
       -1    1    3    3    0  502 -0.85024242520E+03  0.31428156316E+03  0.22888920358E+03  0.93491996988E+03  0.50400001928E-02 0. -1.
</event>
<event>
 5   0  0.2417106E-04  0.1797317E+04  0.7818609E-02  0.8707727E-01
        2   -1    0    0  501    0  0.00000000000E+00  0.00000000000E+00  0.10886678337E+04  0.10886678337E+04  0.25500000920E-02 0. -1.
       -2   -1    0    0    0  501  0.00000000000E+00  0.00000000000E+00 -0.74181239172E+03  0.74181239172E+03  0.25500000920E-02 0.  1.
    10030    2    1    2    0    0  0.00000000000E+00  0.00000000000E+00  0.34685544202E+03  0.18304802255E+04  0.17973172113E+04 0.  0.
        4    1    3    3  502    0 -0.56412490079E+02  0.30928096653E+03 -0.68397807062E+03  0.75277134595E+03  0.12699999809E+01 0.  1.
       -4    1    3    3    0  502  0.56412490079E+02 -0.30928096653E+03  0.10308335126E+04  0.10777088795E+04  0.12699999809E+01 0. -1.
</event>
<event>
 5   0  0.1330225E-04  0.1803151E+04  0.7818609E-02  0.8704625E-01
        1   -1    0    0  501    0  0.00000000000E+00  0.00000000000E+00  0.19423657776E+04  0.19423657776E+04  0.50400001928E-02 0.  1.
       -1   -1    0    0    0  501  0.00000000000E+00  0.00000000000E+00 -0.41847869731E+03  0.41847869734E+03  0.50400001928E-02 0. -1.
    10030    2    1    2    0    0  0.00000000000E+00  0.00000000000E+00  0.15238870803E+04  0.23608444750E+04  0.18031513529E+04 0.  0.
        3    1    3    3  502    0 -0.15983785476E+03  0.88597524667E+03  0.69863012043E+03  0.11395544449E+04  0.10100000352E+00 0.  1.
       -3    1    3    3    0  502  0.15983785476E+03 -0.88597524667E+03  0.82525695989E+03  0.12212900301E+04  0.10100000352E+00 0. -1.
</event>
<event>
 5   0  0.2569405E-04  0.1792766E+04  0.7818609E-02  0.8710156E-01
       -2   -1    0    0    0  501  0.00000000000E+00  0.00000000000E+00  0.86302479773E+03  0.86302479773E+03  0.25500000920E-02 0.  1.
        2   -1    0    0  501    0  0.00000000000E+00  0.00000000000E+00 -0.93103032844E+03  0.93103032845E+03  0.25500000920E-02 0. -1.
    10030    2    1    2    0    0  0.00000000000E+00  0.00000000000E+00 -0.68005530713E+02  0.17940551262E+04  0.17927657526E+04 0.  0.
        2    1    3    3  502    0  0.17986233282E+02 -0.85843952105E+03 -0.29159874625E+03  0.90679200741E+03  0.25500000920E-02 0. -1.
       -2    1    3    3    0  502 -0.17986233282E+02  0.85843952105E+03  0.22359321553E+03  0.88726311877E+03  0.25500000920E-02 0.  1.
</event>
<event>
 5   0  0.1239119E-04  0.1826364E+04  0.7818609E-02  0.8692404E-01
       -1   -1    0    0    0  501  0.00000000000E+00  0.00000000000E+00  0.67439415105E+03  0.67439415107E+03  0.50400001928E-02 0. -1.
        1   -1    0    0  501    0  0.00000000000E+00  0.00000000000E+00 -0.12365190811E+04  0.12365190811E+04  0.50400001928E-02 0.  1.
    10030    2    1    2    0    0  0.00000000000E+00  0.00000000000E+00 -0.56212493002E+03  0.19109132322E+04  0.18263638586E+04 0.  0.
        5    1    3    3  502    0  0.11498367809E+03  0.65500044549E+02 -0.12264210120E+04  0.12335485766E+04  0.46999998093E+01 0.  1.
       -5    1    3    3    0  502 -0.11498367809E+03 -0.65500044549E+02  0.66429608200E+03  0.67736465557E+03  0.46999998093E+01 0. -1.
</event>
<event>
 5   0  0.2417106E-04  0.1820058E+04  0.7818609E-02  0.8695705E-01
        2   -1    0    0  501    0  0.00000000000E+00  0.00000000000E+00  0.12664272721E+04  0.12664272721E+04  0.25500000920E-02 0.  1.
       -2   -1    0    0    0  501  0.00000000000E+00  0.00000000000E+00 -0.65392831507E+03  0.65392831508E+03  0.25500000920E-02 0. -1.
    10030    2    1    2    0    0  0.00000000000E+00  0.00000000000E+00  0.61249895704E+03  0.19203555872E+04  0.18200578587E+04 0.  0.
        4    1    3    3  502    0  0.99730589483E+02  0.38692430849E+03  0.11689207889E+04  0.12353275010E+04  0.12699999809E+01 0.  1.
       -4    1    3    3    0  502 -0.99730589483E+02 -0.38692430849E+03 -0.55642183190E+03  0.68502808621E+03  0.12699999809E+01 0. -1.
</event>
<event>
 5   0  0.2550616E-04  0.1801055E+04  0.7818609E-02  0.8705739E-01
       -2   -1    0    0    0  501  0.00000000000E+00  0.00000000000E+00  0.59620666505E+03  0.59620666506E+03  0.25500000920E-02 0.  1.
        2   -1    0    0  501    0  0.00000000000E+00  0.00000000000E+00 -0.13601824330E+04  0.13601824330E+04  0.25500000920E-02 0. -1.
    10030    2    1    2    0    0  0.00000000000E+00  0.00000000000E+00 -0.76397576792E+03  0.19563890980E+04  0.18010550599E+04 0.  0.
        1    1    3    3  502    0  0.98542946187E+02 -0.54411127681E+03 -0.11540499146E+04  0.12796870708E+04  0.50400001928E-02 0. -1.
       -1    1    3    3    0  502 -0.98542946187E+02  0.54411127681E+03  0.39007414664E+03  0.67670202726E+03  0.50400001928E-02 0.  1.
</event>
<event>
 5   0  0.2550616E-04  0.1806027E+04  0.7818609E-02  0.8703101E-01
        2   -1    0    0  501    0  0.00000000000E+00  0.00000000000E+00  0.10124463749E+04  0.10124463749E+04  0.25500000920E-02 0.  1.
       -2   -1    0    0    0  501  0.00000000000E+00  0.00000000000E+00 -0.80540919662E+03  0.80540919662E+03  0.25500000920E-02 0. -1.
    10030    2    1    2    0    0  0.00000000000E+00  0.00000000000E+00  0.20703717832E+03  0.18178555716E+04  0.18060272661E+04 0.  0.
        1    1    3    3  502    0 -0.85938271289E+03 -0.43317213797E+02 -0.17217046969E+03  0.87752931511E+03  0.50400001928E-02 0.  1.
       -1    1    3    3    0  502  0.85938271289E+03  0.43317213797E+02  0.37920764801E+03  0.94032625644E+03  0.50400001928E-02 0. -1.
</event>
<event>
 5   0  0.1308893E-04  0.1805257E+04  0.7818609E-02  0.8703509E-01
        1   -1    0    0  501    0  0.00000000000E+00  0.00000000000E+00  0.79106523301E+03  0.79106523302E+03  0.50400001928E-02 0. -1.
       -1   -1    0    0    0  501  0.00000000000E+00  0.00000000000E+00 -0.10299257508E+04  0.10299257508E+04  0.50400001928E-02 0.  1.
    10030    2    1    2    0    0  0.00000000000E+00  0.00000000000E+00 -0.23886051776E+03  0.18209909838E+04  0.18052572715E+04 0.  0.
        4    1    3    3  502    0  0.54700957657E+03  0.27504240003E+03  0.54957632444E+03  0.82274148307E+03  0.12699999809E+01 0. -1.
       -4    1    3    3    0  502 -0.54700957657E+03 -0.27504240003E+03 -0.78843684220E+03  0.99824950074E+03  0.12699999809E+01 0.  1.
</event>
<event>
 5   0  0.2417106E-04  0.1773556E+04  0.7818609E-02  0.8720490E-01
        2   -1    0    0  501    0  0.00000000000E+00  0.00000000000E+00  0.10874086736E+04  0.10874086736E+04  0.25500000920E-02 0.  1.
       -2   -1    0    0    0  501  0.00000000000E+00  0.00000000000E+00 -0.72316474266E+03  0.72316474267E+03  0.25500000920E-02 0. -1.
    10030    2    1    2    0    0  0.00000000000E+00  0.00000000000E+00  0.36424393096E+03  0.18105734163E+04  0.17735564425E+04 0.  0.
        4    1    3    3  502    0 -0.38206833572E+03  0.75092834088E+02  0.99546829103E+03  0.10689124745E+04  0.12699999809E+01 0.  1.
       -4    1    3    3    0  502  0.38206833572E+03 -0.75092834088E+02 -0.63122436006E+03  0.74166094176E+03  0.12699999809E+01 0. -1.
</event>
<event>
 5   0  0.2417106E-04  0.1805256E+04  0.7818609E-02  0.8703509E-01
       -2   -1    0    0    0  501  0.00000000000E+00  0.00000000000E+00  0.10433887756E+04  0.10433887756E+04  0.25500000920E-02 0.  1.
        2   -1    0    0  501    0  0.00000000000E+00  0.00000000000E+00 -0.78085680635E+03  0.78085680636E+03  0.25500000920E-02 0. -1.
    10030    2    1    2    0    0  0.00000000000E+00  0.00000000000E+00  0.26253196923E+03  0.18242455819E+04  0.18052559122E+04 0.  0.
        4    1    3    3  502    0 -0.77126859562E+03 -0.46153026660E+03  0.47507539874E+02  0.90006889337E+03  0.12699999809E+01 0. -1.
       -4    1    3    3    0  502  0.77126859562E+03  0.46153026660E+03  0.21502442935E+03  0.92417668857E+03  0.12699999809E+01 0.  1.
</event>
<event>
 5   0  0.9144875E-05  0.1784158E+04  0.7818609E-02  0.8714770E-01
       -4   -1    0    0    0  501  0.00000000000E+00  0.00000000000E+00  0.77356337648E+03  0.77356441899E+03  0.12699999809E+01 0. -1.
        4   -1    0    0  501    0  0.00000000000E+00  0.00000000000E+00 -0.10287494289E+04  0.10287502128E+04  0.12699999809E+01 0.  1.
    10030    2    1    2    0    0  0.00000000000E+00  0.00000000000E+00 -0.25518605237E+03  0.18023146318E+04  0.17841575352E+04 0.  0.
        3    1    3    3  502    0  0.29842694731E+03  0.63713765607E+03  0.42644222176E+03  0.82271259523E+03  0.10100000352E+00 0. -1.
       -3    1    3    3    0  502 -0.29842694731E+03 -0.63713765607E+03 -0.68162827414E+03  0.97960203652E+03  0.10100000352E+00 0.  1.
</event>
<event>
 5   0  0.2417106E-04  0.1823414E+04  0.7818609E-02  0.8693946E-01
        2   -1    0    0  501    0  0.00000000000E+00  0.00000000000E+00  0.85661343203E+03  0.85661343204E+03  0.25500000920E-02 0.  1.
       -2   -1    0    0    0  501  0.00000000000E+00  0.00000000000E+00 -0.97034394165E+03  0.97034394165E+03  0.25500000920E-02 0. -1.
    10030    2    1    2    0    0  0.00000000000E+00  0.00000000000E+00 -0.11373050962E+03  0.18269573737E+04  0.18234140003E+04 0.  0.
        4    1    3    3  502    0  0.83460325531E+03 -0.35305229723E+03  0.43326681139E+02  0.90724160649E+03  0.12699999809E+01 0.  1.
       -4    1    3    3    0  502 -0.83460325531E+03  0.35305229723E+03 -0.15705719075E+03  0.91971576719E+03  0.12699999809E+01 0. -1.
</event>
<event>
 5   0  0.1239119E-04  0.1813922E+04  0.7818609E-02  0.8698931E-01
        1   -1    0    0  501    0  0.00000000000E+00  0.00000000000E+00  0.13855589167E+04  0.13855589167E+04  0.50400001928E-02 0.  1.
       -1   -1    0    0    0  501  0.00000000000E+00  0.00000000000E+00 -0.59367961801E+03  0.59367961804E+03  0.50400001928E-02 0. -1.
    10030    2    1    2    0    0  0.00000000000E+00  0.00000000000E+00  0.79187929864E+03  0.19792385347E+04  0.18139218157E+04 0.  0.
        5    1    3    3  502    0 -0.17149368794E+03  0.27703282587E+03  0.13194823422E+04  0.13591221479E+04  0.46999998093E+01 0.  1.
       -5    1    3    3    0  502  0.17149368794E+03 -0.27703282587E+03 -0.52760304354E+03  0.62011638679E+03  0.46999998093E+01 0. -1.
</event>
<event>
 5   0  0.1239119E-04  0.1804754E+04  0.7818609E-02  0.8703776E-01
        1   -1    0    0  501    0  0.00000000000E+00  0.00000000000E+00  0.97146438046E+03  0.97146438048E+03  0.50400001928E-02 0.  1.
       -1   -1    0    0    0  501  0.00000000000E+00  0.00000000000E+00 -0.83820246052E+03  0.83820246053E+03  0.50400001928E-02 0. -1.
    10030    2    1    2    0    0  0.00000000000E+00  0.00000000000E+00  0.13326191995E+03  0.18096668410E+04  0.18047535389E+04 0.  0.
        5    1    3    3  502    0 -0.90072184390E+03  0.54405491569E+02  0.65232010275E+02  0.90473040335E+03  0.46999998093E+01 0. -1.
       -5    1    3    3    0  502  0.90072184390E+03 -0.54405491569E+02  0.68029909674E+02  0.90493643766E+03  0.46999998093E+01 0.  1.
</event>
<event>
 5   0  0.1239119E-04  0.1776849E+04  0.7818609E-02  0.8718709E-01
       -1   -1    0    0    0  501  0.00000000000E+00  0.00000000000E+00  0.70711545130E+03  0.70711545132E+03  0.50400001928E-02 0.  1.
        1   -1    0    0  501    0  0.00000000000E+00  0.00000000000E+00 -0.11162226744E+04  0.11162226744E+04  0.50400001928E-02 0. -1.
    10030    2    1    2    0    0  0.00000000000E+00  0.00000000000E+00 -0.40910722309E+03  0.18233381257E+04  0.17768492341E+04 0.  0.
        5    1    3    3  502    0 -0.62626234707E+03  0.17531151975E+03  0.41654041769E+03  0.77231254418E+03  0.46999998093E+01 0.  1.
       -5    1    3    3    0  502  0.62626234707E+03 -0.17531151975E+03 -0.82564764078E+03  0.10510255815E+04  0.46999998093E+01 0. -1.
</event>
<event>
 5   0  0.1253925E-04  0.1812427E+04  0.7818609E-02  0.8699719E-01
       -1   -1    0    0    0  501  0.00000000000E+00  0.00000000000E+00  0.11639423847E+04  0.11639423847E+04  0.50400001928E-02 0. -1.
        1   -1    0    0  501    0  0.00000000000E+00  0.00000000000E+00 -0.70555291193E+03  0.70555291195E+03  0.50400001928E-02 0.  1.
    10030    2    1    2    0    0  0.00000000000E+00  0.00000000000E+00  0.45838947277E+03  0.18694952967E+04  0.18124270345E+04 0.  0.
        2    1    3    3  502    0 -0.20445048869E+03 -0.21836441957E+03 -0.65315796294E+03  0.71839985149E+03  0.25500000920E-02 0.  1.
       -2    1    3    3    0  502  0.20445048869E+03  0.21836441957E+03  0.11115474357E+04  0.11510954452E+04  0.25500000920E-02 0. -1.
</event>
<event>
 5   0  0.2431811E-04  0.1743953E+04  0.7818609E-02  0.8736686E-01
        2   -1    0    0  501    0  0.00000000000E+00  0.00000000000E+00  0.11520813938E+04  0.11520813938E+04  0.25500000920E-02 0.  1.
       -2   -1    0    0    0  501  0.00000000000E+00  0.00000000000E+00 -0.65997365730E+03  0.65997365731E+03  0.25500000920E-02 0. -1.
    10030    2    1    2    0    0  0.00000000000E+00  0.00000000000E+00  0.49210773646E+03  0.18120550511E+04  0.17439534064E+04 0.  0.
        3    1    3    3  502    0  0.82128331511E+03  0.17180076809E+03 -0.53524479084E+00  0.83906023877E+03  0.10100000352E+00 0. -1.
       -3    1    3    3    0  502 -0.82128331511E+03 -0.17180076809E+03  0.49264298125E+03  0.97299481230E+03  0.10100000352E+00 0.  1.
</event>
<event>
 5   0  0.2393421E-04  0.1806665E+04  0.7818609E-02  0.8702763E-01
       -2   -1    0    0    0  501  0.00000000000E+00  0.00000000000E+00  0.13892776889E+04  0.13892776889E+04  0.25500000920E-02 0. -1.
        2   -1    0    0  501    0  0.00000000000E+00  0.00000000000E+00 -0.58736244581E+03  0.58736244582E+03  0.25500000920E-02 0.  1.
    10030    2    1    2    0    0  0.00000000000E+00  0.00000000000E+00  0.80191524304E+03  0.19766401347E+04  0.18066649288E+04 0.  0.
        5    1    3    3  502    0 -0.56939354702E+03 -0.35445965450E+03  0.10629784934E+04  0.12568993697E+04  0.46999998093E+01 0. -1.
       -5    1    3    3    0  502  0.56939354702E+03  0.35445965450E+03 -0.26106325040E+03  0.71974076497E+03  0.46999998093E+01 0.  1.
</event>
<event>
 5   0  0.2569405E-04  0.1796557E+04  0.7818609E-02  0.8708133E-01
        2   -1    0    0  501    0  0.00000000000E+00  0.00000000000E+00  0.10997160322E+04  0.10997160322E+04  0.25500000920E-02 0.  1.
       -2   -1    0    0    0  501  0.00000000000E+00  0.00000000000E+00 -0.73373861349E+03  0.73373861350E+03  0.25500000920E-02 0. -1.
    10030    2    1    2    0    0  0.00000000000E+00  0.00000000000E+00  0.36597741870E+03  0.18334546457E+04  0.17965568365E+04 0.  0.
        2    1    3    3  502    0 -0.52153671868E+03 -0.72891014219E+03  0.12181111321E+03  0.90451561160E+03  0.25500000920E-02 0.  1.
       -2    1    3    3    0  502  0.52153671868E+03  0.72891014219E+03  0.24416630549E+03  0.92893903409E+03  0.25500000920E-02 0. -1.
</event>
<event>
 5   0  0.1253925E-04  0.1812158E+04  0.7818609E-02  0.8699861E-01
        1   -1    0    0  501    0  0.00000000000E+00  0.00000000000E+00  0.91797330468E+03  0.91797330470E+03  0.50400001928E-02 0. -1.
       -1   -1    0    0    0  501  0.00000000000E+00  0.00000000000E+00 -0.89433889892E+03  0.89433889893E+03  0.50400001928E-02 0.  1.
    10030    2    1    2    0    0  0.00000000000E+00  0.00000000000E+00  0.23634405763E+02  0.18123122036E+04  0.18121580887E+04 0.  0.
        2    1    3    3  502    0  0.62720106392E+03 -0.30881352691E+03  0.58826215027E+03  0.91367353383E+03  0.25500000920E-02 0.  1.
       -2    1    3    3    0  502 -0.62720106392E+03  0.30881352691E+03 -0.56462774451E+03  0.89863866980E+03  0.25500000920E-02 0. -1.
</event>
<event>
 5   0  0.2550616E-04  0.1793519E+04  0.7818609E-02  0.8709753E-01
       -2   -1    0    0    0  501  0.00000000000E+00  0.00000000000E+00  0.70430597953E+03  0.70430597954E+03  0.25500000920E-02 0.  1.
        2   -1    0    0  501    0  0.00000000000E+00  0.00000000000E+00 -0.11418019837E+04  0.11418019837E+04  0.25500000920E-02 0. -1.
    10030    2    1    2    0    0  0.00000000000E+00  0.00000000000E+00 -0.43749600413E+03  0.18461079632E+04  0.17935194056E+04 0.  0.
        1    1    3    3  502    0  0.30513942138E+03 -0.62366642757E+03  0.36543891766E+03  0.78461167588E+03  0.50400001928E-02 0.  1.
       -1    1    3    3    0  502 -0.30513942138E+03  0.62366642757E+03 -0.80293492179E+03  0.10614962873E+04  0.50400001928E-02 0. -1.
</event>
<event>
 5   0  0.9144875E-05  0.1793261E+04  0.7818609E-02  0.8709891E-01
        3   -1    0    0  501    0  0.00000000000E+00  0.00000000000E+00  0.66830419773E+03  0.66830420536E+03  0.10100000352E+00 0. -1.
       -3   -1    0    0    0  501  0.00000000000E+00  0.00000000000E+00 -0.12029649598E+04  0.12029649640E+04  0.10100000352E+00 0.  1.
    10030    2    1    2    0    0  0.00000000000E+00  0.00000000000E+00 -0.53466076204E+03  0.18712691694E+04  0.17932613233E+04 0.  0.
        3    1    3    3  502    0  0.27455460915E+03 -0.16109770213E+03 -0.11420140693E+04  0.11855500191E+04  0.10100000352E+00 0.  1.
       -3    1    3    3    0  502 -0.27455460915E+03  0.16109770213E+03  0.60735330727E+03  0.68571915030E+03  0.10100000352E+00 0. -1.
</event>
<event>
 5   0  0.9144875E-05  0.1807553E+04  0.7818609E-02  0.8702293E-01
       -4   -1    0    0    0  501  0.00000000000E+00  0.00000000000E+00  0.73373164784E+03  0.73373274695E+03  0.12699999809E+01 0.  1.
        4   -1    0    0  501    0  0.00000000000E+00  0.00000000000E+00 -0.11132275559E+04  0.11132282803E+04  0.12699999809E+01 0. -1.
    10030    2    1    2    0    0  0.00000000000E+00  0.00000000000E+00 -0.37949590807E+03  0.18469610273E+04  0.18075530122E+04 0.  0.
        4    1    3    3  502    0  0.14978432978E+03 -0.41620806513E+02  0.71996719474E+03  0.73656093528E+03  0.12699999809E+01 0.  1.
       -4    1    3    3    0  502 -0.14978432978E+03  0.41620806513E+02 -0.10994631028E+04  0.11104000920E+04  0.12699999809E+01 0. -1.
</event>
<event>
 5   0  0.1214723E-04  0.1805457E+04  0.7818609E-02  0.8703403E-01
       -1   -1    0    0    0  501  0.00000000000E+00  0.00000000000E+00  0.74229222227E+03  0.74229222229E+03  0.50400001928E-02 0.  1.
        1   -1    0    0  501    0  0.00000000000E+00  0.00000000000E+00 -0.10978405028E+04  0.10978405028E+04  0.50400001928E-02 0. -1.
    10030    2    1    2    0    0  0.00000000000E+00  0.00000000000E+00 -0.35554828052E+03  0.18401327251E+04  0.18054566919E+04 0.  0.
        1    1    3    3  502    0 -0.62031456475E+03 -0.40718065736E+03  0.34623290363E+03  0.81881833794E+03  0.50400001928E-02 0.  1.
       -1    1    3    3    0  502  0.62031456475E+03  0.40718065736E+03 -0.70178118414E+03  0.10213143872E+04  0.50400001928E-02 0. -1.
</event>
<event>
 5   0  0.1330225E-04  0.1803043E+04  0.7818609E-02  0.8704683E-01
       -1   -1    0    0    0  501  0.00000000000E+00  0.00000000000E+00  0.44439917888E+03  0.44439917891E+03  0.50400001928E-02 0.  1.
        1   -1    0    0  501    0  0.00000000000E+00  0.00000000000E+00 -0.18288530526E+04  0.18288530526E+04  0.50400001928E-02 0. -1.
    10030    2    1    2    0    0  0.00000000000E+00  0.00000000000E+00 -0.13844538737E+04  0.22732522315E+04  0.18030427559E+04 0.  0.
        3    1    3    3  502    0 -0.40233316944E+03  0.60802300625E+03 -0.23680828021E+02  0.72946881165E+03  0.10100000352E+00 0.  1.
       -3    1    3    3    0  502  0.40233316944E+03 -0.60802300625E+03 -0.13607730457E+04  0.15437834199E+04  0.10100000352E+00 0. -1.
</event>
<event>
 5   0  0.1253925E-04  0.1778442E+04  0.7818609E-02  0.8717849E-01
        1   -1    0    0  501    0  0.00000000000E+00  0.00000000000E+00  0.19061300145E+04  0.19061300145E+04  0.50400001928E-02 0.  1.
       -1   -1    0    0    0  501  0.00000000000E+00  0.00000000000E+00 -0.41482671261E+03  0.41482671264E+03  0.50400001928E-02 0. -1.
    10030    2    1    2    0    0  0.00000000000E+00  0.00000000000E+00  0.14913033019E+04  0.23209567271E+04  0.17784416187E+04 0.  0.
        2    1    3    3  502    0 -0.88691480002E+03  0.60155852402E+02  0.71714715741E+03  0.11421631383E+04  0.25500000920E-02 0. -1.
       -2    1    3    3    0  502  0.88691480002E+03 -0.60155852402E+02  0.77415614447E+03  0.11787935889E+04  0.25500000920E-02 0.  1.
</event>
<event>
 5   0  0.1330225E-04  0.1795606E+04  0.7818609E-02  0.8708639E-01
       -1   -1    0    0    0  501  0.00000000000E+00  0.00000000000E+00  0.92888897227E+03  0.92888897229E+03  0.50400001928E-02 0.  1.
        1   -1    0    0  501    0  0.00000000000E+00  0.00000000000E+00 -0.86775779194E+03  0.86775779195E+03  0.50400001928E-02 0. -1.
    10030    2    1    2    0    0  0.00000000000E+00  0.00000000000E+00  0.61131180334E+02  0.17966467642E+04  0.17956064642E+04 0.  0.
        3    1    3    3  502    0  0.68526480007E+03 -0.55603654472E+03  0.19584648491E+03  0.90394708979E+03  0.10100000352E+00 0. -1.
       -3    1    3    3    0  502 -0.68526480007E+03  0.55603654472E+03 -0.13471530458E+03  0.89269967445E+03  0.10100000352E+00 0.  1.
</event>
<event>
 5   0  0.1308893E-04  0.1756085E+04  0.7818609E-02  0.8730008E-01
       -1   -1    0    0    0  501  0.00000000000E+00  0.00000000000E+00  0.39244858593E+03  0.39244858596E+03  0.50400001928E-02 0. -1.
        1   -1    0    0  501    0  0.00000000000E+00  0.00000000000E+00 -0.19644829270E+04  0.19644829270E+04  0.50400001928E-02 0.  1.
    10030    2    1    2    0    0  0.00000000000E+00  0.00000000000E+00 -0.15720343411E+04  0.23569315130E+04  0.17560849032E+04 0.  0.
        4    1    3    3  502    0  0.31416371327E+03 -0.34158281374E+03 -0.17864189895E+04  0.18457172255E+04  0.12699999809E+01 0.  1.
       -4    1    3    3    0  502 -0.31416371327E+03  0.34158281374E+03  0.21438464843E+03  0.51121428752E+03  0.12699999809E+01 0. -1.
</event>
<event>
 5   0  0.1253925E-04  0.1741469E+04  0.7818609E-02  0.8738060E-01
       -1   -1    0    0    0  501  0.00000000000E+00  0.00000000000E+00  0.84019504191E+03  0.84019504193E+03  0.50400001928E-02 0. -1.
        1   -1    0    0  501    0  0.00000000000E+00  0.00000000000E+00 -0.90238447167E+03  0.90238447168E+03  0.50400001928E-02 0.  1.
    10030    2    1    2    0    0  0.00000000000E+00  0.00000000000E+00 -0.62189429756E+02  0.17425795136E+04  0.17414694474E+04 0.  0.
        2    1    3    3  502    0 -0.72131598248E+03  0.12021407301E+03  0.44189125024E+03  0.85440976526E+03  0.25500000920E-02 0. -1.
       -2    1    3    3    0  502  0.72131598248E+03 -0.12021407301E+03 -0.50408068000E+03  0.88816974835E+03  0.25500000920E-02 0.  1.
</event>
<event>
 5   0  0.2569405E-04  0.1789749E+04  0.7818609E-02  0.8711770E-01
       -2   -1    0    0    0  501  0.00000000000E+00  0.00000000000E+00  0.38789678768E+03  0.38789678769E+03  0.25500000920E-02 0.  1.
        2   -1    0    0  501    0  0.00000000000E+00  0.00000000000E+00 -0.20644686344E+04  0.20644686344E+04  0.25500000920E-02 0. -1.
    10030    2    1    2    0    0  0.00000000000E+00  0.00000000000E+00 -0.16765718467E+04  0.24523654221E+04  0.17897494256E+04 0.  0.
        2    1    3    3  502    0  0.64018815376E+02  0.60886215085E+03 -0.17326045145E+04  0.18375880744E+04  0.25500000920E-02 0.  1.
       -2    1    3    3    0  502 -0.64018815376E+02 -0.60886215085E+03  0.56032667719E+02  0.61477734776E+03  0.25500000920E-02 0. -1.
</event>
<event>
 5   0  0.1253925E-04  0.1862952E+04  0.7818609E-02  0.8673520E-01
        1   -1    0    0  501    0  0.00000000000E+00  0.00000000000E+00  0.13366478193E+04  0.13366478193E+04  0.50400001928E-02 0.  1.
       -1   -1    0    0    0  501  0.00000000000E+00  0.00000000000E+00 -0.64912227127E+03  0.64912227129E+03  0.50400001928E-02 0. -1.
    10030    2    1    2    0    0  0.00000000000E+00  0.00000000000E+00  0.68752554801E+03  0.19857700906E+04  0.18629523541E+04 0.  0.
        2    1    3    3  502    0  0.65281020310E+03 -0.26281852322E+03 -0.30672585634E+03  0.76766886636E+03  0.25500000920E-02 0. -1.
       -2    1    3    3    0  502 -0.65281020310E+03  0.26281852322E+03  0.99425140436E+03  0.12181012242E+04  0.25500000920E-02 0.  1.
</event>
<event>
 5   0  0.1239119E-04  0.1801957E+04  0.7818609E-02  0.8705259E-01
        1   -1    0    0  501    0  0.00000000000E+00  0.00000000000E+00  0.19125056748E+04  0.19125056748E+04  0.50400001928E-02 0. -1.
       -1   -1    0    0    0  501  0.00000000000E+00  0.00000000000E+00 -0.42444973829E+03  0.42444973832E+03  0.50400001928E-02 0.  1.
    10030    2    1    2    0    0  0.00000000000E+00  0.00000000000E+00  0.14880559365E+04  0.23369554131E+04  0.18019573060E+04 0.  0.
        5    1    3    3  502    0 -0.86237282351E+03 -0.22318022947E+03  0.56885477483E+03  0.10569362073E+04  0.46999998093E+01 0. -1.
       -5    1    3    3    0  502  0.86237282351E+03  0.22318022947E+03  0.91920116166E+03  0.12800192058E+04  0.46999998093E+01 0.  1.
</event>
<event>
 5   0  0.9144875E-05  0.1797278E+04  0.7818609E-02  0.8707748E-01
        3   -1    0    0  501    0  0.00000000000E+00  0.00000000000E+00  0.36818126532E+03  0.36818127918E+03  0.10100000352E+00 0.  1.
       -3   -1    0    0    0  501  0.00000000000E+00  0.00000000000E+00 -0.21933538711E+04  0.21933538735E+04  0.10100000352E+00 0. -1.
    10030    2    1    2    0    0  0.00000000000E+00  0.00000000000E+00 -0.18251726058E+04  0.25615351526E+04  0.17972777463E+04 0.  0.
        4    1    3    3  502    0 -0.28153583135E+03  0.15136165113E+03  0.28441853394E+03  0.42786480238E+03  0.12699999809E+01 0.  1.
       -4    1    3    3    0  502  0.28153583135E+03 -0.15136165113E+03 -0.21095911397E+04  0.21336703503E+04  0.12699999809E+01 0. -1.
</event>
<event>
 5   0  0.2431811E-04  0.1778942E+04  0.7818609E-02  0.8717579E-01
       -2   -1    0    0    0  501  0.00000000000E+00  0.00000000000E+00  0.54533159698E+03  0.54533159699E+03  0.25500000920E-02 0.  1.
        2   -1    0    0  501    0  0.00000000000E+00  0.00000000000E+00 -0.14507845976E+04  0.14507845976E+04  0.25500000920E-02 0. -1.
    10030    2    1    2    0    0  0.00000000000E+00  0.00000000000E+00 -0.90545300060E+03  0.19961161946E+04  0.17789420243E+04 0.  0.
        3    1    3    3  502    0  0.84639891803E+03  0.21017279119E+03 -0.64899419939E+03  0.10870865705E+04  0.10100000352E+00 0. -1.
       -3    1    3    3    0  502 -0.84639891803E+03 -0.21017279119E+03 -0.25645880120E+03  0.90902962412E+03  0.10100000352E+00 0.  1.
</event>
<event>
 5   0  0.2431811E-04  0.1842007E+04  0.7818609E-02  0.8684274E-01
       -2   -1    0    0    0  501  0.00000000000E+00  0.00000000000E+00  0.55366857388E+03  0.55366857388E+03  0.25500000920E-02 0. -1.
        2   -1    0    0  501    0  0.00000000000E+00  0.00000000000E+00 -0.15320489824E+04  0.15320489824E+04  0.25500000920E-02 0.  1.
    10030    2    1    2    0    0  0.00000000000E+00  0.00000000000E+00 -0.97838040849E+03  0.20857175563E+04  0.18420069220E+04 0.  0.
        3    1    3    3  502    0  0.37354209447E+03  0.26598427886E+03 -0.13935953335E+04  0.14671023470E+04  0.10100000352E+00 0.  1.
       -3    1    3    3    0  502 -0.37354209447E+03 -0.26598427886E+03  0.41521492499E+03  0.61861520922E+03  0.10100000352E+00 0. -1.
</event>
<event>
 5   0  0.2417106E-04  0.1915927E+04  0.7818609E-02  0.8646969E-01
        2   -1    0    0  501    0  0.00000000000E+00  0.00000000000E+00  0.90347634057E+03  0.90347634057E+03  0.25500000920E-02 0.  1.
       -2   -1    0    0    0  501  0.00000000000E+00  0.00000000000E+00 -0.10157363028E+04  0.10157363028E+04  0.25500000920E-02 0. -1.
    10030    2    1    2    0    0  0.00000000000E+00  0.00000000000E+00 -0.11225996223E+03  0.19192126434E+04  0.19159266352E+04 0.  0.
        4    1    3    3  502    0 -0.87235359616E+01  0.72304626059E+03 -0.68555478539E+03  0.99642308870E+03  0.12699999809E+01 0. -1.
       -4    1    3    3    0  502  0.87235359616E+01 -0.72304626059E+03  0.57329482316E+03  0.92278955466E+03  0.12699999809E+01 0.  1.
</event>
<event>
 5   0  0.2431811E-04  0.1811280E+04  0.7818609E-02  0.8700324E-01
        2   -1    0    0  501    0  0.00000000000E+00  0.00000000000E+00  0.18043792921E+04  0.18043792921E+04  0.25500000920E-02 0. -1.
       -2   -1    0    0    0  501  0.00000000000E+00  0.00000000000E+00 -0.45455195083E+03  0.45455195084E+03  0.25500000920E-02 0.  1.
    10030    2    1    2    0    0  0.00000000000E+00  0.00000000000E+00  0.13498273412E+04  0.22589312429E+04  0.18112803508E+04 0.  0.
        3    1    3    3  502    0 -0.24447750784E+03 -0.81838591091E+03  0.29940179584E+03  0.90507800579E+03  0.10100000352E+00 0.  1.
       -3    1    3    3    0  502  0.24447750784E+03  0.81838591091E+03  0.10504255454E+04  0.13538532371E+04  0.10100000352E+00 0. -1.
</event>
<event>
 5   0  0.2550616E-04  0.1729100E+04  0.7818609E-02  0.8744939E-01
       -2   -1    0    0    0  501  0.00000000000E+00  0.00000000000E+00  0.56407111752E+03  0.56407111753E+03  0.25500000920E-02 0. -1.
        2   -1    0    0  501    0  0.00000000000E+00  0.00000000000E+00 -0.13250936480E+04  0.13250936480E+04  0.25500000920E-02 0.  1.
    10030    2    1    2    0    0  0.00000000000E+00  0.00000000000E+00 -0.76102253051E+03  0.18891647656E+04  0.17291004076E+04 0.  0.
        1    1    3    3  502    0  0.61914274657E+03  0.50513875877E+03 -0.74113273455E+03  0.10898534931E+04  0.50400001928E-02 0. -1.
       -1    1    3    3    0  502 -0.61914274657E+03 -0.50513875877E+03 -0.19889795966E+02  0.79931127244E+03  0.50400001928E-02 0.  1.
</event>
<event>
 5   0  0.2431811E-04  0.1808745E+04  0.7818609E-02  0.8701663E-01
        2   -1    0    0  501    0  0.00000000000E+00  0.00000000000E+00  0.21362960470E+04  0.21362960470E+04  0.25500000920E-02 0. -1.
       -2   -1    0    0    0  501  0.00000000000E+00  0.00000000000E+00 -0.38285408070E+03  0.38285408071E+03  0.25500000920E-02 0.  1.
    10030    2    1    2    0    0  0.00000000000E+00  0.00000000000E+00  0.17534419663E+04  0.25191501278E+04  0.18087450447E+04 0.  0.
        3    1    3    3  502    0 -0.32386416369E+03  0.67598109484E+03  0.15814791438E+04  0.17501184901E+04  0.10100000352E+00 0. -1.
       -3    1    3    3    0  502  0.32386416369E+03 -0.67598109484E+03  0.17196282256E+03  0.76903163761E+03  0.10100000352E+00 0.  1.
</event>
<event>
 5   0  0.2393421E-04  0.1795141E+04  0.7818609E-02  0.8708888E-01
        2   -1    0    0  501    0  0.00000000000E+00  0.00000000000E+00  0.25927580088E+04  0.25927580088E+04  0.25500000920E-02 0.  1.
       -2   -1    0    0    0  501  0.00000000000E+00  0.00000000000E+00 -0.31072427837E+03  0.31072427838E+03  0.25500000920E-02 0. -1.
    10030    2    1    2    0    0  0.00000000000E+00  0.00000000000E+00  0.22820337304E+04  0.29034822872E+04  0.17951410655E+04 0.  0.
        5    1    3    3  502    0 -0.50431075163E+03 -0.50727453348E+03  0.20179374704E+04  0.21409695259E+04  0.46999998093E+01 0.  1.
       -5    1    3    3    0  502  0.50431075163E+03  0.50727453348E+03  0.26409626006E+03  0.76251276127E+03  0.46999998093E+01 0. -1.
</event>
<event>
 5   0  0.1330225E-04  0.1800028E+04  0.7818609E-02  0.8706285E-01
       -1   -1    0    0    0  501  0.00000000000E+00  0.00000000000E+00  0.81704435624E+03  0.81704435625E+03  0.50400001928E-02 0.  1.
        1   -1    0    0  501    0  0.00000000000E+00  0.00000000000E+00 -0.99140913536E+03  0.99140913537E+03  0.50400001928E-02 0. -1.
    10030    2    1    2    0    0  0.00000000000E+00  0.00000000000E+00 -0.17436477912E+03  0.18084534916E+04  0.18000280429E+04 0.  0.
        3    1    3    3  502    0  0.32905377042E+03 -0.44975615481E+02 -0.92759409181E+03  0.98525631141E+03  0.10100000352E+00 0. -1.
       -3    1    3    3    0  502 -0.32905377042E+03  0.44975615481E+02  0.75322931269E+03  0.82319718021E+03  0.10100000352E+00 0.  1.
</event>
<event>
 5   0  0.1214723E-04  0.1794693E+04  0.7818609E-02  0.8709127E-01
        1   -1    0    0  501    0  0.00000000000E+00  0.00000000000E+00  0.97804395923E+03  0.97804395924E+03  0.50400001928E-02 0. -1.
       -1   -1    0    0    0  501  0.00000000000E+00  0.00000000000E+00 -0.82330732308E+03  0.82330732309E+03  0.50400001928E-02 0.  1.
    10030    2    1    2    0    0  0.00000000000E+00  0.00000000000E+00  0.15473663615E+03  0.18013512823E+04  0.17946930144E+04 0.  0.
        1    1    3    3  502    0 -0.51029421616E+03 -0.48205144971E+03 -0.48368398165E+03  0.85248107389E+03  0.50400001928E-02 0.  1.
       -1    1    3    3    0  502  0.51029421616E+03  0.48205144971E+03  0.63842061780E+03  0.94887020844E+03  0.50400001928E-02 0. -1.
</event>
<event>
 5   0  0.1330225E-04  0.1817257E+04  0.7818609E-02  0.8697176E-01
       -1   -1    0    0    0  501  0.00000000000E+00  0.00000000000E+00  0.10837274668E+04  0.10837274669E+04  0.50400001928E-02 0.  1.
        1   -1    0    0  501    0  0.00000000000E+00  0.00000000000E+00 -0.76182033692E+03  0.76182033693E+03  0.50400001928E-02 0. -1.
    10030    2    1    2    0    0  0.00000000000E+00  0.00000000000E+00  0.32190712993E+03  0.18455478038E+04  0.18172568602E+04 0.  0.
        3    1    3    3  502    0  0.58156182165E+03 -0.65272502860E+03  0.41248146908E+03  0.96664630961E+03  0.10100000352E+00 0.  1.
       -3    1    3    3    0  502 -0.58156182165E+03  0.65272502860E+03 -0.90574339149E+02  0.87890149418E+03  0.10100000352E+00 0. -1.
</event>
<event>
 5   0  0.1214723E-04  0.1819855E+04  0.7818609E-02  0.8695812E-01
        1   -1    0    0  501    0  0.00000000000E+00  0.00000000000E+00  0.16323747185E+04  0.16323747185E+04  0.50400001928E-02 0. -1.
       -1   -1    0    0    0  501  0.00000000000E+00  0.00000000000E+00 -0.50721681413E+03  0.50721681416E+03  0.50400001928E-02 0.  1.
    10030    2    1    2    0    0  0.00000000000E+00  0.00000000000E+00  0.11251579044E+04  0.21395915327E+04  0.18198548340E+04 0.  0.
        1    1    3    3  502    0 -0.87569874805E+03 -0.20528391803E+03  0.72454378106E+03  0.11549690364E+04  0.50400001928E-02 0. -1.
       -1    1    3    3    0  502  0.87569874805E+03  0.20528391803E+03  0.40061412333E+03  0.98462249628E+03  0.50400001928E-02 0.  1.
</event>
<event>
 5   0  0.1308893E-04  0.1802874E+04  0.7818609E-02  0.8704773E-01
       -1   -1    0    0    0  501  0.00000000000E+00  0.00000000000E+00  0.11831274391E+04  0.11831274391E+04  0.50400001928E-02 0.  1.
        1   -1    0    0  501    0  0.00000000000E+00  0.00000000000E+00 -0.68681411586E+03  0.68681411588E+03  0.50400001928E-02 0. -1.
    10030    2    1    2    0    0  0.00000000000E+00  0.00000000000E+00  0.49631332323E+03  0.18699415550E+04  0.18028739568E+04 0.  0.
        4    1    3    3  502    0  0.38006017458E+03 -0.17231692995E+03  0.10769103704E+04  0.11549356776E+04  0.12699999809E+01 0.  1.
       -4    1    3    3    0  502 -0.38006017458E+03  0.17231692995E+03 -0.58059704714E+03  0.71500587739E+03  0.12699999809E+01 0. -1.
</event>
<event>
 5   0  0.2417106E-04  0.1819097E+04  0.7818609E-02  0.8696209E-01
       -2   -1    0    0    0  501  0.00000000000E+00  0.00000000000E+00  0.14201024977E+04  0.14201024977E+04  0.25500000920E-02 0.  1.
        2   -1    0    0  501    0  0.00000000000E+00  0.00000000000E+00 -0.58254830994E+03  0.58254830994E+03  0.25500000920E-02 0. -1.
    10030    2    1    2    0    0  0.00000000000E+00  0.00000000000E+00  0.83755418777E+03  0.20026508076E+04  0.18190968198E+04 0.  0.
        4    1    3    3  502    0  0.76458448418E+03 -0.45034066999E+03  0.19892532938E+03  0.90937838773E+03  0.12699999809E+01 0. -1.
       -4    1    3    3    0  502 -0.76458448418E+03  0.45034066999E+03  0.63862885839E+03  0.10932724199E+04  0.12699999809E+01 0.  1.
</event>
<event>
 5   0  0.2393421E-04  0.1629842E+04  0.7818609E-02  0.8802422E-01
       -2   -1    0    0    0  501  0.00000000000E+00  0.00000000000E+00  0.53116159063E+03  0.53116159063E+03  0.25500000920E-02 0.  1.
        2   -1    0    0  501    0  0.00000000000E+00  0.00000000000E+00 -0.12502712437E+04  0.12502712437E+04  0.25500000920E-02 0. -1.
    10030    2    1    2    0    0  0.00000000000E+00  0.00000000000E+00 -0.71910965303E+03  0.17814328343E+04  0.16298417868E+04 0.  0.
        5    1    3    3  502    0  0.58242056225E+03 -0.16839299702E+03  0.23561283596E+03  0.65046553425E+03  0.46999998093E+01 0.  1.
       -5    1    3    3    0  502 -0.58242056225E+03  0.16839299702E+03 -0.95472248899E+03  0.11309673000E+04  0.46999998093E+01 0. -1.
</event>
<event>
 5   0  0.1214723E-04  0.1799079E+04  0.7818609E-02  0.8706789E-01
        1   -1    0    0  501    0  0.00000000000E+00  0.00000000000E+00  0.93225073376E+03  0.93225073377E+03  0.50400001928E-02 0. -1.
       -1   -1    0    0    0  501  0.00000000000E+00  0.00000000000E+00 -0.86797625510E+03  0.86797625512E+03  0.50400001928E-02 0.  1.
    10030    2    1    2    0    0  0.00000000000E+00  0.00000000000E+00  0.64274478652E+02  0.18002269889E+04  0.17990792097E+04 0.  0.
        1    1    3    3  502    0  0.72613858667E+03 -0.34549905746E+03  0.43553790433E+03  0.91451632675E+03  0.50400001928E-02 0. -1.
       -1    1    3    3    0  502 -0.72613858667E+03  0.34549905746E+03 -0.37126342568E+03  0.88571066214E+03  0.50400001928E-02 0.  1.
</event>
<event>
 5   0  0.2431811E-04  0.1803934E+04  0.7818609E-02  0.8704210E-01
       -2   -1    0    0    0  501  0.00000000000E+00  0.00000000000E+00  0.38052177613E+03  0.38052177614E+03  0.25500000920E-02 0. -1.
        2   -1    0    0  501    0  0.00000000000E+00  0.00000000000E+00 -0.21379697562E+04  0.21379697562E+04  0.25500000920E-02 0.  1.
    10030    2    1    2    0    0  0.00000000000E+00  0.00000000000E+00 -0.17574479801E+04  0.25184915324E+04  0.18039335342E+04 0.  0.
        3    1    3    3  502    0  0.71013274009E+03 -0.28210482887E+03 -0.20964966696E+03  0.79235385786E+03  0.10100000352E+00 0. -1.
       -3    1    3    3    0  502 -0.71013274009E+03  0.28210482887E+03 -0.15477983132E+04  0.17261376745E+04  0.10100000352E+00 0.  1.
</event>
<event>
 5   0  0.2550616E-04  0.1785922E+04  0.7818609E-02  0.8713822E-01
        2   -1    0    0  501    0  0.00000000000E+00  0.00000000000E+00  0.74239605591E+03  0.74239605591E+03  0.25500000920E-02 0.  1.
       -2   -1    0    0    0  501  0.00000000000E+00  0.00000000000E+00 -0.10740616011E+04  0.10740616011E+04  0.25500000920E-02 0. -1.
    10030    2    1    2    0    0  0.00000000000E+00  0.00000000000E+00 -0.33166554516E+03  0.18164576570E+04  0.17859217188E+04 0.  0.
        1    1    3    3  502    0  0.75976437788E+03 -0.15097803048E+02 -0.64279567494E+03  0.99531710188E+03  0.50400001928E-02 0. -1.
       -1    1    3    3    0  502 -0.75976437788E+03  0.15097803048E+02  0.31113012978E+03  0.82114055510E+03  0.50400001928E-02 0.  1.
</event>
<event>
 5   0  0.2569405E-04  0.1796966E+04  0.7818609E-02  0.8707915E-01
        2   -1    0    0  501    0  0.00000000000E+00  0.00000000000E+00  0.93762987524E+03  0.93762987525E+03  0.25500000920E-02 0.  1.
       -2   -1    0    0    0  501  0.00000000000E+00  0.00000000000E+00 -0.86097020267E+03  0.86097020267E+03  0.25500000920E-02 0. -1.
    10030    2    1    2    0    0  0.00000000000E+00  0.00000000000E+00  0.76659672577E+02  0.17986000779E+04  0.17969656465E+04 0.  0.
        2    1    3    3  502    0  0.33229193994E+03 -0.58406981498E+03 -0.55863187032E+03  0.87385642337E+03  0.25500000920E-02 0. -1.
       -2    1    3    3    0  502 -0.33229193994E+03  0.58406981498E+03  0.63529154290E+03  0.92474365454E+03  0.25500000920E-02 0.  1.
</event>
<event>
 5   0  0.9144875E-05  0.1791390E+04  0.7818609E-02  0.8710892E-01
       -4   -1    0    0    0  501  0.00000000000E+00  0.00000000000E+00  0.64802627965E+03  0.64802752412E+03  0.12699999809E+01 0. -1.
        4   -1    0    0  501    0  0.00000000000E+00  0.00000000000E+00 -0.12380173077E+04  0.12380179591E+04  0.12699999809E+01 0.  1.
    10030    2    1    2    0    0  0.00000000000E+00  0.00000000000E+00 -0.58999102802E+03  0.18860454832E+04  0.17913900054E+04 0.  0.
        3    1    3    3  502    0 -0.64084386879E+03  0.23530411170E+03 -0.90547939190E+03  0.11339937515E+04  0.10100000352E+00 0.  1.
       -3    1    3    3    0  502  0.64084386879E+03 -0.23530411170E+03  0.31548836388E+03  0.75205173166E+03  0.10100000352E+00 0. -1.
</event>
<event>
 5   0  0.1308893E-04  0.1782695E+04  0.7818609E-02  0.8715556E-01
       -1   -1    0    0    0  501  0.00000000000E+00  0.00000000000E+00  0.62558078112E+03  0.62558078114E+03  0.50400001928E-02 0.  1.
        1   -1    0    0  501    0  0.00000000000E+00  0.00000000000E+00 -0.12700210504E+04  0.12700210504E+04  0.50400001928E-02 0. -1.
    10030    2    1    2    0    0  0.00000000000E+00  0.00000000000E+00 -0.64444026927E+03  0.18956018315E+04  0.17826954432E+04 0.  0.
        4    1    3    3  502    0  0.13812398736E+03  0.87667137675E+03 -0.41034363139E+03  0.97775991298E+03  0.12699999809E+01 0. -1.
       -4    1    3    3    0  502 -0.13812398736E+03 -0.87667137675E+03 -0.23409663788E+03  0.91784191856E+03  0.12699999809E+01 0.  1.
</event>
<event>
 5   0  0.2393421E-04  0.1801563E+04  0.7818609E-02  0.8705469E-01
       -2   -1    0    0    0  501  0.00000000000E+00  0.00000000000E+00  0.44726361849E+03  0.44726361850E+03  0.25500000920E-02 0. -1.
        2   -1    0    0  501    0  0.00000000000E+00  0.00000000000E+00 -0.18141587644E+04  0.18141587644E+04  0.25500000920E-02 0.  1.
    10030    2    1    2    0    0  0.00000000000E+00  0.00000000000E+00 -0.13668951459E+04  0.22614223829E+04  0.18015628920E+04 0.  0.
        5    1    3    3  502    0  0.59537569602E+03 -0.43150208925E+03 -0.30329791718E+02  0.73594039072E+03  0.46999998093E+01 0. -1.
       -5    1    3    3    0  502 -0.59537569602E+03  0.43150208925E+03 -0.13365653541E+04  0.15254819921E+04  0.46999998093E+01 0.  1.
</event>
<event>
 5   0  0.2393421E-04  0.1804818E+04  0.7818609E-02  0.8703741E-01
       -2   -1    0    0    0  501  0.00000000000E+00  0.00000000000E+00  0.48594030416E+03  0.48594030417E+03  0.25500000920E-02 0.  1.
        2   -1    0    0  501    0  0.00000000000E+00  0.00000000000E+00 -0.16758071123E+04  0.16758071123E+04  0.25500000920E-02 0. -1.
    10030    2    1    2    0    0  0.00000000000E+00  0.00000000000E+00 -0.11898668081E+04  0.21617474164E+04  0.18048182378E+04 0.  0.
        5    1    3    3  502    0  0.14918449698E+03  0.52526146292E+03 -0.14554624771E+04  0.15545252429E+04  0.46999998093E+01 0. -1.
       -5    1    3    3    0  502 -0.14918449698E+03 -0.52526146292E+03  0.26559566904E+03  0.60722217349E+03  0.46999998093E+01 0.  1.
</event>
<event>
 5   0  0.1239119E-04  0.1802637E+04  0.7818609E-02  0.8704899E-01
       -1   -1    0    0    0  501  0.00000000000E+00  0.00000000000E+00  0.14624607733E+04  0.14624607733E+04  0.50400001928E-02 0.  1.
        1   -1    0    0  501    0  0.00000000000E+00  0.00000000000E+00 -0.55548475170E+03  0.55548475172E+03  0.50400001928E-02 0. -1.
    10030    2    1    2    0    0  0.00000000000E+00  0.00000000000E+00  0.90697602158E+03  0.20179455250E+04  0.18026365796E+04 0.  0.
        5    1    3    3  502    0  0.80013667787E+03 -0.32587992016E+03  0.74093848603E+03  0.11381688608E+04  0.46999998093E+01 0.  1.
       -5    1    3    3    0  502 -0.80013667787E+03  0.32587992016E+03  0.16603753555E+03  0.87977666419E+03  0.46999998093E+01 0. -1.
</event>
<event>
 5   0  0.1308893E-04  0.1810750E+04  0.7818609E-02  0.8700604E-01
        1   -1    0    0  501    0  0.00000000000E+00  0.00000000000E+00  0.19212764163E+04  0.19212764163E+04  0.50400001928E-02 0.  1.
       -1   -1    0    0    0  501  0.00000000000E+00  0.00000000000E+00 -0.42664541387E+03  0.42664541390E+03  0.50400001928E-02 0. -1.
    10030    2    1    2    0    0  0.00000000000E+00  0.00000000000E+00  0.14946310025E+04  0.23479218302E+04  0.18107498688E+04 0.  0.
        4    1    3    3  502    0  0.71908417551E+03 -0.17950432323E+03  0.73055877054E+02  0.74474333001E+03  0.12699999809E+01 0. -1.
       -4    1    3    3    0  502 -0.71908417551E+03  0.17950432323E+03  0.14215751254E+04  0.16031785002E+04  0.12699999809E+01 0.  1.
</event>
<event>
 5   0  0.1330225E-04  0.1799671E+04  0.7818609E-02  0.8706474E-01
       -1   -1    0    0    0  501  0.00000000000E+00  0.00000000000E+00  0.41133756070E+03  0.41133756073E+03  0.50400001928E-02 0. -1.
        1   -1    0    0  501    0  0.00000000000E+00  0.00000000000E+00 -0.19684660607E+04  0.19684660607E+04  0.50400001928E-02 0.  1.
    10030    2    1    2    0    0  0.00000000000E+00  0.00000000000E+00 -0.15571285000E+04  0.23798036214E+04  0.17996711119E+04 0.  0.
        3    1    3    3  502    0 -0.15770165052E+03  0.84777689488E+03 -0.11185625691E+04  0.14123659955E+04  0.10100000352E+00 0.  1.
       -3    1    3    3    0  502  0.15770165052E+03 -0.84777689488E+03 -0.43856593085E+03  0.96743762589E+03  0.10100000352E+00 0. -1.
</event>
<event>
 5   0  0.1239119E-04  0.1796404E+04  0.7818609E-02  0.8708214E-01
        1   -1    0    0  501    0  0.00000000000E+00  0.00000000000E+00  0.23248051977E+04  0.23248051977E+04  0.50400001928E-02 0. -1.
       -1   -1    0    0    0  501  0.00000000000E+00  0.00000000000E+00 -0.34702560851E+03  0.34702560854E+03  0.50400001928E-02 0.  1.
    10030    2    1    2    0    0  0.00000000000E+00  0.00000000000E+00  0.19777795891E+04  0.26718308062E+04  0.17964041176E+04 0.  0.
        5    1    3    3  502    0 -0.51286702420E+03 -0.71366387371E+03  0.12647313929E+04  0.15401026898E+04  0.46999998093E+01 0. -1.
       -5    1    3    3    0  502  0.51286702420E+03  0.71366387371E+03  0.71304819628E+03  0.11317281164E+04  0.46999998093E+01 0.  1.
</event>
<event>
 5   0  0.1214723E-04  0.1797603E+04  0.7818609E-02  0.8707575E-01
       -1   -1    0    0    0  501  0.00000000000E+00  0.00000000000E+00  0.63746506072E+03  0.63746506074E+03  0.50400001928E-02 0. -1.
        1   -1    0    0  501    0  0.00000000000E+00  0.00000000000E+00 -0.12672760476E+04  0.12672760476E+04  0.50400001928E-02 0.  1.
    10030    2    1    2    0    0  0.00000000000E+00  0.00000000000E+00 -0.62981098685E+03  0.19047411083E+04  0.17976030737E+04 0.  0.
        1    1    3    3  502    0  0.59942153268E+03  0.44510684583E+02 -0.10229825459E+04  0.11864993317E+04  0.50400001928E-02 0.  1.
       -1    1    3    3    0  502 -0.59942153268E+03 -0.44510684583E+02  0.39317155901E+03  0.71824177665E+03  0.50400001928E-02 0. -1.
</event>
<event>
 5   0  0.9144875E-05  0.1824891E+04  0.7818609E-02  0.8693174E-01
       -3   -1    0    0    0  501  0.00000000000E+00  0.00000000000E+00  0.46410907013E+03  0.46410908112E+03  0.10100000352E+00 0.  1.
        3   -1    0    0  501    0  0.00000000000E+00  0.00000000000E+00 -0.17938820148E+04  0.17938820176E+04  0.10100000352E+00 0. -1.
    10030    2    1    2    0    0  0.00000000000E+00  0.00000000000E+00 -0.13297729447E+04  0.22579910987E+04  0.18248911523E+04 0.  0.
        4    1    3    3  502    0 -0.55751225071E+03 -0.10446586361E+03  0.21945538201E+03  0.60819018731E+03  0.12699999809E+01 0.  1.
       -4    1    3    3    0  502  0.55751225071E+03  0.10446586361E+03 -0.15492283267E+04  0.16498009114E+04  0.12699999809E+01 0. -1.
</event>
<event>
 5   0  0.2550616E-04  0.1778129E+04  0.7818609E-02  0.8718018E-01
        2   -1    0    0  501    0  0.00000000000E+00  0.00000000000E+00  0.18930407590E+04  0.18930407590E+04  0.25500000920E-02 0.  1.
       -2   -1    0    0    0  501  0.00000000000E+00  0.00000000000E+00 -0.41754806485E+03  0.41754806486E+03  0.25500000920E-02 0. -1.
    10030    2    1    2    0    0  0.00000000000E+00  0.00000000000E+00  0.14754926941E+04  0.23105888238E+04  0.17781287980E+04 0.  0.
        1    1    3    3  502    0 -0.24129491049E+03  0.90496270264E+01  0.18496154593E+04  0.18653102897E+04  0.50400001928E-02 0.  1.
       -1    1    3    3    0  502  0.24129491049E+03 -0.90496270264E+01 -0.37412276513E+03  0.44527853417E+03  0.50400001928E-02 0. -1.
</event>
<event>
 5   0  0.1214723E-04  0.1766500E+04  0.7818609E-02  0.8724320E-01
       -1   -1    0    0    0  501  0.00000000000E+00  0.00000000000E+00  0.81313737607E+03  0.81313737609E+03  0.50400001928E-02 0. -1.
        1   -1    0    0  501    0  0.00000000000E+00  0.00000000000E+00 -0.95940786070E+03  0.95940786071E+03  0.50400001928E-02 0.  1.
    10030    2    1    2    0    0  0.00000000000E+00  0.00000000000E+00 -0.14627048462E+03  0.17725452368E+04  0.17664998052E+04 0.  0.
        1    1    3    3  502    0  0.75291530650E+03  0.33364653970E+03 -0.39349093161E+03  0.91270837922E+03  0.50400001928E-02 0.  1.
       -1    1    3    3    0  502 -0.75291530650E+03 -0.33364653970E+03  0.24722044699E+03  0.85983685758E+03  0.50400001928E-02 0. -1.
</event>
<event>
 5   0  0.2417106E-04  0.1802529E+04  0.7818609E-02  0.8704956E-01
       -2   -1    0    0    0  501  0.00000000000E+00  0.00000000000E+00  0.10808878855E+04  0.10808878855E+04  0.25500000920E-02 0.  1.
        2   -1    0    0  501    0  0.00000000000E+00  0.00000000000E+00 -0.75149098232E+03  0.75149098233E+03  0.25500000920E-02 0. -1.
    10030    2    1    2    0    0  0.00000000000E+00  0.00000000000E+00  0.32939690315E+03  0.18323788678E+04  0.18025287780E+04 0.  0.
        4    1    3    3  502    0  0.52912640886E+03 -0.69462865108E+03  0.39153528656E+03  0.95696667286E+03  0.12699999809E+01 0.  1.
       -4    1    3    3    0  502 -0.52912640886E+03  0.69462865108E+03 -0.62138383411E+02  0.87541219494E+03  0.12699999809E+01 0. -1.
</event>
<event>
 5   0  0.2393421E-04  0.1814991E+04  0.7818609E-02  0.8698368E-01
       -2   -1    0    0    0  501  0.00000000000E+00  0.00000000000E+00  0.63615192846E+03  0.63615192846E+03  0.25500000920E-02 0. -1.
        2   -1    0    0  501    0  0.00000000000E+00  0.00000000000E+00 -0.12945780610E+04  0.12945780610E+04  0.25500000920E-02 0.  1.
    10030    2    1    2    0    0  0.00000000000E+00  0.00000000000E+00 -0.65842613249E+03  0.19307299894E+04  0.18149912727E+04 0.  0.
        5    1    3    3  502    0  0.28082996568E+03  0.24013135115E+03  0.55249465561E+03  0.66468110391E+03  0.46999998093E+01 0. -1.
       -5    1    3    3    0  502 -0.28082996568E+03 -0.24013135115E+03 -0.12109207881E+04  0.12660488855E+04  0.46999998093E+01 0.  1.
</event>
<event>
 5   0  0.1253925E-04  0.1776417E+04  0.7818609E-02  0.8718942E-01
       -1   -1    0    0    0  501  0.00000000000E+00  0.00000000000E+00  0.71434668612E+03  0.71434668614E+03  0.50400001928E-02 0. -1.
        1   -1    0    0  501    0  0.00000000000E+00  0.00000000000E+00 -0.11043853329E+04  0.11043853329E+04  0.50400001928E-02 0.  1.
    10030    2    1    2    0    0  0.00000000000E+00  0.00000000000E+00 -0.39003864681E+03  0.18187320191E+04  0.17764166210E+04 0.  0.
        2    1    3    3  502    0 -0.70901653393E+03 -0.34373871480E+03 -0.61472741967E+03  0.99937507971E+03  0.25500000920E-02 0.  1.
       -2    1    3    3    0  502  0.70901653393E+03  0.34373871480E+03  0.22468877286E+03  0.81935693937E+03  0.25500000920E-02 0. -1.
</event>
<event>
 5   0  0.1214723E-04  0.1805302E+04  0.7818609E-02  0.8703485E-01
       -1   -1    0    0    0  501  0.00000000000E+00  0.00000000000E+00  0.16608856676E+04  0.16608856676E+04  0.50400001928E-02 0.  1.
        1   -1    0    0  501    0  0.00000000000E+00  0.00000000000E+00 -0.49056897897E+03  0.49056897900E+03  0.50400001928E-02 0. -1.
    10030    2    1    2    0    0  0.00000000000E+00  0.00000000000E+00  0.11703166886E+04  0.21514546466E+04  0.18053021755E+04 0.  0.
        1    1    3    3  502    0  0.83885704628E+03  0.24155661764E+03  0.31145110319E+03  0.92684007969E+03  0.50400001928E-02 0. -1.
       -1    1    3    3    0  502 -0.83885704628E+03 -0.24155661764E+03  0.85886558543E+03  0.12246145669E+04  0.50400001928E-02 0.  1.
</event>
<event>
 5   0  0.2569405E-04  0.1812194E+04  0.7818609E-02  0.8699842E-01
        2   -1    0    0  501    0  0.00000000000E+00  0.00000000000E+00  0.87532463570E+03  0.87532463571E+03  0.25500000920E-02 0. -1.
       -2   -1    0    0    0  501  0.00000000000E+00  0.00000000000E+00 -0.93795072246E+03  0.93795072246E+03  0.25500000920E-02 0.  1.
    10030    2    1    2    0    0  0.00000000000E+00  0.00000000000E+00 -0.62626086754E+02  0.18132753582E+04  0.18121935597E+04 0.  0.
        2    1    3    3  502    0 -0.54860189911E+03 -0.63064935816E+03  0.31865097038E+03  0.89455077977E+03  0.25500000920E-02 0. -1.
       -2    1    3    3    0  502  0.54860189911E+03  0.63064935816E+03 -0.38127705713E+03  0.91872457840E+03  0.25500000920E-02 0.  1.
</event>
<event>
 5   0  0.1330225E-04  0.1801654E+04  0.7818609E-02  0.8705420E-01
        1   -1    0    0  501    0  0.00000000000E+00  0.00000000000E+00  0.58773937277E+03  0.58773937280E+03  0.50400001928E-02 0. -1.
       -1   -1    0    0    0  501  0.00000000000E+00  0.00000000000E+00 -0.13806954908E+04  0.13806954909E+04  0.50400001928E-02 0.  1.
    10030    2    1    2    0    0  0.00000000000E+00  0.00000000000E+00 -0.79295611807E+03  0.19684348636E+04  0.18016537978E+04 0.  0.
        3    1    3    3  502    0  0.67032707430E+03  0.30068586374E+03  0.17306356159E+03  0.75478565285E+03  0.10100000352E+00 0. -1.
       -3    1    3    3    0  502 -0.67032707430E+03 -0.30068586374E+03 -0.96601967966E+03  0.12136492108E+04  0.10100000352E+00 0.  1.
</event>
<event>
 5   0  0.1330225E-04  0.1798039E+04  0.7818609E-02  0.8707343E-01
       -1   -1    0    0    0  501  0.00000000000E+00  0.00000000000E+00  0.82101975530E+03  0.82101975532E+03  0.50400001928E-02 0.  1.
        1   -1    0    0  501    0  0.00000000000E+00  0.00000000000E+00 -0.98442936165E+03  0.98442936166E+03  0.50400001928E-02 0. -1.
    10030    2    1    2    0    0  0.00000000000E+00  0.00000000000E+00 -0.16340960634E+03  0.18054491170E+04  0.17980388802E+04 0.  0.
        3    1    3    3  502    0  0.78554876493E+03 -0.13042610051E+03  0.33731359522E+03  0.86479957302E+03  0.10100000352E+00 0.  1.
       -3    1    3    3    0  502 -0.78554876493E+03  0.13042610051E+03 -0.50072320156E+03  0.94064954396E+03  0.10100000352E+00 0. -1.
</event>
<event>
 5   0  0.2569405E-04  0.1805416E+04  0.7818609E-02  0.8703425E-01
        2   -1    0    0  501    0  0.00000000000E+00  0.00000000000E+00  0.11456529141E+04  0.11456529141E+04  0.25500000920E-02 0. -1.
       -2   -1    0    0    0  501  0.00000000000E+00  0.00000000000E+00 -0.71128116496E+03  0.71128116497E+03  0.25500000920E-02 0.  1.
    10030    2    1    2    0    0  0.00000000000E+00  0.00000000000E+00  0.43437174917E+03  0.18569340791E+04  0.18054155637E+04 0.  0.
        2    1    3    3  502    0 -0.30656561802E+02 -0.13128022712E+03 -0.70086896768E+03  0.71371677343E+03  0.25500000920E-02 0.  1.
       -2    1    3    3    0  502  0.30656561802E+02  0.13128022712E+03  0.11352407168E+04  0.11432173057E+04  0.25500000920E-02 0. -1.
</event>
<event>
 5   0  0.1239119E-04  0.1806531E+04  0.7818609E-02  0.8702834E-01
        1   -1    0    0  501    0  0.00000000000E+00  0.00000000000E+00  0.11565574581E+04  0.11565574581E+04  0.50400001928E-02 0.  1.
       -1   -1    0    0    0  501  0.00000000000E+00  0.00000000000E+00 -0.70544581429E+03  0.70544581431E+03  0.50400001928E-02 0. -1.
    10030    2    1    2    0    0  0.00000000000E+00  0.00000000000E+00  0.45111164380E+03  0.18620032724E+04  0.18065310602E+04 0.  0.
        5    1    3    3  502    0  0.74135249395E+02 -0.39524161245E+03 -0.60807774537E+03  0.72903539134E+03  0.46999998093E+01 0. -1.
       -5    1    3    3    0  502 -0.74135249395E+02  0.39524161245E+03  0.10591893892E+04  0.11329678811E+04  0.46999998093E+01 0.  1.
</event>
<event>
 5   0  0.2431811E-04  0.1805953E+04  0.7818609E-02  0.8703140E-01
        2   -1    0    0  501    0  0.00000000000E+00  0.00000000000E+00  0.97743451390E+03  0.97743451391E+03  0.25500000920E-02 0. -1.
       -2   -1    0    0    0  501  0.00000000000E+00  0.00000000000E+00 -0.83419058046E+03  0.83419058047E+03  0.25500000920E-02 0.  1.
    10030    2    1    2    0    0  0.00000000000E+00  0.00000000000E+00  0.14324393344E+03  0.18116250944E+04  0.18059531163E+04 0.  0.
        3    1    3    3  502    0  0.50259227297E+03  0.12425846659E+03 -0.67051743365E+03  0.84713210210E+03  0.10100000352E+00 0.  1.
       -3    1    3    3    0  502 -0.50259227297E+03 -0.12425846659E+03  0.81376136709E+03  0.96449299228E+03  0.10100000352E+00 0. -1.
</event>
<event>
 5   0  0.2431811E-04  0.1799074E+04  0.7818609E-02  0.8706792E-01
       -2   -1    0    0    0  501  0.00000000000E+00  0.00000000000E+00  0.36490297456E+03  0.36490297457E+03  0.25500000920E-02 0.  1.
        2   -1    0    0  501    0  0.00000000000E+00  0.00000000000E+00 -0.22174860058E+04  0.22174860058E+04  0.25500000920E-02 0. -1.
    10030    2    1    2    0    0  0.00000000000E+00  0.00000000000E+00 -0.18525830313E+04  0.25823889804E+04  0.17990744727E+04 0.  0.
        3    1    3    3  502    0  0.18754852940E+03 -0.87767414719E+03 -0.83920563461E+03  0.12287198488E+04  0.10100000352E+00 0.  1.
       -3    1    3    3    0  502 -0.18754852940E+03  0.87767414719E+03 -0.10133773967E+04  0.13536691316E+04  0.10100000352E+00 0. -1.
</event>
<event>
 5   0  0.2569405E-04  0.1840597E+04  0.7818609E-02  0.8685004E-01
       -2   -1    0    0    0  501  0.00000000000E+00  0.00000000000E+00  0.10815947470E+04  0.10815947470E+04  0.25500000920E-02 0.  1.
        2   -1    0    0  501    0  0.00000000000E+00  0.00000000000E+00 -0.78305601802E+03  0.78305601803E+03  0.25500000920E-02 0. -1.
    10030    2    1    2    0    0  0.00000000000E+00  0.00000000000E+00  0.29853872902E+03  0.18646507651E+04  0.18405969420E+04 0.  0.
        2    1    3    3  502    0 -0.39345508073E+02  0.91418031979E+03  0.24891921008E+03  0.94827975791E+03  0.25500000920E-02 0. -1.
       -2    1    3    3    0  502  0.39345508073E+02 -0.91418031979E+03  0.49619518935E+02  0.91637100716E+03  0.25500000920E-02 0.  1.
</event>
<event>
 5   0  0.1308893E-04  0.1874969E+04  0.7818609E-02  0.8667417E-01
        1   -1    0    0  501    0  0.00000000000E+00  0.00000000000E+00  0.95528728265E+03  0.95528728266E+03  0.50400001928E-02 0. -1.
       -1   -1    0    0    0  501  0.00000000000E+00  0.00000000000E+00 -0.92001397292E+03  0.92001397293E+03  0.50400001928E-02 0.  1.
    10030    2    1    2    0    0  0.00000000000E+00  0.00000000000E+00  0.35273309731E+02  0.18753012556E+04  0.18749694912E+04 0.  0.
        4    1    3    3  502    0 -0.26633848321E+03 -0.35082512242E+03  0.84534672896E+03  0.95321936574E+03  0.12699999809E+01 0. -1.
       -4    1    3    3    0  502  0.26633848321E+03  0.35082512242E+03 -0.81007341923E+03  0.92208188985E+03  0.12699999809E+01 0.  1.
</event>
<event>
 5   0  0.2550616E-04  0.1849646E+04  0.7818609E-02  0.8680335E-01
       -2   -1    0    0    0  501  0.00000000000E+00  0.00000000000E+00  0.76068891683E+03  0.76068891683E+03  0.25500000920E-02 0. -1.
        2   -1    0    0  501    0  0.00000000000E+00  0.00000000000E+00 -0.11243723718E+04  0.11243723718E+04  0.25500000920E-02 0.  1.
    10030    2    1    2    0    0  0.00000000000E+00  0.00000000000E+00 -0.36368345492E+03  0.18850612886E+04  0.18496460219E+04 0.  0.
        1    1    3    3  502    0 -0.16461977707E+03  0.89713121398E+03 -0.26097132123E+02  0.91248295679E+03  0.50400001928E-02 0. -1.
       -1    1    3    3    0  502  0.16461977707E+03 -0.89713121398E+03 -0.33758632280E+03  0.97257833179E+03  0.50400001928E-02 0.  1.
</event>
<event>
 5   0  0.2569405E-04  0.1804069E+04  0.7818609E-02  0.8704139E-01
        2   -1    0    0  501    0  0.00000000000E+00  0.00000000000E+00  0.18943509549E+04  0.18943509549E+04  0.25500000920E-02 0. -1.
       -2   -1    0    0    0  501  0.00000000000E+00  0.00000000000E+00 -0.42952246026E+03  0.42952246027E+03  0.25500000920E-02 0.  1.
    10030    2    1    2    0    0  0.00000000000E+00  0.00000000000E+00  0.14648284946E+04  0.23238734152E+04  0.18040690483E+04 0.  0.
        2    1    3    3  502    0 -0.53183123855E+03 -0.14029847125E+03  0.16533481536E+04  0.17424374435E+04  0.25500000920E-02 0. -1.
       -2    1    3    3    0  502  0.53183123855E+03  0.14029847125E+03 -0.18851965900E+03  0.58143597168E+03  0.25500000920E-02 0.  1.
</event>
<event>
 5   0  0.2550616E-04  0.1808943E+04  0.7818609E-02  0.8701558E-01
        2   -1    0    0  501    0  0.00000000000E+00  0.00000000000E+00  0.16903015454E+04  0.16903015454E+04  0.25500000920E-02 0.  1.
       -2   -1    0    0    0  501  0.00000000000E+00  0.00000000000E+00 -0.48397790528E+03  0.48397790529E+03  0.25500000920E-02 0. -1.
    10030    2    1    2    0    0  0.00000000000E+00  0.00000000000E+00  0.12063236401E+04  0.21742794506E+04  0.18089428971E+04 0.  0.
        1    1    3    3  502    0  0.84942829322E+03  0.15639248275E+03  0.28045910902E+03  0.90809930396E+03  0.50400001928E-02 0. -1.
       -1    1    3    3    0  502 -0.84942829322E+03 -0.15639248275E+03  0.92586453105E+03  0.12661801467E+04  0.50400001928E-02 0.  1.
</event>
<event>
 5   0  0.2431811E-04  0.1880450E+04  0.7818609E-02  0.8664650E-01
        2   -1    0    0  501    0  0.00000000000E+00  0.00000000000E+00  0.11773332359E+04  0.11773332359E+04  0.25500000920E-02 0. -1.
       -2   -1    0    0    0  501  0.00000000000E+00  0.00000000000E+00 -0.75086863740E+03  0.75086863741E+03  0.25500000920E-02 0.  1.
    10030    2    1    2    0    0  0.00000000000E+00  0.00000000000E+00  0.42646459853E+03  0.19282018733E+04  0.18804495235E+04 0.  0.
        3    1    3    3  502    0  0.12143126570E+03 -0.24695232078E+02 -0.74245877142E+03  0.75272866574E+03  0.10100000352E+00 0.  1.
       -3    1    3    3    0  502 -0.12143126570E+03  0.24695232078E+02  0.11689233699E+04  0.11754732076E+04  0.10100000352E+00 0. -1.
</event>
<event>
 5   0  0.1253925E-04  0.1667589E+04  0.7818609E-02  0.8780068E-01
       -1   -1    0    0    0  501  0.00000000000E+00  0.00000000000E+00  0.38197463734E+03  0.38197463738E+03  0.50400001928E-02 0. -1.
        1   -1    0    0  501    0  0.00000000000E+00  0.00000000000E+00 -0.18200517654E+04  0.18200517654E+04  0.50400001928E-02 0.  1.
    10030    2    1    2    0    0  0.00000000000E+00  0.00000000000E+00 -0.14380771280E+04  0.22020264028E+04  0.16675894136E+04 0.  0.
        2    1    3    3  502    0  0.65771330909E+02  0.54430815828E+03  0.11047013217E+03  0.55928605315E+03  0.25500000920E-02 0. -1.
       -2    1    3    3    0  502 -0.65771330909E+02 -0.54430815828E+03 -0.15485472602E+04  0.16427403496E+04  0.25500000920E-02 0.  1.
</event>
<event>
 5   0  0.2550616E-04  0.1788610E+04  0.7818609E-02  0.8712380E-01
       -2   -1    0    0    0  501  0.00000000000E+00  0.00000000000E+00  0.37846568250E+03  0.37846568251E+03  0.25500000920E-02 0. -1.
        2   -1    0    0  501    0  0.00000000000E+00  0.00000000000E+00 -0.21132214739E+04  0.21132214739E+04  0.25500000920E-02 0.  1.
    10030    2    1    2    0    0  0.00000000000E+00  0.00000000000E+00 -0.17347557914E+04  0.24916871564E+04  0.17886104186E+04 0.  0.
        1    1    3    3  502    0  0.45134427733E+03 -0.73812543913E+03 -0.11827232955E+04  0.14653925120E+04  0.50400001928E-02 0. -1.
       -1    1    3    3    0  502 -0.45134427733E+03  0.73812543913E+03 -0.55203249593E+03  0.10262946444E+04  0.50400001928E-02 0.  1.
</event>
<event>
 5   0  0.2417106E-04  0.1821751E+04  0.7818609E-02  0.8694817E-01
       -2   -1    0    0    0  501  0.00000000000E+00  0.00000000000E+00  0.37236775848E+03  0.37236775849E+03  0.25500000920E-02 0. -1.
        2   -1    0    0  501    0  0.00000000000E+00  0.00000000000E+00 -0.22281586177E+04  0.22281586177E+04  0.25500000920E-02 0.  1.
    10030    2    1    2    0    0  0.00000000000E+00  0.00000000000E+00 -0.18557908592E+04  0.26005263762E+04  0.18217512783E+04 0.  0.
        4    1    3    3  502    0 -0.89781480232E+03 -0.15183425104E+03 -0.89388173295E+03  0.12759902917E+04  0.12699999809E+01 0. -1.
       -4    1    3    3    0  502  0.89781480232E+03  0.15183425104E+03 -0.96190912624E+03  0.13245360845E+04  0.12699999809E+01 0.  1.
</event>
<event>
 5   0  0.1214723E-04  0.1790111E+04  0.7818609E-02  0.8711576E-01
       -1   -1    0    0    0  501  0.00000000000E+00  0.00000000000E+00  0.93752701584E+03  0.93752701585E+03  0.50400001928E-02 0.  1.
        1   -1    0    0  501    0  0.00000000000E+00  0.00000000000E+00 -0.85450835861E+03  0.85450835862E+03  0.50400001928E-02 0. -1.
    10030    2    1    2    0    0  0.00000000000E+00  0.00000000000E+00  0.83018657231E+02  0.17920353745E+04  0.17901113613E+04 0.  0.
        1    1    3    3  502    0  0.93329052721E+02 -0.24549157849E+03  0.89808560491E+03  0.93569983486E+03  0.50400001928E-02 0.  1.
       -1    1    3    3    0  502 -0.93329052721E+02  0.24549157849E+03 -0.81506694768E+03  0.85633553962E+03  0.50400001928E-02 0. -1.
</event>
<event>
 5   0  0.1253925E-04  0.1858935E+04  0.7818609E-02  0.8675572E-01
        1   -1    0    0  501    0  0.00000000000E+00  0.00000000000E+00  0.17641074683E+04  0.17641074683E+04  0.50400001928E-02 0. -1.
       -1   -1    0    0    0  501  0.00000000000E+00  0.00000000000E+00 -0.48971481281E+03  0.48971481283E+03  0.50400001928E-02 0.  1.
    10030    2    1    2    0    0  0.00000000000E+00  0.00000000000E+00  0.12743926555E+04  0.22538222812E+04  0.18589347042E+04 0.  0.
        2    1    3    3  502    0 -0.23210546605E+03  0.82371069142E+03  0.19747249208E+03  0.87827537576E+03  0.25500000920E-02 0.  1.
       -2    1    3    3    0  502  0.23210546605E+03 -0.82371069142E+03  0.10769201634E+04  0.13755469054E+04  0.25500000920E-02 0. -1.
</event>
<event>
 5   0  0.1239119E-04  0.1806132E+04  0.7818609E-02  0.8703045E-01
       -1   -1    0    0    0  501  0.00000000000E+00  0.00000000000E+00  0.79564137010E+03  0.79564137011E+03  0.50400001928E-02 0.  1.
        1   -1    0    0  501    0  0.00000000000E+00  0.00000000000E+00 -0.10249946508E+04  0.10249946508E+04  0.50400001928E-02 0. -1.
    10030    2    1    2    0    0  0.00000000000E+00  0.00000000000E+00 -0.22935328068E+03  0.18206360209E+04  0.18061319424E+04 0.  0.
        5    1    3    3  502    0  0.24463252691E+03  0.81540808881E+03 -0.41837772389E+03  0.94857653058E+03  0.46999998093E+01 0. -1.
       -5    1    3    3    0  502 -0.24463252691E+03 -0.81540808881E+03  0.18902444321E+03  0.87205949032E+03  0.46999998093E+01 0.  1.
</event>
<event>
 5   0  0.9144875E-05  0.1813127E+04  0.7818609E-02  0.8699350E-01
       -3   -1    0    0    0  501  0.00000000000E+00  0.00000000000E+00  0.65058293583E+03  0.65058294367E+03  0.10100000352E+00 0. -1.
        3   -1    0    0  501    0  0.00000000000E+00  0.00000000000E+00 -0.12632623466E+04  0.12632623507E+04  0.10100000352E+00 0.  1.
    10030    2    1    2    0    0  0.00000000000E+00  0.00000000000E+00 -0.61267941078E+03  0.19138452943E+04  0.18131265125E+04 0.  0.
        4    1    3    3  502    0  0.30391126212E+03 -0.45509011689E+03 -0.10692519597E+04  0.12011537937E+04  0.12699999809E+01 0.  1.
       -4    1    3    3    0  502 -0.30391126212E+03  0.45509011689E+03  0.45657254896E+03  0.71269150065E+03  0.12699999809E+01 0. -1.
</event>
<event>
 5   0  0.1330225E-04  0.1789459E+04  0.7818609E-02  0.8711925E-01
        1   -1    0    0  501    0  0.00000000000E+00  0.00000000000E+00  0.99713667473E+03  0.99713667474E+03  0.50400001928E-02 0.  1.
       -1   -1    0    0    0  501  0.00000000000E+00  0.00000000000E+00 -0.80283988369E+03  0.80283988370E+03  0.50400001928E-02 0. -1.
    10030    2    1    2    0    0  0.00000000000E+00  0.00000000000E+00  0.19429679104E+03  0.17999765584E+04  0.17894592390E+04 0.  0.
        3    1    3    3  502    0 -0.40676895538E+03 -0.76702165121E+03  0.31465501049E+03  0.92346682794E+03  0.10100000352E+00 0.  1.
       -3    1    3    3    0  502  0.40676895538E+03  0.76702165121E+03 -0.12035821945E+03  0.87650973051E+03  0.10100000352E+00 0. -1.
</event>
<event>
 5   0  0.2417106E-04  0.1791074E+04  0.7818609E-02  0.8711061E-01
       -2   -1    0    0    0  501  0.00000000000E+00  0.00000000000E+00  0.57161060024E+03  0.57161060024E+03  0.25500000920E-02 0.  1.
        2   -1    0    0  501    0  0.00000000000E+00  0.00000000000E+00 -0.14030292576E+04  0.14030292576E+04  0.25500000920E-02 0. -1.
    10030    2    1    2    0    0  0.00000000000E+00  0.00000000000E+00 -0.83141865738E+03  0.19746398579E+04  0.17910738635E+04 0.  0.
        4    1    3    3  502    0  0.54180784365E+02 -0.50644287341E+03  0.39637331117E+03  0.64539395421E+03  0.12699999809E+01 0.  1.
       -4    1    3    3    0  502 -0.54180784365E+02  0.50644287341E+03 -0.12277919686E+04  0.13292459036E+04  0.12699999809E+01 0. -1.
</event>
<event>
 5   0  0.1214723E-04  0.1669563E+04  0.7818609E-02  0.8778916E-01
        1   -1    0    0  501    0  0.00000000000E+00  0.00000000000E+00  0.93743889071E+03  0.93743889072E+03  0.50400001928E-02 0. -1.
       -1   -1    0    0    0  501  0.00000000000E+00  0.00000000000E+00 -0.74336631096E+03  0.74336631098E+03  0.50400001928E-02 0.  1.
    10030    2    1    2    0    0  0.00000000000E+00  0.00000000000E+00  0.19407257975E+03  0.16808052017E+04  0.16695634040E+04 0.  0.
        1    1    3    3  502    0  0.34999941536E+03  0.38071282792E+03 -0.56267651515E+03  0.76422948701E+03  0.50400001928E-02 0.  1.
       -1    1    3    3    0  502 -0.34999941536E+03 -0.38071282792E+03  0.75674909490E+03  0.91657571468E+03  0.50400001928E-02 0. -1.
</event>
<event>
 5   0  0.2393421E-04  0.1814445E+04  0.7818609E-02  0.8698655E-01
        2   -1    0    0  501    0  0.00000000000E+00  0.00000000000E+00  0.11848439414E+04  0.11848439415E+04  0.25500000920E-02 0. -1.
       -2   -1    0    0    0  501  0.00000000000E+00  0.00000000000E+00 -0.69465069617E+03  0.69465069618E+03  0.25500000920E-02 0.  1.
    10030    2    1    2    0    0  0.00000000000E+00  0.00000000000E+00  0.49019324528E+03  0.18794946376E+04  0.18144450047E+04 0.  0.
        5    1    3    3  502    0  0.62892520953E+03  0.17265564002E+03 -0.40812523882E+03  0.76937974354E+03  0.46999998093E+01 0.  1.
       -5    1    3    3    0  502 -0.62892520953E+03 -0.17265564002E+03  0.89831848409E+03  0.11101148941E+04  0.46999998093E+01 0. -1.
</event>
<event>
 5   0  0.2393421E-04  0.1802563E+04  0.7818609E-02  0.8704938E-01
       -2   -1    0    0    0  501  0.00000000000E+00  0.00000000000E+00  0.13157344348E+04  0.13157344348E+04  0.25500000920E-02 0. -1.
        2   -1    0    0  501    0  0.00000000000E+00  0.00000000000E+00 -0.61738039852E+03  0.61738039852E+03  0.25500000920E-02 0.  1.
    10030    2    1    2    0    0  0.00000000000E+00  0.00000000000E+00  0.69835403628E+03  0.19331148333E+04  0.18025633411E+04 0.  0.
        5    1    3    3  502    0 -0.38348963685E+03  0.39874550038E+03 -0.41384769834E+03  0.69090830293E+03  0.46999998093E+01 0.  1.
       -5    1    3    3    0  502  0.38348963685E+03 -0.39874550038E+03  0.11122017346E+04  0.12422065304E+04  0.46999998093E+01 0. -1.
</event>
<event>
 5   0  0.2393421E-04  0.1793134E+04  0.7818609E-02  0.8709959E-01
        2   -1    0    0  501    0  0.00000000000E+00  0.00000000000E+00  0.15292047264E+04  0.15292047264E+04  0.25500000920E-02 0. -1.
       -2   -1    0    0    0  501  0.00000000000E+00  0.00000000000E+00 -0.52565375957E+03  0.52565375957E+03  0.25500000920E-02 0.  1.
    10030    2    1    2    0    0  0.00000000000E+00  0.00000000000E+00  0.10035509668E+04  0.20548584860E+04  0.17931338083E+04 0.  0.
        5    1    3    3  502    0  0.74232476067E+03  0.40671296668E+03  0.16308945359E+03  0.86202189498E+03  0.46999998093E+01 0. -1.
       -5    1    3    3    0  502 -0.74232476067E+03 -0.40671296668E+03  0.84046151324E+03  0.11928365910E+04  0.46999998093E+01 0.  1.
</event>
<event>
 5   0  0.2569405E-04  0.1777564E+04  0.7818609E-02  0.8718322E-01
       -2   -1    0    0    0  501  0.00000000000E+00  0.00000000000E+00  0.53680594222E+03  0.53680594223E+03  0.25500000920E-02 0.  1.
        2   -1    0    0  501    0  0.00000000000E+00  0.00000000000E+00 -0.14715441573E+04  0.14715441573E+04  0.25500000920E-02 0. -1.
    10030    2    1    2    0    0  0.00000000000E+00  0.00000000000E+00 -0.93473821505E+03  0.20083500995E+04  0.17775642299E+04 0.  0.
        2    1    3    3  502    0  0.65627503335E+03 -0.55793015468E+03 -0.71477581181E+03  0.11193245455E+04  0.25500000920E-02 0. -1.
       -2    1    3    3    0  502 -0.65627503335E+03  0.55793015468E+03 -0.21996240325E+03  0.88902555405E+03  0.25500000920E-02 0.  1.
</event>
<event>
 5   0  0.1308893E-04  0.1801388E+04  0.7818609E-02  0.8705562E-01
        1   -1    0    0  501    0  0.00000000000E+00  0.00000000000E+00  0.18287946209E+04  0.18287946209E+04  0.50400001928E-02 0.  1.
       -1   -1    0    0    0  501  0.00000000000E+00  0.00000000000E+00 -0.44359800486E+03  0.44359800489E+03  0.50400001928E-02 0. -1.
    10030    2    1    2    0    0  0.00000000000E+00  0.00000000000E+00  0.13851966161E+04  0.22723926258E+04  0.18013879595E+04 0.  0.
        4    1    3    3  502    0  0.56224779341E+03  0.64376486172E+03  0.10509356261E+04  0.13546302379E+04  0.12699999809E+01 0. -1.
       -4    1    3    3    0  502 -0.56224779341E+03 -0.64376486172E+03  0.33426099001E+03  0.91776238794E+03  0.12699999809E+01 0.  1.
</event>
<event>
 5   0  0.2550616E-04  0.1769265E+04  0.7818609E-02  0.8722817E-01
       -2   -1    0    0    0  501  0.00000000000E+00  0.00000000000E+00  0.14694595627E+04  0.14694595627E+04  0.25500000920E-02 0.  1.
        2   -1    0    0  501    0  0.00000000000E+00  0.00000000000E+00 -0.53255947878E+03  0.53255947878E+03  0.25500000920E-02 0. -1.
    10030    2    1    2    0    0  0.00000000000E+00  0.00000000000E+00  0.93690008387E+03  0.20020190414E+04  0.17692649533E+04 0.  0.
        1    1    3    3  502    0 -0.11787406721E+03 -0.36895805219E+03 -0.43150922792E+03  0.57984873355E+03  0.50400001928E-02 0. -1.
       -1    1    3    3    0  502  0.11787406721E+03  0.36895805219E+03  0.13684093118E+04  0.14221703079E+04  0.50400001928E-02 0.  1.
</event>
<event>
 5   0  0.2393421E-04  0.1802257E+04  0.7818609E-02  0.8705100E-01
       -2   -1    0    0    0  501  0.00000000000E+00  0.00000000000E+00  0.90673386757E+03  0.90673386758E+03  0.25500000920E-02 0. -1.
        2   -1    0    0  501    0  0.00000000000E+00  0.00000000000E+00 -0.89555742334E+03  0.89555742334E+03  0.25500000920E-02 0.  1.
    10030    2    1    2    0    0  0.00000000000E+00  0.00000000000E+00  0.11176444235E+02  0.18022912909E+04  0.18022566367E+04 0.  0.
        5    1    3    3  502    0 -0.46585315999E+03  0.13233142095E+03 -0.75434703336E+03  0.89643310313E+03  0.46999998093E+01 0.  1.
       -5    1    3    3    0  502  0.46585315999E+03 -0.13233142095E+03  0.76552347760E+03  0.90585818779E+03  0.46999998093E+01 0. -1.
</event>
<event>
 5   0  0.2417106E-04  0.1803659E+04  0.7818609E-02  0.8704356E-01
        2   -1    0    0  501    0  0.00000000000E+00  0.00000000000E+00  0.24118991957E+04  0.24118991957E+04  0.25500000920E-02 0. -1.
       -2   -1    0    0    0  501  0.00000000000E+00  0.00000000000E+00 -0.33720152808E+03  0.33720152809E+03  0.25500000920E-02 0.  1.
    10030    2    1    2    0    0  0.00000000000E+00  0.00000000000E+00  0.20746976676E+04  0.27491007238E+04  0.18036586089E+04 0.  0.
        4    1    3    3  502    0  0.84384147196E+03  0.12736463868E+02  0.55280374241E+03  0.10088727560E+04  0.12699999809E+01 0.  1.
       -4    1    3    3    0  502 -0.84384147196E+03 -0.12736463868E+02  0.15218939252E+04  0.17402279678E+04  0.12699999809E+01 0. -1.
</event>
<event>
 5   0  0.2431811E-04  0.1824333E+04  0.7818609E-02  0.8693465E-01
       -2   -1    0    0    0  501  0.00000000000E+00  0.00000000000E+00  0.45185976174E+03  0.45185976175E+03  0.25500000920E-02 0.  1.
        2   -1    0    0  501    0  0.00000000000E+00  0.00000000000E+00 -0.18413852922E+04  0.18413852922E+04  0.25500000920E-02 0. -1.
    10030    2    1    2    0    0  0.00000000000E+00  0.00000000000E+00 -0.13895255305E+04  0.22932450540E+04  0.18243332146E+04 0.  0.
        3    1    3    3  502    0  0.39741801840E+03  0.79342670792E+03 -0.96017482547E+03  0.13074412904E+04  0.10100000352E+00 0. -1.
       -3    1    3    3    0  502 -0.39741801840E+03 -0.79342670792E+03 -0.42935070504E+03  0.98580376359E+03  0.10100000352E+00 0.  1.
</event>
<event>
 5   0  0.2393421E-04  0.1814839E+04  0.7818609E-02  0.8698448E-01
       -2   -1    0    0    0  501  0.00000000000E+00  0.00000000000E+00  0.47713485691E+03  0.47713485692E+03  0.25500000920E-02 0. -1.
        2   -1    0    0  501    0  0.00000000000E+00  0.00000000000E+00 -0.17257384640E+04  0.17257384640E+04  0.25500000920E-02 0.  1.
    10030    2    1    2    0    0  0.00000000000E+00  0.00000000000E+00 -0.12486036071E+04  0.22028733209E+04  0.18148388084E+04 0.  0.
        5    1    3    3  502    0  0.36052649586E+03  0.51142868610E+03  0.17335769350E+03  0.64931782286E+03  0.46999998093E+01 0. -1.
       -5    1    3    3    0  502 -0.36052649586E+03 -0.51142868610E+03 -0.14219613006E+04  0.15535554981E+04  0.46999998093E+01 0.  1.
</event>
<event>
 5   0  0.1308893E-04  0.1789655E+04  0.7818609E-02  0.8711820E-01
        1   -1    0    0  501    0  0.00000000000E+00  0.00000000000E+00  0.15389556885E+04  0.15389556885E+04  0.50400001928E-02 0.  1.
       -1   -1    0    0    0  501  0.00000000000E+00  0.00000000000E+00 -0.52029841871E+03  0.52029841873E+03  0.50400001928E-02 0. -1.
    10030    2    1    2    0    0  0.00000000000E+00  0.00000000000E+00  0.10186572698E+04  0.20592541073E+04  0.17896549514E+04 0.  0.
        4    1    3    3  502    0 -0.99573135178E+02 -0.83022155475E+03  0.14268680003E+03  0.84825926168E+03  0.12699999809E+01 0. -1.
       -4    1    3    3    0  502  0.99573135178E+02  0.83022155475E+03  0.87597046979E+03  0.12109948456E+04  0.12699999809E+01 0.  1.
</event>
<event>
 5   0  0.1330225E-04  0.1798272E+04  0.7818609E-02  0.8707219E-01
        1   -1    0    0  501    0  0.00000000000E+00  0.00000000000E+00  0.90355766180E+03  0.90355766182E+03  0.50400001928E-02 0. -1.
       -1   -1    0    0    0  501  0.00000000000E+00  0.00000000000E+00 -0.89473607611E+03  0.89473607612E+03  0.50400001928E-02 0.  1.
    10030    2    1    2    0    0  0.00000000000E+00  0.00000000000E+00  0.88215856965E+01  0.17982937379E+04  0.17982721005E+04 0.  0.
        3    1    3    3  502    0  0.46141426409E+03  0.48021102319E+03 -0.59969901422E+03  0.89618338958E+03  0.10100000352E+00 0.  1.
       -3    1    3    3    0  502 -0.46141426409E+03 -0.48021102319E+03  0.60852059992E+03  0.90211034836E+03  0.10100000352E+00 0. -1.
</event>
<event>
 5   0  0.1239119E-04  0.1773620E+04  0.7818609E-02  0.8720455E-01
        1   -1    0    0  501    0  0.00000000000E+00  0.00000000000E+00  0.19433708177E+04  0.19433708177E+04  0.50400001928E-02 0. -1.
       -1   -1    0    0    0  501  0.00000000000E+00  0.00000000000E+00 -0.40467413060E+03  0.40467413063E+03  0.50400001928E-02 0.  1.
    10030    2    1    2    0    0  0.00000000000E+00  0.00000000000E+00  0.15386966871E+04  0.23480449483E+04  0.17736199098E+04 0.  0.
        5    1    3    3  502    0 -0.65111249083E+03 -0.54701482839E+03  0.43643450300E+03  0.95586079719E+03  0.46999998093E+01 0. -1.
       -5    1    3    3    0  502  0.65111249083E+03  0.54701482839E+03  0.11022621841E+04  0.13921841512E+04  0.46999998093E+01 0.  1.
</event>
<event>
 5   0  0.2550616E-04  0.1822364E+04  0.7818609E-02  0.8694496E-01
        2   -1    0    0  501    0  0.00000000000E+00  0.00000000000E+00  0.14102838951E+04  0.14102838951E+04  0.25500000920E-02 0. -1.
       -2   -1    0    0    0  501  0.00000000000E+00  0.00000000000E+00 -0.58871343367E+03  0.58871343367E+03  0.25500000920E-02 0.  1.
    10030    2    1    2    0    0  0.00000000000E+00  0.00000000000E+00  0.82157046141E+03  0.19989973288E+04  0.18223644798E+04 0.  0.
        1    1    3    3  502    0 -0.17907636867E+03  0.67378344844E+03 -0.23276548712E+03  0.73500493415E+03  0.50400001928E-02 0.  1.
       -1    1    3    3    0  502  0.17907636867E+03 -0.67378344844E+03  0.10543359485E+04  0.12639923946E+04  0.50400001928E-02 0. -1.
</event>
<event>
 5   0  0.2393421E-04  0.1797691E+04  0.7818609E-02  0.8707528E-01
        2   -1    0    0  501    0  0.00000000000E+00  0.00000000000E+00  0.20633251759E+04  0.20633251759E+04  0.25500000920E-02 0. -1.
       -2   -1    0    0    0  501  0.00000000000E+00  0.00000000000E+00 -0.39156371365E+03  0.39156371366E+03  0.25500000920E-02 0.  1.
    10030    2    1    2    0    0  0.00000000000E+00  0.00000000000E+00  0.16717614622E+04  0.24548888895E+04  0.17976910395E+04 0.  0.
        5    1    3    3  502    0  0.81628668345E+03 -0.22103617414E+03  0.42006199247E+03  0.94427491091E+03  0.46999998093E+01 0.  1.
       -5    1    3    3    0  502 -0.81628668345E+03  0.22103617414E+03  0.12516994697E+04  0.15106139786E+04  0.46999998093E+01 0. -1.
</event>
<event>
 5   0  0.1239119E-04  0.1754680E+04  0.7818609E-02  0.8730779E-01
        1   -1    0    0  501    0  0.00000000000E+00  0.00000000000E+00  0.59621387196E+03  0.59621387198E+03  0.50400001928E-02 0.  1.
       -1   -1    0    0    0  501  0.00000000000E+00  0.00000000000E+00 -0.12910219531E+04  0.12910219531E+04  0.50400001928E-02 0. -1.
    10030    2    1    2    0    0  0.00000000000E+00  0.00000000000E+00 -0.69480808116E+03  0.18872358251E+04  0.17546796830E+04 0.  0.
        5    1    3    3  502    0  0.85604974621E+03 -0.51016902562E+02 -0.54653728038E+03  0.10169311585E+04  0.46999998093E+01 0. -1.
       -5    1    3    3    0  502 -0.85604974621E+03  0.51016902562E+02 -0.14827080078E+03  0.87030466660E+03  0.46999998093E+01 0.  1.
</event>
<event>
 5   0  0.1214723E-04  0.1788300E+04  0.7818609E-02  0.8712546E-01
        1   -1    0    0  501    0  0.00000000000E+00  0.00000000000E+00  0.18623936071E+04  0.18623936071E+04  0.50400001928E-02 0.  1.
       -1   -1    0    0    0  501  0.00000000000E+00  0.00000000000E+00 -0.42928867509E+03  0.42928867512E+03  0.50400001928E-02 0. -1.
    10030    2    1    2    0    0  0.00000000000E+00  0.00000000000E+00  0.14331049320E+04  0.22916822822E+04  0.17883002926E+04 0.  0.
        1    1    3    3  502    0  0.79699393782E+03 -0.38032999817E+03  0.53689631820E+03  0.10334930580E+04  0.50400001928E-02 0.  1.
       -1    1    3    3    0  502 -0.79699393782E+03  0.38032999817E+03  0.89620861378E+03  0.12581892242E+04  0.50400001928E-02 0. -1.
</event>
<event>
 5   0  0.2417106E-04  0.1821156E+04  0.7818609E-02  0.8695129E-01
       -2   -1    0    0    0  501  0.00000000000E+00  0.00000000000E+00  0.11793285232E+04  0.11793285232E+04  0.25500000920E-02 0. -1.
        2   -1    0    0  501    0  0.00000000000E+00  0.00000000000E+00 -0.70307117818E+03  0.70307117819E+03  0.25500000920E-02 0.  1.
    10030    2    1    2    0    0  0.00000000000E+00  0.00000000000E+00  0.47625734500E+03  0.18823997014E+04  0.18211555609E+04 0.  0.
        4    1    3    3  502    0  0.52979209096E+03 -0.62443626825E+03  0.64970262466E+03  0.10453302952E+04  0.12699999809E+01 0. -1.
       -4    1    3    3    0  502 -0.52979209096E+03  0.62443626825E+03 -0.17344527966E+03  0.83706940614E+03  0.12699999809E+01 0.  1.
</event>
<event>
 5   0  0.1214723E-04  0.1778434E+04  0.7818609E-02  0.8717853E-01
       -1   -1    0    0    0  501  0.00000000000E+00  0.00000000000E+00  0.54813679218E+03  0.54813679220E+03  0.50400001928E-02 0. -1.
        1   -1    0    0  501    0  0.00000000000E+00  0.00000000000E+00 -0.14425363700E+04  0.14425363700E+04  0.50400001928E-02 0.  1.
    10030    2    1    2    0    0  0.00000000000E+00  0.00000000000E+00 -0.89439957783E+03  0.19906731622E+04  0.17784344334E+04 0.  0.
        1    1    3    3  502    0  0.66575514435E+03 -0.30568949641E+03 -0.10113642172E+04  0.12488128604E+04  0.50400001928E-02 0.  1.
       -1    1    3    3    0  502 -0.66575514435E+03  0.30568949641E+03  0.11696463942E+03  0.74186030177E+03  0.50400001928E-02 0. -1.
</event>
<event>
 5   0  0.2417106E-04  0.1764709E+04  0.7818609E-02  0.8725295E-01
       -2   -1    0    0    0  501  0.00000000000E+00  0.00000000000E+00  0.36921822404E+03  0.36921822405E+03  0.25500000920E-02 0. -1.
        2   -1    0    0  501    0  0.00000000000E+00  0.00000000000E+00 -0.21086439789E+04  0.21086439789E+04  0.25500000920E-02 0.  1.
    10030    2    1    2    0    0  0.00000000000E+00  0.00000000000E+00 -0.17394257548E+04  0.24778622029E+04  0.17647093642E+04 0.  0.
        4    1    3    3  502    0  0.53431350173E+03  0.51875857699E+03 -0.15341844174E+04  0.17053811360E+04  0.12699999809E+01 0.  1.
       -4    1    3    3    0  502 -0.53431350173E+03 -0.51875857699E+03 -0.20524133739E+03  0.77248106695E+03  0.12699999809E+01 0. -1.
</event>
<event>
 5   0  0.2550616E-04  0.1787935E+04  0.7818609E-02  0.8712742E-01
       -2   -1    0    0    0  501  0.00000000000E+00  0.00000000000E+00  0.63645773097E+03  0.63645773097E+03  0.25500000920E-02 0. -1.
        2   -1    0    0  501    0  0.00000000000E+00  0.00000000000E+00 -0.12556648485E+04  0.12556648485E+04  0.25500000920E-02 0.  1.
    10030    2    1    2    0    0  0.00000000000E+00  0.00000000000E+00 -0.61920711755E+03  0.18921225795E+04  0.17879346748E+04 0.  0.
        1    1    3    3  502    0 -0.10115857525E+03 -0.78036128888E+03  0.13935960772E+03  0.79913571990E+03  0.50400001928E-02 0. -1.
       -1    1    3    3    0  502  0.10115857525E+03  0.78036128888E+03 -0.75856672527E+03  0.10929868596E+04  0.50400001928E-02 0.  1.
</event>
<event>
 5   0  0.2393421E-04  0.1869735E+04  0.7818609E-02  0.8670070E-01
       -2   -1    0    0    0  501  0.00000000000E+00  0.00000000000E+00  0.13000084350E+04  0.13000084350E+04  0.25500000920E-02 0. -1.
        2   -1    0    0  501    0  0.00000000000E+00  0.00000000000E+00 -0.67228571738E+03  0.67228571738E+03  0.25500000920E-02 0.  1.
    10030    2    1    2    0    0  0.00000000000E+00  0.00000000000E+00  0.62772271765E+03  0.19722941524E+04  0.18697348511E+04 0.  0.
        5    1    3    3  502    0 -0.41283235302E+03  0.10152060794E+03 -0.56440568820E+03  0.70662073024E+03  0.46999998093E+01 0.  1.
       -5    1    3    3    0  502  0.41283235302E+03 -0.10152060794E+03  0.11921284059E+04  0.12656734222E+04  0.46999998093E+01 0. -1.
</event>
<event>
 5   0  0.1214723E-04  0.1805921E+04  0.7818609E-02  0.8703157E-01
        1   -1    0    0  501    0  0.00000000000E+00  0.00000000000E+00  0.10089755855E+04  0.10089755855E+04  0.50400001928E-02 0. -1.
       -1   -1    0    0    0  501  0.00000000000E+00  0.00000000000E+00 -0.80808469762E+03  0.80808469764E+03  0.50400001928E-02 0.  1.
    10030    2    1    2    0    0  0.00000000000E+00  0.00000000000E+00  0.20089088786E+03  0.18170602831E+04  0.18059210735E+04 0.  0.
        1    1    3    3  502    0  0.11958076465E+02  0.81260560913E+03  0.49640407619E+03  0.95230660949E+03  0.50400001928E-02 0. -1.
       -1    1    3    3    0  502 -0.11958076465E+02 -0.81260560913E+03 -0.29551318833E+03  0.86475367365E+03  0.50400001928E-02 0.  1.
</event>
<event>
 5   0  0.1239119E-04  0.1802058E+04  0.7818609E-02  0.8705206E-01
       -1   -1    0    0    0  501  0.00000000000E+00  0.00000000000E+00  0.58711095792E+03  0.58711095794E+03  0.50400001928E-02 0.  1.
        1   -1    0    0  501    0  0.00000000000E+00  0.00000000000E+00 -0.13827933213E+04  0.13827933213E+04  0.50400001928E-02 0. -1.
    10030    2    1    2    0    0  0.00000000000E+00  0.00000000000E+00 -0.79568236339E+03  0.19699042793E+04  0.18020578365E+04 0.  0.
        5    1    3    3  502    0 -0.84680165282E+03 -0.29780300511E+03 -0.48301755027E+03  0.10193565191E+04  0.46999998093E+01 0.  1.
       -5    1    3    3    0  502  0.84680165282E+03  0.29780300511E+03 -0.31266481312E+03  0.95054776021E+03  0.46999998093E+01 0. -1.
</event>
<event>
 5   0  0.2417106E-04  0.1786521E+04  0.7818609E-02  0.8713501E-01
       -2   -1    0    0    0  501  0.00000000000E+00  0.00000000000E+00  0.68784268309E+03  0.68784268309E+03  0.25500000920E-02 0. -1.
        2   -1    0    0  501    0  0.00000000000E+00  0.00000000000E+00 -0.11600238637E+04  0.11600238637E+04  0.25500000920E-02 0.  1.
    10030    2    1    2    0    0  0.00000000000E+00  0.00000000000E+00 -0.47218118060E+03  0.18478665468E+04  0.17865205589E+04 0.  0.
        4    1    3    3  502    0 -0.38267725790E+03  0.54033999719E+02  0.59688940231E+03  0.71108377026E+03  0.12699999809E+01 0. -1.
       -4    1    3    3    0  502  0.38267725790E+03 -0.54033999719E+02 -0.10690705829E+04  0.11367827765E+04  0.12699999809E+01 0.  1.
</event>
<event>
 5   0  0.1308893E-04  0.1766104E+04  0.7818609E-02  0.8724535E-01
       -1   -1    0    0    0  501  0.00000000000E+00  0.00000000000E+00  0.57925127880E+03  0.57925127883E+03  0.50400001928E-02 0.  1.
        1   -1    0    0  501    0  0.00000000000E+00  0.00000000000E+00 -0.13461879031E+04  0.13461879031E+04  0.50400001928E-02 0. -1.
    10030    2    1    2    0    0  0.00000000000E+00  0.00000000000E+00 -0.76693662428E+03  0.19254391819E+04  0.17661042601E+04 0.  0.
        4    1    3    3  502    0  0.44423592535E+03 -0.16548672206E+03 -0.11956978019E+04  0.12862450229E+04  0.12699999809E+01 0. -1.
       -4    1    3    3    0  502 -0.44423592535E+03  0.16548672206E+03  0.42876117764E+03  0.63919415900E+03  0.12699999809E+01 0.  1.
</event>
<event>
 5   0  0.2417106E-04  0.1786522E+04  0.7818609E-02  0.8713500E-01
        2   -1    0    0  501    0  0.00000000000E+00  0.00000000000E+00  0.90022384387E+03  0.90022384387E+03  0.25500000920E-02 0.  1.
       -2   -1    0    0    0  501  0.00000000000E+00  0.00000000000E+00 -0.88635153709E+03  0.88635153709E+03  0.25500000920E-02 0. -1.
    10030    2    1    2    0    0  0.00000000000E+00  0.00000000000E+00  0.13872306782E+02  0.17865753810E+04  0.17865215227E+04 0.  0.
        4    1    3    3  502    0  0.41702731064E+03 -0.16072133663E+03 -0.76650170164E+03  0.88728214080E+03  0.12699999809E+01 0. -1.
       -4    1    3    3    0  502 -0.41702731064E+03  0.16072133663E+03  0.78037400843E+03  0.89929324016E+03  0.12699999809E+01 0.  1.
</event>
<event>
 5   0  0.1253925E-04  0.1803598E+04  0.7818609E-02  0.8704389E-01
       -1   -1    0    0    0  501  0.00000000000E+00  0.00000000000E+00  0.86235909654E+03  0.86235909655E+03  0.50400001928E-02 0.  1.
        1   -1    0    0  501    0  0.00000000000E+00  0.00000000000E+00 -0.94304243306E+03  0.94304243307E+03  0.50400001928E-02 0. -1.
    10030    2    1    2    0    0  0.00000000000E+00  0.00000000000E+00 -0.80683336523E+02  0.18054015296E+04  0.18035977607E+04 0.  0.
        2    1    3    3  502    0  0.39956342620E+03 -0.68549315071E+03  0.38867701060E+03  0.88352793380E+03  0.25500000920E-02 0.  1.
       -2    1    3    3    0  502 -0.39956342620E+03  0.68549315071E+03 -0.46936034713E+03  0.92187359583E+03  0.25500000920E-02 0. -1.
</event>
<event>
 5   0  0.2550616E-04  0.1811287E+04  0.7818609E-02  0.8700320E-01
       -2   -1    0    0    0  501  0.00000000000E+00  0.00000000000E+00  0.89416309035E+03  0.89416309036E+03  0.25500000920E-02 0.  1.
        2   -1    0    0  501    0  0.00000000000E+00  0.00000000000E+00 -0.91727163688E+03  0.91727163688E+03  0.25500000920E-02 0. -1.
    10030    2    1    2    0    0  0.00000000000E+00  0.00000000000E+00 -0.23108546526E+02  0.18114347272E+04  0.18112873229E+04 0.  0.
        1    1    3    3  502    0  0.76763935359E+03 -0.30427249080E+03 -0.38352340214E+03  0.91046258893E+03  0.50400001928E-02 0. -1.
       -1    1    3    3    0  502 -0.76763935359E+03  0.30427249080E+03  0.36041485562E+03  0.90097213831E+03  0.50400001928E-02 0.  1.
</event>
<event>
 5   0  0.1214723E-04  0.1804889E+04  0.7818609E-02  0.8703704E-01
       -1   -1    0    0    0  501  0.00000000000E+00  0.00000000000E+00  0.96007748446E+03  0.96007748447E+03  0.50400001928E-02 0.  1.
        1   -1    0    0  501    0  0.00000000000E+00  0.00000000000E+00 -0.84827096279E+03  0.84827096281E+03  0.50400001928E-02 0. -1.
    10030    2    1    2    0    0  0.00000000000E+00  0.00000000000E+00  0.11180652167E+03  0.18083484473E+04  0.18048887524E+04 0.  0.
        1    1    3    3  502    0 -0.79214620663E+03  0.15979119376E+03  0.45839087148E+03  0.92905921736E+03  0.50400001928E-02 0.  1.
       -1    1    3    3    0  502  0.79214620663E+03 -0.15979119376E+03 -0.34658434981E+03  0.87928922992E+03  0.50400001928E-02 0. -1.
</event>
<event>
 5   0  0.1214723E-04  0.1750816E+04  0.7818609E-02  0.8732901E-01
       -1   -1    0    0    0  501  0.00000000000E+00  0.00000000000E+00  0.92727399542E+03  0.92727399544E+03  0.50400001928E-02 0. -1.
        1   -1    0    0  501    0  0.00000000000E+00  0.00000000000E+00 -0.82644353585E+03  0.82644353586E+03  0.50400001928E-02 0.  1.
    10030    2    1    2    0    0  0.00000000000E+00  0.00000000000E+00  0.10083045957E+03  0.17537175313E+04  0.17508164947E+04 0.  0.
        1    1    3    3  502    0  0.74660222495E+03  0.34057194008E+03  0.35577355550E+03  0.89441542444E+03  0.50400001928E-02 0. -1.
       -1    1    3    3    0  502 -0.74660222495E+03 -0.34057194008E+03 -0.25494309592E+03  0.85930210686E+03  0.50400001928E-02 0.  1.
</event>
<event>
 5   0  0.1330225E-04  0.1801115E+04  0.7818609E-02  0.8705707E-01
       -1   -1    0    0    0  501  0.00000000000E+00  0.00000000000E+00  0.42037014030E+03  0.42037014033E+03  0.50400001928E-02 0.  1.
        1   -1    0    0  501    0  0.00000000000E+00  0.00000000000E+00 -0.19292612481E+04  0.19292612481E+04  0.50400001928E-02 0. -1.
    10030    2    1    2    0    0  0.00000000000E+00  0.00000000000E+00 -0.15088911078E+04  0.23496313884E+04  0.18011150120E+04 0.  0.
        3    1    3    3  502    0  0.28163775247E+03  0.31960832168E+01 -0.18703243704E+04  0.18914130430E+04  0.10100000352E+00 0. -1.
       -3    1    3    3    0  502 -0.28163775247E+03 -0.31960832168E+01  0.36143326260E+03  0.45821834542E+03  0.10100000352E+00 0.  1.
</event>
<event>
 5   0  0.2431811E-04  0.1781851E+04  0.7818609E-02  0.8716011E-01
        2   -1    0    0  501    0  0.00000000000E+00  0.00000000000E+00  0.12629792242E+04  0.12629792242E+04  0.25500000920E-02 0.  1.
       -2   -1    0    0    0  501  0.00000000000E+00  0.00000000000E+00 -0.62847298539E+03  0.62847298540E+03  0.25500000920E-02 0. -1.
    10030    2    1    2    0    0  0.00000000000E+00  0.00000000000E+00  0.63450623878E+03  0.18914522096E+04  0.17818510864E+04 0.  0.
        3    1    3    3  502    0  0.48214493171E+03 -0.40361003722E+03 -0.35274663977E+03  0.72096809873E+03  0.10100000352E+00 0. -1.
       -3    1    3    3    0  502 -0.48214493171E+03  0.40361003722E+03  0.98725287855E+03  0.11704841108E+04  0.10100000352E+00 0.  1.
</event>
<event>
 5   0  0.2569405E-04  0.1823458E+04  0.7818609E-02  0.8693923E-01
       -2   -1    0    0    0  501  0.00000000000E+00  0.00000000000E+00  0.35248461732E+03  0.35248461733E+03  0.25500000920E-02 0.  1.
        2   -1    0    0  501    0  0.00000000000E+00  0.00000000000E+00 -0.23582593150E+04  0.23582593150E+04  0.25500000920E-02 0. -1.
    10030    2    1    2    0    0  0.00000000000E+00  0.00000000000E+00 -0.20057746977E+04  0.27107439323E+04  0.18234583979E+04 0.  0.
        2    1    3    3  502    0  0.89076450010E+03 -0.18650002045E+03 -0.92137530359E+03  0.12950583394E+04  0.25500000920E-02 0.  1.
       -2    1    3    3    0  502 -0.89076450010E+03  0.18650002045E+03 -0.10843993941E+04  0.14156855930E+04  0.25500000920E-02 0. -1.
</event>
<event>
 5   0  0.1253925E-04  0.1787222E+04  0.7818609E-02  0.8713124E-01
       -1   -1    0    0    0  501  0.00000000000E+00  0.00000000000E+00  0.61017601780E+03  0.61017601783E+03  0.50400001928E-02 0.  1.
        1   -1    0    0  501    0  0.00000000000E+00  0.00000000000E+00 -0.13087049596E+04  0.13087049596E+04  0.50400001928E-02 0. -1.
    10030    2    1    2    0    0  0.00000000000E+00  0.00000000000E+00 -0.69852894178E+03  0.19188809774E+04  0.17872217330E+04 0.  0.
        2    1    3    3  502    0 -0.46179559597E+03 -0.72516988408E+02  0.46843462313E+03  0.66177404167E+03  0.25500000920E-02 0.  1.
       -2    1    3    3    0  502  0.46179559597E+03  0.72516988408E+02 -0.11669635649E+04  0.12571069358E+04  0.25500000920E-02 0. -1.
</event>
<event>
 5   0  0.2550616E-04  0.1842274E+04  0.7818609E-02  0.8684136E-01
       -2   -1    0    0    0  501  0.00000000000E+00  0.00000000000E+00  0.12042483550E+04  0.12042483550E+04  0.25500000920E-02 0.  1.
        2   -1    0    0  501    0  0.00000000000E+00  0.00000000000E+00 -0.70458324686E+03  0.70458324687E+03  0.25500000920E-02 0. -1.
    10030    2    1    2    0    0  0.00000000000E+00  0.00000000000E+00  0.49966510810E+03  0.19088316018E+04  0.18422738298E+04 0.  0.
        1    1    3    3  502    0  0.55538390581E+03 -0.35531996545E+03  0.91633730291E+03  0.11288833480E+04  0.50400001928E-02 0.  1.
       -1    1    3    3    0  502 -0.55538390581E+03  0.35531996545E+03 -0.41667219481E+03  0.77994825382E+03  0.50400001928E-02 0. -1.
</event>
<event>
 5   0  0.2393421E-04  0.1813892E+04  0.7818609E-02  0.8698946E-01
       -2   -1    0    0    0  501  0.00000000000E+00  0.00000000000E+00  0.11189734798E+04  0.11189734798E+04  0.25500000920E-02 0.  1.
        2   -1    0    0  501    0  0.00000000000E+00  0.00000000000E+00 -0.73509444216E+03  0.73509444217E+03  0.25500000920E-02 0. -1.
    10030    2    1    2    0    0  0.00000000000E+00  0.00000000000E+00  0.38387903761E+03  0.18540679219E+04  0.18138921533E+04 0.  0.
        5    1    3    3  502    0 -0.68483580355E+03 -0.15138100360E+03 -0.39578528041E+03  0.80534735627E+03  0.46999998093E+01 0. -1.
       -5    1    3    3    0  502  0.68483580355E+03  0.15138100360E+03  0.77966431802E+03  0.10487205657E+04  0.46999998093E+01 0.  1.
</event>
<event>
 5   0  0.1308893E-04  0.1793939E+04  0.7818609E-02  0.8709529E-01
        1   -1    0    0  501    0  0.00000000000E+00  0.00000000000E+00  0.76861493671E+03  0.76861493673E+03  0.50400001928E-02 0.  1.
       -1   -1    0    0    0  501  0.00000000000E+00  0.00000000000E+00 -0.10467584549E+04  0.10467584549E+04  0.50400001928E-02 0. -1.
    10030    2    1    2    0    0  0.00000000000E+00  0.00000000000E+00 -0.27814351816E+03  0.18153733916E+04  0.17939388881E+04 0.  0.
        4    1    3    3  502    0 -0.63189581607E+02  0.58669813594E+03 -0.82267630667E+03  0.10124255747E+04  0.12699999809E+01 0. -1.
       -4    1    3    3    0  502  0.63189581607E+02 -0.58669813594E+03  0.54453278851E+03  0.80294781687E+03  0.12699999809E+01 0.  1.
</event>
<event>
 5   0  0.2550616E-04  0.1792856E+04  0.7818609E-02  0.8710108E-01
        2   -1    0    0  501    0  0.00000000000E+00  0.00000000000E+00  0.15254409372E+04  0.15254409372E+04  0.25500000920E-02 0.  1.
       -2   -1    0    0    0  501  0.00000000000E+00  0.00000000000E+00 -0.52678769941E+03  0.52678769942E+03  0.25500000920E-02 0. -1.
    10030    2    1    2    0    0  0.00000000000E+00  0.00000000000E+00  0.99865323776E+03  0.20522286366E+04  0.17928564046E+04 0.  0.
        1    1    3    3  502    0  0.82751025376E+03 -0.49204405367E+02  0.88984063929E+03  0.12161458206E+04  0.50400001928E-02 0.  1.
       -1    1    3    3    0  502 -0.82751025376E+03  0.49204405367E+02  0.10881259846E+03  0.83608281599E+03  0.50400001928E-02 0. -1.
</event>
<event>
 5   0  0.1214723E-04  0.1750883E+04  0.7818609E-02  0.8732864E-01
       -1   -1    0    0    0  501  0.00000000000E+00  0.00000000000E+00  0.55125401958E+03  0.55125401960E+03  0.50400001928E-02 0.  1.
        1   -1    0    0  501    0  0.00000000000E+00  0.00000000000E+00 -0.13902804914E+04  0.13902804914E+04  0.50400001928E-02 0. -1.
    10030    2    1    2    0    0  0.00000000000E+00  0.00000000000E+00 -0.83902647177E+03  0.19415345110E+04  0.17508828736E+04 0.  0.
        1    1    3    3  502    0 -0.54750106065E+03  0.80397739395E+02  0.33271605248E+03  0.64569433907E+03  0.50400001928E-02 0.  1.
       -1    1    3    3    0  502  0.54750106065E+03 -0.80397739395E+02 -0.11717425243E+04  0.12958401719E+04  0.50400001928E-02 0. -1.
</event>
<event>
 5   0  0.2550616E-04  0.1793131E+04  0.7818609E-02  0.8709961E-01
       -2   -1    0    0    0  501  0.00000000000E+00  0.00000000000E+00  0.10232828047E+04  0.10232828047E+04  0.25500000920E-02 0. -1.
        2   -1    0    0  501    0  0.00000000000E+00  0.00000000000E+00 -0.78553987478E+03  0.78553987478E+03  0.25500000920E-02 0.  1.
    10030    2    1    2    0    0  0.00000000000E+00  0.00000000000E+00  0.23774292991E+03  0.18088226795E+04  0.17931307217E+04 0.  0.
        1    1    3    3  502    0  0.22965339773E+03  0.63854501710E+03  0.70995920565E+03  0.98210106184E+03  0.50400001928E-02 0. -1.
       -1    1    3    3    0  502 -0.22965339773E+03 -0.63854501710E+03 -0.47221627574E+03  0.82672161763E+03  0.50400001928E-02 0.  1.
</event>
<event>
 5   0  0.1308893E-04  0.1745713E+04  0.7818609E-02  0.8735714E-01
       -1   -1    0    0    0  501  0.00000000000E+00  0.00000000000E+00  0.13118413996E+04  0.13118413996E+04  0.50400001928E-02 0.  1.
        1   -1    0    0  501    0  0.00000000000E+00  0.00000000000E+00 -0.58077018504E+03  0.58077018506E+03  0.50400001928E-02 0. -1.
    10030    2    1    2    0    0  0.00000000000E+00  0.00000000000E+00  0.73107121453E+03  0.18926115846E+04  0.17457128887E+04 0.  0.
        4    1    3    3  502    0 -0.44664196506E+03 -0.74987674061E+03  0.37477242572E+03  0.94987375742E+03  0.12699999809E+01 0.  1.
       -4    1    3    3    0  502  0.44664196506E+03  0.74987674061E+03  0.35629878882E+03  0.94273782722E+03  0.12699999809E+01 0. -1.
</event>
<event>
 5   0  0.2569405E-04  0.1822797E+04  0.7818609E-02  0.8694269E-01
       -2   -1    0    0    0  501  0.00000000000E+00  0.00000000000E+00  0.13035472098E+04  0.13035472098E+04  0.25500000920E-02 0. -1.
        2   -1    0    0  501    0  0.00000000000E+00  0.00000000000E+00 -0.63722080696E+03  0.63722080697E+03  0.25500000920E-02 0.  1.
    10030    2    1    2    0    0  0.00000000000E+00  0.00000000000E+00  0.66632640283E+03  0.19407680168E+04  0.18227971966E+04 0.  0.
        2    1    3    3  502    0 -0.23753304062E+03  0.86825473506E+03  0.18124305929E+03  0.91822506875E+03  0.25500000920E-02 0.  1.
       -2    1    3    3    0  502  0.23753304062E+03 -0.86825473506E+03  0.48508334354E+03  0.10225429480E+04  0.25500000920E-02 0. -1.
</event>
<event>
 5   0  0.2569405E-04  0.1707593E+04  0.7818609E-02  0.8757045E-01
        2   -1    0    0  501    0  0.00000000000E+00  0.00000000000E+00  0.14499938050E+04  0.14499938050E+04  0.25500000920E-02 0.  1.
       -2   -1    0    0    0  501  0.00000000000E+00  0.00000000000E+00 -0.50273914796E+03  0.50273914797E+03  0.25500000920E-02 0. -1.
    10030    2    1    2    0    0  0.00000000000E+00  0.00000000000E+00  0.94725465702E+03  0.19527329530E+04  0.17075932186E+04 0.  0.
        2    1    3    3  502    0  0.23385995746E+03 -0.81871437583E+03  0.54581605682E+03  0.10113846335E+04  0.25500000920E-02 0.  1.
       -2    1    3    3    0  502 -0.23385995746E+03  0.81871437583E+03  0.40143860020E+03  0.94134831950E+03  0.25500000920E-02 0. -1.
</event>
<event>
 5   0  0.1308893E-04  0.1467640E+04  0.7818609E-02  0.8906262E-01
        1   -1    0    0  501    0  0.00000000000E+00  0.00000000000E+00  0.82670734676E+03  0.82670734677E+03  0.50400001928E-02 0.  1.
       -1   -1    0    0    0  501  0.00000000000E+00  0.00000000000E+00 -0.65136926584E+03  0.65136926586E+03  0.50400001928E-02 0. -1.
    10030    2    1    2    0    0  0.00000000000E+00  0.00000000000E+00  0.17533808091E+03  0.14780766126E+04  0.14676399525E+04 0.  0.
        4    1    3    3  502    0 -0.98306915397E+02  0.39007412075E+03  0.70576631134E+03  0.81236061476E+03  0.12699999809E+01 0.  1.
       -4    1    3    3    0  502  0.98306915397E+02 -0.39007412075E+03 -0.53042823042E+03  0.66571599787E+03  0.12699999809E+01 0. -1.
</event>
<event>
 5   0  0.1239119E-04  0.1781858E+04  0.7818609E-02  0.8716007E-01
       -1   -1    0    0    0  501  0.00000000000E+00  0.00000000000E+00  0.98166730647E+03  0.98166730648E+03  0.50400001928E-02 0.  1.
        1   -1    0    0  501    0  0.00000000000E+00  0.00000000000E+00 -0.80857766054E+03  0.80857766056E+03  0.50400001928E-02 0. -1.
    10030    2    1    2    0    0  0.00000000000E+00  0.00000000000E+00  0.17308964593E+03  0.17902449670E+04  0.17818577431E+04 0.  0.
        5    1    3    3  502    0 -0.17454585172E+03 -0.51242281537E+03  0.79746912018E+03  0.96385812426E+03  0.46999998093E+01 0.  1.
       -5    1    3    3    0  502  0.17454585172E+03  0.51242281537E+03 -0.62437947425E+03  0.82638684278E+03  0.46999998093E+01 0. -1.
</event>
<event>
 5   0  0.1253925E-04  0.1757496E+04  0.7818609E-02  0.8729235E-01
       -1   -1    0    0    0  501  0.00000000000E+00  0.00000000000E+00  0.62696008600E+03  0.62696008602E+03  0.50400001928E-02 0.  1.
        1   -1    0    0  501    0  0.00000000000E+00  0.00000000000E+00 -0.12316547132E+04  0.12316547132E+04  0.50400001928E-02 0. -1.
    10030    2    1    2    0    0  0.00000000000E+00  0.00000000000E+00 -0.60469462719E+03  0.18586147992E+04  0.17574963385E+04 0.  0.
        2    1    3    3  502    0 -0.68317762138E+03 -0.55261481675E+03 -0.31201360933E+03  0.93245229929E+03  0.25500000920E-02 0.  1.
       -2    1    3    3    0  502  0.68317762138E+03  0.55261481675E+03 -0.29268101786E+03  0.92616249992E+03  0.25500000920E-02 0. -1.
</event>
<event>
 5   0  0.2431811E-04  0.1808453E+04  0.7818609E-02  0.8701817E-01
       -2   -1    0    0    0  501  0.00000000000E+00  0.00000000000E+00  0.50481277077E+03  0.50481277077E+03  0.25500000920E-02 0.  1.
        2   -1    0    0  501    0  0.00000000000E+00  0.00000000000E+00 -0.16196602657E+04  0.16196602657E+04  0.25500000920E-02 0. -1.
    10030    2    1    2    0    0  0.00000000000E+00  0.00000000000E+00 -0.11148474949E+04  0.21244730365E+04  0.18084525832E+04 0.  0.
        3    1    3    3  502    0  0.18619995025E+03 -0.13896108615E+03 -0.15839964967E+04  0.16009451948E+04  0.10100000352E+00 0. -1.
       -3    1    3    3    0  502 -0.18619995025E+03  0.13896108615E+03  0.46914900178E+03  0.52352784168E+03  0.10100000352E+00 0.  1.
</event>
<event>
 5   0  0.1253925E-04  0.1797033E+04  0.7818609E-02  0.8707879E-01
        1   -1    0    0  501    0  0.00000000000E+00  0.00000000000E+00  0.96123236977E+03  0.96123236979E+03  0.50400001928E-02 0. -1.
       -1   -1    0    0    0  501  0.00000000000E+00  0.00000000000E+00 -0.83989212779E+03  0.83989212781E+03  0.50400001928E-02 0.  1.
    10030    2    1    2    0    0  0.00000000000E+00  0.00000000000E+00  0.12134024198E+03  0.18011244976E+04  0.17970325544E+04 0.  0.
        2    1    3    3  502    0 -0.84696588126E+03 -0.12699141351E+03  0.33304889612E+03  0.91891217770E+03  0.25500000920E-02 0. -1.
       -2    1    3    3    0  502  0.84696588126E+03  0.12699141351E+03 -0.21170865413E+03  0.88221231989E+03  0.25500000920E-02 0.  1.
</event>
<event>
 5   0  0.1214723E-04  0.1797011E+04  0.7818609E-02  0.8707891E-01
       -1   -1    0    0    0  501  0.00000000000E+00  0.00000000000E+00  0.10485086281E+04  0.10485086281E+04  0.50400001928E-02 0. -1.
        1   -1    0    0  501    0  0.00000000000E+00  0.00000000000E+00 -0.76996206415E+03  0.76996206417E+03  0.50400001928E-02 0.  1.
    10030    2    1    2    0    0  0.00000000000E+00  0.00000000000E+00  0.27854656397E+03  0.18184706923E+04  0.17970107040E+04 0.  0.
        1    1    3    3  502    0  0.63215394100E+02 -0.12027791136E+03  0.10380515352E+04  0.10469068496E+04  0.50400001928E-02 0. -1.
       -1    1    3    3    0  502 -0.63215394100E+02  0.12027791136E+03 -0.75950497122E+03  0.77156384269E+03  0.50400001928E-02 0.  1.
</event>
<event>
 5   0  0.2550616E-04  0.1803926E+04  0.7818609E-02  0.8704215E-01
        2   -1    0    0  501    0  0.00000000000E+00  0.00000000000E+00  0.16313347125E+04  0.16313347125E+04  0.25500000920E-02 0.  1.
       -2   -1    0    0    0  501  0.00000000000E+00  0.00000000000E+00 -0.49869401039E+03  0.49869401040E+03  0.25500000920E-02 0. -1.
    10030    2    1    2    0    0  0.00000000000E+00  0.00000000000E+00  0.11326407021E+04  0.21300287229E+04  0.18039255529E+04 0.  0.
        1    1    3    3  502    0 -0.38189233271E+03  0.53664936220E+03  0.12939135166E+04  0.14519113197E+04  0.50400001928E-02 0.  1.
       -1    1    3    3    0  502  0.38189233271E+03 -0.53664936220E+03 -0.16127281456E+03  0.67811740317E+03  0.50400001928E-02 0. -1.
</event>
<event>
 5   0  0.1239119E-04  0.1836759E+04  0.7818609E-02  0.8686992E-01
       -1   -1    0    0    0  501  0.00000000000E+00  0.00000000000E+00  0.65613141062E+03  0.65613141064E+03  0.50400001928E-02 0.  1.
        1   -1    0    0  501    0  0.00000000000E+00  0.00000000000E+00 -0.12854447589E+04  0.12854447589E+04  0.50400001928E-02 0. -1.
    10030    2    1    2    0    0  0.00000000000E+00  0.00000000000E+00 -0.62931334830E+03  0.19415761696E+04  0.18367587571E+04 0.  0.
        5    1    3    3  502    0  0.42452780531E+03  0.66878095191E+03  0.17651741434E+03  0.81158629035E+03  0.46999998093E+01 0.  1.
       -5    1    3    3    0  502 -0.42452780531E+03 -0.66878095191E+03 -0.80583076264E+03  0.11299898792E+04  0.46999998093E+01 0. -1.
</event>
<event>
 5   0  0.1239119E-04  0.1819045E+04  0.7818609E-02  0.8696237E-01
        1   -1    0    0  501    0  0.00000000000E+00  0.00000000000E+00  0.12898526143E+04  0.12898526143E+04  0.50400001928E-02 0.  1.
       -1   -1    0    0    0  501  0.00000000000E+00  0.00000000000E+00 -0.64133782638E+03  0.64133782640E+03  0.50400001928E-02 0. -1.
    10030    2    1    2    0    0  0.00000000000E+00  0.00000000000E+00  0.64851478793E+03  0.19311904407E+04  0.18190451034E+04 0.  0.
        5    1    3    3  502    0  0.27981330063E+03 -0.52567628887E+03 -0.40556712371E+03  0.72051219679E+03  0.46999998093E+01 0. -1.
       -5    1    3    3    0  502 -0.27981330063E+03  0.52567628887E+03  0.10540819116E+04  0.12106782439E+04  0.46999998093E+01 0.  1.
</event>
<event>
 5   0  0.2569405E-04  0.1789377E+04  0.7818609E-02  0.8711969E-01
       -2   -1    0    0    0  501  0.00000000000E+00  0.00000000000E+00  0.66818577126E+03  0.66818577127E+03  0.25500000920E-02 0.  1.
        2   -1    0    0  501    0  0.00000000000E+00  0.00000000000E+00 -0.11979712686E+04  0.11979712686E+04  0.25500000920E-02 0. -1.
    10030    2    1    2    0    0  0.00000000000E+00  0.00000000000E+00 -0.52978549735E+03  0.18661570399E+04  0.17893768257E+04 0.  0.
        2    1    3    3  502    0  0.16361370390E+03 -0.12410316438E+03  0.64327453420E+03  0.67525785139E+03  0.25500000920E-02 0.  1.
       -2    1    3    3    0  502 -0.16361370390E+03  0.12410316438E+03 -0.11730600316E+04  0.11908991885E+04  0.25500000920E-02 0. -1.
</event>
<event>
 5   0  0.2569405E-04  0.1774853E+04  0.7818609E-02  0.8719788E-01
       -2   -1    0    0    0  501  0.00000000000E+00  0.00000000000E+00  0.68310026520E+03  0.68310026521E+03  0.25500000920E-02 0. -1.
        2   -1    0    0  501    0  0.00000000000E+00  0.00000000000E+00 -0.11528701385E+04  0.11528701385E+04  0.25500000920E-02 0.  1.
    10030    2    1    2    0    0  0.00000000000E+00  0.00000000000E+00 -0.46976987334E+03  0.18359704038E+04  0.17748531177E+04 0.  0.
        2    1    3    3  502    0 -0.74020322001E+02 -0.30967515781E+02 -0.11491101909E+04  0.11519080805E+04  0.25500000920E-02 0.  1.
       -2    1    3    3    0  502  0.74020322001E+02  0.30967515781E+02  0.67934031753E+03  0.68406232328E+03  0.25500000920E-02 0. -1.
</event>
<event>
 5   0  0.1330225E-04  0.1823145E+04  0.7818609E-02  0.8694087E-01
        1   -1    0    0  501    0  0.00000000000E+00  0.00000000000E+00  0.12149918061E+04  0.12149918061E+04  0.50400001928E-02 0.  1.
       -1   -1    0    0    0  501  0.00000000000E+00  0.00000000000E+00 -0.68392601820E+03  0.68392601822E+03  0.50400001928E-02 0. -1.
    10030    2    1    2    0    0  0.00000000000E+00  0.00000000000E+00  0.53106578791E+03  0.18989178244E+04  0.18231450937E+04 0.  0.
        3    1    3    3  502    0  0.24777320922E+03 -0.72839141595E+03 -0.24368193394E+03  0.80704802408E+03  0.10100000352E+00 0. -1.
       -3    1    3    3    0  502 -0.24777320922E+03  0.72839141595E+03  0.77474772186E+03  0.10918698003E+04  0.10100000352E+00 0.  1.
</event>
<event>
 5   0  0.2393421E-04  0.1806019E+04  0.7818609E-02  0.8703105E-01
       -2   -1    0    0    0  501  0.00000000000E+00  0.00000000000E+00  0.40365767017E+03  0.40365767018E+03  0.25500000920E-02 0. -1.
        2   -1    0    0  501    0  0.00000000000E+00  0.00000000000E+00 -0.20200924574E+04  0.20200924574E+04  0.25500000920E-02 0.  1.
    10030    2    1    2    0    0  0.00000000000E+00  0.00000000000E+00 -0.16164347872E+04  0.24237501276E+04  0.18060186210E+04 0.  0.
        5    1    3    3  502    0  0.60688452583E+03 -0.25136742976E+03  0.23316478290E+02  0.65731283313E+03  0.46999998093E+01 0. -1.
       -5    1    3    3    0  502 -0.60688452583E+03  0.25136742976E+03 -0.16397512655E+04  0.17664372944E+04  0.46999998093E+01 0.  1.
</event>
<event>
 5   0  0.1308893E-04  0.1802816E+04  0.7818609E-02  0.8704803E-01
       -1   -1    0    0    0  501  0.00000000000E+00  0.00000000000E+00  0.64466048124E+03  0.64466048126E+03  0.50400001928E-02 0. -1.
        1   -1    0    0  501    0  0.00000000000E+00  0.00000000000E+00 -0.12604095134E+04  0.12604095134E+04  0.50400001928E-02 0.  1.
    10030    2    1    2    0    0  0.00000000000E+00  0.00000000000E+00 -0.61574903217E+03  0.19050699947E+04  0.18028158015E+04 0.  0.
        4    1    3    3  502    0 -0.17542694876E+03 -0.70996784238E+03  0.24899305815E+03  0.77254650829E+03  0.12699999809E+01 0. -1.
       -4    1    3    3    0  502  0.17542694876E+03  0.70996784238E+03 -0.86474209031E+03  0.11325234864E+04  0.12699999809E+01 0.  1.
</event>
<event>
 5   0  0.2569405E-04  0.1807537E+04  0.7818609E-02  0.8702302E-01
        2   -1    0    0  501    0  0.00000000000E+00  0.00000000000E+00  0.16669059688E+04  0.16669059688E+04  0.25500000920E-02 0. -1.
       -2   -1    0    0    0  501  0.00000000000E+00  0.00000000000E+00 -0.49000791293E+03  0.49000791293E+03  0.25500000920E-02 0.  1.
    10030    2    1    2    0    0  0.00000000000E+00  0.00000000000E+00  0.11768980559E+04  0.21569138818E+04  0.18075365721E+04 0.  0.
        2    1    3    3  502    0 -0.74013082438E+02  0.39408173620E+03  0.15549534448E+04  0.16058202162E+04  0.25500000920E-02 0. -1.
       -2    1    3    3    0  502  0.74013082438E+02 -0.39408173620E+03 -0.37805538889E+03  0.55109366559E+03  0.25500000920E-02 0.  1.
</event>
<event>
 5   0  0.1330225E-04  0.1814525E+04  0.7818609E-02  0.8698613E-01
       -1   -1    0    0    0  501  0.00000000000E+00  0.00000000000E+00  0.58618007803E+03  0.58618007806E+03  0.50400001928E-02 0. -1.
        1   -1    0    0  501    0  0.00000000000E+00  0.00000000000E+00 -0.14042192749E+04  0.14042192749E+04  0.50400001928E-02 0.  1.
    10030    2    1    2    0    0  0.00000000000E+00  0.00000000000E+00 -0.81803919690E+03  0.19903993530E+04  0.18145251326E+04 0.  0.
        3    1    3    3  502    0 -0.21078069787E+03 -0.36307078391E+03  0.47322276263E+03  0.63260468699E+03  0.10100000352E+00 0. -1.
       -3    1    3    3    0  502  0.21078069787E+03  0.36307078391E+03 -0.12912619595E+04  0.13577946660E+04  0.10100000352E+00 0.  1.
</event>
<event>
 5   0  0.1239119E-04  0.1797537E+04  0.7818609E-02  0.8707610E-01
        1   -1    0    0  501    0  0.00000000000E+00  0.00000000000E+00  0.72279905881E+03  0.72279905882E+03  0.50400001928E-02 0.  1.
       -1   -1    0    0    0  501  0.00000000000E+00  0.00000000000E+00 -0.11175790439E+04  0.11175790439E+04  0.50400001928E-02 0. -1.
    10030    2    1    2    0    0  0.00000000000E+00  0.00000000000E+00 -0.39477998507E+03  0.18403781027E+04  0.17975372943E+04 0.  0.
        5    1    3    3  502    0 -0.31437856221E+03 -0.43862279471E+03 -0.93322555193E+03  0.10780333284E+04  0.46999998093E+01 0. -1.
       -5    1    3    3    0  502  0.31437856221E+03  0.43862279471E+03  0.53844556686E+03  0.76234477429E+03  0.46999998093E+01 0.  1.
</event>
<event>
 5   0  0.1253925E-04  0.1734689E+04  0.7818609E-02  0.8741823E-01
        1   -1    0    0  501    0  0.00000000000E+00  0.00000000000E+00  0.63852446923E+03  0.63852446925E+03  0.50400001928E-02 0.  1.
       -1   -1    0    0    0  501  0.00000000000E+00  0.00000000000E+00 -0.11781642376E+04  0.11781642377E+04  0.50400001928E-02 0. -1.
    10030    2    1    2    0    0  0.00000000000E+00  0.00000000000E+00 -0.53963976842E+03  0.18166887069E+04  0.17346892454E+04 0.  0.
        2    1    3    3  502    0 -0.86113766350E+02  0.78485584216E+03 -0.64577744548E+03  0.10200209718E+04  0.25500000920E-02 0. -1.
       -2    1    3    3    0  502  0.86113766350E+02 -0.78485584216E+03  0.10613767706E+03  0.79666773514E+03  0.25500000920E-02 0.  1.
</event>
<event>
 5   0  0.1239119E-04  0.1839151E+04  0.7818609E-02  0.8685752E-01
       -1   -1    0    0    0  501  0.00000000000E+00  0.00000000000E+00  0.74673318590E+03  0.74673318591E+03  0.50400001928E-02 0. -1.
        1   -1    0    0  501    0  0.00000000000E+00  0.00000000000E+00 -0.11324247738E+04  0.11324247738E+04  0.50400001928E-02 0.  1.
    10030    2    1    2    0    0  0.00000000000E+00  0.00000000000E+00 -0.38569158787E+03  0.18791579597E+04  0.18391510641E+04 0.  0.
        5    1    3    3  502    0 -0.11490551692E+03  0.74065962077E+03  0.35148784970E+03  0.82785611681E+03  0.46999998093E+01 0. -1.
       -5    1    3    3    0  502  0.11490551692E+03 -0.74065962077E+03 -0.73717943757E+03  0.10513018429E+04  0.46999998093E+01 0.  1.
</event>
<event>
 5   0  0.2569405E-04  0.1783299E+04  0.7818609E-02  0.8715231E-01
        2   -1    0    0  501    0  0.00000000000E+00  0.00000000000E+00  0.16131904455E+04  0.16131904455E+04  0.25500000920E-02 0. -1.
       -2   -1    0    0    0  501  0.00000000000E+00  0.00000000000E+00 -0.49283657952E+03  0.49283657952E+03  0.25500000920E-02 0.  1.
    10030    2    1    2    0    0  0.00000000000E+00  0.00000000000E+00  0.11203538659E+04  0.21060270250E+04  0.17832994827E+04 0.  0.
        2    1    3    3  502    0  0.75848931159E+03 -0.45509488045E+03  0.42749811375E+03  0.98243168886E+03  0.25500000920E-02 0.  1.
       -2    1    3    3    0  502 -0.75848931159E+03  0.45509488045E+03  0.69285575218E+03  0.11235953361E+04  0.25500000920E-02 0. -1.
</event>
<event>
 5   0  0.2569405E-04  0.1802938E+04  0.7818609E-02  0.8704739E-01
       -2   -1    0    0    0  501  0.00000000000E+00  0.00000000000E+00  0.73271930027E+03  0.73271930028E+03  0.25500000920E-02 0.  1.
        2   -1    0    0  501    0  0.00000000000E+00  0.00000000000E+00 -0.11090829307E+04  0.11090829308E+04  0.25500000920E-02 0. -1.
    10030    2    1    2    0    0  0.00000000000E+00  0.00000000000E+00 -0.37636363048E+03  0.18418022310E+04  0.18029381231E+04 0.  0.
        2    1    3    3  502    0 -0.10654219267E+03 -0.22186910930E+03  0.69773125970E+03  0.73986894194E+03  0.25500000920E-02 0.  1.
       -2    1    3    3    0  502  0.10654219267E+03  0.22186910930E+03 -0.10740948902E+04  0.11019332891E+04  0.25500000920E-02 0. -1.
</event>
<event>
 5   0  0.1308893E-04  0.1756338E+04  0.7818609E-02  0.8729869E-01
        1   -1    0    0  501    0  0.00000000000E+00  0.00000000000E+00  0.12023394616E+04  0.12023394617E+04  0.50400001928E-02 0.  1.
       -1   -1    0    0    0  501  0.00000000000E+00  0.00000000000E+00 -0.64140056695E+03  0.64140056697E+03  0.50400001928E-02 0. -1.
    10030    2    1    2    0    0  0.00000000000E+00  0.00000000000E+00  0.56093889469E+03  0.18437400286E+04  0.17563384781E+04 0.  0.
        4    1    3    3  502    0 -0.13034671465E+03 -0.61107424378E+03  0.92824889645E+03  0.11189502331E+04  0.12699999809E+01 0.  1.
       -4    1    3    3    0  502  0.13034671465E+03  0.61107424378E+03 -0.36731000176E+03  0.72478979554E+03  0.12699999809E+01 0. -1.
</event>
<event>
 5   0  0.2417106E-04  0.1808091E+04  0.7818609E-02  0.8702009E-01
        2   -1    0    0  501    0  0.00000000000E+00  0.00000000000E+00  0.45517201735E+03  0.45517201736E+03  0.25500000920E-02 0. -1.
       -2   -1    0    0    0  501  0.00000000000E+00  0.00000000000E+00 -0.17955802920E+04  0.17955802920E+04  0.25500000920E-02 0.  1.
    10030    2    1    2    0    0  0.00000000000E+00  0.00000000000E+00 -0.13404082747E+04  0.22507523094E+04  0.18080905993E+04 0.  0.
        4    1    3    3  502    0 -0.15728553587E+03  0.83771336002E+03 -0.29511386749E+03  0.90199568793E+03  0.12699999809E+01 0. -1.
       -4    1    3    3    0  502  0.15728553587E+03 -0.83771336002E+03 -0.10452944072E+04  0.13487566215E+04  0.12699999809E+01 0.  1.
</event>
<event>
 5   0  0.9144875E-05  0.1800139E+04  0.7818609E-02  0.8706225E-01
        3   -1    0    0  501    0  0.00000000000E+00  0.00000000000E+00  0.14418047023E+04  0.14418047058E+04  0.10100000352E+00 0.  1.
       -3   -1    0    0    0  501  0.00000000000E+00  0.00000000000E+00 -0.56188282635E+03  0.56188283542E+03  0.10100000352E+00 0. -1.
    10030    2    1    2    0    0  0.00000000000E+00  0.00000000000E+00  0.87992187595E+03  0.20036875413E+04  0.18001392322E+04 0.  0.
        2    1    3    3  502    0  0.87933632284E+03 -0.19187242680E+03  0.43013577106E+03  0.99752903636E+03  0.25500000920E-02 0. -1.
       -2    1    3    3    0  502 -0.87933632284E+03  0.19187242680E+03  0.44978610490E+03  0.10061585049E+04  0.25500000920E-02 0.  1.
</event>
<event>
 5   0  0.1239119E-04  0.1819534E+04  0.7818609E-02  0.8695980E-01
        1   -1    0    0  501    0  0.00000000000E+00  0.00000000000E+00  0.13775710765E+04  0.13775710765E+04  0.50400001928E-02 0. -1.
       -1   -1    0    0    0  501  0.00000000000E+00  0.00000000000E+00 -0.60082238852E+03  0.60082238854E+03  0.50400001928E-02 0.  1.
    10030    2    1    2    0    0  0.00000000000E+00  0.00000000000E+00  0.77674868799E+03  0.19783934651E+04  0.18195335057E+04 0.  0.
        5    1    3    3  502    0 -0.19008355287E+02 -0.90284458012E+03  0.50829314224E+03  0.10362787568E+04  0.46999998093E+01 0. -1.
       -5    1    3    3    0  502  0.19008355287E+02  0.90284458012E+03  0.26845554575E+03  0.94211470823E+03  0.46999998093E+01 0.  1.
</event>
<event>
 5   0  0.1330225E-04  0.1797257E+04  0.7818609E-02  0.8707760E-01
        1   -1    0    0  501    0  0.00000000000E+00  0.00000000000E+00  0.12946154979E+04  0.12946154979E+04  0.50400001928E-02 0. -1.
       -1   -1    0    0    0  501  0.00000000000E+00  0.00000000000E+00 -0.62376287019E+03  0.62376287021E+03  0.50400001928E-02 0.  1.
    10030    2    1    2    0    0  0.00000000000E+00  0.00000000000E+00  0.67085262771E+03  0.19183783681E+04  0.17972568862E+04 0.  0.
        3    1    3    3  502    0  0.58476529837E+03 -0.25420361106E+03  0.10113168052E+04  0.11955465783E+04  0.10100000352E+00 0. -1.
       -3    1    3    3    0  502 -0.58476529837E+03  0.25420361106E+03 -0.34046417752E+03  0.72283178986E+03  0.10100000352E+00 0.  1.
</event>
<event>
 5   0  0.2569405E-04  0.1778529E+04  0.7818609E-02  0.8717802E-01
        2   -1    0    0  501    0  0.00000000000E+00  0.00000000000E+00  0.24834207775E+04  0.24834207775E+04  0.25500000920E-02 0.  1.
       -2   -1    0    0    0  501  0.00000000000E+00  0.00000000000E+00 -0.31842821562E+03  0.31842821563E+03  0.25500000920E-02 0. -1.
    10030    2    1    2    0    0  0.00000000000E+00  0.00000000000E+00  0.21649925619E+04  0.28018489931E+04  0.17785288829E+04 0.  0.
        2    1    3    3  502    0 -0.51537529796E+03 -0.53597258955E+03  0.31408660034E+03  0.80717328190E+03  0.25500000920E-02 0. -1.
       -2    1    3    3    0  502  0.51537529796E+03  0.53597258955E+03  0.18509059615E+04  0.19946757112E+04  0.25500000920E-02 0.  1.
</event>
<event>
 5   0  0.1214723E-04  0.1792218E+04  0.7818609E-02  0.8710449E-01
       -1   -1    0    0    0  501  0.00000000000E+00  0.00000000000E+00  0.71843734078E+03  0.71843734080E+03  0.50400001928E-02 0.  1.
        1   -1    0    0  501    0  0.00000000000E+00  0.00000000000E+00 -0.11177188859E+04  0.11177188859E+04  0.50400001928E-02 0. -1.
    10030    2    1    2    0    0  0.00000000000E+00  0.00000000000E+00 -0.39928154514E+03  0.18361562267E+04  0.17922176031E+04 0.  0.
        1    1    3    3  502    0 -0.10265806443E+02 -0.24937212471E+03  0.68210964661E+03  0.72633698335E+03  0.50400001928E-02 0.  1.
       -1    1    3    3    0  502  0.10265806443E+02  0.24937212471E+03 -0.10813911918E+04  0.11098192434E+04  0.50400001928E-02 0. -1.
</event>
<event>
 5   0  0.2569405E-04  0.1785366E+04  0.7818609E-02  0.8714121E-01
       -2   -1    0    0    0  501  0.00000000000E+00  0.00000000000E+00  0.38994250959E+03  0.38994250960E+03  0.25500000920E-02 0. -1.
        2   -1    0    0  501    0  0.00000000000E+00  0.00000000000E+00 -0.20435897758E+04  0.20435897758E+04  0.25500000920E-02 0.  1.
    10030    2    1    2    0    0  0.00000000000E+00  0.00000000000E+00 -0.16536472662E+04  0.24335322854E+04  0.17853655376E+04 0.  0.
        2    1    3    3  502    0 -0.58947641522E+03  0.64692176174E+03 -0.10663951584E+04  0.13795611055E+04  0.25500000920E-02 0. -1.
       -2    1    3    3    0  502  0.58947641522E+03 -0.64692176174E+03 -0.58725210780E+03  0.10539711799E+04  0.25500000920E-02 0.  1.
</event>
<event>
 5   0  0.2569405E-04  0.1786722E+04  0.7818609E-02  0.8713392E-01
       -2   -1    0    0    0  501  0.00000000000E+00  0.00000000000E+00  0.45786454904E+03  0.45786454905E+03  0.25500000920E-02 0. -1.
        2   -1    0    0  501    0  0.00000000000E+00  0.00000000000E+00 -0.17430791301E+04  0.17430791301E+04  0.25500000920E-02 0.  1.
    10030    2    1    2    0    0  0.00000000000E+00  0.00000000000E+00 -0.12852145811E+04  0.22009436791E+04  0.17867222950E+04 0.  0.
        2    1    3    3  502    0  0.52507903161E+03 -0.50530779985E+03 -0.12791804286E+04  0.14721910647E+04  0.25500000920E-02 0.  1.
       -2    1    3    3    0  502 -0.52507903161E+03  0.50530779985E+03 -0.60341524255E+01  0.72875261443E+03  0.25500000920E-02 0. -1.
</event>
<event>
 5   0  0.1330225E-04  0.1795942E+04  0.7818609E-02  0.8708460E-01
       -1   -1    0    0    0  501  0.00000000000E+00  0.00000000000E+00  0.89868723253E+03  0.89868723255E+03  0.50400001928E-02 0. -1.
        1   -1    0    0  501    0  0.00000000000E+00  0.00000000000E+00 -0.89725555411E+03  0.89725555413E+03  0.50400001928E-02 0.  1.
    10030    2    1    2    0    0  0.00000000000E+00  0.00000000000E+00  0.14316784181E+01  0.17959427867E+04  0.17959422160E+04 0.  0.
        3    1    3    3  502    0 -0.65819330885E+03 -0.56784797383E+03  0.22584331340E+03  0.89815085905E+03  0.10100000352E+00 0.  1.
       -3    1    3    3    0  502  0.65819330885E+03  0.56784797383E+03 -0.22441163498E+03  0.89779192763E+03  0.10100000352E+00 0. -1.
</event>
<event>
 5   0  0.1214723E-04  0.1790789E+04  0.7818609E-02  0.8711213E-01
       -1   -1    0    0    0  501  0.00000000000E+00  0.00000000000E+00  0.64069693144E+03  0.64069693146E+03  0.50400001928E-02 0.  1.
        1   -1    0    0  501    0  0.00000000000E+00  0.00000000000E+00 -0.12513420406E+04  0.12513420406E+04  0.50400001928E-02 0. -1.
    10030    2    1    2    0    0  0.00000000000E+00  0.00000000000E+00 -0.61064510920E+03  0.18920389721E+04  0.17907886594E+04 0.  0.
        1    1    3    3  502    0  0.61716305330E+03  0.35115997889E+03  0.27097828910E+03  0.76002157754E+03  0.50400001928E-02 0.  1.
       -1    1    3    3    0  502 -0.61716305330E+03 -0.35115997889E+03 -0.88162339830E+03  0.11320173946E+04  0.50400001928E-02 0. -1.
</event>
<event>
 5   0  0.1330225E-04  0.1799339E+04  0.7818609E-02  0.8706651E-01
        1   -1    0    0  501    0  0.00000000000E+00  0.00000000000E+00  0.19607786827E+04  0.19607786827E+04  0.50400001928E-02 0.  1.
       -1   -1    0    0    0  501  0.00000000000E+00  0.00000000000E+00 -0.41279784161E+03  0.41279784164E+03  0.50400001928E-02 0. -1.
    10030    2    1    2    0    0  0.00000000000E+00  0.00000000000E+00  0.15479808411E+04  0.23735765243E+04  0.17993389988E+04 0.  0.
        3    1    3    3  502    0 -0.23676507188E+01  0.43137296326E+03 -0.26747466851E+03  0.50757358846E+03  0.10100000352E+00 0. -1.
       -3    1    3    3    0  502  0.23676507188E+01 -0.43137296326E+03  0.18154555096E+04  0.18660029359E+04  0.10100000352E+00 0.  1.
</event>
<event>
 5   0  0.1239119E-04  0.1783919E+04  0.7818609E-02  0.8714898E-01
        1   -1    0    0  501    0  0.00000000000E+00  0.00000000000E+00  0.14188181410E+04  0.14188181411E+04  0.50400001928E-02 0. -1.
       -1   -1    0    0    0  501  0.00000000000E+00  0.00000000000E+00 -0.56074270495E+03  0.56074270497E+03  0.50400001928E-02 0.  1.
    10030    2    1    2    0    0  0.00000000000E+00  0.00000000000E+00  0.85807543610E+03  0.19795608460E+04  0.17839191935E+04 0.  0.
        5    1    3    3  502    0  0.70893944796E+03 -0.50116992727E+03  0.65591941201E+03  0.10881262803E+04  0.46999998093E+01 0. -1.
       -5    1    3    3    0  502 -0.70893944796E+03  0.50116992727E+03  0.20215602408E+03  0.89143456571E+03  0.46999998093E+01 0.  1.
</event>
<event>
 5   0  0.1308893E-04  0.1805283E+04  0.7818609E-02  0.8703495E-01
       -1   -1    0    0    0  501  0.00000000000E+00  0.00000000000E+00  0.42941570231E+03  0.42941570234E+03  0.50400001928E-02 0. -1.
        1   -1    0    0  501    0  0.00000000000E+00  0.00000000000E+00 -0.18973723260E+04  0.18973723260E+04  0.50400001928E-02 0.  1.
    10030    2    1    2    0    0  0.00000000000E+00  0.00000000000E+00 -0.14679566237E+04  0.23267880284E+04  0.18052827700E+04 0.  0.
        4    1    3    3  502    0 -0.64377772644E+02  0.89152461159E+03 -0.89598371320E+03  0.12656022511E+04  0.12699999809E+01 0.  1.
       -4    1    3    3    0  502  0.64377772644E+02 -0.89152461159E+03 -0.57197291051E+03  0.10611857773E+04  0.12699999809E+01 0. -1.
</event>
<event>
 5   0  0.1308893E-04  0.1822677E+04  0.7818609E-02  0.8694332E-01
       -1   -1    0    0    0  501  0.00000000000E+00  0.00000000000E+00  0.31425477718E+03  0.31425477722E+03  0.50400001928E-02 0.  1.
        1   -1    0    0  501    0  0.00000000000E+00  0.00000000000E+00 -0.26428795657E+04  0.26428795657E+04  0.50400001928E-02 0. -1.
    10030    2    1    2    0    0  0.00000000000E+00  0.00000000000E+00 -0.23286247885E+04  0.29571343429E+04  0.18226766352E+04 0.  0.
        4    1    3    3  502    0 -0.73401600377E+03 -0.41085285788E+03 -0.59541111197E+03  0.10305802103E+04  0.12699999809E+01 0. -1.
       -4    1    3    3    0  502  0.73401600377E+03  0.41085285788E+03 -0.17332136765E+04  0.19265541326E+04  0.12699999809E+01 0.  1.
</event>
<event>
 5   0  0.2550616E-04  0.1797296E+04  0.7818609E-02  0.8707738E-01
        2   -1    0    0  501    0  0.00000000000E+00  0.00000000000E+00  0.15579859788E+04  0.15579859788E+04  0.25500000920E-02 0. -1.
       -2   -1    0    0    0  501  0.00000000000E+00  0.00000000000E+00 -0.51834141837E+03  0.51834141837E+03  0.25500000920E-02 0.  1.
    10030    2    1    2    0    0  0.00000000000E+00  0.00000000000E+00  0.10396445604E+04  0.20763273971E+04  0.17972964831E+04 0.  0.
        1    1    3    3  502    0 -0.74219825580E+03  0.22489650491E+03 -0.46817025358E+01  0.77553762461E+03  0.50400001928E-02 0.  1.
       -1    1    3    3    0  502  0.74219825580E+03 -0.22489650491E+03  0.10443262629E+04  0.13007897725E+04  0.50400001928E-02 0. -1.
</event>
<event>
 5   0  0.2431811E-04  0.1798606E+04  0.7818609E-02  0.8707041E-01
        2   -1    0    0  501    0  0.00000000000E+00  0.00000000000E+00  0.68102898665E+03  0.68102898665E+03  0.25500000920E-02 0. -1.
       -2   -1    0    0    0  501  0.00000000000E+00  0.00000000000E+00 -0.11875354061E+04  0.11875354061E+04  0.25500000920E-02 0.  1.
    10030    2    1    2    0    0  0.00000000000E+00  0.00000000000E+00 -0.50650641945E+03  0.18685643928E+04  0.17986061650E+04 0.  0.
        3    1    3    3  502    0  0.83207554649E+03 -0.62317341637E+02  0.95222947595E+02  0.83982175852E+03  0.10100000352E+00 0.  1.
       -3    1    3    3    0  502 -0.83207554649E+03  0.62317341637E+02 -0.60172936704E+03  0.10287426342E+04  0.10100000352E+00 0. -1.
</event>
<event>
 5   0  0.1239119E-04  0.1792861E+04  0.7818609E-02  0.8710105E-01
        1   -1    0    0  501    0  0.00000000000E+00  0.00000000000E+00  0.16553762817E+04  0.16553762817E+04  0.50400001928E-02 0. -1.
       -1   -1    0    0    0  501  0.00000000000E+00  0.00000000000E+00 -0.48544107330E+03  0.48544107333E+03  0.50400001928E-02 0.  1.
    10030    2    1    2    0    0  0.00000000000E+00  0.00000000000E+00  0.11699352084E+04  0.21408173550E+04  0.17928609973E+04 0.  0.
        5    1    3    3  502    0  0.58307570978E+03  0.61774719440E+03  0.24308411148E+03  0.88357277843E+03  0.46999998093E+01 0. -1.
       -5    1    3    3    0  502 -0.58307570978E+03 -0.61774719440E+03  0.92685109690E+03  0.12572445766E+04  0.46999998093E+01 0.  1.
</event>
<event>
 5   0  0.2569405E-04  0.1775151E+04  0.7818609E-02  0.8719626E-01
       -2   -1    0    0    0  501  0.00000000000E+00  0.00000000000E+00  0.58334647163E+03  0.58334647164E+03  0.25500000920E-02 0. -1.
        2   -1    0    0  501    0  0.00000000000E+00  0.00000000000E+00 -0.13504677770E+04  0.13504677770E+04  0.25500000920E-02 0.  1.
    10030    2    1    2    0    0  0.00000000000E+00  0.00000000000E+00 -0.76712130540E+03  0.19338142487E+04  0.17751513882E+04 0.  0.
        2    1    3    3  502    0 -0.70561160130E+03 -0.50156347033E+03 -0.59685936326E+03  0.10515202072E+04  0.25500000920E-02 0. -1.
       -2    1    3    3    0  502  0.70561160130E+03  0.50156347033E+03 -0.17026194214E+03  0.88229404146E+03  0.25500000920E-02 0.  1.
</event>
<event>
 5   0  0.2417106E-04  0.1707270E+04  0.7818609E-02  0.8757229E-01
       -2   -1    0    0    0  501  0.00000000000E+00  0.00000000000E+00  0.72897522924E+03  0.72897522925E+03  0.25500000920E-02 0. -1.
        2   -1    0    0  501    0  0.00000000000E+00  0.00000000000E+00 -0.99961235974E+03  0.99961235974E+03  0.25500000920E-02 0.  1.
    10030    2    1    2    0    0  0.00000000000E+00  0.00000000000E+00 -0.27063713049E+03  0.17285875890E+04  0.17072699249E+04 0.  0.
        4    1    3    3  502    0  0.84433165047E+03 -0.24912786557E+02 -0.10595801135E+02  0.84476651616E+03  0.12699999809E+01 0.  1.
       -4    1    3    3    0  502 -0.84433165047E+03  0.24912786557E+02 -0.26004132936E+03  0.88382107284E+03  0.12699999809E+01 0. -1.
</event>
<event>
 5   0  0.1308893E-04  0.1790298E+04  0.7818609E-02  0.8711476E-01
       -1   -1    0    0    0  501  0.00000000000E+00  0.00000000000E+00  0.53764348047E+03  0.53764348049E+03  0.50400001928E-02 0. -1.
        1   -1    0    0  501    0  0.00000000000E+00  0.00000000000E+00 -0.14903772854E+04  0.14903772854E+04  0.50400001928E-02 0.  1.
    10030    2    1    2    0    0  0.00000000000E+00  0.00000000000E+00 -0.95273380493E+03  0.20280207659E+04  0.17902978869E+04 0.  0.
        4    1    3    3  502    0  0.42607000852E+02 -0.58646873301E+01 -0.14892051854E+04  0.14898266504E+04  0.12699999809E+01 0.  1.
       -4    1    3    3    0  502 -0.42607000852E+02  0.58646873301E+01  0.53647138044E+03  0.53819411554E+03  0.12699999809E+01 0. -1.
</event>
<event>
 5   0  0.2393421E-04  0.1809083E+04  0.7818609E-02  0.8701484E-01
       -2   -1    0    0    0  501  0.00000000000E+00  0.00000000000E+00  0.84280400132E+03  0.84280400132E+03  0.25500000920E-02 0.  1.
        2   -1    0    0  501    0  0.00000000000E+00  0.00000000000E+00 -0.97080092763E+03  0.97080092763E+03  0.25500000920E-02 0. -1.
    10030    2    1    2    0    0  0.00000000000E+00  0.00000000000E+00 -0.12799692631E+03  0.18136049290E+04  0.18090825369E+04 0.  0.
        5    1    3    3  502    0  0.52399060771E+03 -0.60384109488E+03 -0.48811939015E+03  0.93673521012E+03  0.46999998093E+01 0. -1.
       -5    1    3    3    0  502 -0.52399060771E+03  0.60384109488E+03  0.36012246384E+03  0.87686971883E+03  0.46999998093E+01 0.  1.
</event>
<event>
 5   0  0.2550616E-04  0.1803750E+04  0.7818609E-02  0.8704308E-01
        2   -1    0    0  501    0  0.00000000000E+00  0.00000000000E+00  0.15446656419E+04  0.15446656419E+04  0.25500000920E-02 0.  1.
       -2   -1    0    0    0  501  0.00000000000E+00  0.00000000000E+00 -0.52657275994E+03  0.52657275995E+03  0.25500000920E-02 0. -1.
    10030    2    1    2    0    0  0.00000000000E+00  0.00000000000E+00  0.10180928819E+04  0.20712384018E+04  0.18037503710E+04 0.  0.
        1    1    3    3  502    0  0.28147088819E+03 -0.83324276601E+03  0.27979108934E+03  0.92293142850E+03  0.50400001928E-02 0.  1.
       -1    1    3    3    0  502 -0.28147088819E+03  0.83324276601E+03  0.73830179257E+03  0.11483069733E+04  0.50400001928E-02 0. -1.
</event>
<event>
 5   0  0.1308893E-04  0.1789556E+04  0.7818609E-02  0.8711873E-01
       -1   -1    0    0    0  501  0.00000000000E+00  0.00000000000E+00  0.13298773234E+04  0.13298773234E+04  0.50400001928E-02 0. -1.
        1   -1    0    0  501    0  0.00000000000E+00  0.00000000000E+00 -0.60203129276E+03  0.60203129278E+03  0.50400001928E-02 0.  1.
    10030    2    1    2    0    0  0.00000000000E+00  0.00000000000E+00  0.72784603066E+03  0.19319086162E+04  0.17895561061E+04 0.  0.
        4    1    3    3  502    0 -0.38401345633E+03 -0.71412687175E+03 -0.44571683347E+02  0.81205404467E+03  0.12699999809E+01 0. -1.
       -4    1    3    3    0  502  0.38401345633E+03  0.71412687175E+03  0.77241771401E+03  0.11198545715E+04  0.12699999809E+01 0.  1.
</event>
<event>
 5   0  0.1214723E-04  0.1795620E+04  0.7818609E-02  0.8708632E-01
        1   -1    0    0  501    0  0.00000000000E+00  0.00000000000E+00  0.43987082606E+03  0.43987082609E+03  0.50400001928E-02 0. -1.
       -1   -1    0    0    0  501  0.00000000000E+00  0.00000000000E+00 -0.18324980927E+04  0.18324980927E+04  0.50400001928E-02 0.  1.
    10030    2    1    2    0    0  0.00000000000E+00  0.00000000000E+00 -0.13926272667E+04  0.22723689188E+04  0.17956196143E+04 0.  0.
        1    1    3    3  502    0  0.13697520733E+03 -0.63550433036E+03  0.87314620942E+02  0.65593582338E+03  0.50400001928E-02 0. -1.
       -1    1    3    3    0  502 -0.13697520733E+03  0.63550433036E+03 -0.14799418876E+04  0.16164330954E+04  0.50400001928E-02 0.  1.
</event>
<event>
 5   0  0.2417106E-04  0.1814555E+04  0.7818609E-02  0.8698598E-01
        2   -1    0    0  501    0  0.00000000000E+00  0.00000000000E+00  0.12074459279E+04  0.12074459279E+04  0.25500000920E-02 0. -1.
       -2   -1    0    0    0  501  0.00000000000E+00  0.00000000000E+00 -0.68172994730E+03  0.68172994730E+03  0.25500000920E-02 0.  1.
    10030    2    1    2    0    0  0.00000000000E+00  0.00000000000E+00  0.52571598059E+03  0.18891758752E+04  0.18145545445E+04 0.  0.
        4    1    3    3  502    0  0.17700034179E+03  0.34855480126E+03  0.11152649208E+04  0.11817939866E+04  0.12699999809E+01 0. -1.
       -4    1    3    3    0  502 -0.17700034179E+03 -0.34855480126E+03 -0.58954894018E+03  0.70738188854E+03  0.12699999809E+01 0.  1.
</event>
<event>
 5   0  0.2431811E-04  0.1768288E+04  0.7818609E-02  0.8723348E-01
       -2   -1    0    0    0  501  0.00000000000E+00  0.00000000000E+00  0.52656213902E+03  0.52656213902E+03  0.25500000920E-02 0.  1.
        2   -1    0    0  501    0  0.00000000000E+00  0.00000000000E+00 -0.14845556419E+04  0.14845556420E+04  0.25500000920E-02 0. -1.
    10030    2    1    2    0    0  0.00000000000E+00  0.00000000000E+00 -0.95799350293E+03  0.20111177810E+04  0.17682882054E+04 0.  0.
        3    1    3    3  502    0  0.61359817965E+03 -0.54688226110E+02  0.24230137647E+03  0.66196940668E+03  0.10100000352E+00 0.  1.
       -3    1    3    3    0  502 -0.61359817965E+03  0.54688226110E+02 -0.12002948794E+04  0.13491483743E+04  0.10100000352E+00 0. -1.
</event>
<event>
 5   0  0.2569405E-04  0.1803901E+04  0.7818609E-02  0.8704228E-01
       -2   -1    0    0    0  501  0.00000000000E+00  0.00000000000E+00  0.35480303958E+03  0.35480303959E+03  0.25500000920E-02 0.  1.
        2   -1    0    0  501    0  0.00000000000E+00  0.00000000000E+00 -0.22928627239E+04  0.22928627239E+04  0.25500000920E-02 0. -1.
    10030    2    1    2    0    0  0.00000000000E+00  0.00000000000E+00 -0.19380596843E+04  0.26476657635E+04  0.18039009549E+04 0.  0.
        2    1    3    3  502    0 -0.35599638361E+03  0.59689810195E+03 -0.12524408251E+03  0.70619179369E+03  0.25500000920E-02 0.  1.
       -2    1    3    3    0  502  0.35599638361E+03 -0.59689810195E+03 -0.18128156018E+04  0.19414739698E+04  0.25500000920E-02 0. -1.
</event>
<event>
 5   0  0.2569405E-04  0.1801099E+04  0.7818609E-02  0.8705715E-01
       -2   -1    0    0    0  501  0.00000000000E+00  0.00000000000E+00  0.69845295058E+03  0.69845295058E+03  0.25500000920E-02 0. -1.
        2   -1    0    0  501    0  0.00000000000E+00  0.00000000000E+00 -0.11611230314E+04  0.11611230314E+04  0.25500000920E-02 0.  1.
    10030    2    1    2    0    0  0.00000000000E+00  0.00000000000E+00 -0.46267008083E+03  0.18595759820E+04  0.18010994501E+04 0.  0.
        2    1    3    3  502    0 -0.23928363928E+03 -0.79940134816E+03 -0.58099041420E+03  0.10167836726E+04  0.25500000920E-02 0.  1.
       -2    1    3    3    0  502  0.23928363928E+03  0.79940134816E+03  0.11832033337E+03  0.84279230939E+03  0.25500000920E-02 0. -1.
</event>
<event>
 5   0  0.2417106E-04  0.1779623E+04  0.7818609E-02  0.8717212E-01
        2   -1    0    0  501    0  0.00000000000E+00  0.00000000000E+00  0.97710510662E+03  0.97710510662E+03  0.25500000920E-02 0. -1.
       -2   -1    0    0    0  501  0.00000000000E+00  0.00000000000E+00 -0.81031618928E+03  0.81031618929E+03  0.25500000920E-02 0.  1.
    10030    2    1    2    0    0  0.00000000000E+00  0.00000000000E+00  0.16678891733E+03  0.17874212959E+04  0.17796225291E+04 0.  0.
        4    1    3    3  502    0 -0.94179583299E+02 -0.56956509546E+03  0.76347939117E+03  0.95717113701E+03  0.12699999809E+01 0. -1.
       -4    1    3    3    0  502  0.94179583299E+02  0.56956509546E+03 -0.59669047384E+03  0.83025015890E+03  0.12699999809E+01 0.  1.
</event>
<event>
 5   0  0.2393421E-04  0.1794412E+04  0.7818609E-02  0.8709277E-01
        2   -1    0    0  501    0  0.00000000000E+00  0.00000000000E+00  0.15423826222E+04  0.15423826222E+04  0.25500000920E-02 0.  1.
       -2   -1    0    0    0  501  0.00000000000E+00  0.00000000000E+00 -0.52190563912E+03  0.52190563913E+03  0.25500000920E-02 0. -1.
    10030    2    1    2    0    0  0.00000000000E+00  0.00000000000E+00  0.10204769831E+04  0.20642882613E+04  0.17944115339E+04 0.  0.
        5    1    3    3  502    0  0.60578012349E+03  0.48453828261E+03 -0.83465270979E+01  0.77578261120E+03  0.46999998093E+01 0. -1.
       -5    1    3    3    0  502 -0.60578012349E+03 -0.48453828261E+03  0.10288235102E+04  0.12885056501E+04  0.46999998093E+01 0.  1.
</event>
<event>
 5   0  0.2393421E-04  0.1795665E+04  0.7818609E-02  0.8708608E-01
       -2   -1    0    0    0  501  0.00000000000E+00  0.00000000000E+00  0.49114778636E+03  0.49114778637E+03  0.25500000920E-02 0.  1.
        2   -1    0    0  501    0  0.00000000000E+00  0.00000000000E+00 -0.16412638754E+04  0.16412638754E+04  0.25500000920E-02 0. -1.
    10030    2    1    2    0    0  0.00000000000E+00  0.00000000000E+00 -0.11501160890E+04  0.21324116617E+04  0.17956649122E+04 0.  0.
        5    1    3    3  502    0  0.45390117844E+03 -0.55422667207E+03 -0.12177401453E+04  0.14128363795E+04  0.46999998093E+01 0. -1.
       -5    1    3    3    0  502 -0.45390117844E+03  0.55422667207E+03  0.67624056261E+02  0.71957528224E+03  0.46999998093E+01 0.  1.
</event>
<event>
 5   0  0.2431811E-04  0.1786192E+04  0.7818609E-02  0.8713677E-01
       -2   -1    0    0    0  501  0.00000000000E+00  0.00000000000E+00  0.11177248243E+04  0.11177248243E+04  0.25500000920E-02 0. -1.
        2   -1    0    0  501    0  0.00000000000E+00  0.00000000000E+00 -0.71361080861E+03  0.71361080861E+03  0.25500000920E-02 0.  1.
    10030    2    1    2    0    0  0.00000000000E+00  0.00000000000E+00  0.40411401568E+03  0.18313356329E+04  0.17861920565E+04 0.  0.
        3    1    3    3  502    0 -0.36497027621E+03  0.65612342235E+03 -0.29381863959E+03  0.80624478358E+03  0.10100000352E+00 0.  1.
       -3    1    3    3    0  502  0.36497027621E+03 -0.65612342235E+03  0.69793265527E+03  0.10250908493E+04  0.10100000352E+00 0. -1.
</event>
<event>
 5   0  0.1214723E-04  0.1796933E+04  0.7818609E-02  0.8707932E-01
        1   -1    0    0  501    0  0.00000000000E+00  0.00000000000E+00  0.87381898361E+03  0.87381898363E+03  0.50400001928E-02 0.  1.
       -1   -1    0    0    0  501  0.00000000000E+00  0.00000000000E+00 -0.92380873692E+03  0.92380873694E+03  0.50400001928E-02 0. -1.
    10030    2    1    2    0    0  0.00000000000E+00  0.00000000000E+00 -0.49989753308E+02  0.17976277206E+04  0.17969325102E+04 0.  0.
        1    1    3    3  502    0  0.69827416498E+03  0.10139019425E+02 -0.59050288845E+03  0.91453992285E+03  0.50400001928E-02 0. -1.
       -1    1    3    3    0  502 -0.69827416498E+03 -0.10139019425E+02  0.54051313514E+03  0.88308779772E+03  0.50400001928E-02 0.  1.
</event>
<event>
 5   0  0.1214723E-04  0.1807758E+04  0.7818609E-02  0.8702185E-01
       -1   -1    0    0    0  501  0.00000000000E+00  0.00000000000E+00  0.64826378220E+03  0.64826378222E+03  0.50400001928E-02 0.  1.
        1   -1    0    0  501    0  0.00000000000E+00  0.00000000000E+00 -0.12602851981E+04  0.12602851982E+04  0.50400001928E-02 0. -1.
    10030    2    1    2    0    0  0.00000000000E+00  0.00000000000E+00 -0.61202141594E+03  0.19085489804E+04  0.18077580029E+04 0.  0.
        1    1    3    3  502    0  0.58018321214E+02 -0.13722711029E+02 -0.12582070962E+04  0.12596188056E+04  0.50400001928E-02 0. -1.
       -1    1    3    3    0  502 -0.58018321214E+02  0.13722711029E+02  0.64618568025E+03  0.64893017481E+03  0.50400001928E-02 0.  1.
</event>
<event>
 5   0  0.2569405E-04  0.1817548E+04  0.7818609E-02  0.8697023E-01
       -2   -1    0    0    0  501  0.00000000000E+00  0.00000000000E+00  0.91123789972E+03  0.91123789972E+03  0.25500000920E-02 0.  1.
        2   -1    0    0  501    0  0.00000000000E+00  0.00000000000E+00 -0.90631686182E+03  0.90631686182E+03  0.25500000920E-02 0. -1.
    10030    2    1    2    0    0  0.00000000000E+00  0.00000000000E+00  0.49210378987E+01  0.18175547615E+04  0.18175480997E+04 0.  0.
        2    1    3    3  502    0  0.55146023996E+03  0.32193320255E+03 -0.64416453127E+03  0.90702664046E+03  0.25500000920E-02 0. -1.
       -2    1    3    3    0  502 -0.55146023996E+03 -0.32193320255E+03  0.64908556917E+03  0.91052812108E+03  0.25500000920E-02 0.  1.
</event>
<event>
 5   0  0.2417106E-04  0.1791361E+04  0.7818609E-02  0.8710907E-01
        2   -1    0    0  501    0  0.00000000000E+00  0.00000000000E+00  0.72172571711E+03  0.72172571711E+03  0.25500000920E-02 0.  1.
       -2   -1    0    0    0  501  0.00000000000E+00  0.00000000000E+00 -0.11115626503E+04  0.11115626503E+04  0.25500000920E-02 0. -1.
    10030    2    1    2    0    0  0.00000000000E+00  0.00000000000E+00 -0.38983693317E+03  0.18332883674E+04  0.17913607687E+04 0.  0.
        4    1    3    3  502    0 -0.73756338224E+03  0.82270064471E+02 -0.70812709663E+03  0.10257746849E+04  0.12699999809E+01 0. -1.
       -4    1    3    3    0  502  0.73756338224E+03 -0.82270064471E+02  0.31829016346E+03  0.80751368248E+03  0.12699999809E+01 0.  1.
</event>
<event>
 5   0  0.1239119E-04  0.1743896E+04  0.7818609E-02  0.8736718E-01
       -1   -1    0    0    0  501  0.00000000000E+00  0.00000000000E+00  0.81833953928E+03  0.81833953930E+03  0.50400001928E-02 0.  1.
        1   -1    0    0  501    0  0.00000000000E+00  0.00000000000E+00 -0.92906793221E+03  0.92906793222E+03  0.50400001928E-02 0. -1.
    10030    2    1    2    0    0  0.00000000000E+00  0.00000000000E+00 -0.11072839292E+03  0.17474074715E+04  0.17438956662E+04 0.  0.
        5    1    3    3  502    0  0.44744652892E+03 -0.57027563733E+03 -0.54095151924E+03  0.90447406538E+03  0.46999998093E+01 0. -1.
       -5    1    3    3    0  502 -0.44744652892E+03  0.57027563733E+03  0.43022312631E+03  0.84293340614E+03  0.46999998093E+01 0.  1.
</event>
<event>
 5   0  0.9144875E-05  0.1823084E+04  0.7818609E-02  0.8694119E-01
       -3   -1    0    0    0  501  0.00000000000E+00  0.00000000000E+00  0.39383203093E+03  0.39383204388E+03  0.10100000352E+00 0.  1.
        3   -1    0    0  501    0  0.00000000000E+00  0.00000000000E+00 -0.21098057424E+04  0.21098057448E+04  0.10100000352E+00 0. -1.
    10030    2    1    2    0    0  0.00000000000E+00  0.00000000000E+00 -0.17159737115E+04  0.25036377887E+04  0.18230843092E+04 0.  0.
        3    1    3    3  502    0 -0.73691498970E+03  0.33858263303E+03 -0.28641245130E+03  0.86006627878E+03  0.10100000352E+00 0.  1.
       -3    1    3    3    0  502  0.73691498970E+03 -0.33858263303E+03 -0.14295612602E+04  0.16435715099E+04  0.10100000352E+00 0. -1.
</event>
<event>
 5   0  0.2550616E-04  0.1715929E+04  0.7818609E-02  0.8752331E-01
       -2   -1    0    0    0  501  0.00000000000E+00  0.00000000000E+00  0.59757930910E+03  0.59757930910E+03  0.25500000920E-02 0.  1.
        2   -1    0    0  501    0  0.00000000000E+00  0.00000000000E+00 -0.12318080696E+04  0.12318080696E+04  0.25500000920E-02 0. -1.
    10030    2    1    2    0    0  0.00000000000E+00  0.00000000000E+00 -0.63422876051E+03  0.18293873787E+04  0.17159289207E+04 0.  0.
        1    1    3    3  502    0 -0.80089666761E+03  0.25178071052E+03 -0.50565208556E+03  0.98005766669E+03  0.50400001928E-02 0. -1.
       -1    1    3    3    0  502  0.80089666761E+03 -0.25178071052E+03 -0.12857667495E+03  0.84932971203E+03  0.50400001928E-02 0.  1.
</event>
<event>
 5   0  0.1239119E-04  0.1812078E+04  0.7818609E-02  0.8699903E-01
       -1   -1    0    0    0  501  0.00000000000E+00  0.00000000000E+00  0.44995640679E+03  0.44995640682E+03  0.50400001928E-02 0.  1.
        1   -1    0    0  501    0  0.00000000000E+00  0.00000000000E+00 -0.18244146161E+04  0.18244146161E+04  0.50400001928E-02 0. -1.
    10030    2    1    2    0    0  0.00000000000E+00  0.00000000000E+00 -0.13744582093E+04  0.22743710230E+04  0.18120784147E+04 0.  0.
        5    1    3    3  502    0  0.88988613267E+03  0.16870430424E+03 -0.71602806723E+03  0.11545894311E+04  0.46999998093E+01 0. -1.
       -5    1    3    3    0  502 -0.88988613267E+03 -0.16870430424E+03 -0.65843014211E+03  0.11197815918E+04  0.46999998093E+01 0.  1.
</event>
<event>
 5   0  0.1308893E-04  0.1852632E+04  0.7818609E-02  0.8678800E-01
       -1   -1    0    0    0  501  0.00000000000E+00  0.00000000000E+00  0.63108850556E+03  0.63108850558E+03  0.50400001928E-02 0. -1.
        1   -1    0    0  501    0  0.00000000000E+00  0.00000000000E+00 -0.13596534306E+04  0.13596534306E+04  0.50400001928E-02 0.  1.
    10030    2    1    2    0    0  0.00000000000E+00  0.00000000000E+00 -0.72856492507E+03  0.19907419362E+04  0.18526323452E+04 0.  0.
        4    1    3    3  502    0 -0.67362820939E+03 -0.41379373737E+03  0.15446910707E+03  0.80552004290E+03  0.12699999809E+01 0. -1.
       -4    1    3    3    0  502  0.67362820939E+03  0.41379373737E+03 -0.88303403214E+03  0.11852218933E+04  0.12699999809E+01 0.  1.
</event>
<event>
 5   0  0.1214723E-04  0.1793193E+04  0.7818609E-02  0.8709928E-01
       -1   -1    0    0    0  501  0.00000000000E+00  0.00000000000E+00  0.71497598892E+03  0.71497598893E+03  0.50400001928E-02 0. -1.
        1   -1    0    0  501    0  0.00000000000E+00  0.00000000000E+00 -0.11243526703E+04  0.11243526703E+04  0.50400001928E-02 0.  1.
    10030    2    1    2    0    0  0.00000000000E+00  0.00000000000E+00 -0.40937668142E+03  0.18393286593E+04  0.17931928646E+04 0.  0.
        1    1    3    3  502    0  0.82586235944E+03 -0.29800981182E+03 -0.39109644070E+03  0.96115290700E+03  0.50400001928E-02 0. -1.
       -1    1    3    3    0  502 -0.82586235944E+03  0.29800981182E+03 -0.18280240719E+02  0.87817575229E+03  0.50400001928E-02 0.  1.
</event>
<event>
 5   0  0.1214723E-04  0.1916261E+04  0.7818609E-02  0.8646804E-01
        1   -1    0    0  501    0  0.00000000000E+00  0.00000000000E+00  0.11671033741E+04  0.11671033741E+04  0.50400001928E-02 0.  1.
       -1   -1    0    0    0  501  0.00000000000E+00  0.00000000000E+00 -0.78657448701E+03  0.78657448703E+03  0.50400001928E-02 0. -1.
    10030    2    1    2    0    0  0.00000000000E+00  0.00000000000E+00  0.38052888711E+03  0.19536778612E+04  0.19162606689E+04 0.  0.
        1    1    3    3  502    0 -0.21775272842E+03  0.75756246197E+03 -0.36507005868E+03  0.86867328858E+03  0.50400001928E-02 0. -1.
       -1    1    3    3    0  502  0.21775272842E+03 -0.75756246197E+03  0.74559894579E+03  0.10850045726E+04  0.50400001928E-02 0.  1.
</event>
<event>
 5   0  0.1214723E-04  0.1797730E+04  0.7818609E-02  0.8707508E-01
        1   -1    0    0  501    0  0.00000000000E+00  0.00000000000E+00  0.66425430070E+03  0.66425430072E+03  0.50400001928E-02 0. -1.
       -1   -1    0    0    0  501  0.00000000000E+00  0.00000000000E+00 -0.12163388528E+04  0.12163388528E+04  0.50400001928E-02 0.  1.
    10030    2    1    2    0    0  0.00000000000E+00  0.00000000000E+00 -0.55208455210E+03  0.18805931535E+04  0.17977300288E+04 0.  0.
        1    1    3    3  502    0  0.66137780689E+03  0.24747304933E+03 -0.85781946310E+03  0.11110885405E+04  0.50400001928E-02 0.  1.
       -1    1    3    3    0  502 -0.66137780689E+03 -0.24747304933E+03  0.30573491100E+03  0.76950461300E+03  0.50400001928E-02 0. -1.
</event>
<event>
 5   0  0.9144875E-05  0.1794060E+04  0.7818609E-02  0.8709465E-01
        4   -1    0    0  501    0  0.00000000000E+00  0.00000000000E+00  0.56346714519E+03  0.56346857642E+03  0.12699999809E+01 0.  1.
       -4   -1    0    0    0  501  0.00000000000E+00  0.00000000000E+00 -0.14280524724E+04  0.14280530372E+04  0.12699999809E+01 0. -1.
    10030    2    1    2    0    0  0.00000000000E+00  0.00000000000E+00 -0.86458532724E+03  0.19915216136E+04  0.17940597953E+04 0.  0.
        5    1    3    3  502    0 -0.17118742820E+03  0.30539314599E+03 -0.13490675834E+04  0.13937630873E+04  0.46999998093E+01 0. -1.
       -5    1    3    3    0  502  0.17118742820E+03 -0.30539314599E+03  0.48448225611E+03  0.59775852622E+03  0.46999998093E+01 0.  1.
</event>
<event>
 5   0  0.1239119E-04  0.1769845E+04  0.7818609E-02  0.8722502E-01
        1   -1    0    0  501    0  0.00000000000E+00  0.00000000000E+00  0.93679388264E+03  0.93679388265E+03  0.50400001928E-02 0.  1.
       -1   -1    0    0    0  501  0.00000000000E+00  0.00000000000E+00 -0.83592349334E+03  0.83592349335E+03  0.50400001928E-02 0. -1.
    10030    2    1    2    0    0  0.00000000000E+00  0.00000000000E+00  0.10087038930E+03  0.17727173760E+04  0.17698452078E+04 0.  0.
        5    1    3    3  502    0  0.69741778952E+03  0.12862737445E+03 -0.47969620034E+03  0.85619338308E+03  0.46999998093E+01 0. -1.
       -5    1    3    3    0  502 -0.69741778952E+03 -0.12862737445E+03  0.58056658965E+03  0.91652399293E+03  0.46999998093E+01 0.  1.
</event>
<event>
 5   0  0.2431811E-04  0.1793715E+04  0.7818609E-02  0.8709649E-01
       -2   -1    0    0    0  501  0.00000000000E+00  0.00000000000E+00  0.59171019266E+03  0.59171019266E+03  0.25500000920E-02 0.  1.
        2   -1    0    0  501    0  0.00000000000E+00  0.00000000000E+00 -0.13593701058E+04  0.13593701058E+04  0.25500000920E-02 0. -1.
    10030    2    1    2    0    0  0.00000000000E+00  0.00000000000E+00 -0.76765991313E+03  0.19510802984E+04  0.17937147456E+04 0.  0.
        3    1    3    3  502    0 -0.14866782583E+03 -0.69170370124E+03 -0.98336353048E+03  0.12114288985E+04  0.10100000352E+00 0. -1.
       -3    1    3    3    0  502  0.14866782583E+03  0.69170370124E+03  0.21570361736E+03  0.73965139998E+03  0.10100000352E+00 0.  1.
</event>
<event>
 5   0  0.1330225E-04  0.1788510E+04  0.7818609E-02  0.8712434E-01
       -1   -1    0    0    0  501  0.00000000000E+00  0.00000000000E+00  0.78668617099E+03  0.78668617101E+03  0.50400001928E-02 0. -1.
        1   -1    0    0  501    0  0.00000000000E+00  0.00000000000E+00 -0.10165320909E+04  0.10165320909E+04  0.50400001928E-02 0.  1.
    10030    2    1    2    0    0  0.00000000000E+00  0.00000000000E+00 -0.22984591993E+03  0.18032182619E+04  0.17885097018E+04 0.  0.
        3    1    3    3  502    0 -0.27941142921E+02 -0.25747397797E+03  0.74804732134E+03  0.79161124421E+03  0.10100000352E+00 0. -1.
       -3    1    3    3    0  502  0.27941142921E+02  0.25747397797E+03 -0.97789324127E+03  0.10116070177E+04  0.10100000352E+00 0.  1.
</event>
<event>
 5   0  0.1253925E-04  0.1844664E+04  0.7818609E-02  0.8682902E-01
        1   -1    0    0  501    0  0.00000000000E+00  0.00000000000E+00  0.11543612384E+04  0.11543612384E+04  0.50400001928E-02 0.  1.
       -1   -1    0    0    0  501  0.00000000000E+00  0.00000000000E+00 -0.73694095769E+03  0.73694095770E+03  0.50400001928E-02 0. -1.
    10030    2    1    2    0    0  0.00000000000E+00  0.00000000000E+00  0.41742028070E+03  0.18913021961E+04  0.18446637380E+04 0.  0.
        2    1    3    3  502    0 -0.28781010478E+03 -0.69432843667E+03 -0.33937952072E+03  0.82468484493E+03  0.25500000920E-02 0. -1.
       -2    1    3    3    0  502  0.28781010478E+03  0.69432843667E+03  0.75679980142E+03  0.10666173512E+04  0.25500000920E-02 0.  1.
</event>
<event>
 5   0  0.2393421E-04  0.1797313E+04  0.7818609E-02  0.8707730E-01
        2   -1    0    0  501    0  0.00000000000E+00  0.00000000000E+00  0.74538227576E+03  0.74538227576E+03  0.25500000920E-02 0.  1.
       -2   -1    0    0    0  501  0.00000000000E+00  0.00000000000E+00 -0.10834488382E+04  0.10834488382E+04  0.25500000920E-02 0. -1.
    10030    2    1    2    0    0  0.00000000000E+00  0.00000000000E+00 -0.33806656242E+03  0.18288311139E+04  0.17973130620E+04 0.  0.
        5    1    3    3  502    0  0.79362949021E+03 -0.39905894775E+03 -0.30761907089E+02  0.88885555431E+03  0.46999998093E+01 0.  1.
       -5    1    3    3    0  502 -0.79362949021E+03  0.39905894775E+03 -0.30730465533E+03  0.93997555963E+03  0.46999998093E+01 0. -1.
</event>
<event>
 5   0  0.2431811E-04  0.1824251E+04  0.7818609E-02  0.8693508E-01
       -2   -1    0    0    0  501  0.00000000000E+00  0.00000000000E+00  0.14121563711E+04  0.14121563711E+04  0.25500000920E-02 0.  1.
        2   -1    0    0  501    0  0.00000000000E+00  0.00000000000E+00 -0.58915059286E+03  0.58915059286E+03  0.25500000920E-02 0. -1.
    10030    2    1    2    0    0  0.00000000000E+00  0.00000000000E+00  0.82300577821E+03  0.20013069639E+04  0.18242508196E+04 0.  0.
        3    1    3    3  502    0  0.48344952477E+03  0.44755768577E+03  0.11035548978E+04  0.12852489050E+04  0.10100000352E+00 0.  1.
       -3    1    3    3    0  502 -0.48344952477E+03 -0.44755768577E+03 -0.28054911959E+03  0.71605805895E+03  0.10100000352E+00 0. -1.
</event>
<event>
 5   0  0.1214723E-04  0.1721051E+04  0.7818609E-02  0.8749448E-01
       -1   -1    0    0    0  501  0.00000000000E+00  0.00000000000E+00  0.69413390363E+03  0.69413390365E+03  0.50400001928E-02 0.  1.
        1   -1    0    0  501    0  0.00000000000E+00  0.00000000000E+00 -0.10668030698E+04  0.10668030698E+04  0.50400001928E-02 0. -1.
    10030    2    1    2    0    0  0.00000000000E+00  0.00000000000E+00 -0.37266916616E+03  0.17609369734E+04  0.17210510501E+04 0.  0.
        1    1    3    3  502    0 -0.62394982857E+03  0.21058008300E+03 -0.75310982698E+03  0.10004157993E+04  0.50400001928E-02 0. -1.
       -1    1    3    3    0  502  0.62394982857E+03 -0.21058008300E+03  0.38044066082E+03  0.76052117417E+03  0.50400001928E-02 0.  1.
</event>
<event>
 5   0  0.2417106E-04  0.1790628E+04  0.7818609E-02  0.8711299E-01
        2   -1    0    0  501    0  0.00000000000E+00  0.00000000000E+00  0.92843869389E+03  0.92843869389E+03  0.25500000920E-02 0.  1.
       -2   -1    0    0    0  501  0.00000000000E+00  0.00000000000E+00 -0.86337127714E+03  0.86337127714E+03  0.25500000920E-02 0. -1.
    10030    2    1    2    0    0  0.00000000000E+00  0.00000000000E+00  0.65067416752E+02  0.17918099710E+04  0.17906281589E+04 0.  0.
        4    1    3    3  502    0 -0.48041418211E+03  0.67831307701E+03 -0.30037080603E+03  0.88381595982E+03  0.12699999809E+01 0. -1.
       -4    1    3    3    0  502  0.48041418211E+03 -0.67831307701E+03  0.36543822278E+03  0.90799401121E+03  0.12699999809E+01 0.  1.
</event>
<event>
 5   0  0.2550616E-04  0.1773186E+04  0.7818609E-02  0.8720690E-01
       -2   -1    0    0    0  501  0.00000000000E+00  0.00000000000E+00  0.63202620001E+03  0.63202620002E+03  0.25500000920E-02 0.  1.
        2   -1    0    0  501    0  0.00000000000E+00  0.00000000000E+00 -0.12436938552E+04  0.12436938552E+04  0.25500000920E-02 0. -1.
    10030    2    1    2    0    0  0.00000000000E+00  0.00000000000E+00 -0.61166765517E+03  0.18757200552E+04  0.17731859477E+04 0.  0.
        1    1    3    3  502    0  0.36064003534E+03 -0.39518112448E+02  0.54990928298E+03  0.65880432287E+03  0.50400001928E-02 0.  1.
       -1    1    3    3    0  502 -0.36064003534E+03  0.39518112448E+02 -0.11615769382E+04  0.12169157323E+04  0.50400001928E-02 0. -1.
</event>
<event>
 5   0  0.2431811E-04  0.1772300E+04  0.7818609E-02  0.8721170E-01
        2   -1    0    0  501    0  0.00000000000E+00  0.00000000000E+00  0.18180256958E+04  0.18180256958E+04  0.25500000920E-02 0.  1.
       -2   -1    0    0    0  501  0.00000000000E+00  0.00000000000E+00 -0.43193129724E+03  0.43193129725E+03  0.25500000920E-02 0. -1.
    10030    2    1    2    0    0  0.00000000000E+00  0.00000000000E+00  0.13860943986E+04  0.22499569931E+04  0.17723004229E+04 0.  0.
        3    1    3    3  502    0  0.52078755149E+03 -0.50973548228E+03  0.13331284620E+04  0.15193029461E+04  0.10100000352E+00 0.  1.
       -3    1    3    3    0  502 -0.52078755149E+03  0.50973548228E+03  0.52965936579E+02  0.73065404695E+03  0.10100000352E+00 0. -1.
</event>
<event>
 5   0  0.1239119E-04  0.1778183E+04  0.7818609E-02  0.8717989E-01
       -1   -1    0    0    0  501  0.00000000000E+00  0.00000000000E+00  0.11145031723E+04  0.11145031723E+04  0.50400001928E-02 0.  1.
        1   -1    0    0  501    0  0.00000000000E+00  0.00000000000E+00 -0.70926966903E+03  0.70926966904E+03  0.50400001928E-02 0. -1.
    10030    2    1    2    0    0  0.00000000000E+00  0.00000000000E+00  0.40523350330E+03  0.18237728414E+04  0.17781825510E+04 0.  0.
        5    1    3    3  502    0 -0.44678824208E+03  0.18910636452E+02 -0.58551425854E+03  0.73676752262E+03  0.46999998093E+01 0. -1.
       -5    1    3    3    0  502  0.44678824208E+03 -0.18910636452E+02  0.99074776185E+03  0.10870053188E+04  0.46999998093E+01 0.  1.
</event>
<event>
 5   0  0.1253925E-04  0.1847062E+04  0.7818609E-02  0.8681665E-01
       -1   -1    0    0    0  501  0.00000000000E+00  0.00000000000E+00  0.37238844909E+03  0.37238844912E+03  0.50400001928E-02 0.  1.
        1   -1    0    0  501    0  0.00000000000E+00  0.00000000000E+00 -0.22903761362E+04  0.22903761362E+04  0.50400001928E-02 0. -1.
    10030    2    1    2    0    0  0.00000000000E+00  0.00000000000E+00 -0.19179876871E+04  0.26627645853E+04  0.18470621183E+04 0.  0.
        2    1    3    3  502    0 -0.35225173000E+03  0.79221119798E+02 -0.21844165682E+04  0.22140535248E+04  0.25500000920E-02 0. -1.
       -2    1    3    3    0  502  0.35225173000E+03 -0.79221119798E+02  0.26642888114E+03  0.44871106051E+03  0.25500000920E-02 0.  1.
</event>
<event>
 5   0  0.1214723E-04  0.1777191E+04  0.7818609E-02  0.8718524E-01
       -1   -1    0    0    0  501  0.00000000000E+00  0.00000000000E+00  0.53936768017E+03  0.53936768020E+03  0.50400001928E-02 0.  1.
        1   -1    0    0  501    0  0.00000000000E+00  0.00000000000E+00 -0.14639399048E+04  0.14639399049E+04  0.50400001928E-02 0. -1.
    10030    2    1    2    0    0  0.00000000000E+00  0.00000000000E+00 -0.92457222468E+03  0.20033075851E+04  0.17771908962E+04 0.  0.
        1    1    3    3  502    0  0.11812298599E+03 -0.88049864129E+03 -0.48399736425E+03  0.10116740314E+04  0.50400001928E-02 0.  1.
       -1    1    3    3    0  502 -0.11812298599E+03  0.88049864129E+03 -0.44057486043E+03  0.99163355369E+03  0.50400001928E-02 0. -1.
</event>
<event>
 5   0  0.2569405E-04  0.1795408E+04  0.7818609E-02  0.8708745E-01
       -2   -1    0    0    0  501  0.00000000000E+00  0.00000000000E+00  0.79241871242E+03  0.79241871242E+03  0.25500000920E-02 0.  1.
        2   -1    0    0  501    0  0.00000000000E+00  0.00000000000E+00 -0.10169775931E+04  0.10169775931E+04  0.25500000920E-02 0. -1.
    10030    2    1    2    0    0  0.00000000000E+00  0.00000000000E+00 -0.22455888064E+03  0.18093963055E+04  0.17954075580E+04 0.  0.
        2    1    3    3  502    0 -0.41293804234E+03 -0.42620249854E+03 -0.79110432961E+03  0.98894512331E+03  0.25500000920E-02 0. -1.
       -2    1    3    3    0  502  0.41293804234E+03  0.42620249854E+03  0.56654544897E+03  0.82045118217E+03  0.25500000920E-02 0.  1.
</event>
<event>
 5   0  0.2417106E-04  0.1805880E+04  0.7818609E-02  0.8703179E-01
        2   -1    0    0  501    0  0.00000000000E+00  0.00000000000E+00  0.27678216958E+04  0.27678216958E+04  0.25500000920E-02 0.  1.
       -2   -1    0    0    0  501  0.00000000000E+00  0.00000000000E+00 -0.29456411399E+03  0.29456411400E+03  0.25500000920E-02 0. -1.
    10030    2    1    2    0    0  0.00000000000E+00  0.00000000000E+00  0.24732575818E+04  0.30623858098E+04  0.18058803344E+04 0.  0.
        4    1    3    3  502    0 -0.33160055221E+03 -0.76363405920E+03  0.18294348488E+04  0.20099575571E+04  0.12699999809E+01 0.  1.
       -4    1    3    3    0  502  0.33160055221E+03  0.76363405920E+03  0.64382273303E+03  0.10524282527E+04  0.12699999809E+01 0. -1.
</event>
<event>
 5   0  0.1253925E-04  0.1808654E+04  0.7818609E-02  0.8701711E-01
       -1   -1    0    0    0  501  0.00000000000E+00  0.00000000000E+00  0.23028016467E+04  0.23028016467E+04  0.50400001928E-02 0.  1.
        1   -1    0    0  501    0  0.00000000000E+00  0.00000000000E+00 -0.35513566044E+03  0.35513566048E+03  0.50400001928E-02 0. -1.
    10030    2    1    2    0    0  0.00000000000E+00  0.00000000000E+00  0.19476659863E+04  0.26579373072E+04  0.18086536249E+04 0.  0.
        2    1    3    3  502    0  0.66455224984E+03  0.57783556512E+03  0.12760187754E+04  0.15504023827E+04  0.25500000920E-02 0.  1.
       -2    1    3    3    0  502 -0.66455224984E+03 -0.57783556512E+03  0.67164721083E+03  0.11075349245E+04  0.25500000920E-02 0. -1.
</event>
<event>
 5   0  0.1239119E-04  0.1800770E+04  0.7818609E-02  0.8705890E-01
       -1   -1    0    0    0  501  0.00000000000E+00  0.00000000000E+00  0.50490376931E+03  0.50490376933E+03  0.50400001928E-02 0.  1.
        1   -1    0    0  501    0  0.00000000000E+00  0.00000000000E+00 -0.16056386298E+04  0.16056386298E+04  0.50400001928E-02 0. -1.
    10030    2    1    2    0    0  0.00000000000E+00  0.00000000000E+00 -0.11007348605E+04  0.21105423991E+04  0.18007698313E+04 0.  0.
        5    1    3    3  502    0 -0.13521521382E+03  0.20888701528E+03 -0.15645250154E+04  0.15841961852E+04  0.46999998093E+01 0. -1.
       -5    1    3    3    0  502  0.13521521382E+03 -0.20888701528E+03  0.46379015491E+03  0.52634621400E+03  0.46999998093E+01 0.  1.
</event>
<event>
 5   0  0.1253925E-04  0.1823075E+04  0.7818609E-02  0.8694124E-01
        1   -1    0    0  501    0  0.00000000000E+00  0.00000000000E+00  0.83285310777E+03  0.83285310779E+03  0.50400001928E-02 0. -1.
       -1   -1    0    0    0  501  0.00000000000E+00  0.00000000000E+00 -0.99765540111E+03  0.99765540113E+03  0.50400001928E-02 0.  1.
    10030    2    1    2    0    0  0.00000000000E+00  0.00000000000E+00 -0.16480229334E+03  0.18305085089E+04  0.18230747668E+04 0.  0.
        2    1    3    3  502    0  0.21461016659E+03 -0.87470821245E+03  0.58629479177E+02  0.90255714299E+03  0.25500000920E-02 0. -1.
       -2    1    3    3    0  502 -0.21461016659E+03  0.87470821245E+03 -0.22343177252E+03  0.92795136592E+03  0.25500000920E-02 0.  1.
</event>
<event>
 5   0  0.9144875E-05  0.1803465E+04  0.7818609E-02  0.8704459E-01
       -3   -1    0    0    0  501  0.00000000000E+00  0.00000000000E+00  0.27443337805E+04  0.27443337823E+04  0.10100000352E+00 0.  1.
        3   -1    0    0  501    0  0.00000000000E+00  0.00000000000E+00 -0.29629087642E+03  0.29629089363E+03  0.10100000352E+00 0. -1.
    10030    2    1    2    0    0  0.00000000000E+00  0.00000000000E+00  0.24480429041E+04  0.30406246760E+04  0.18034645436E+04 0.  0.
        1    1    3    3  502    0  0.21758504565E+02 -0.71949827380E+03  0.21397021327E+04  0.22575376886E+04  0.50400001928E-02 0.  1.
       -1    1    3    3    0  502 -0.21758504565E+02  0.71949827380E+03  0.30834077132E+03  0.78308698738E+03  0.50400001928E-02 0. -1.
</event>
<event>
 5   0  0.2569405E-04  0.1761267E+04  0.7818609E-02  0.8727173E-01
       -2   -1    0    0    0  501  0.00000000000E+00  0.00000000000E+00  0.62742188523E+03  0.62742188524E+03  0.25500000920E-02 0. -1.
        2   -1    0    0  501    0  0.00000000000E+00  0.00000000000E+00 -0.12360344317E+04  0.12360344318E+04  0.25500000920E-02 0.  1.
    10030    2    1    2    0    0  0.00000000000E+00  0.00000000000E+00 -0.60861254652E+03  0.18634563170E+04  0.17612666503E+04 0.  0.
        2    1    3    3  502    0  0.37801518933E+03 -0.65506581234E+03 -0.78159944678E+03  0.10876140846E+04  0.25500000920E-02 0.  1.
       -2    1    3    3    0  502 -0.37801518933E+03  0.65506581234E+03  0.17298690026E+03  0.77584223237E+03  0.25500000920E-02 0. -1.
</event>
<event>
 5   0  0.2431811E-04  0.1787434E+04  0.7818609E-02  0.8713010E-01
        2   -1    0    0  501    0  0.00000000000E+00  0.00000000000E+00  0.17853653875E+04  0.17853653875E+04  0.25500000920E-02 0.  1.
       -2   -1    0    0    0  501  0.00000000000E+00  0.00000000000E+00 -0.44737643900E+03  0.44737643901E+03  0.25500000920E-02 0. -1.
    10030    2    1    2    0    0  0.00000000000E+00  0.00000000000E+00  0.13379889485E+04  0.22327418265E+04  0.17874343729E+04 0.  0.
        3    1    3    3  502    0 -0.10689378043E+03  0.30168691305E+03  0.17113196056E+04  0.17409928422E+04  0.10100000352E+00 0.  1.
       -3    1    3    3    0  502  0.10689378043E+03 -0.30168691305E+03 -0.37333065714E+03  0.49174898430E+03  0.10100000352E+00 0. -1.
</event>
<event>
 5   0  0.2569405E-04  0.1798023E+04  0.7818609E-02  0.8707351E-01
       -2   -1    0    0    0  501  0.00000000000E+00  0.00000000000E+00  0.78976689123E+03  0.78976689123E+03  0.25500000920E-02 0. -1.
        2   -1    0    0  501    0  0.00000000000E+00  0.00000000000E+00 -0.10233678370E+04  0.10233678370E+04  0.25500000920E-02 0.  1.
    10030    2    1    2    0    0  0.00000000000E+00  0.00000000000E+00 -0.23360094576E+03  0.18131347282E+04  0.17980233983E+04 0.  0.
        2    1    3    3  502    0 -0.72248422770E+03 -0.51422738907E+03  0.32118593896E+02  0.88738090527E+03  0.25500000920E-02 0.  1.
       -2    1    3    3    0  502  0.72248422770E+03  0.51422738907E+03 -0.26571953966E+03  0.92575382295E+03  0.25500000920E-02 0. -1.
</event>
<event>
 5   0  0.1330225E-04  0.1788525E+04  0.7818609E-02  0.8712426E-01
        1   -1    0    0  501    0  0.00000000000E+00  0.00000000000E+00  0.17435340904E+04  0.17435340904E+04  0.50400001928E-02 0.  1.
       -1   -1    0    0    0  501  0.00000000000E+00  0.00000000000E+00 -0.45866903593E+03  0.45866903596E+03  0.50400001928E-02 0. -1.
    10030    2    1    2    0    0  0.00000000000E+00  0.00000000000E+00  0.12848650545E+04  0.22022031264E+04  0.17885246438E+04 0.  0.
        3    1    3    3  502    0  0.48258318285E+02  0.88609186856E+03  0.50633435460E+03  0.10216957246E+04  0.10100000352E+00 0. -1.
       -3    1    3    3    0  502 -0.48258318285E+02 -0.88609186856E+03  0.77853069991E+03  0.11805074018E+04  0.10100000352E+00 0.  1.
</event>
<event>
 5   0  0.1239119E-04  0.1799072E+04  0.7818609E-02  0.8706793E-01
        1   -1    0    0  501    0  0.00000000000E+00  0.00000000000E+00  0.97256272907E+03  0.97256272908E+03  0.50400001928E-02 0.  1.
       -1   -1    0    0    0  501  0.00000000000E+00  0.00000000000E+00 -0.83199302404E+03  0.83199302405E+03  0.50400001928E-02 0. -1.
    10030    2    1    2    0    0  0.00000000000E+00  0.00000000000E+00  0.14056970503E+03  0.18045557531E+04  0.17990724344E+04 0.  0.
        5    1    3    3  502    0 -0.11151668054E+03 -0.25770774106E+03  0.92746191510E+03  0.96904950534E+03  0.46999998093E+01 0.  1.
       -5    1    3    3    0  502  0.11151668054E+03  0.25770774106E+03 -0.78689221007E+03  0.83550624779E+03  0.46999998093E+01 0. -1.
</event>
<event>
 5   0  0.2393421E-04  0.1795435E+04  0.7818609E-02  0.8708731E-01
        2   -1    0    0  501    0  0.00000000000E+00  0.00000000000E+00  0.13567458066E+04  0.13567458066E+04  0.25500000920E-02 0.  1.
       -2   -1    0    0    0  501  0.00000000000E+00  0.00000000000E+00 -0.59399227315E+03  0.59399227315E+03  0.25500000920E-02 0. -1.
    10030    2    1    2    0    0  0.00000000000E+00  0.00000000000E+00  0.76275353342E+03  0.19507380797E+04  0.17954347950E+04 0.  0.
        5    1    3    3  502    0  0.10588568125E+03  0.39243461698E+03  0.12510224780E+04  0.13154071752E+04  0.46999998093E+01 0.  1.
       -5    1    3    3    0  502 -0.10588568125E+03 -0.39243461698E+03 -0.48826894454E+03  0.63533090457E+03  0.46999998093E+01 0. -1.
</event>
<event>
 5   0  0.1239119E-04  0.1926954E+04  0.7818609E-02  0.8641555E-01
        1   -1    0    0  501    0  0.00000000000E+00  0.00000000000E+00  0.15968114300E+04  0.15968114300E+04  0.50400001928E-02 0.  1.
       -1   -1    0    0    0  501  0.00000000000E+00  0.00000000000E+00 -0.58133856336E+03  0.58133856338E+03  0.50400001928E-02 0. -1.
    10030    2    1    2    0    0  0.00000000000E+00  0.00000000000E+00  0.10154728666E+04  0.21781499934E+04  0.19269541382E+04 0.  0.
        5    1    3    3  502    0 -0.91115179688E+02  0.26066329581E+03  0.15511126993E+04  0.15755062760E+04  0.46999998093E+01 0.  1.
       -5    1    3    3    0  502  0.91115179688E+02 -0.26066329581E+03 -0.53563983267E+03  0.60264371738E+03  0.46999998093E+01 0. -1.
</event>
<event>
 5   0  0.1253925E-04  0.1934701E+04  0.7818609E-02  0.8637774E-01
        1   -1    0    0  501    0  0.00000000000E+00  0.00000000000E+00  0.18070391710E+04  0.18070391710E+04  0.50400001928E-02 0. -1.
       -1   -1    0    0    0  501  0.00000000000E+00  0.00000000000E+00 -0.51784556353E+03  0.51784556355E+03  0.50400001928E-02 0.  1.
    10030    2    1    2    0    0  0.00000000000E+00  0.00000000000E+00  0.12891936075E+04  0.23248847346E+04  0.19347012357E+04 0.  0.
        2    1    3    3  502    0 -0.22287732605E+02  0.41656320019E+03  0.16933963406E+04  0.17440220208E+04  0.25500000920E-02 0. -1.
       -2    1    3    3    0  502  0.22287732605E+02 -0.41656320019E+03 -0.40420273310E+03  0.58086271375E+03  0.25500000920E-02 0.  1.
</event>
<event>
 5   0  0.2393421E-04  0.1813765E+04  0.7818609E-02  0.8699013E-01
        2   -1    0    0  501    0  0.00000000000E+00  0.00000000000E+00  0.18042116864E+04  0.18042116864E+04  0.25500000920E-02 0.  1.
       -2   -1    0    0    0  501  0.00000000000E+00  0.00000000000E+00 -0.45584222030E+03  0.45584222031E+03  0.25500000920E-02 0. -1.
    10030    2    1    2    0    0  0.00000000000E+00  0.00000000000E+00  0.13483694661E+04  0.22600539067E+04  0.18137649914E+04 0.  0.
        5    1    3    3  502    0 -0.81469066997E+03 -0.27332405862E+03  0.10352979711E+04  0.13454705153E+04  0.46999998093E+01 0.  1.
       -5    1    3    3    0  502  0.81469066997E+03  0.27332405862E+03  0.31307149501E+03  0.91458339135E+03  0.46999998093E+01 0. -1.
</event>
<event>
 5   0  0.1214723E-04  0.1803652E+04  0.7818609E-02  0.8704360E-01
        1   -1    0    0  501    0  0.00000000000E+00  0.00000000000E+00  0.16544558908E+04  0.16544558908E+04  0.50400001928E-02 0. -1.
       -1   -1    0    0    0  501  0.00000000000E+00  0.00000000000E+00 -0.49157568473E+03  0.49157568476E+03  0.50400001928E-02 0.  1.
    10030    2    1    2    0    0  0.00000000000E+00  0.00000000000E+00  0.11628802061E+04  0.21460315756E+04  0.18036521698E+04 0.  0.
        1    1    3    3  502    0 -0.43649875810E+03 -0.14792696429E+03 -0.34086797743E+03  0.57324037772E+03  0.50400001928E-02 0.  1.
       -1    1    3    3    0  502  0.43649875810E+03  0.14792696429E+03  0.15037481835E+04  0.15727911979E+04  0.50400001928E-02 0. -1.
</event>
<event>
 5   0  0.2431811E-04  0.1882574E+04  0.7818609E-02  0.8663579E-01
        2   -1    0    0  501    0  0.00000000000E+00  0.00000000000E+00  0.11431750170E+04  0.11431750170E+04  0.25500000920E-02 0.  1.
       -2   -1    0    0    0  501  0.00000000000E+00  0.00000000000E+00 -0.77505311389E+03  0.77505311390E+03  0.25500000920E-02 0. -1.
    10030    2    1    2    0    0  0.00000000000E+00  0.00000000000E+00  0.36812190311E+03  0.19182281309E+04  0.18825741490E+04 0.  0.
        3    1    3    3  502    0  0.20729197175E+03 -0.47379967773E+03 -0.61732352242E+03  0.80532256749E+03  0.10100000352E+00 0. -1.
       -3    1    3    3    0  502 -0.20729197175E+03  0.47379967773E+03  0.98544542553E+03  0.11129055634E+04  0.10100000352E+00 0.  1.
</event>
<event>
 5   0  0.2550616E-04  0.1805539E+04  0.7818609E-02  0.8703359E-01
       -2   -1    0    0    0  501  0.00000000000E+00  0.00000000000E+00  0.76119991241E+03  0.76119991242E+03  0.25500000920E-02 0. -1.
        2   -1    0    0  501    0  0.00000000000E+00  0.00000000000E+00 -0.10706687301E+04  0.10706687301E+04  0.25500000920E-02 0.  1.
    10030    2    1    2    0    0  0.00000000000E+00  0.00000000000E+00 -0.30946881770E+03  0.18318686425E+04  0.18055391921E+04 0.  0.
        1    1    3    3  502    0 -0.37530440828E+03 -0.73457466389E+02 -0.98442699667E+03  0.10560993845E+04  0.50400001928E-02 0.  1.
       -1    1    3    3    0  502  0.37530440828E+03  0.73457466389E+02  0.67495817898E+03  0.77576925798E+03  0.50400001928E-02 0. -1.
</event>
<event>
 5   0  0.2431811E-04  0.1833857E+04  0.7818609E-02  0.8688499E-01
        2   -1    0    0  501    0  0.00000000000E+00  0.00000000000E+00  0.19125873748E+04  0.19125873748E+04  0.25500000920E-02 0. -1.
       -2   -1    0    0    0  501  0.00000000000E+00  0.00000000000E+00 -0.43959199719E+03  0.43959199719E+03  0.25500000920E-02 0.  1.
    10030    2    1    2    0    0  0.00000000000E+00  0.00000000000E+00  0.14729953776E+04  0.23521793720E+04  0.18338572506E+04 0.  0.
        3    1    3    3  502    0  0.76709081756E+03 -0.23376914694E+03  0.13067777753E+04  0.15332137818E+04  0.10100000352E+00 0. -1.
       -3    1    3    3    0  502 -0.76709081756E+03  0.23376914694E+03  0.16621760233E+03  0.81896559023E+03  0.10100000352E+00 0.  1.
</event>
<event>
 5   0  0.9144875E-05  0.1795217E+04  0.7818609E-02  0.8708847E-01
       -4   -1    0    0    0  501  0.00000000000E+00  0.00000000000E+00  0.83144211077E+03  0.83144308071E+03  0.12699999809E+01 0.  1.
        4   -1    0    0  501    0  0.00000000000E+00  0.00000000000E+00 -0.96903885931E+03  0.96903969152E+03  0.12699999809E+01 0. -1.
    10030    2    1    2    0    0  0.00000000000E+00  0.00000000000E+00 -0.13759674854E+03  0.18004827722E+04  0.17952173539E+04 0.  0.
        5    1    3    3  502    0 -0.39049208043E+03  0.79664163171E+03  0.67826332090E+02  0.88980023352E+03  0.46999998093E+01 0. -1.
       -5    1    3    3    0  502  0.39049208043E+03 -0.79664163171E+03 -0.20542308063E+03  0.91068253871E+03  0.46999998093E+01 0.  1.
</event>
<event>
 5   0  0.2417106E-04  0.1799924E+04  0.7818609E-02  0.8706340E-01
        2   -1    0    0  501    0  0.00000000000E+00  0.00000000000E+00  0.26710346651E+04  0.26710346651E+04  0.25500000920E-02 0. -1.
       -2   -1    0    0    0  501  0.00000000000E+00  0.00000000000E+00 -0.30322772617E+03  0.30322772618E+03  0.25500000920E-02 0.  1.
    10030    2    1    2    0    0  0.00000000000E+00  0.00000000000E+00  0.23678069389E+04  0.29742623913E+04  0.17999241851E+04 0.  0.
        4    1    3    3  502    0  0.72847915284E+03  0.16286598878E+03  0.20146095841E+04  0.21484553976E+04  0.12699999809E+01 0. -1.
       -4    1    3    3    0  502 -0.72847915284E+03 -0.16286598878E+03  0.35319735487E+03  0.82580699367E+03  0.12699999809E+01 0.  1.
</event>
<event>
 5   0  0.1239119E-04  0.1814008E+04  0.7818609E-02  0.8698885E-01
        1   -1    0    0  501    0  0.00000000000E+00  0.00000000000E+00  0.20609734959E+04  0.20609734959E+04  0.50400001928E-02 0. -1.
       -1   -1    0    0    0  501  0.00000000000E+00  0.00000000000E+00 -0.39915926946E+03  0.39915926950E+03  0.50400001928E-02 0.  1.
    10030    2    1    2    0    0  0.00000000000E+00  0.00000000000E+00  0.16618142264E+04  0.24601327654E+04  0.18140084620E+04 0.  0.
        5    1    3    3  502    0  0.54246366451E+03  0.13531339013E+03  0.17994727061E+04  0.18843302924E+04  0.46999998093E+01 0. -1.
       -5    1    3    3    0  502 -0.54246366451E+03 -0.13531339013E+03 -0.13765847968E+03  0.57580247298E+03  0.46999998093E+01 0.  1.
</event>
<event>
 5   0  0.9144875E-05  0.1809404E+04  0.7818609E-02  0.8701314E-01
        4   -1    0    0  501    0  0.00000000000E+00  0.00000000000E+00  0.17794221550E+04  0.17794226082E+04  0.12699999809E+01 0.  1.
       -4   -1    0    0    0  501  0.00000000000E+00  0.00000000000E+00 -0.45997145185E+03  0.45997320511E+03  0.12699999809E+01 0. -1.
    10030    2    1    2    0    0  0.00000000000E+00  0.00000000000E+00  0.13194507031E+04  0.22393958133E+04  0.18094041701E+04 0.  0.
        2    1    3    3  502    0 -0.39461620250E+03  0.71475025170E+02 -0.34395267475E+03  0.52833140071E+03  0.25500000920E-02 0. -1.
       -2    1    3    3    0  502  0.39461620250E+03 -0.71475025170E+02  0.16634033779E+04  0.17110644126E+04  0.25500000920E-02 0.  1.
</event>
<event>
 5   0  0.9144875E-05  0.1591738E+04  0.7818609E-02  0.8825640E-01
       -3   -1    0    0    0  501  0.00000000000E+00  0.00000000000E+00  0.69764889859E+03  0.69764890590E+03  0.10100000352E+00 0.  1.
        3   -1    0    0  501    0  0.00000000000E+00  0.00000000000E+00 -0.90791731086E+03  0.90791731648E+03  0.10100000352E+00 0. -1.
    10030    2    1    2    0    0  0.00000000000E+00  0.00000000000E+00 -0.21026841227E+03  0.16055662224E+04  0.15917380718E+04 0.  0.
        4    1    3    3  502    0 -0.43011686699E+03  0.58620251321E+03  0.22136283033E+03  0.76002435574E+03  0.12699999809E+01 0.  1.
       -4    1    3    3    0  502  0.43011686699E+03 -0.58620251321E+03 -0.43163124260E+03  0.84554186665E+03  0.12699999809E+01 0. -1.
</event>
<event>
 5   0  0.1253925E-04  0.1837668E+04  0.7818609E-02  0.8686521E-01
        1   -1    0    0  501    0  0.00000000000E+00  0.00000000000E+00  0.12185917896E+04  0.12185917896E+04  0.50400001928E-02 0.  1.
       -1   -1    0    0    0  501  0.00000000000E+00  0.00000000000E+00 -0.69281285592E+03  0.69281285594E+03  0.50400001928E-02 0. -1.
    10030    2    1    2    0    0  0.00000000000E+00  0.00000000000E+00  0.52577893365E+03  0.19114046455E+04  0.18376681506E+04 0.  0.
        2    1    3    3  502    0  0.25204975449E+02 -0.24274891405E+03 -0.65848387046E+03  0.70225588906E+03  0.25500000920E-02 0. -1.
       -2    1    3    3    0  502 -0.25204975449E+02  0.24274891405E+03  0.11842628041E+04  0.12091487565E+04  0.25500000920E-02 0.  1.
</event>
<event>
 5   0  0.1330225E-04  0.1798915E+04  0.7818609E-02  0.8706877E-01
       -1   -1    0    0    0  501  0.00000000000E+00  0.00000000000E+00  0.44567463864E+03  0.44567463867E+03  0.50400001928E-02 0. -1.
        1   -1    0    0  501    0  0.00000000000E+00  0.00000000000E+00 -0.18152791425E+04  0.18152791425E+04  0.50400001928E-02 0.  1.
    10030    2    1    2    0    0  0.00000000000E+00  0.00000000000E+00 -0.13696045039E+04  0.22609537812E+04  0.17989150907E+04 0.  0.
        3    1    3    3  502    0 -0.49854430957E+03  0.65017483558E+03 -0.11512757906E+04  0.14130497874E+04  0.10100000352E+00 0.  1.
       -3    1    3    3    0  502  0.49854430957E+03 -0.65017483558E+03 -0.21832871324E+03  0.84790399377E+03  0.10100000352E+00 0. -1.
</event>
<event>
 5   0  0.1239119E-04  0.1805143E+04  0.7818609E-02  0.8703569E-01
        1   -1    0    0  501    0  0.00000000000E+00  0.00000000000E+00  0.19522790431E+04  0.19522790432E+04  0.50400001928E-02 0.  1.
       -1   -1    0    0    0  501  0.00000000000E+00  0.00000000000E+00 -0.41727388976E+03  0.41727388979E+03  0.50400001928E-02 0. -1.
    10030    2    1    2    0    0  0.00000000000E+00  0.00000000000E+00  0.15350051534E+04  0.23695529329E+04  0.18051427315E+04 0.  0.
        5    1    3    3  502    0 -0.61663524423E+02  0.75104403737E+03  0.11545741178E+03  0.76237919715E+03  0.46999998093E+01 0. -1.
       -5    1    3    3    0  502  0.61663524423E+02 -0.75104403737E+03  0.14195477416E+04  0.16071737358E+04  0.46999998093E+01 0.  1.
</event>
<event>
 5   0  0.2393421E-04  0.1804725E+04  0.7818609E-02  0.8703791E-01
        2   -1    0    0  501    0  0.00000000000E+00  0.00000000000E+00  0.68871763441E+03  0.68871763441E+03  0.25500000920E-02 0. -1.
       -2   -1    0    0    0  501  0.00000000000E+00  0.00000000000E+00 -0.11822815711E+04  0.11822815711E+04  0.25500000920E-02 0.  1.
    10030    2    1    2    0    0  0.00000000000E+00  0.00000000000E+00 -0.49356393667E+03  0.18709992055E+04  0.18047250947E+04 0.  0.
        5    1    3    3  502    0 -0.91662488469E+02  0.30157258623E+03 -0.11233417927E+04  0.11667334357E+04  0.46999998093E+01 0.  1.
       -5    1    3    3    0  502  0.91662488469E+02 -0.30157258623E+03  0.62977785608E+03  0.70426576983E+03  0.46999998093E+01 0. -1.
</event>
<event>
 5   0  0.1214723E-04  0.1780017E+04  0.7818609E-02  0.8716999E-01
        1   -1    0    0  501    0  0.00000000000E+00  0.00000000000E+00  0.91736988968E+03  0.91736988969E+03  0.50400001928E-02 0.  1.
       -1   -1    0    0    0  501  0.00000000000E+00  0.00000000000E+00 -0.86346312373E+03  0.86346312375E+03  0.50400001928E-02 0. -1.
    10030    2    1    2    0    0  0.00000000000E+00  0.00000000000E+00  0.53906765943E+02  0.17808330134E+04  0.17800169332E+04 0.  0.
        1    1    3    3  502    0 -0.12444769470E+03 -0.38111839329E+01 -0.85470731379E+03  0.86372816679E+03  0.50400001928E-02 0. -1.
       -1    1    3    3    0  502  0.12444769470E+03  0.38111839329E+01  0.90861407973E+03  0.91710484665E+03  0.50400001928E-02 0.  1.
</event>
<event>
 5   0  0.1239119E-04  0.1798390E+04  0.7818609E-02  0.8707156E-01
        1   -1    0    0  501    0  0.00000000000E+00  0.00000000000E+00  0.10196972075E+04  0.10196972075E+04  0.50400001928E-02 0. -1.
       -1   -1    0    0    0  501  0.00000000000E+00  0.00000000000E+00 -0.79293339774E+03  0.79293339775E+03  0.50400001928E-02 0.  1.
    10030    2    1    2    0    0  0.00000000000E+00  0.00000000000E+00  0.22676380972E+03  0.18126306052E+04  0.17983903596E+04 0.  0.
        5    1    3    3  502    0 -0.56604999058E+03 -0.51555623251E+03 -0.36185886651E+03  0.84686170653E+03  0.46999998093E+01 0.  1.
       -5    1    3    3    0  502  0.56604999058E+03  0.51555623251E+03  0.58862267622E+03  0.96576889869E+03  0.46999998093E+01 0. -1.
</event>
<event>
 5   0  0.1308893E-04  0.1793948E+04  0.7818609E-02  0.8709524E-01
        1   -1    0    0  501    0  0.00000000000E+00  0.00000000000E+00  0.95832215204E+03  0.95832215205E+03  0.50400001928E-02 0. -1.
       -1   -1    0    0    0  501  0.00000000000E+00  0.00000000000E+00 -0.83955311607E+03  0.83955311608E+03  0.50400001928E-02 0.  1.
    10030    2    1    2    0    0  0.00000000000E+00  0.00000000000E+00  0.11876903597E+03  0.17978752681E+04  0.17939479914E+04 0.  0.
        4    1    3    3  502    0  0.35656938232E+03  0.45115073753E+03 -0.63051338877E+03  0.85336244275E+03  0.12699999809E+01 0.  1.
       -4    1    3    3    0  502 -0.35656938232E+03 -0.45115073753E+03  0.74928242475E+03  0.94451282538E+03  0.12699999809E+01 0. -1.
</event>
<event>
 5   0  0.1253925E-04  0.1809617E+04  0.7818609E-02  0.8701202E-01
        1   -1    0    0  501    0  0.00000000000E+00  0.00000000000E+00  0.10663935623E+04  0.10663935623E+04  0.50400001928E-02 0. -1.
       -1   -1    0    0    0  501  0.00000000000E+00  0.00000000000E+00 -0.76770770294E+03  0.76770770296E+03  0.50400001928E-02 0.  1.
    10030    2    1    2    0    0  0.00000000000E+00  0.00000000000E+00  0.29868585937E+03  0.18341012653E+04  0.18096171442E+04 0.  0.
        2    1    3    3  502    0  0.73085843079E+02  0.44952626997E+03  0.94175432797E+03  0.10460958953E+04  0.25500000920E-02 0. -1.
       -2    1    3    3    0  502 -0.73085843079E+02 -0.44952626997E+03 -0.64306846860E+03  0.78800537001E+03  0.25500000920E-02 0.  1.
</event>
<event>
 5   0  0.2569405E-04  0.1783132E+04  0.7818609E-02  0.8715321E-01
       -2   -1    0    0    0  501  0.00000000000E+00  0.00000000000E+00  0.24828693283E+03  0.24828693285E+03  0.25500000920E-02 0. -1.
        2   -1    0    0  501    0  0.00000000000E+00  0.00000000000E+00 -0.32014969587E+04  0.32014969587E+04  0.25500000920E-02 0.  1.
    10030    2    1    2    0    0  0.00000000000E+00  0.00000000000E+00 -0.29532100259E+04  0.34497838916E+04  0.17831319193E+04 0.  0.
        2    1    3    3  502    0  0.87008600548E+02 -0.61263855743E+02 -0.31891667479E+04  0.31909416012E+04  0.25500000920E-02 0.  1.
       -2    1    3    3    0  502 -0.87008600548E+02  0.61263855743E+02  0.23595672202E+03  0.25884229033E+03  0.25500000920E-02 0. -1.
</event>
<event>
 5   0  0.2431811E-04  0.1860003E+04  0.7818609E-02  0.8675025E-01
        2   -1    0    0  501    0  0.00000000000E+00  0.00000000000E+00  0.17852523968E+04  0.17852523968E+04  0.25500000920E-02 0. -1.
       -2   -1    0    0    0  501  0.00000000000E+00  0.00000000000E+00 -0.48447110744E+03  0.48447110745E+03  0.25500000920E-02 0.  1.
    10030    2    1    2    0    0  0.00000000000E+00  0.00000000000E+00  0.13007812893E+04  0.22697235042E+04  0.18600034470E+04 0.  0.
        3    1    3    3  502    0  0.62161667427E+03 -0.16693585087E+03 -0.16876881422E+03  0.66540047407E+03  0.10100000352E+00 0.  1.
       -3    1    3    3    0  502 -0.62161667427E+03  0.16693585087E+03  0.14695501035E+04  0.16043230302E+04  0.10100000352E+00 0. -1.
</event>
<event>
 5   0  0.2417106E-04  0.1789304E+04  0.7818609E-02  0.8712008E-01
        2   -1    0    0  501    0  0.00000000000E+00  0.00000000000E+00  0.59110617117E+03  0.59110617118E+03  0.25500000920E-02 0. -1.
       -2   -1    0    0    0  501  0.00000000000E+00  0.00000000000E+00 -0.13540745154E+04  0.13540745154E+04  0.25500000920E-02 0.  1.
    10030    2    1    2    0    0  0.00000000000E+00  0.00000000000E+00 -0.76296834419E+03  0.19451806865E+04  0.17893035542E+04 0.  0.
        4    1    3    3  502    0  0.64720233544E+02 -0.77609200667E+03 -0.86017667822E+03  0.11603503963E+04  0.12699999809E+01 0.  1.
       -4    1    3    3    0  502 -0.64720233544E+02  0.77609200667E+03  0.97208334030E+02  0.78483029028E+03  0.12699999809E+01 0. -1.
</event>
<event>
 5   0  0.1239119E-04  0.1811763E+04  0.7818609E-02  0.8700069E-01
        1   -1    0    0  501    0  0.00000000000E+00  0.00000000000E+00  0.20293830160E+04  0.20293830160E+04  0.50400001928E-02 0. -1.
       -1   -1    0    0    0  501  0.00000000000E+00  0.00000000000E+00 -0.40436963131E+03  0.40436963135E+03  0.50400001928E-02 0.  1.
    10030    2    1    2    0    0  0.00000000000E+00  0.00000000000E+00  0.16250133847E+04  0.24337526474E+04  0.18117625253E+04 0.  0.
        5    1    3    3  502    0  0.76103754715E+03 -0.41440493409E+03  0.45789110246E+03  0.98009996902E+03  0.46999998093E+01 0.  1.
       -5    1    3    3    0  502 -0.76103754715E+03  0.41440493409E+03  0.11671222823E+04  0.14536526784E+04  0.46999998093E+01 0. -1.
</event>
<event>
 5   0  0.2550616E-04  0.1810799E+04  0.7818609E-02  0.8700577E-01
        2   -1    0    0  501    0  0.00000000000E+00  0.00000000000E+00  0.88504712492E+03  0.88504712493E+03  0.25500000920E-02 0. -1.
       -2   -1    0    0    0  501  0.00000000000E+00  0.00000000000E+00 -0.92622032635E+03  0.92622032635E+03  0.25500000920E-02 0.  1.
    10030    2    1    2    0    0  0.00000000000E+00  0.00000000000E+00 -0.41173201425E+02  0.18112674513E+04  0.18107994222E+04 0.  0.
        1    1    3    3  502    0  0.71003366814E+03  0.48989943887E+03  0.25443785540E+03  0.89938195022E+03  0.50400001928E-02 0. -1.
       -1    1    3    3    0  502 -0.71003366814E+03 -0.48989943887E+03 -0.29561105682E+03  0.91188550106E+03  0.50400001928E-02 0.  1.
</event>
<event>
 5   0  0.2393421E-04  0.1808501E+04  0.7818609E-02  0.8701792E-01
       -2   -1    0    0    0  501  0.00000000000E+00  0.00000000000E+00  0.99307765017E+03  0.99307765017E+03  0.25500000920E-02 0.  1.
        2   -1    0    0  501    0  0.00000000000E+00  0.00000000000E+00 -0.82336847208E+03  0.82336847209E+03  0.25500000920E-02 0. -1.
    10030    2    1    2    0    0  0.00000000000E+00  0.00000000000E+00  0.16970917809E+03  0.18164461223E+04  0.18085008460E+04 0.  0.
        5    1    3    3  502    0 -0.90823511756E+02  0.73891290109E+03 -0.43063068909E+03  0.86006166411E+03  0.46999998093E+01 0. -1.
       -5    1    3    3    0  502  0.90823511756E+02 -0.73891290109E+03  0.60033986717E+03  0.95638445815E+03  0.46999998093E+01 0.  1.
</event>
<event>
 5   0  0.1308893E-04  0.1810300E+04  0.7818609E-02  0.8700841E-01
       -1   -1    0    0    0  501  0.00000000000E+00  0.00000000000E+00  0.89015873115E+03  0.89015873116E+03  0.50400001928E-02 0.  1.
        1   -1    0    0  501    0  0.00000000000E+00  0.00000000000E+00 -0.92039349965E+03  0.92039349966E+03  0.50400001928E-02 0. -1.
    10030    2    1    2    0    0  0.00000000000E+00  0.00000000000E+00 -0.30234768505E+02  0.18105522308E+04  0.18102997650E+04 0.  0.
        4    1    3    3  502    0 -0.40143142501E+03 -0.79424529573E+03 -0.18043386665E+03  0.90803676793E+03  0.12699999809E+01 0.  1.
       -4    1    3    3    0  502  0.40143142501E+03  0.79424529573E+03  0.15019909814E+03  0.90251546289E+03  0.12699999809E+01 0. -1.
</event>
<event>
 5   0  0.1253925E-04  0.1802660E+04  0.7818609E-02  0.8704886E-01
        1   -1    0    0  501    0  0.00000000000E+00  0.00000000000E+00  0.16115996091E+04  0.16115996092E+04  0.50400001928E-02 0.  1.
       -1   -1    0    0    0  501  0.00000000000E+00  0.00000000000E+00 -0.50409285705E+03  0.50409285708E+03  0.50400001928E-02 0. -1.
    10030    2    1    2    0    0  0.00000000000E+00  0.00000000000E+00  0.11075067521E+04  0.21156924662E+04  0.18026600916E+04 0.  0.
        2    1    3    3  502    0 -0.42858045122E+02  0.42674077696E+03  0.14841637128E+04  0.15448904263E+04  0.25500000920E-02 0.  1.
       -2    1    3    3    0  502  0.42858045122E+02 -0.42674077696E+03 -0.37665696072E+03  0.57080203996E+03  0.25500000920E-02 0. -1.
</event>
<event>
 5   0  0.1253925E-04  0.1511364E+04  0.7818609E-02  0.8876931E-01
       -1   -1    0    0    0  501  0.00000000000E+00  0.00000000000E+00  0.84136507843E+03  0.84136507845E+03  0.50400001928E-02 0.  1.
        1   -1    0    0  501    0  0.00000000000E+00  0.00000000000E+00 -0.67872473521E+03  0.67872473523E+03  0.50400001928E-02 0. -1.
    10030    2    1    2    0    0  0.00000000000E+00  0.00000000000E+00  0.16264034322E+03  0.15200898137E+04  0.15113640066E+04 0.  0.
        2    1    3    3  502    0  0.19123638242E+03 -0.19882156485E+02  0.81635317953E+03  0.83868895775E+03  0.25500000920E-02 0.  1.
       -2    1    3    3    0  502 -0.19123638242E+03  0.19882156485E+02 -0.65371283631E+03  0.68140085594E+03  0.25500000920E-02 0. -1.
</event>
<event>
 5   0  0.1330225E-04  0.1795942E+04  0.7818609E-02  0.8708461E-01
        1   -1    0    0  501    0  0.00000000000E+00  0.00000000000E+00  0.17037806315E+04  0.17037806316E+04  0.50400001928E-02 0.  1.
       -1   -1    0    0    0  501  0.00000000000E+00  0.00000000000E+00 -0.47327188323E+03  0.47327188325E+03  0.50400001928E-02 0. -1.
    10030    2    1    2    0    0  0.00000000000E+00  0.00000000000E+00  0.12305087483E+04  0.21770525148E+04  0.17959415003E+04 0.  0.
        3    1    3    3  502    0  0.13457485969E+03 -0.14068097038E+03 -0.44738158122E+03  0.48790554179E+03  0.10100000352E+00 0. -1.
       -3    1    3    3    0  502 -0.13457485969E+03  0.14068097038E+03  0.16778903295E+04  0.16891469730E+04  0.10100000352E+00 0.  1.
</event>
<event>
 5   0  0.1253925E-04  0.1803322E+04  0.7818609E-02  0.8704535E-01
        1   -1    0    0  501    0  0.00000000000E+00  0.00000000000E+00  0.10566040763E+04  0.10566040763E+04  0.50400001928E-02 0.  1.
       -1   -1    0    0    0  501  0.00000000000E+00  0.00000000000E+00 -0.76943928959E+03  0.76943928960E+03  0.50400001928E-02 0. -1.
    10030    2    1    2    0    0  0.00000000000E+00  0.00000000000E+00  0.28716478674E+03  0.18260433659E+04  0.18033221453E+04 0.  0.
        2    1    3    3  502    0  0.30392925063E+03 -0.66348608556E+03 -0.39262322022E+03  0.82869763375E+03  0.25500000920E-02 0. -1.
       -2    1    3    3    0  502 -0.30392925063E+03  0.66348608556E+03  0.67978800697E+03  0.99734573220E+03  0.25500000920E-02 0.  1.
</event>
<event>
 5   0  0.2569405E-04  0.1821513E+04  0.7818609E-02  0.8694942E-01
       -2   -1    0    0    0  501  0.00000000000E+00  0.00000000000E+00  0.54228872524E+03  0.54228872524E+03  0.25500000920E-02 0. -1.
        2   -1    0    0  501    0  0.00000000000E+00  0.00000000000E+00 -0.15295855821E+04  0.15295855821E+04  0.25500000920E-02 0.  1.
    10030    2    1    2    0    0  0.00000000000E+00  0.00000000000E+00 -0.98729685684E+03  0.20718743073E+04  0.18215125752E+04 0.  0.
        2    1    3    3  502    0  0.45755401834E+03 -0.46595720362E+03  0.22843365101E+03  0.69184805284E+03  0.25500000920E-02 0. -1.
       -2    1    3    3    0  502 -0.45755401834E+03  0.46595720362E+03 -0.12157305078E+04  0.13800262545E+04  0.25500000920E-02 0.  1.
</event>
<event>
 5   0  0.2569405E-04  0.1798920E+04  0.7818609E-02  0.8706874E-01
       -2   -1    0    0    0  501  0.00000000000E+00  0.00000000000E+00  0.74821067738E+03  0.74821067738E+03  0.25500000920E-02 0.  1.
        2   -1    0    0  501    0  0.00000000000E+00  0.00000000000E+00 -0.10812845955E+04  0.10812845955E+04  0.25500000920E-02 0. -1.
    10030    2    1    2    0    0  0.00000000000E+00  0.00000000000E+00 -0.33307391811E+03  0.18294952729E+04  0.17989204314E+04 0.  0.
        2    1    3    3  502    0 -0.60959145652E+03 -0.83040865868E+02  0.50076381266E+03  0.79326031374E+03  0.25500000920E-02 0.  1.
       -2    1    3    3    0  502  0.60959145652E+03  0.83040865868E+02 -0.83383773078E+03  0.10362349591E+04  0.25500000920E-02 0. -1.
</event>
<event>
 5   0  0.2431811E-04  0.1707650E+04  0.7818609E-02  0.8757013E-01
        2   -1    0    0  501    0  0.00000000000E+00  0.00000000000E+00  0.14557093075E+04  0.14557093075E+04  0.25500000920E-02 0.  1.
       -2   -1    0    0    0  501  0.00000000000E+00  0.00000000000E+00 -0.50079859125E+03  0.50079859126E+03  0.25500000920E-02 0. -1.
    10030    2    1    2    0    0  0.00000000000E+00  0.00000000000E+00  0.95491071620E+03  0.19565078987E+04  0.17076500466E+04 0.  0.
        3    1    3    3  502    0 -0.39166092118E+03  0.33360438809E+03 -0.30326355083E+03  0.59720930703E+03  0.10100000352E+00 0. -1.
       -3    1    3    3    0  502  0.39166092118E+03 -0.33360438809E+03  0.12581742670E+04  0.13592985917E+04  0.10100000352E+00 0.  1.
</event>
<event>
 5   0  0.1214723E-04  0.1808002E+04  0.7818609E-02  0.8702056E-01
        1   -1    0    0  501    0  0.00000000000E+00  0.00000000000E+00  0.10816905741E+04  0.10816905741E+04  0.50400001928E-02 0. -1.
       -1   -1    0    0    0  501  0.00000000000E+00  0.00000000000E+00 -0.75550049054E+03  0.75550049056E+03  0.50400001928E-02 0.  1.
    10030    2    1    2    0    0  0.00000000000E+00  0.00000000000E+00  0.32619008357E+03  0.18371910647E+04  0.18080019462E+04 0.  0.
        1    1    3    3  502    0  0.86396349520E+03  0.99084075290E+02 -0.87806598245E+02  0.87404838180E+03  0.50400001928E-02 0.  1.
       -1    1    3    3    0  502 -0.86396349520E+03 -0.99084075290E+02  0.41399668181E+03  0.96314268288E+03  0.50400001928E-02 0. -1.
</event>
<event>
 5   0  0.1253925E-04  0.1803555E+04  0.7818609E-02  0.8704411E-01
       -1   -1    0    0    0  501  0.00000000000E+00  0.00000000000E+00  0.77399784984E+03  0.77399784986E+03  0.50400001928E-02 0.  1.
        1   -1    0    0  501    0  0.00000000000E+00  0.00000000000E+00 -0.10506527756E+04  0.10506527757E+04  0.50400001928E-02 0. -1.
    10030    2    1    2    0    0  0.00000000000E+00  0.00000000000E+00 -0.27665492580E+03  0.18246506255E+04  0.18035553657E+04 0.  0.
        2    1    3    3  502    0 -0.25686831014E+03  0.84748560233E+03 -0.31058290786E+03  0.93844281529E+03  0.25500000920E-02 0.  1.
       -2    1    3    3    0  502  0.25686831014E+03 -0.84748560233E+03  0.33927982055E+02  0.88620781022E+03  0.25500000920E-02 0. -1.
</event>
<event>
 5   0  0.1253925E-04  0.1789459E+04  0.7818609E-02  0.8711925E-01
       -1   -1    0    0    0  501  0.00000000000E+00  0.00000000000E+00  0.61083155604E+03  0.61083155606E+03  0.50400001928E-02 0. -1.
        1   -1    0    0  501    0  0.00000000000E+00  0.00000000000E+00 -0.13105757146E+04  0.13105757146E+04  0.50400001928E-02 0.  1.
    10030    2    1    2    0    0  0.00000000000E+00  0.00000000000E+00 -0.69974415859E+03  0.19214072707E+04  0.17894591396E+04 0.  0.
        2    1    3    3  502    0  0.22900122031E+03  0.74929355372E+03 -0.81376918462E+03  0.11296471460E+04  0.25500000920E-02 0.  1.
       -2    1    3    3    0  502 -0.22900122031E+03 -0.74929355372E+03  0.11402502604E+03  0.79176012473E+03  0.25500000920E-02 0. -1.
</event>
<event>
 5   0  0.2431811E-04  0.1815853E+04  0.7818609E-02  0.8697914E-01
       -2   -1    0    0    0  501  0.00000000000E+00  0.00000000000E+00  0.94847498477E+03  0.94847498478E+03  0.25500000920E-02 0.  1.
        2   -1    0    0  501    0  0.00000000000E+00  0.00000000000E+00 -0.86911109345E+03  0.86911109345E+03  0.25500000920E-02 0. -1.
    10030    2    1    2    0    0  0.00000000000E+00  0.00000000000E+00  0.79363891327E+02  0.18175860782E+04  0.18158525613E+04 0.  0.
        3    1    3    3  502    0  0.51611373895E+03  0.26474491855E+03  0.73882341449E+03  0.93932066486E+03  0.10100000352E+00 0.  1.
       -3    1    3    3    0  502 -0.51611373895E+03 -0.26474491855E+03 -0.65945952316E+03  0.87826541337E+03  0.10100000352E+00 0. -1.
</event>
<event>
 5   0  0.2569405E-04  0.1783245E+04  0.7818609E-02  0.8715260E-01
       -2   -1    0    0    0  501  0.00000000000E+00  0.00000000000E+00  0.33482645834E+03  0.33482645835E+03  0.25500000920E-02 0. -1.
        2   -1    0    0  501    0  0.00000000000E+00  0.00000000000E+00 -0.23743374086E+04  0.23743374086E+04  0.25500000920E-02 0.  1.
    10030    2    1    2    0    0  0.00000000000E+00  0.00000000000E+00 -0.20395109503E+04  0.27091638669E+04  0.17832453397E+04 0.  0.
        2    1    3    3  502    0 -0.32187079807E+03  0.81059232918E+02 -0.22769783085E+04  0.23010435953E+04  0.25500000920E-02 0.  1.
       -2    1    3    3    0  502  0.32187079807E+03 -0.81059232918E+02  0.23746735827E+03  0.40812027166E+03  0.25500000920E-02 0. -1.
</event>
<event>
 5   0  0.2569405E-04  0.1790831E+04  0.7818609E-02  0.8711191E-01
       -2   -1    0    0    0  501  0.00000000000E+00  0.00000000000E+00  0.60794699212E+03  0.60794699213E+03  0.25500000920E-02 0. -1.
        2   -1    0    0  501    0  0.00000000000E+00  0.00000000000E+00 -0.13188132307E+04  0.13188132307E+04  0.25500000920E-02 0.  1.
    10030    2    1    2    0    0  0.00000000000E+00  0.00000000000E+00 -0.71086623856E+03  0.19267602228E+04  0.17908305746E+04 0.  0.
        2    1    3    3  502    0  0.39597043193E+03 -0.80170074938E+03 -0.40648880116E+03  0.98221678870E+03  0.25500000920E-02 0.  1.
       -2    1    3    3    0  502 -0.39597043193E+03  0.80170074938E+03 -0.30437743740E+03  0.94454343412E+03  0.25500000920E-02 0. -1.
</event>
<event>
 5   0  0.1308893E-04  0.1802578E+04  0.7818609E-02  0.8704930E-01
        1   -1    0    0  501    0  0.00000000000E+00  0.00000000000E+00  0.16260394771E+04  0.16260394771E+04  0.50400001928E-02 0.  1.
       -1   -1    0    0    0  501  0.00000000000E+00  0.00000000000E+00 -0.49957078646E+03  0.49957078648E+03  0.50400001928E-02 0. -1.
    10030    2    1    2    0    0  0.00000000000E+00  0.00000000000E+00  0.11264686906E+04  0.21256102636E+04  0.18025779544E+04 0.  0.
        4    1    3    3  502    0 -0.46414788135E+03 -0.14734974815E+03  0.14575474301E+04  0.15367469954E+04  0.12699999809E+01 0.  1.
       -4    1    3    3    0  502  0.46414788135E+03  0.14734974815E+03 -0.33107873942E+03  0.58886326820E+03  0.12699999809E+01 0. -1.
</event>
<event>
 5   0  0.1239119E-04  0.1787870E+04  0.7818609E-02  0.8712777E-01
        1   -1    0    0  501    0  0.00000000000E+00  0.00000000000E+00  0.46030984755E+03  0.46030984758E+03  0.50400001928E-02 0.  1.
       -1   -1    0    0    0  501  0.00000000000E+00  0.00000000000E+00 -0.17360472738E+04  0.17360472738E+04  0.50400001928E-02 0. -1.
    10030    2    1    2    0    0  0.00000000000E+00  0.00000000000E+00 -0.12757374263E+04  0.21963571214E+04  0.17878698565E+04 0.  0.
        5    1    3    3  502    0 -0.60920428397E+03 -0.64337988837E+03 -0.78337986759E+03  0.11826976145E+04  0.46999998093E+01 0.  1.
       -5    1    3    3    0  502  0.60920428397E+03  0.64337988837E+03 -0.49235755866E+03  0.10136595069E+04  0.46999998093E+01 0. -1.
</event>
<event>
 5   0  0.2550616E-04  0.1808758E+04  0.7818609E-02  0.8701656E-01
       -2   -1    0    0    0  501  0.00000000000E+00  0.00000000000E+00  0.98116405540E+03  0.98116405540E+03  0.25500000920E-02 0. -1.
        2   -1    0    0  501    0  0.00000000000E+00  0.00000000000E+00 -0.83360317511E+03  0.83360317511E+03  0.25500000920E-02 0.  1.
    10030    2    1    2    0    0  0.00000000000E+00  0.00000000000E+00  0.14756088029E+03  0.18147672305E+04  0.18087581064E+04 0.  0.
        1    1    3    3  502    0 -0.36553684027E+03  0.48898471343E+03  0.74321387939E+03  0.96181604380E+03  0.50400001928E-02 0. -1.
       -1    1    3    3    0  502  0.36553684027E+03 -0.48898471343E+03 -0.59565299910E+03  0.85295118672E+03  0.50400001928E-02 0.  1.
</event>
<event>
 5   0  0.2431811E-04  0.1815501E+04  0.7818609E-02  0.8698100E-01
        2   -1    0    0  501    0  0.00000000000E+00  0.00000000000E+00  0.11051868677E+04  0.11051868677E+04  0.25500000920E-02 0.  1.
       -2   -1    0    0    0  501  0.00000000000E+00  0.00000000000E+00 -0.74558496524E+03  0.74558496525E+03  0.25500000920E-02 0. -1.
    10030    2    1    2    0    0  0.00000000000E+00  0.00000000000E+00  0.35960190244E+03  0.18507718329E+04  0.18155007159E+04 0.  0.
        3    1    3    3  502    0  0.30606468754E+03 -0.74184481270E+03  0.61230918318E+03  0.10094215497E+04  0.10100000352E+00 0.  1.
       -3    1    3    3    0  502 -0.30606468754E+03  0.74184481270E+03 -0.25270728074E+03  0.84135028319E+03  0.10100000352E+00 0. -1.
</event>
<event>
 5   0  0.9144875E-05  0.1811521E+04  0.7818609E-02  0.8700196E-01
        4   -1    0    0  501    0  0.00000000000E+00  0.00000000000E+00  0.41894365276E+03  0.41894557771E+03  0.12699999809E+01 0. -1.
       -4   -1    0    0    0  501  0.00000000000E+00  0.00000000000E+00 -0.19582576632E+04  0.19582580750E+04  0.12699999809E+01 0.  1.
    10030    2    1    2    0    0  0.00000000000E+00  0.00000000000E+00 -0.15393140104E+04  0.23772036527E+04  0.18115213451E+04 0.  0.
        3    1    3    3  502    0  0.22699291952E+03  0.68381433362E+03 -0.14899416587E+04  0.16550087568E+04  0.10100000352E+00 0.  1.
       -3    1    3    3    0  502 -0.22699291952E+03 -0.68381433362E+03 -0.49372351659E+02  0.72219489591E+03  0.10100000352E+00 0. -1.
</event>
<event>
 5   0  0.2431811E-04  0.1825422E+04  0.7818609E-02  0.8692896E-01
        2   -1    0    0  501    0  0.00000000000E+00  0.00000000000E+00  0.94696811159E+03  0.94696811160E+03  0.25500000920E-02 0. -1.
       -2   -1    0    0    0  501  0.00000000000E+00  0.00000000000E+00 -0.87969328264E+03  0.87969328264E+03  0.25500000920E-02 0.  1.
    10030    2    1    2    0    0  0.00000000000E+00  0.00000000000E+00  0.67274828953E+02  0.18266613942E+04  0.18254221283E+04 0.  0.
        3    1    3    3  502    0  0.31471624364E+03 -0.76123748541E+03  0.42698524974E+03  0.92781745883E+03  0.10100000352E+00 0. -1.
       -3    1    3    3    0  502 -0.31471624364E+03  0.76123748541E+03 -0.35971042079E+03  0.89884393541E+03  0.10100000352E+00 0.  1.
</event>
<event>
 5   0  0.2569405E-04  0.1798978E+04  0.7818609E-02  0.8706843E-01
        2   -1    0    0  501    0  0.00000000000E+00  0.00000000000E+00  0.11851263844E+04  0.11851263844E+04  0.25500000920E-02 0.  1.
       -2   -1    0    0    0  501  0.00000000000E+00  0.00000000000E+00 -0.68269585071E+03  0.68269585072E+03  0.25500000920E-02 0. -1.
    10030    2    1    2    0    0  0.00000000000E+00  0.00000000000E+00  0.50243053366E+03  0.18678222351E+04  0.17989784492E+04 0.  0.
        2    1    3    3  502    0 -0.61330415790E+03 -0.45952877385E+03  0.74016376234E+03  0.10654346902E+04  0.25500000920E-02 0. -1.
       -2    1    3    3    0  502  0.61330415790E+03  0.45952877385E+03 -0.23773322867E+03  0.80238754485E+03  0.25500000920E-02 0.  1.
</event>
<event>
 5   0  0.2431811E-04  0.1800709E+04  0.7818609E-02  0.8705922E-01
       -2   -1    0    0    0  501  0.00000000000E+00  0.00000000000E+00  0.95077063115E+03  0.95077063115E+03  0.25500000920E-02 0.  1.
        2   -1    0    0  501    0  0.00000000000E+00  0.00000000000E+00 -0.85261205798E+03  0.85261205798E+03  0.25500000920E-02 0. -1.
    10030    2    1    2    0    0  0.00000000000E+00  0.00000000000E+00  0.98158573170E+02  0.18033826891E+04  0.18007093097E+04 0.  0.
        3    1    3    3  502    0  0.72092720225E+03 -0.43639305666E+03 -0.26835115694E+03  0.88441352572E+03  0.10100000352E+00 0. -1.
       -3    1    3    3    0  502 -0.72092720225E+03  0.43639305666E+03  0.36650973011E+03  0.91896916341E+03  0.10100000352E+00 0.  1.
</event>
<event>
 5   0  0.1330225E-04  0.1801377E+04  0.7818609E-02  0.8705567E-01
       -1   -1    0    0    0  501  0.00000000000E+00  0.00000000000E+00  0.76247327799E+03  0.76247327801E+03  0.50400001928E-02 0. -1.
        1   -1    0    0  501    0  0.00000000000E+00  0.00000000000E+00 -0.10639588400E+04  0.10639588400E+04  0.50400001928E-02 0.  1.
    10030    2    1    2    0    0  0.00000000000E+00  0.00000000000E+00 -0.30148556199E+03  0.18264321180E+04  0.18013774556E+04 0.  0.
        3    1    3    3  502    0 -0.72973707993E+03 -0.28078021244E+03 -0.60404775010E+03  0.98804221981E+03  0.10100000352E+00 0.  1.
       -3    1    3    3    0  502  0.72973707993E+03  0.28078021244E+03  0.30256218811E+03  0.83838989819E+03  0.10100000352E+00 0. -1.
</event>
<event>
 5   0  0.1239119E-04  0.1774629E+04  0.7818609E-02  0.8719909E-01
        1   -1    0    0  501    0  0.00000000000E+00  0.00000000000E+00  0.72143966532E+03  0.72143966534E+03  0.50400001928E-02 0.  1.
       -1   -1    0    0    0  501  0.00000000000E+00  0.00000000000E+00 -0.10913270300E+04  0.10913270300E+04  0.50400001928E-02 0. -1.
    10030    2    1    2    0    0  0.00000000000E+00  0.00000000000E+00 -0.36988736465E+03  0.18127666953E+04  0.17746285327E+04 0.  0.
        5    1    3    3  502    0 -0.26998446468E+03  0.50968241189E+03 -0.87370178440E+03  0.10469215206E+04  0.46999998093E+01 0. -1.
       -5    1    3    3    0  502  0.26998446468E+03 -0.50968241189E+03  0.50381441975E+03  0.76584517476E+03  0.46999998093E+01 0.  1.
</event>
<event>
 5   0  0.2550616E-04  0.1461178E+04  0.7818609E-02  0.8910687E-01
       -2   -1    0    0    0  501  0.00000000000E+00  0.00000000000E+00  0.28845006758E+03  0.28845006759E+03  0.25500000920E-02 0.  1.
        2   -1    0    0  501    0  0.00000000000E+00  0.00000000000E+00 -0.18504430021E+04  0.18504430021E+04  0.25500000920E-02 0. -1.
    10030    2    1    2    0    0  0.00000000000E+00  0.00000000000E+00 -0.15619929345E+04  0.21388930697E+04  0.14611781671E+04 0.  0.
        1    1    3    3  502    0  0.64801056194E+03  0.28328574266E+03 -0.10492856972E+04  0.12653730575E+04  0.50400001928E-02 0. -1.
       -1    1    3    3    0  502 -0.64801056194E+03 -0.28328574266E+03 -0.51270723727E+03  0.87352001211E+03  0.50400001928E-02 0.  1.
</event>
<event>
 5   0  0.1253925E-04  0.1816885E+04  0.7818609E-02  0.8697371E-01
        1   -1    0    0  501    0  0.00000000000E+00  0.00000000000E+00  0.11745376031E+04  0.11745376031E+04  0.50400001928E-02 0. -1.
       -1   -1    0    0    0  501  0.00000000000E+00  0.00000000000E+00 -0.70263202052E+03  0.70263202054E+03  0.50400001928E-02 0.  1.
    10030    2    1    2    0    0  0.00000000000E+00  0.00000000000E+00  0.47190558257E+03  0.18771696236E+04  0.18168849488E+04 0.  0.
        2    1    3    3  502    0  0.49236578628E+03  0.27070648249E+03 -0.50156833198E+03  0.75317784009E+03  0.25500000920E-02 0.  1.
       -2    1    3    3    0  502 -0.49236578628E+03 -0.27070648249E+03  0.97347391455E+03  0.11239917835E+04  0.25500000920E-02 0. -1.
</event>
<event>
 5   0  0.2569405E-04  0.1795757E+04  0.7818609E-02  0.8708559E-01
        2   -1    0    0  501    0  0.00000000000E+00  0.00000000000E+00  0.79179588295E+03  0.79179588296E+03  0.25500000920E-02 0. -1.
       -2   -1    0    0    0  501  0.00000000000E+00  0.00000000000E+00 -0.10181739217E+04  0.10181739218E+04  0.25500000920E-02 0.  1.
    10030    2    1    2    0    0  0.00000000000E+00  0.00000000000E+00 -0.22637803879E+03  0.18099698047E+04  0.17957571321E+04 0.  0.
        2    1    3    3  502    0  0.56439351875E+02  0.78154776060E+03  0.32866815494E+03  0.84972057679E+03  0.25500000920E-02 0.  1.
       -2    1    3    3    0  502 -0.56439351875E+02 -0.78154776060E+03 -0.55504619374E+03  0.96024922792E+03  0.25500000920E-02 0. -1.
</event>
<event>
 5   0  0.1214723E-04  0.1815384E+04  0.7818609E-02  0.8698161E-01
        1   -1    0    0  501    0  0.00000000000E+00  0.00000000000E+00  0.14536170634E+04  0.14536170634E+04  0.50400001928E-02 0. -1.
       -1   -1    0    0    0  501  0.00000000000E+00  0.00000000000E+00 -0.56679648280E+03  0.56679648282E+03  0.50400001928E-02 0.  1.
    10030    2    1    2    0    0  0.00000000000E+00  0.00000000000E+00  0.88682058064E+03  0.20204135463E+04  0.18153842997E+04 0.  0.
        1    1    3    3  502    0  0.44144025640E+03  0.12962963851E+03  0.13142327095E+04  0.13924370570E+04  0.50400001928E-02 0. -1.
       -1    1    3    3    0  502 -0.44144025640E+03 -0.12962963851E+03 -0.42741212882E+03  0.62797648924E+03  0.50400001928E-02 0.  1.
</event>
<event>
 5   0  0.2417106E-04  0.1820930E+04  0.7818609E-02  0.8695247E-01
       -2   -1    0    0    0  501  0.00000000000E+00  0.00000000000E+00  0.51504436909E+03  0.51504436910E+03  0.25500000920E-02 0. -1.
        2   -1    0    0  501    0  0.00000000000E+00  0.00000000000E+00 -0.16094669401E+04  0.16094669401E+04  0.25500000920E-02 0.  1.
    10030    2    1    2    0    0  0.00000000000E+00  0.00000000000E+00 -0.10944225711E+04  0.21245113092E+04  0.18209304048E+04 0.  0.
        4    1    3    3  502    0 -0.41509301446E+03  0.64090602176E+03 -0.11257461531E+04  0.13602826006E+04  0.12699999809E+01 0.  1.
       -4    1    3    3    0  502  0.41509301446E+03 -0.64090602176E+03  0.31323582066E+02  0.76422870862E+03  0.12699999809E+01 0. -1.
</event>
<event>
 5   0  0.1308893E-04  0.1804991E+04  0.7818609E-02  0.8703650E-01
        1   -1    0    0  501    0  0.00000000000E+00  0.00000000000E+00  0.99092792760E+03  0.99092792761E+03  0.50400001928E-02 0.  1.
       -1   -1    0    0    0  501  0.00000000000E+00  0.00000000000E+00 -0.82195497428E+03  0.82195497429E+03  0.50400001928E-02 0. -1.
    10030    2    1    2    0    0  0.00000000000E+00  0.00000000000E+00  0.16897295332E+03  0.18128829019E+04  0.18049910130E+04 0.  0.
        4    1    3    3  502    0  0.47711295924E+03  0.53020854193E+03  0.63984044904E+03  0.95820419898E+03  0.12699999809E+01 0.  1.
       -4    1    3    3    0  502 -0.47711295924E+03 -0.53020854193E+03 -0.47086749572E+03  0.85467870293E+03  0.12699999809E+01 0. -1.
</event>
<event>
 5   0  0.2393421E-04  0.1796353E+04  0.7818609E-02  0.8708241E-01
        2   -1    0    0  501    0  0.00000000000E+00  0.00000000000E+00  0.16128245032E+04  0.16128245032E+04  0.25500000920E-02 0. -1.
       -2   -1    0    0    0  501  0.00000000000E+00  0.00000000000E+00 -0.50019148998E+03  0.50019148999E+03  0.25500000920E-02 0.  1.
    10030    2    1    2    0    0  0.00000000000E+00  0.00000000000E+00  0.11126330132E+04  0.21130159932E+04  0.17963530737E+04 0.  0.
        5    1    3    3  502    0 -0.68891288136E+03  0.53876493628E+03  0.79689512267E+03  0.11831874497E+04  0.46999998093E+01 0. -1.
       -5    1    3    3    0  502  0.68891288136E+03 -0.53876493628E+03  0.31573789053E+03  0.92982854343E+03  0.46999998093E+01 0.  1.
</event>
<event>
 5   0  0.1253925E-04  0.1776709E+04  0.7818609E-02  0.8718784E-01
        1   -1    0    0  501    0  0.00000000000E+00  0.00000000000E+00  0.17433873749E+04  0.17433873749E+04  0.50400001928E-02 0. -1.
       -1   -1    0    0    0  501  0.00000000000E+00  0.00000000000E+00 -0.45266678031E+03  0.45266678034E+03  0.50400001928E-02 0.  1.
    10030    2    1    2    0    0  0.00000000000E+00  0.00000000000E+00  0.12907205946E+04  0.21960541553E+04  0.17767088111E+04 0.  0.
        2    1    3    3  502    0 -0.80825766558E+03  0.57514008801E+02  0.19529619912E+03  0.83350400154E+03  0.25500000920E-02 0.  1.
       -2    1    3    3    0  502  0.80825766558E+03 -0.57514008801E+02  0.10954243955E+04  0.13625501537E+04  0.25500000920E-02 0. -1.
</event>
<event>
 5   0  0.1239119E-04  0.1851168E+04  0.7818609E-02  0.8679552E-01
       -1   -1    0    0    0  501  0.00000000000E+00  0.00000000000E+00  0.13579808210E+04  0.13579808210E+04  0.50400001928E-02 0. -1.
        1   -1    0    0  501    0  0.00000000000E+00  0.00000000000E+00 -0.63086721093E+03  0.63086721095E+03  0.50400001928E-02 0.  1.
    10030    2    1    2    0    0  0.00000000000E+00  0.00000000000E+00  0.72711361009E+03  0.19888480320E+04  0.18511678185E+04 0.  0.
        5    1    3    3  502    0  0.89112853178E+03  0.46612268339E+02  0.99512464281E+02  0.89789063045E+03  0.46999998093E+01 0.  1.
       -5    1    3    3    0  502 -0.89112853178E+03 -0.46612268339E+02  0.62760114581E+03  0.10909574015E+04  0.46999998093E+01 0. -1.
</event>
<event>
 5   0  0.2550616E-04  0.1800169E+04  0.7818609E-02  0.8706209E-01
        2   -1    0    0  501    0  0.00000000000E+00  0.00000000000E+00  0.73834765091E+03  0.73834765092E+03  0.25500000920E-02 0.  1.
       -2   -1    0    0    0  501  0.00000000000E+00  0.00000000000E+00 -0.10972506029E+04  0.10972506029E+04  0.25500000920E-02 0. -1.
    10030    2    1    2    0    0  0.00000000000E+00  0.00000000000E+00 -0.35890295194E+03  0.18355982538E+04  0.18001693310E+04 0.  0.
        1    1    3    3  502    0  0.50827614083E+03 -0.45117166406E+03 -0.78119444456E+03  0.10354541352E+04  0.50400001928E-02 0. -1.
       -1    1    3    3    0  502 -0.50827614083E+03  0.45117166406E+03  0.42229149261E+03  0.80014411861E+03  0.50400001928E-02 0.  1.
</event>
<event>
 5   0  0.1330225E-04  0.1780410E+04  0.7818609E-02  0.8716787E-01
       -1   -1    0    0    0  501  0.00000000000E+00  0.00000000000E+00  0.63342876856E+03  0.63342876858E+03  0.50400001928E-02 0. -1.
        1   -1    0    0  501    0  0.00000000000E+00  0.00000000000E+00 -0.12510715307E+04  0.12510715307E+04  0.50400001928E-02 0.  1.
    10030    2    1    2    0    0  0.00000000000E+00  0.00000000000E+00 -0.61764276218E+03  0.18845002993E+04  0.17804097271E+04 0.  0.
        3    1    3    3  502    0 -0.10496917921E+03  0.29466927808E+03  0.57334133577E+03  0.65312235418E+03  0.10100000352E+00 0. -1.
       -3    1    3    3    0  502  0.10496917921E+03 -0.29466927808E+03 -0.11909840979E+04  0.12313779451E+04  0.10100000352E+00 0.  1.
</event>
<event>
 5   0  0.2550616E-04  0.1793686E+04  0.7818609E-02  0.8709664E-01
       -2   -1    0    0    0  501  0.00000000000E+00  0.00000000000E+00  0.36008919273E+03  0.36008919274E+03  0.25500000920E-02 0. -1.
        2   -1    0    0  501    0  0.00000000000E+00  0.00000000000E+00 -0.22336895619E+04  0.22336895619E+04  0.25500000920E-02 0.  1.
    10030    2    1    2    0    0  0.00000000000E+00  0.00000000000E+00 -0.18736003692E+04  0.25937787546E+04  0.17936861165E+04 0.  0.
        1    1    3    3  502    0  0.15965426898E+03  0.14758749252E+03  0.32140207645E+03  0.38803459681E+03  0.50400001928E-02 0. -1.
       -1    1    3    3    0  502 -0.15965426898E+03 -0.14758749252E+03 -0.21950024456E+04  0.22057441578E+04  0.50400001928E-02 0.  1.
</event>
<event>
 5   0  0.1330225E-04  0.1805598E+04  0.7818609E-02  0.8703328E-01
       -1   -1    0    0    0  501  0.00000000000E+00  0.00000000000E+00  0.11038575423E+04  0.11038575423E+04  0.50400001928E-02 0. -1.
        1   -1    0    0  501    0  0.00000000000E+00  0.00000000000E+00 -0.73836179121E+03  0.73836179123E+03  0.50400001928E-02 0.  1.
    10030    2    1    2    0    0  0.00000000000E+00  0.00000000000E+00  0.36549575108E+03  0.18422193335E+04  0.18055982191E+04 0.  0.
        3    1    3    3  502    0  0.68272489366E+03  0.54734892669E+03 -0.43888181757E+02  0.87614514247E+03  0.10100000352E+00 0.  1.
       -3    1    3    3    0  502 -0.68272489366E+03 -0.54734892669E+03  0.40938393283E+03  0.96607419106E+03  0.10100000352E+00 0. -1.
</event>
<event>
 5   0  0.1239119E-04  0.1798931E+04  0.7818609E-02  0.8706868E-01
       -1   -1    0    0    0  501  0.00000000000E+00  0.00000000000E+00  0.72344164965E+03  0.72344164967E+03  0.50400001928E-02 0. -1.
        1   -1    0    0  501    0  0.00000000000E+00  0.00000000000E+00 -0.11183182939E+04  0.11183182939E+04  0.50400001928E-02 0.  1.
    10030    2    1    2    0    0  0.00000000000E+00  0.00000000000E+00 -0.39487664426E+03  0.18417599436E+04  0.17989308285E+04 0.  0.
        5    1    3    3  502    0 -0.26865194289E+03 -0.25414416356E+03 -0.10368690735E+04  0.11008554346E+04  0.46999998093E+01 0.  1.
       -5    1    3    3    0  502  0.26865194289E+03  0.25414416356E+03  0.64199242923E+03  0.74090450901E+03  0.46999998093E+01 0. -1.
</event>
<event>
 5   0  0.2417106E-04  0.1794026E+04  0.7818609E-02  0.8709483E-01
       -2   -1    0    0    0  501  0.00000000000E+00  0.00000000000E+00  0.36937876029E+03  0.36937876030E+03  0.25500000920E-02 0.  1.
        2   -1    0    0  501    0  0.00000000000E+00  0.00000000000E+00 -0.21783387137E+04  0.21783387137E+04  0.25500000920E-02 0. -1.
    10030    2    1    2    0    0  0.00000000000E+00  0.00000000000E+00 -0.18089599534E+04  0.25477174740E+04  0.17940257006E+04 0.  0.
        4    1    3    3  502    0 -0.24323061813E+02  0.34881431741E+03  0.26861112640E+03  0.44092696616E+03  0.12699999809E+01 0.  1.
       -4    1    3    3    0  502  0.24323061813E+02 -0.34881431741E+03 -0.20775710798E+04  0.21067905078E+04  0.12699999809E+01 0. -1.
</event>
<event>
 5   0  0.2569405E-04  0.1843823E+04  0.7818609E-02  0.8683336E-01
        2   -1    0    0  501    0  0.00000000000E+00  0.00000000000E+00  0.18495519989E+04  0.18495519989E+04  0.25500000920E-02 0.  1.
       -2   -1    0    0    0  501  0.00000000000E+00  0.00000000000E+00 -0.45952814976E+03  0.45952814976E+03  0.25500000920E-02 0. -1.
    10030    2    1    2    0    0  0.00000000000E+00  0.00000000000E+00  0.13900238492E+04  0.23090801487E+04  0.18438234275E+04 0.  0.
        2    1    3    3  502    0 -0.19967837335E+03 -0.63106406745E+03 -0.10863819678E+03  0.67075745826E+03  0.25500000920E-02 0. -1.
       -2    1    3    3    0  502  0.19967837335E+03  0.63106406745E+03  0.14986620459E+04  0.16383226904E+04  0.25500000920E-02 0.  1.
</event>
<event>
 5   0  0.1308893E-04  0.1801781E+04  0.7818609E-02  0.8705353E-01
        1   -1    0    0  501    0  0.00000000000E+00  0.00000000000E+00  0.89399561521E+03  0.89399561522E+03  0.50400001928E-02 0.  1.
       -1   -1    0    0    0  501  0.00000000000E+00  0.00000000000E+00 -0.90783855161E+03  0.90783855162E+03  0.50400001928E-02 0. -1.
    10030    2    1    2    0    0  0.00000000000E+00  0.00000000000E+00 -0.13842936396E+02  0.18018341668E+04  0.18017809906E+04 0.  0.
        4    1    3    3  502    0  0.51485404296E+02 -0.59122670362E+03 -0.68473370392E+03  0.90612450586E+03  0.12699999809E+01 0. -1.
       -4    1    3    3    0  502 -0.51485404296E+02  0.59122670362E+03  0.67089076753E+03  0.89570966098E+03  0.12699999809E+01 0.  1.
</event>
<event>
 5   0  0.2393421E-04  0.1777157E+04  0.7818609E-02  0.8718542E-01
       -2   -1    0    0    0  501  0.00000000000E+00  0.00000000000E+00  0.60956154537E+03  0.60956154538E+03  0.25500000920E-02 0.  1.
        2   -1    0    0  501    0  0.00000000000E+00  0.00000000000E+00 -0.12953114622E+04  0.12953114622E+04  0.25500000920E-02 0. -1.
    10030    2    1    2    0    0  0.00000000000E+00  0.00000000000E+00 -0.68574991686E+03  0.19048730076E+04  0.17771573444E+04 0.  0.
        5    1    3    3  502    0 -0.15316569486E+03 -0.14076263963E+03  0.58308012096E+03  0.61909479747E+03  0.46999998093E+01 0.  1.
       -5    1    3    3    0  502  0.15316569486E+03  0.14076263963E+03 -0.12688300378E+04  0.12857782101E+04  0.46999998093E+01 0. -1.
</event>
<event>
 5   0  0.1214723E-04  0.1776617E+04  0.7818609E-02  0.8718834E-01
       -1   -1    0    0    0  501  0.00000000000E+00  0.00000000000E+00  0.10019480769E+04  0.10019480769E+04  0.50400001928E-02 0.  1.
        1   -1    0    0  501    0  0.00000000000E+00  0.00000000000E+00 -0.78755812279E+03  0.78755812281E+03  0.50400001928E-02 0. -1.
    10030    2    1    2    0    0  0.00000000000E+00  0.00000000000E+00  0.21438995410E+03  0.17895061997E+04  0.17766174001E+04 0.  0.
        1    1    3    3  502    0 -0.26041685524E+03  0.59420097359E+03  0.71839244803E+03  0.96797698574E+03  0.50400001928E-02 0.  1.
       -1    1    3    3    0  502  0.26041685524E+03 -0.59420097359E+03 -0.50400249393E+03  0.82152921398E+03  0.50400001928E-02 0. -1.
</event>
<event>
 5   0  0.2417106E-04  0.1782779E+04  0.7818609E-02  0.8715511E-01
       -2   -1    0    0    0  501  0.00000000000E+00  0.00000000000E+00  0.10582292884E+04  0.10582292884E+04  0.25500000920E-02 0.  1.
        2   -1    0    0  501    0  0.00000000000E+00  0.00000000000E+00 -0.75085388731E+03  0.75085388731E+03  0.25500000920E-02 0. -1.
    10030    2    1    2    0    0  0.00000000000E+00  0.00000000000E+00  0.30737540113E+03  0.18090831758E+04  0.17827793749E+04 0.  0.
        4    1    3    3  502    0 -0.60506998368E+03 -0.62996405397E+02 -0.50745863715E+03  0.79220837761E+03  0.12699999809E+01 0. -1.
       -4    1    3    3    0  502  0.60506998368E+03  0.62996405397E+02  0.81483403828E+03  0.10168747981E+04  0.12699999809E+01 0.  1.
</event>
<event>
 5   0  0.1253925E-04  0.1815024E+04  0.7818609E-02  0.8698350E-01
        1   -1    0    0  501    0  0.00000000000E+00  0.00000000000E+00  0.67906249001E+03  0.67906249003E+03  0.50400001928E-02 0.  1.
       -1   -1    0    0    0  501  0.00000000000E+00  0.00000000000E+00 -0.12128163333E+04  0.12128163333E+04  0.50400001928E-02 0. -1.
    10030    2    1    2    0    0  0.00000000000E+00  0.00000000000E+00 -0.53375384328E+03  0.18918788233E+04  0.18150240541E+04 0.  0.
        2    1    3    3  502    0 -0.30164088646E+03  0.42451451986E+03 -0.10415691989E+04  0.11645025539E+04  0.25500000920E-02 0. -1.
       -2    1    3    3    0  502  0.30164088646E+03 -0.42451451986E+03  0.50781535559E+03  0.72737626944E+03  0.25500000920E-02 0.  1.
</event>
<event>
 5   0  0.1253925E-04  0.1800756E+04  0.7818609E-02  0.8705897E-01
       -1   -1    0    0    0  501  0.00000000000E+00  0.00000000000E+00  0.77227343436E+03  0.77227343437E+03  0.50400001928E-02 0. -1.
        1   -1    0    0  501    0  0.00000000000E+00  0.00000000000E+00 -0.10497326939E+04  0.10497326939E+04  0.50400001928E-02 0.  1.
    10030    2    1    2    0    0  0.00000000000E+00  0.00000000000E+00 -0.27745925957E+03  0.18220061283E+04  0.18007561442E+04 0.  0.
        2    1    3    3  502    0 -0.25936723685E+03 -0.76748828845E+02  0.73019381050E+03  0.77868141572E+03  0.25500000920E-02 0. -1.
       -2    1    3    3    0  502  0.25936723685E+03  0.76748828845E+02 -0.10076530701E+04  0.10433247126E+04  0.25500000920E-02 0.  1.
</event>
<event>
 5   0  0.2569405E-04  0.1797558E+04  0.7818609E-02  0.8707599E-01
       -2   -1    0    0    0  501  0.00000000000E+00  0.00000000000E+00  0.50242884790E+03  0.50242884790E+03  0.25500000920E-02 0. -1.
        2   -1    0    0  501    0  0.00000000000E+00  0.00000000000E+00 -0.16077966824E+04  0.16077966824E+04  0.25500000920E-02 0.  1.
    10030    2    1    2    0    0  0.00000000000E+00  0.00000000000E+00 -0.11053678345E+04  0.21102255303E+04  0.17975577151E+04 0.  0.
        2    1    3    3  502    0  0.28660400792E+03 -0.12618022568E+03 -0.15416825925E+04  0.15731651289E+04  0.25500000920E-02 0.  1.
       -2    1    3    3    0  502 -0.28660400792E+03  0.12618022568E+03  0.43631475800E+03  0.53706040141E+03  0.25500000920E-02 0. -1.
</event>
<event>
 5   0  0.1239119E-04  0.1717403E+04  0.7818609E-02  0.8751501E-01
        1   -1    0    0  501    0  0.00000000000E+00  0.00000000000E+00  0.11203264713E+04  0.11203264713E+04  0.50400001928E-02 0. -1.
       -1   -1    0    0    0  501  0.00000000000E+00  0.00000000000E+00 -0.65817266392E+03  0.65817266394E+03  0.50400001928E-02 0.  1.
    10030    2    1    2    0    0  0.00000000000E+00  0.00000000000E+00  0.46215380733E+03  0.17784991352E+04  0.17174029906E+04 0.  0.
        5    1    3    3  502    0 -0.22411114209E+03  0.51112025858E+03  0.90688478734E+03  0.10648623527E+04  0.46999998093E+01 0. -1.
       -5    1    3    3    0  502  0.22411114209E+03 -0.51112025858E+03 -0.44473098000E+03  0.71363678248E+03  0.46999998093E+01 0.  1.
</event>
<event>
 5   0  0.1308893E-04  0.1785342E+04  0.7818609E-02  0.8714134E-01
        1   -1    0    0  501    0  0.00000000000E+00  0.00000000000E+00  0.16856761740E+04  0.16856761740E+04  0.50400001928E-02 0. -1.
       -1   -1    0    0    0  501  0.00000000000E+00  0.00000000000E+00 -0.47272497309E+03  0.47272497312E+03  0.50400001928E-02 0.  1.
    10030    2    1    2    0    0  0.00000000000E+00  0.00000000000E+00  0.12129512009E+04  0.21584011471E+04  0.17853416749E+04 0.  0.
        4    1    3    3  502    0  0.68382589207E+02  0.34750908274E+03 -0.38414701527E+03  0.52250290270E+03  0.12699999809E+01 0.  1.
       -4    1    3    3    0  502 -0.68382589207E+02 -0.34750908274E+03  0.15970982162E+04  0.16358982444E+04  0.12699999809E+01 0. -1.
</event>
<event>
 5   0  0.1239119E-04  0.1826781E+04  0.7818609E-02  0.8692186E-01
       -1   -1    0    0    0  501  0.00000000000E+00  0.00000000000E+00  0.92533505762E+03  0.92533505763E+03  0.50400001928E-02 0. -1.
        1   -1    0    0  501    0  0.00000000000E+00  0.00000000000E+00 -0.90160008261E+03  0.90160008262E+03  0.50400001928E-02 0.  1.
    10030    2    1    2    0    0  0.00000000000E+00  0.00000000000E+00  0.23734975010E+02  0.18269351403E+04  0.18267809550E+04 0.  0.
        5    1    3    3  502    0  0.14949140456E+03 -0.50949499954E+03  0.75511743172E+03  0.92312364300E+03  0.46999998093E+01 0. -1.
       -5    1    3    3    0  502 -0.14949140456E+03  0.50949499954E+03 -0.73138245671E+03  0.90381149725E+03  0.46999998093E+01 0.  1.
</event>
<event>
 5   0  0.2569405E-04  0.1538828E+04  0.7818609E-02  0.8859035E-01
        2   -1    0    0  501    0  0.00000000000E+00  0.00000000000E+00  0.22267211478E+04  0.22267211478E+04  0.25500000920E-02 0. -1.
       -2   -1    0    0    0  501  0.00000000000E+00  0.00000000000E+00 -0.26586098473E+03  0.26586098474E+03  0.25500000920E-02 0.  1.
    10030    2    1    2    0    0  0.00000000000E+00  0.00000000000E+00  0.19608601630E+04  0.24925821325E+04  0.15388284857E+04 0.  0.
        2    1    3    3  502    0 -0.52809400404E+03  0.55468420822E+03  0.10999047513E+04  0.13402791910E+04  0.25500000920E-02 0. -1.
       -2    1    3    3    0  502  0.52809400404E+03 -0.55468420822E+03  0.86095541172E+03  0.11523029415E+04  0.25500000920E-02 0.  1.
</event>
<event>
 5   0  0.2569405E-04  0.1706628E+04  0.7818609E-02  0.8757593E-01
       -2   -1    0    0    0  501  0.00000000000E+00  0.00000000000E+00  0.61756909597E+03  0.61756909597E+03  0.25500000920E-02 0. -1.
        2   -1    0    0  501    0  0.00000000000E+00  0.00000000000E+00 -0.11790497196E+04  0.11790497196E+04  0.25500000920E-02 0.  1.
    10030    2    1    2    0    0  0.00000000000E+00  0.00000000000E+00 -0.56148062360E+03  0.17966188155E+04  0.17066278674E+04 0.  0.
        2    1    3    3  502    0  0.83612692953E+03  0.15467533084E+03 -0.20547216494E+03  0.87478655158E+03  0.25500000920E-02 0.  1.
       -2    1    3    3    0  502 -0.83612692953E+03 -0.15467533084E+03 -0.35600845865E+03  0.92183226396E+03  0.25500000920E-02 0. -1.
</event>
<event>
 5   0  0.1214723E-04  0.1823481E+04  0.7818609E-02  0.8693911E-01
        1   -1    0    0  501    0  0.00000000000E+00  0.00000000000E+00  0.73323569463E+03  0.73323569464E+03  0.50400001928E-02 0.  1.
       -1   -1    0    0    0  501  0.00000000000E+00  0.00000000000E+00 -0.11337022914E+04  0.11337022915E+04  0.50400001928E-02 0. -1.
    10030    2    1    2    0    0  0.00000000000E+00  0.00000000000E+00 -0.40046659682E+03  0.18669379861E+04  0.18234812718E+04 0.  0.
        1    1    3    3  502    0 -0.11748625209E+03 -0.10300914758E+03  0.71942584495E+03  0.73619796952E+03  0.50400001928E-02 0.  1.
       -1    1    3    3    0  502  0.11748625209E+03  0.10300914758E+03 -0.11198924418E+04  0.11307400166E+04  0.50400001928E-02 0. -1.
</event>
<event>
 5   0  0.2431811E-04  0.1791073E+04  0.7818609E-02  0.8711061E-01
       -2   -1    0    0    0  501  0.00000000000E+00  0.00000000000E+00  0.45381399029E+03  0.45381399030E+03  0.25500000920E-02 0.  1.
        2   -1    0    0  501    0  0.00000000000E+00  0.00000000000E+00 -0.17672122190E+04  0.17672122190E+04  0.25500000920E-02 0. -1.
    10030    2    1    2    0    0  0.00000000000E+00  0.00000000000E+00 -0.13133982287E+04  0.22210262093E+04  0.17910730067E+04 0.  0.
        3    1    3    3  502    0  0.18942559288E+03  0.60984434686E+03  0.12186626678E+03  0.65011043663E+03  0.10100000352E+00 0.  1.
       -3    1    3    3    0  502 -0.18942559288E+03 -0.60984434686E+03 -0.14352644955E+04  0.15709157727E+04  0.10100000352E+00 0. -1.
</event>
<event>
 5   0  0.2431811E-04  0.1793260E+04  0.7818609E-02  0.8709892E-01
        2   -1    0    0  501    0  0.00000000000E+00  0.00000000000E+00  0.51179423884E+03  0.51179423884E+03  0.25500000920E-02 0. -1.
       -2   -1    0    0    0  501  0.00000000000E+00  0.00000000000E+00 -0.15708371675E+04  0.15708371676E+04  0.25500000920E-02 0.  1.
    10030    2    1    2    0    0  0.00000000000E+00  0.00000000000E+00 -0.10590429287E+04  0.20826314064E+04  0.17932600620E+04 0.  0.
        3    1    3    3  502    0 -0.56636151368E+03  0.32030888851E+03 -0.12459838651E+04  0.14056453858E+04  0.10100000352E+00 0.  1.
       -3    1    3    3    0  502  0.56636151368E+03 -0.32030888851E+03  0.18694093638E+03  0.67698602064E+03  0.10100000352E+00 0. -1.
</event>
<event>
 5   0  0.2417106E-04  0.1749807E+04  0.7818609E-02  0.8733457E-01
        2   -1    0    0  501    0  0.00000000000E+00  0.00000000000E+00  0.54491194884E+03  0.54491194884E+03  0.25500000920E-02 0.  1.
       -2   -1    0    0    0  501  0.00000000000E+00  0.00000000000E+00 -0.14047328509E+04  0.14047328509E+04  0.25500000920E-02 0. -1.
    10030    2    1    2    0    0  0.00000000000E+00  0.00000000000E+00 -0.85982090203E+03  0.19496447997E+04  0.17498065212E+04 0.  0.
        4    1    3    3  502    0 -0.11017993201E+03 -0.18403853640E+03  0.51515971523E+03  0.55803310421E+03  0.12699999809E+01 0.  1.
       -4    1    3    3    0  502  0.11017993201E+03  0.18403853640E+03 -0.13749806173E+04  0.13916116955E+04  0.12699999809E+01 0. -1.
</event>
<event>
 5   0  0.1308893E-04  0.1798582E+04  0.7818609E-02  0.8707054E-01
        1   -1    0    0  501    0  0.00000000000E+00  0.00000000000E+00  0.13294674577E+04  0.13294674578E+04  0.50400001928E-02 0.  1.
       -1   -1    0    0    0  501  0.00000000000E+00  0.00000000000E+00 -0.60830716605E+03  0.60830716607E+03  0.50400001928E-02 0. -1.
    10030    2    1    2    0    0  0.00000000000E+00  0.00000000000E+00  0.72116029170E+03  0.19377746238E+04  0.17985823102E+04 0.  0.
        4    1    3    3  502    0 -0.14657463333E+03 -0.87620903699E+03  0.21014405377E+03  0.91290116435E+03  0.12699999809E+01 0. -1.
       -4    1    3    3    0  502  0.14657463333E+03  0.87620903699E+03  0.51101623793E+03  0.10248734595E+04  0.12699999809E+01 0.  1.
</event>
<event>
 5   0  0.1308893E-04  0.1763715E+04  0.7818609E-02  0.8725837E-01
        1   -1    0    0  501    0  0.00000000000E+00  0.00000000000E+00  0.78517736917E+03  0.78517736918E+03  0.50400001928E-02 0.  1.
       -1   -1    0    0    0  501  0.00000000000E+00  0.00000000000E+00 -0.99044191915E+03  0.99044191916E+03  0.50400001928E-02 0. -1.
    10030    2    1    2    0    0  0.00000000000E+00  0.00000000000E+00 -0.20526454998E+03  0.17756192883E+04  0.17637149208E+04 0.  0.
        4    1    3    3  502    0 -0.83152721500E+03 -0.18421684872E+03 -0.33286252750E+03  0.91442464520E+03  0.12699999809E+01 0.  1.
       -4    1    3    3    0  502  0.83152721500E+03  0.18421684872E+03  0.12759797751E+03  0.86119464315E+03  0.12699999809E+01 0. -1.
</event>
<event>
 5   0  0.2393421E-04  0.1802577E+04  0.7818609E-02  0.8704930E-01
        2   -1    0    0  501    0  0.00000000000E+00  0.00000000000E+00  0.15386983111E+04  0.15386983111E+04  0.25500000920E-02 0. -1.
       -2   -1    0    0    0  501  0.00000000000E+00  0.00000000000E+00 -0.52792750894E+03  0.52792750895E+03  0.25500000920E-02 0.  1.
    10030    2    1    2    0    0  0.00000000000E+00  0.00000000000E+00  0.10107708022E+04  0.20666258201E+04  0.18025772288E+04 0.  0.
        5    1    3    3  502    0  0.50450611846E+03 -0.66695493498E+03  0.12008531509E+03  0.84486559982E+03  0.46999998093E+01 0. -1.
       -5    1    3    3    0  502 -0.50450611846E+03  0.66695493498E+03  0.89068548707E+03  0.12217602202E+04  0.46999998093E+01 0.  1.
</event>
<event>
 5   0  0.1308893E-04  0.1807245E+04  0.7818609E-02  0.8702456E-01
        1   -1    0    0  501    0  0.00000000000E+00  0.00000000000E+00  0.12567097946E+04  0.12567097947E+04  0.50400001928E-02 0. -1.
       -1   -1    0    0    0  501  0.00000000000E+00  0.00000000000E+00 -0.64973924089E+03  0.64973924091E+03  0.50400001928E-02 0.  1.
    10030    2    1    2    0    0  0.00000000000E+00  0.00000000000E+00  0.60697055375E+03  0.19064490356E+04  0.18072450504E+04 0.  0.
        4    1    3    3  502    0  0.52809538781E+03  0.73227528995E+03  0.34323969406E+03  0.96588143132E+03  0.12699999809E+01 0. -1.
       -4    1    3    3    0  502 -0.52809538781E+03 -0.73227528995E+03  0.26373085969E+03  0.94056760424E+03  0.12699999809E+01 0.  1.
</event>
<event>
 5   0  0.2431811E-04  0.1780852E+04  0.7818609E-02  0.8716549E-01
       -2   -1    0    0    0  501  0.00000000000E+00  0.00000000000E+00  0.78960062541E+03  0.78960062541E+03  0.25500000920E-02 0.  1.
        2   -1    0    0  501    0  0.00000000000E+00  0.00000000000E+00 -0.10041253783E+04  0.10041253783E+04  0.25500000920E-02 0. -1.
    10030    2    1    2    0    0  0.00000000000E+00  0.00000000000E+00 -0.21452475290E+03  0.17937260037E+04  0.17808515117E+04 0.  0.
        3    1    3    3  502    0 -0.25660778206E+03  0.22046516980E+03 -0.93687069460E+03  0.99608190100E+03  0.10100000352E+00 0. -1.
       -3    1    3    3    0  502  0.25660778206E+03 -0.22046516980E+03  0.72234594170E+03  0.79764410272E+03  0.10100000352E+00 0.  1.
</event>
<event>
 5   0  0.2431811E-04  0.1742073E+04  0.7818609E-02  0.8737726E-01
       -2   -1    0    0    0  501  0.00000000000E+00  0.00000000000E+00  0.49390827422E+03  0.49390827423E+03  0.25500000920E-02 0. -1.
        2   -1    0    0  501    0  0.00000000000E+00  0.00000000000E+00 -0.15361242770E+04  0.15361242770E+04  0.25500000920E-02 0.  1.
    10030    2    1    2    0    0  0.00000000000E+00  0.00000000000E+00 -0.10422160028E+04  0.20300325512E+04  0.17420728924E+04 0.  0.
        3    1    3    3  502    0 -0.73964107662E+03  0.45951394830E+03 -0.49551149859E+03  0.10018750652E+04  0.10100000352E+00 0. -1.
       -3    1    3    3    0  502  0.73964107662E+03 -0.45951394830E+03 -0.54670450417E+03  0.10281574860E+04  0.10100000352E+00 0.  1.
</event>
<event>
 5   0  0.1308893E-04  0.2023810E+04  0.7818609E-02  0.8595569E-01
        1   -1    0    0  501    0  0.00000000000E+00  0.00000000000E+00  0.19503026574E+04  0.19503026574E+04  0.50400001928E-02 0. -1.
       -1   -1    0    0    0  501  0.00000000000E+00  0.00000000000E+00 -0.52502183968E+03  0.52502183970E+03  0.50400001928E-02 0.  1.
    10030    2    1    2    0    0  0.00000000000E+00  0.00000000000E+00  0.14252808177E+04  0.24753244971E+04  0.20238097629E+04 0.  0.
        4    1    3    3  502    0  0.29202180252E+03  0.95402142158E+03  0.91918261633E+03  0.13565883315E+04  0.12699999809E+01 0.  1.
       -4    1    3    3    0  502 -0.29202180252E+03 -0.95402142158E+03  0.50609820139E+03  0.11187361656E+04  0.12699999809E+01 0. -1.
</event>
<event>
 5   0  0.1330225E-04  0.1803242E+04  0.7818609E-02  0.8704577E-01
        1   -1    0    0  501    0  0.00000000000E+00  0.00000000000E+00  0.11863732244E+04  0.11863732244E+04  0.50400001928E-02 0.  1.
       -1   -1    0    0    0  501  0.00000000000E+00  0.00000000000E+00 -0.68521503483E+03  0.68521503485E+03  0.50400001928E-02 0. -1.
    10030    2    1    2    0    0  0.00000000000E+00  0.00000000000E+00  0.50115818954E+03  0.18715882592E+04  0.18032423800E+04 0.  0.
        3    1    3    3  502    0  0.49288887148E+03  0.38499956558E+03  0.92462143617E+03  0.11162835283E+04  0.10100000352E+00 0.  1.
       -3    1    3    3    0  502 -0.49288887148E+03 -0.38499956558E+03 -0.42346324663E+03  0.75530473094E+03  0.10100000352E+00 0. -1.
</event>
<event>
 5   0  0.1308893E-04  0.1804565E+04  0.7818609E-02  0.8703876E-01
       -1   -1    0    0    0  501  0.00000000000E+00  0.00000000000E+00  0.50616312387E+03  0.50616312389E+03  0.50400001928E-02 0.  1.
        1   -1    0    0  501    0  0.00000000000E+00  0.00000000000E+00 -0.16084017011E+04  0.16084017011E+04  0.50400001928E-02 0. -1.
    10030    2    1    2    0    0  0.00000000000E+00  0.00000000000E+00 -0.11022385772E+04  0.21145648250E+04  0.18045649110E+04 0.  0.
        4    1    3    3  502    0 -0.26742304850E+03  0.85794772495E+03 -0.64575605633E+03  0.11066127971E+04  0.12699999809E+01 0. -1.
       -4    1    3    3    0  502  0.26742304850E+03 -0.85794772495E+03 -0.45648252086E+03  0.10079520278E+04  0.12699999809E+01 0.  1.
</event>
<event>
 5   0  0.2393421E-04  0.1789687E+04  0.7818609E-02  0.8711803E-01
        2   -1    0    0  501    0  0.00000000000E+00  0.00000000000E+00  0.23160297688E+04  0.23160297688E+04  0.25500000920E-02 0. -1.
       -2   -1    0    0    0  501  0.00000000000E+00  0.00000000000E+00 -0.34574023038E+03  0.34574023039E+03  0.25500000920E-02 0.  1.
    10030    2    1    2    0    0  0.00000000000E+00  0.00000000000E+00  0.19702895384E+04  0.26617699992E+04  0.17896867501E+04 0.  0.
        5    1    3    3  502    0 -0.22766986937E+03  0.37069575170E+03 -0.17786237398E+03  0.47000640828E+03  0.46999998093E+01 0.  1.
       -5    1    3    3    0  502  0.22766986937E+03 -0.37069575170E+03  0.21481519124E+04  0.21917635909E+04  0.46999998093E+01 0. -1.
</event>
<event>
 5   0  0.1308893E-04  0.1800453E+04  0.7818609E-02  0.8706059E-01
        1   -1    0    0  501    0  0.00000000000E+00  0.00000000000E+00  0.68810405852E+03  0.68810405853E+03  0.50400001928E-02 0.  1.
       -1   -1    0    0    0  501  0.00000000000E+00  0.00000000000E+00 -0.11777398491E+04  0.11777398492E+04  0.50400001928E-02 0. -1.
    10030    2    1    2    0    0  0.00000000000E+00  0.00000000000E+00 -0.48963579063E+03  0.18658439077E+04  0.18004527987E+04 0.  0.
        4    1    3    3  502    0  0.24327820134E+03 -0.65390506587E+03  0.34472830824E+03  0.77821291291E+03  0.12699999809E+01 0.  1.
       -4    1    3    3    0  502 -0.24327820134E+03  0.65390506587E+03 -0.83436409886E+03  0.10876309948E+04  0.12699999809E+01 0. -1.
</event>
<event>
 5   0  0.9144875E-05  0.1795522E+04  0.7818609E-02  0.8708685E-01
       -3   -1    0    0    0  501  0.00000000000E+00  0.00000000000E+00  0.12022850526E+04  0.12022850568E+04  0.10100000352E+00 0.  1.
        3   -1    0    0  501    0  0.00000000000E+00  0.00000000000E+00 -0.67036879037E+03  0.67036879798E+03  0.10100000352E+00 0. -1.
    10030    2    1    2    0    0  0.00000000000E+00  0.00000000000E+00  0.53191626223E+03  0.18726538548E+04  0.17955215259E+04 0.  0.
        3    1    3    3  502    0 -0.24069449607E+03  0.63439428122E+03  0.87907600678E+03  0.11104794372E+04  0.10100000352E+00 0. -1.
       -3    1    3    3    0  502  0.24069449607E+03 -0.63439428122E+03 -0.34715974454E+03  0.76217441765E+03  0.10100000352E+00 0.  1.
</event>
<event>
 5   0  0.1253925E-04  0.1823477E+04  0.7818609E-02  0.8693913E-01
        1   -1    0    0  501    0  0.00000000000E+00  0.00000000000E+00  0.15222150988E+04  0.15222150988E+04  0.50400001928E-02 0.  1.
       -1   -1    0    0    0  501  0.00000000000E+00  0.00000000000E+00 -0.54609070046E+03  0.54609070048E+03  0.50400001928E-02 0. -1.
    10030    2    1    2    0    0  0.00000000000E+00  0.00000000000E+00  0.97612439837E+03  0.20683057993E+04  0.18234774576E+04 0.  0.
        2    1    3    3  502    0 -0.30704748016E+02  0.28199709223E+03 -0.49476500204E+03  0.57031355308E+03  0.25500000920E-02 0. -1.
       -2    1    3    3    0  502  0.30704748016E+02 -0.28199709223E+03  0.14708894004E+04  0.14979922462E+04  0.25500000920E-02 0.  1.
</event>
<event>
 5   0  0.1239119E-04  0.1793402E+04  0.7818609E-02  0.8709816E-01
        1   -1    0    0  501    0  0.00000000000E+00  0.00000000000E+00  0.89051116284E+03  0.89051116285E+03  0.50400001928E-02 0. -1.
       -1   -1    0    0    0  501  0.00000000000E+00  0.00000000000E+00 -0.90293392423E+03  0.90293392425E+03  0.50400001928E-02 0.  1.
    10030    2    1    2    0    0  0.00000000000E+00  0.00000000000E+00 -0.12422761394E+02  0.17934450871E+04  0.17934020618E+04 0.  0.
        5    1    3    3  502    0 -0.54215087652E+01  0.20976628483E+03 -0.87802318913E+03  0.90276137359E+03  0.46999998093E+01 0.  1.
       -5    1    3    3    0  502  0.54215087652E+01 -0.20976628483E+03  0.86560042773E+03  0.89068371350E+03  0.46999998093E+01 0. -1.
</event>
<event>
 5   0  0.2569405E-04  0.1821131E+04  0.7818609E-02  0.8695142E-01
       -2   -1    0    0    0  501  0.00000000000E+00  0.00000000000E+00  0.82616698805E+03  0.82616698806E+03  0.25500000920E-02 0. -1.
        2   -1    0    0  501    0  0.00000000000E+00  0.00000000000E+00 -0.10035862821E+04  0.10035862821E+04  0.25500000920E-02 0.  1.
    10030    2    1    2    0    0  0.00000000000E+00  0.00000000000E+00 -0.17741929402E+03  0.18297532701E+04  0.18211313582E+04 0.  0.
        2    1    3    3  502    0 -0.59334248010E+03  0.66401479255E+03  0.10234558690E+03  0.89635124955E+03  0.25500000920E-02 0.  1.
       -2    1    3    3    0  502  0.59334248010E+03 -0.66401479255E+03 -0.27976488091E+03  0.93340202057E+03  0.25500000920E-02 0. -1.
</event>
<event>
 5   0  0.2417106E-04  0.1818584E+04  0.7818609E-02  0.8696479E-01
        2   -1    0    0  501    0  0.00000000000E+00  0.00000000000E+00  0.69354798360E+03  0.69354798361E+03  0.25500000920E-02 0. -1.
       -2   -1    0    0    0  501  0.00000000000E+00  0.00000000000E+00 -0.11921478427E+04  0.11921478427E+04  0.25500000920E-02 0.  1.
    10030    2    1    2    0    0  0.00000000000E+00  0.00000000000E+00 -0.49859985909E+03  0.18856958263E+04  0.18185837704E+04 0.  0.
        4    1    3    3  502    0 -0.16743365235E+03 -0.66024853720E+03 -0.87389804876E+03  0.11079989040E+04  0.12699999809E+01 0.  1.
       -4    1    3    3    0  502  0.16743365235E+03  0.66024853720E+03  0.37529818967E+03  0.77769692226E+03  0.12699999809E+01 0. -1.
</event>
<event>
 5   0  0.2431811E-04  0.1799427E+04  0.7818609E-02  0.8706604E-01
        2   -1    0    0  501    0  0.00000000000E+00  0.00000000000E+00  0.15084388517E+04  0.15084388517E+04  0.25500000920E-02 0. -1.
       -2   -1    0    0    0  501  0.00000000000E+00  0.00000000000E+00 -0.53663737702E+03  0.53663737702E+03  0.25500000920E-02 0.  1.
    10030    2    1    2    0    0  0.00000000000E+00  0.00000000000E+00  0.97180147467E+03  0.20450762287E+04  0.17994273186E+04 0.  0.
        3    1    3    3  502    0  0.36964869228E+03 -0.17318650835E+03  0.13971356094E+04  0.14555485714E+04  0.10100000352E+00 0. -1.
       -3    1    3    3    0  502 -0.36964869228E+03  0.17318650835E+03 -0.42533413474E+03  0.58952765733E+03  0.10100000352E+00 0.  1.
</event>
<event>
 5   0  0.1308893E-04  0.1808404E+04  0.7818609E-02  0.8701843E-01
        1   -1    0    0  501    0  0.00000000000E+00  0.00000000000E+00  0.14323686780E+04  0.14323686780E+04  0.50400001928E-02 0. -1.
       -1   -1    0    0    0  501  0.00000000000E+00  0.00000000000E+00 -0.57078977688E+03  0.57078977690E+03  0.50400001928E-02 0.  1.
    10030    2    1    2    0    0  0.00000000000E+00  0.00000000000E+00  0.86157890108E+03  0.20031584549E+04  0.18084041563E+04 0.  0.
        4    1    3    3  502    0  0.75007749543E+02 -0.53864533133E+03  0.12309516236E+04  0.13457371467E+04  0.12699999809E+01 0. -1.
       -4    1    3    3    0  502 -0.75007749543E+02  0.53864533133E+03 -0.36937272249E+03  0.65742130820E+03  0.12699999809E+01 0.  1.
</event>
<event>
 5   0  0.1330225E-04  0.1807959E+04  0.7818609E-02  0.8702078E-01
       -1   -1    0    0    0  501  0.00000000000E+00  0.00000000000E+00  0.43415942116E+03  0.43415942119E+03  0.50400001928E-02 0. -1.
        1   -1    0    0  501    0  0.00000000000E+00  0.00000000000E+00 -0.18822089786E+04  0.18822089786E+04  0.50400001928E-02 0.  1.
    10030    2    1    2    0    0  0.00000000000E+00  0.00000000000E+00 -0.14480495575E+04  0.23163683998E+04  0.18079588056E+04 0.  0.
        3    1    3    3  502    0 -0.72523980501E+03 -0.42865856333E+03 -0.11440139540E+04  0.14207353293E+04  0.10100000352E+00 0.  1.
       -3    1    3    3    0  502  0.72523980501E+03  0.42865856333E+03 -0.30403560346E+03  0.89563307055E+03  0.10100000352E+00 0. -1.
</event>
<event>
 5   0  0.1239119E-04  0.1801107E+04  0.7818609E-02  0.8705711E-01
       -1   -1    0    0    0  501  0.00000000000E+00  0.00000000000E+00  0.11325156032E+04  0.11325156032E+04  0.50400001928E-02 0. -1.
        1   -1    0    0  501    0  0.00000000000E+00  0.00000000000E+00 -0.71610181612E+03  0.71610181614E+03  0.50400001928E-02 0.  1.
    10030    2    1    2    0    0  0.00000000000E+00  0.00000000000E+00  0.41641378703E+03  0.18486174193E+04  0.18011068599E+04 0.  0.
        5    1    3    3  502    0 -0.40905962042E+03 -0.24417297695E+03 -0.57616671514E+03  0.74762316000E+03  0.46999998093E+01 0.  1.
       -5    1    3    3    0  502  0.40905962042E+03  0.24417297695E+03  0.99258050217E+03  0.11009942593E+04  0.46999998093E+01 0. -1.
</event>
<event>
 5   0  0.1239119E-04  0.1781059E+04  0.7818609E-02  0.8716438E-01
       -1   -1    0    0    0  501  0.00000000000E+00  0.00000000000E+00  0.46927593469E+03  0.46927593472E+03  0.50400001928E-02 0. -1.
        1   -1    0    0  501    0  0.00000000000E+00  0.00000000000E+00 -0.16899278678E+04  0.16899278678E+04  0.50400001928E-02 0.  1.
    10030    2    1    2    0    0  0.00000000000E+00  0.00000000000E+00 -0.12206519331E+04  0.21592038025E+04  0.17810586512E+04 0.  0.
        5    1    3    3  502    0  0.41330415454E+02 -0.69595583266E+03  0.61342031723E+02  0.69989117662E+03  0.46999998093E+01 0.  1.
       -5    1    3    3    0  502 -0.41330415454E+02  0.69595583266E+03 -0.12819939648E+04  0.14593126259E+04  0.46999998093E+01 0. -1.
</event>
<event>
 5   0  0.2569405E-04  0.1866652E+04  0.7818609E-02  0.8671636E-01
       -2   -1    0    0    0  501  0.00000000000E+00  0.00000000000E+00  0.33006535993E+03  0.33006535994E+03  0.25500000920E-02 0. -1.
        2   -1    0    0  501    0  0.00000000000E+00  0.00000000000E+00 -0.26391667605E+04  0.26391667605E+04  0.25500000920E-02 0.  1.
    10030    2    1    2    0    0  0.00000000000E+00  0.00000000000E+00 -0.23091014005E+04  0.29692321204E+04  0.18666521119E+04 0.  0.
        2    1    3    3  502    0 -0.30069335694E+03  0.52335891916E+03 -0.22869223469E+04  0.23652346340E+04  0.25500000920E-02 0.  1.
       -2    1    3    3    0  502  0.30069335694E+03 -0.52335891916E+03 -0.22179053670E+02  0.60399748642E+03  0.25500000920E-02 0. -1.
</event>
<event>
 5   0  0.2569405E-04  0.1775701E+04  0.7818609E-02  0.8719329E-01
       -2   -1    0    0    0  501  0.00000000000E+00  0.00000000000E+00  0.67538160125E+03  0.67538160126E+03  0.25500000920E-02 0.  1.
        2   -1    0    0  501    0  0.00000000000E+00  0.00000000000E+00 -0.11671595224E+04  0.11671595224E+04  0.25500000920E-02 0. -1.
    10030    2    1    2    0    0  0.00000000000E+00  0.00000000000E+00 -0.49177792117E+03  0.18425411237E+04  0.17757005009E+04 0.  0.
        2    1    3    3  502    0 -0.64381076932E+03  0.18399712959E+03 -0.85087136187E+03  0.10827415781E+04  0.25500000920E-02 0. -1.
       -2    1    3    3    0  502  0.64381076932E+03 -0.18399712959E+03  0.35909344070E+03  0.75979954563E+03  0.25500000920E-02 0.  1.
</event>
<event>
 5   0  0.1330225E-04  0.1811128E+04  0.7818609E-02  0.8700404E-01
       -1   -1    0    0    0  501  0.00000000000E+00  0.00000000000E+00  0.78494004431E+03  0.78494004433E+03  0.50400001928E-02 0. -1.
        1   -1    0    0  501    0  0.00000000000E+00  0.00000000000E+00 -0.10447248186E+04  0.10447248186E+04  0.50400001928E-02 0.  1.
    10030    2    1    2    0    0  0.00000000000E+00  0.00000000000E+00 -0.25978477426E+03  0.18296648629E+04  0.18111282068E+04 0.  0.
        3    1    3    3  502    0  0.30435813369E+02  0.59398341524E+03  0.55996097259E+03  0.81688367430E+03  0.10100000352E+00 0. -1.
       -3    1    3    3    0  502 -0.30435813369E+02 -0.59398341524E+03 -0.81974574685E+03  0.10127811886E+04  0.10100000352E+00 0.  1.
</event>
<event>
 5   0  0.1214723E-04  0.1757270E+04  0.7818609E-02  0.8729359E-01
       -1   -1    0    0    0  501  0.00000000000E+00  0.00000000000E+00  0.75203562184E+03  0.75203562186E+03  0.50400001928E-02 0. -1.
        1   -1    0    0  501    0  0.00000000000E+00  0.00000000000E+00 -0.10265467790E+04  0.10265467790E+04  0.50400001928E-02 0.  1.
    10030    2    1    2    0    0  0.00000000000E+00  0.00000000000E+00 -0.27451115711E+03  0.17785824008E+04  0.17572703210E+04 0.  0.
        1    1    3    3  502    0 -0.79403661051E+03  0.12708448140E+03  0.22109366442E+03  0.83398262135E+03  0.50400001928E-02 0. -1.
       -1    1    3    3    0  502  0.79403661051E+03 -0.12708448140E+03 -0.49560482153E+03  0.94459977948E+03  0.50400001928E-02 0.  1.
</event>
<event>
 5   0  0.2550616E-04  0.1797022E+04  0.7818609E-02  0.8707885E-01
        2   -1    0    0  501    0  0.00000000000E+00  0.00000000000E+00  0.14486810164E+04  0.14486810165E+04  0.25500000920E-02 0. -1.
       -2   -1    0    0    0  501  0.00000000000E+00  0.00000000000E+00 -0.55728074833E+03  0.55728074833E+03  0.25500000920E-02 0.  1.
    10030    2    1    2    0    0  0.00000000000E+00  0.00000000000E+00  0.89140026812E+03  0.20059617648E+04  0.17970220265E+04 0.  0.
        1    1    3    3  502    0 -0.37168890320E+03 -0.46273184160E+03  0.11987056580E+04  0.13375980908E+04  0.50400001928E-02 0. -1.
       -1    1    3    3    0  502  0.37168890320E+03  0.46273184160E+03 -0.30730538989E+03  0.66836367396E+03  0.50400001928E-02 0.  1.
</event>
<event>
 5   0  0.2393421E-04  0.1726398E+04  0.7818609E-02  0.8746450E-01
       -2   -1    0    0    0  501  0.00000000000E+00  0.00000000000E+00  0.81996844455E+03  0.81996844455E+03  0.25500000920E-02 0.  1.
        2   -1    0    0  501    0  0.00000000000E+00  0.00000000000E+00 -0.90870832715E+03  0.90870832715E+03  0.25500000920E-02 0. -1.
    10030    2    1    2    0    0  0.00000000000E+00  0.00000000000E+00 -0.88739882596E+02  0.17286767717E+04  0.17263975829E+04 0.  0.
        5    1    3    3  502    0  0.51038445093E+02 -0.49801311268E+03  0.65974264550E+03  0.82819347472E+03  0.46999998093E+01 0.  1.
       -5    1    3    3    0  502 -0.51038445093E+02  0.49801311268E+03 -0.74848252810E+03  0.90048329698E+03  0.46999998093E+01 0. -1.
</event>
<event>
 5   0  0.1253925E-04  0.1735666E+04  0.7818609E-02  0.8741280E-01
        1   -1    0    0  501    0  0.00000000000E+00  0.00000000000E+00  0.57297735738E+03  0.57297735740E+03  0.50400001928E-02 0. -1.
       -1   -1    0    0    0  501  0.00000000000E+00  0.00000000000E+00 -0.13144225842E+04  0.13144225842E+04  0.50400001928E-02 0.  1.
    10030    2    1    2    0    0  0.00000000000E+00  0.00000000000E+00 -0.74144522685E+03  0.18873999416E+04  0.17356663030E+04 0.  0.
        2    1    3    3  502    0  0.60866703427E+03  0.48534635808E+03  0.46339457137E+02  0.77986152053E+03  0.25500000920E-02 0. -1.
       -2    1    3    3    0  502 -0.60866703427E+03 -0.48534635808E+03 -0.78778468399E+03  0.11075384211E+04  0.25500000920E-02 0.  1.
</event>
<event>
 5   0  0.1253925E-04  0.1806863E+04  0.7818609E-02  0.8702658E-01
       -1   -1    0    0    0  501  0.00000000000E+00  0.00000000000E+00  0.64462629323E+03  0.64462629325E+03  0.50400001928E-02 0. -1.
        1   -1    0    0  501    0  0.00000000000E+00  0.00000000000E+00 -0.12661417969E+04  0.12661417969E+04  0.50400001928E-02 0.  1.
    10030    2    1    2    0    0  0.00000000000E+00  0.00000000000E+00 -0.62151550363E+03  0.19107680901E+04  0.18068627986E+04 0.  0.
        2    1    3    3  502    0  0.75878592841E+03 -0.44549524923E+03 -0.94120778180E+02  0.88491854039E+03  0.25500000920E-02 0.  1.
       -2    1    3    3    0  502 -0.75878592841E+03  0.44549524923E+03 -0.52739472545E+03  0.10258495497E+04  0.25500000920E-02 0. -1.
</event>
<event>
 5   0  0.1330225E-04  0.1793986E+04  0.7818609E-02  0.8709504E-01
       -1   -1    0    0    0  501  0.00000000000E+00  0.00000000000E+00  0.73584890945E+03  0.73584890947E+03  0.50400001928E-02 0. -1.
        1   -1    0    0  501    0  0.00000000000E+00  0.00000000000E+00 -0.10934260522E+04  0.10934260522E+04  0.50400001928E-02 0.  1.
    10030    2    1    2    0    0  0.00000000000E+00  0.00000000000E+00 -0.35757714275E+03  0.18292749617E+04  0.17939859176E+04 0.  0.
        3    1    3    3  502    0 -0.67332048853E+03  0.13158237689E+03  0.41043816929E+03  0.79945850623E+03  0.10100000352E+00 0. -1.
       -3    1    3    3    0  502  0.67332048853E+03 -0.13158237689E+03 -0.76801531204E+03  0.10298164554E+04  0.10100000352E+00 0.  1.
</event>
<event>
 5   0  0.2431811E-04  0.1861349E+04  0.7818609E-02  0.8674338E-01
       -2   -1    0    0    0  501  0.00000000000E+00  0.00000000000E+00  0.81190038870E+03  0.81190038871E+03  0.25500000920E-02 0.  1.
        2   -1    0    0  501    0  0.00000000000E+00  0.00000000000E+00 -0.10668243056E+04  0.10668243056E+04  0.25500000920E-02 0. -1.
    10030    2    1    2    0    0  0.00000000000E+00  0.00000000000E+00 -0.25492391685E+03  0.18787246943E+04  0.18613490466E+04 0.  0.
        3    1    3    3  502    0  0.12588222291E+03 -0.86052058556E+02 -0.10541302871E+04  0.10651018558E+04  0.10100000352E+00 0. -1.
       -3    1    3    3    0  502 -0.12588222291E+03  0.86052058556E+02  0.79920637025E+03  0.81362283847E+03  0.10100000352E+00 0.  1.
</event>
<event>
 5   0  0.1239119E-04  0.1816042E+04  0.7818609E-02  0.8697815E-01
        1   -1    0    0  501    0  0.00000000000E+00  0.00000000000E+00  0.24754217898E+04  0.24754217898E+04  0.50400001928E-02 0.  1.
       -1   -1    0    0    0  501  0.00000000000E+00  0.00000000000E+00 -0.33307549227E+03  0.33307549231E+03  0.50400001928E-02 0. -1.
    10030    2    1    2    0    0  0.00000000000E+00  0.00000000000E+00  0.21423462975E+04  0.28084972821E+04  0.18160422146E+04 0.  0.
        5    1    3    3  502    0  0.31094124398E+02  0.12754151521E+03  0.24606495316E+04  0.24641533820E+04  0.46999998093E+01 0.  1.
       -5    1    3    3    0  502 -0.31094124398E+02 -0.12754151521E+03 -0.31830323411E+03  0.34434390007E+03  0.46999998093E+01 0. -1.
</event>
<event>
 5   0  0.1253925E-04  0.1565442E+04  0.7818609E-02  0.8842064E-01
        1   -1    0    0  501    0  0.00000000000E+00  0.00000000000E+00  0.13863553107E+04  0.13863553107E+04  0.50400001928E-02 0. -1.
       -1   -1    0    0    0  501  0.00000000000E+00  0.00000000000E+00 -0.44191588182E+03  0.44191588184E+03  0.50400001928E-02 0.  1.
    10030    2    1    2    0    0  0.00000000000E+00  0.00000000000E+00  0.94443942887E+03  0.18282711925E+04  0.15654423396E+04 0.  0.
        2    1    3    3  502    0  0.64194104560E+03 -0.44487680005E+03  0.53232664502E+03  0.94518534175E+03  0.25500000920E-02 0. -1.
       -2    1    3    3    0  502 -0.64194104560E+03  0.44487680005E+03  0.41211278384E+03  0.88308585079E+03  0.25500000920E-02 0.  1.
</event>
<event>
 5   0  0.2431811E-04  0.1804797E+04  0.7818609E-02  0.8703753E-01
        2   -1    0    0  501    0  0.00000000000E+00  0.00000000000E+00  0.11216154317E+04  0.11216154317E+04  0.25500000920E-02 0.  1.
       -2   -1    0    0    0  501  0.00000000000E+00  0.00000000000E+00 -0.72602707436E+03  0.72602707437E+03  0.25500000920E-02 0. -1.
    10030    2    1    2    0    0  0.00000000000E+00  0.00000000000E+00  0.39558835731E+03  0.18476425060E+04  0.18047971303E+04 0.  0.
        3    1    3    3  502    0 -0.61058484096E+03 -0.54217344326E+03  0.59104519923E+03  0.10080180198E+04  0.10100000352E+00 0.  1.
       -3    1    3    3    0  502  0.61058484096E+03  0.54217344326E+03 -0.19545684192E+03  0.83962448621E+03  0.10100000352E+00 0. -1.
</event>
<event>
 5   0  0.2393421E-04  0.1809555E+04  0.7818609E-02  0.8701235E-01
        2   -1    0    0  501    0  0.00000000000E+00  0.00000000000E+00  0.70271216599E+03  0.70271216600E+03  0.25500000920E-02 0. -1.
       -2   -1    0    0    0  501  0.00000000000E+00  0.00000000000E+00 -0.11649472485E+04  0.11649472485E+04  0.25500000920E-02 0.  1.
    10030    2    1    2    0    0  0.00000000000E+00  0.00000000000E+00 -0.46223508255E+03  0.18676594145E+04  0.18095553092E+04 0.  0.
        5    1    3    3  502    0  0.17243501202E+03  0.15842036047E+02  0.68543746080E+03  0.70698755728E+03  0.46999998093E+01 0. -1.
       -5    1    3    3    0  502 -0.17243501202E+03 -0.15842036047E+02 -0.11476725434E+04  0.11606718573E+04  0.46999998093E+01 0.  1.
</event>
<event>
 5   0  0.2393421E-04  0.1837543E+04  0.7818609E-02  0.8686586E-01
       -2   -1    0    0    0  501  0.00000000000E+00  0.00000000000E+00  0.58304771111E+03  0.58304771111E+03  0.25500000920E-02 0. -1.
        2   -1    0    0  501    0  0.00000000000E+00  0.00000000000E+00 -0.14478072287E+04  0.14478072287E+04  0.25500000920E-02 0.  1.
    10030    2    1    2    0    0  0.00000000000E+00  0.00000000000E+00 -0.86475951755E+03  0.20308549398E+04  0.18375425881E+04 0.  0.
        5    1    3    3  502    0  0.83120023494E+03  0.21443911375E+03 -0.79430692483E+03  0.11695398860E+04  0.46999998093E+01 0.  1.
       -5    1    3    3    0  502 -0.83120023494E+03 -0.21443911375E+03 -0.70452592725E+02  0.86131505379E+03  0.46999998093E+01 0. -1.
</event>
<event>
 5   0  0.2393421E-04  0.1809344E+04  0.7818609E-02  0.8701346E-01
       -2   -1    0    0    0  501  0.00000000000E+00  0.00000000000E+00  0.56172464762E+03  0.56172464762E+03  0.25500000920E-02 0.  1.
        2   -1    0    0  501    0  0.00000000000E+00  0.00000000000E+00 -0.14569976233E+04  0.14569976233E+04  0.25500000920E-02 0. -1.
    10030    2    1    2    0    0  0.00000000000E+00  0.00000000000E+00 -0.89527297571E+03  0.20187222709E+04  0.18093440541E+04 0.  0.
        5    1    3    3  502    0 -0.31765723675E+03  0.66036888919E+03  0.14423846443E+03  0.74687349296E+03  0.46999998093E+01 0.  1.
       -5    1    3    3    0  502  0.31765723675E+03 -0.66036888919E+03 -0.10395114401E+04  0.12718487780E+04  0.46999998093E+01 0. -1.
</event>
<event>
 5   0  0.2569405E-04  0.1806303E+04  0.7818609E-02  0.8702955E-01
       -2   -1    0    0    0  501  0.00000000000E+00  0.00000000000E+00  0.54319673596E+03  0.54319673596E+03  0.25500000920E-02 0. -1.
        2   -1    0    0  501    0  0.00000000000E+00  0.00000000000E+00 -0.15016341567E+04  0.15016341567E+04  0.25500000920E-02 0.  1.
    10030    2    1    2    0    0  0.00000000000E+00  0.00000000000E+00 -0.95843742077E+03  0.20448308927E+04  0.18063031557E+04 0.  0.
        2    1    3    3  502    0 -0.14930667118E+03  0.88679071619E+03 -0.57388241506E+03  0.10667854905E+04  0.25500000920E-02 0.  1.
       -2    1    3    3    0  502  0.14930667118E+03 -0.88679071619E+03 -0.38455500572E+03  0.97804540222E+03  0.25500000920E-02 0. -1.
</event>
<event>
 5   0  0.2417106E-04  0.1800872E+04  0.7818609E-02  0.8705836E-01
       -2   -1    0    0    0  501  0.00000000000E+00  0.00000000000E+00  0.30291675870E+03  0.30291675871E+03  0.25500000920E-02 0. -1.
        2   -1    0    0  501    0  0.00000000000E+00  0.00000000000E+00 -0.26765940221E+04  0.26765940221E+04  0.25500000920E-02 0.  1.
    10030    2    1    2    0    0  0.00000000000E+00  0.00000000000E+00 -0.23736772634E+04  0.29795107808E+04  0.18008722171E+04 0.  0.
        4    1    3    3  502    0  0.73127325978E+03 -0.41336956419E+03 -0.17233313124E+04  0.19171612875E+04  0.12699999809E+01 0.  1.
       -4    1    3    3    0  502 -0.73127325978E+03  0.41336956419E+03 -0.65034595097E+03  0.10623494933E+04  0.12699999809E+01 0. -1.
</event>
<event>
 5   0  0.2431811E-04  0.1609882E+04  0.7818609E-02  0.8814500E-01
       -2   -1    0    0    0  501  0.00000000000E+00  0.00000000000E+00  0.84883457508E+03  0.84883457508E+03  0.25500000920E-02 0. -1.
        2   -1    0    0  501    0  0.00000000000E+00  0.00000000000E+00 -0.76331724614E+03  0.76331724615E+03  0.25500000920E-02 0.  1.
    10030    2    1    2    0    0  0.00000000000E+00  0.00000000000E+00  0.85517328938E+02  0.16121518212E+04  0.16098820706E+04 0.  0.
        3    1    3    3  502    0  0.17585888362E+03 -0.96693614174E+02  0.82337938687E+03  0.84748429301E+03  0.10100000352E+00 0. -1.
       -3    1    3    3    0  502 -0.17585888362E+03  0.96693614174E+02 -0.73786205794E+03  0.76466752822E+03  0.10100000352E+00 0.  1.
</event>
<event>
 5   0  0.2393421E-04  0.1790743E+04  0.7818609E-02  0.8711238E-01
        2   -1    0    0  501    0  0.00000000000E+00  0.00000000000E+00  0.86408159609E+03  0.86408159610E+03  0.25500000920E-02 0.  1.
       -2   -1    0    0    0  501  0.00000000000E+00  0.00000000000E+00 -0.92779462763E+03  0.92779462763E+03  0.25500000920E-02 0. -1.
    10030    2    1    2    0    0  0.00000000000E+00  0.00000000000E+00 -0.63713031534E+02  0.17918762237E+04  0.17907431560E+04 0.  0.
        5    1    3    3  502    0  0.55248758549E+03 -0.31602380161E+03 -0.66198077726E+03  0.91834319008E+03  0.46999998093E+01 0. -1.
       -5    1    3    3    0  502 -0.55248758549E+03  0.31602380161E+03  0.59826774572E+03  0.87353303365E+03  0.46999998093E+01 0.  1.
</event>
<event>
 5   0  0.2417106E-04  0.1929376E+04  0.7818609E-02  0.8640371E-01
       -2   -1    0    0    0  501  0.00000000000E+00  0.00000000000E+00  0.10021327351E+04  0.10021327351E+04  0.25500000920E-02 0. -1.
        2   -1    0    0  501    0  0.00000000000E+00  0.00000000000E+00 -0.92864214180E+03  0.92864214180E+03  0.25500000920E-02 0.  1.
    10030    2    1    2    0    0  0.00000000000E+00  0.00000000000E+00  0.73490593276E+02  0.19307748769E+04  0.19293757431E+04 0.  0.
        4    1    3    3  502    0  0.40289563308E+02  0.60508197073E+03 -0.71404781429E+03  0.93681019113E+03  0.12699999809E+01 0.  1.
       -4    1    3    3    0  502 -0.40289563308E+02 -0.60508197073E+03  0.78753840757E+03  0.99396468575E+03  0.12699999809E+01 0. -1.
</event>
<event>
 5   0  0.9144875E-05  0.1809638E+04  0.7818609E-02  0.8701191E-01
       -3   -1    0    0    0  501  0.00000000000E+00  0.00000000000E+00  0.10567949701E+04  0.10567949749E+04  0.10100000352E+00 0.  1.
        3   -1    0    0  501    0  0.00000000000E+00  0.00000000000E+00 -0.77469886055E+03  0.77469886714E+03  0.10100000352E+00 0. -1.
    10030    2    1    2    0    0  0.00000000000E+00  0.00000000000E+00  0.28209610953E+03  0.18314938420E+04  0.18096384939E+04 0.  0.
        4    1    3    3  502    0  0.17068694551E+03  0.88856556076E+03  0.13733391358E+03  0.91517484988E+03  0.12699999809E+01 0.  1.
       -4    1    3    3    0  502 -0.17068694551E+03 -0.88856556076E+03  0.14476219595E+03  0.91631899217E+03  0.12699999809E+01 0. -1.
</event>
<event>
 5   0  0.2550616E-04  0.1783649E+04  0.7818609E-02  0.8715043E-01
       -2   -1    0    0    0  501  0.00000000000E+00  0.00000000000E+00  0.31842852395E+03  0.31842852396E+03  0.25500000920E-02 0.  1.
        2   -1    0    0  501    0  0.00000000000E+00  0.00000000000E+00 -0.24977371576E+04  0.24977371576E+04  0.25500000920E-02 0. -1.
    10030    2    1    2    0    0  0.00000000000E+00  0.00000000000E+00 -0.21793086337E+04  0.28161656816E+04  0.17836487954E+04 0.  0.
        1    1    3    3  502    0 -0.28640278235E+03 -0.78568443224E+02 -0.24173697362E+04  0.24355442915E+04  0.50400001928E-02 0. -1.
       -1    1    3    3    0  502  0.28640278235E+03  0.78568443224E+02  0.23806110258E+03  0.38062139009E+03  0.50400001928E-02 0.  1.
</event>
<event>
 5   0  0.1253925E-04  0.1732193E+04  0.7818609E-02  0.8743213E-01
        1   -1    0    0  501    0  0.00000000000E+00  0.00000000000E+00  0.67041176737E+03  0.67041176739E+03  0.50400001928E-02 0. -1.
       -1   -1    0    0    0  501  0.00000000000E+00  0.00000000000E+00 -0.11188996847E+04  0.11188996847E+04  0.50400001928E-02 0.  1.
    10030    2    1    2    0    0  0.00000000000E+00  0.00000000000E+00 -0.44848791728E+03  0.17893114521E+04  0.17321934247E+04 0.  0.
        2    1    3    3  502    0  0.33923031716E+03 -0.35659863395E+03 -0.96040308810E+03  0.10791727783E+04  0.25500000920E-02 0.  1.
       -2    1    3    3    0  502 -0.33923031716E+03  0.35659863395E+03  0.51191517082E+03  0.71013867374E+03  0.25500000920E-02 0. -1.
</event>
<event>
 5   0  0.2431811E-04  0.1762985E+04  0.7818609E-02  0.8726235E-01
        2   -1    0    0  501    0  0.00000000000E+00  0.00000000000E+00  0.12573773351E+04  0.12573773351E+04  0.25500000920E-02 0. -1.
       -2   -1    0    0    0  501  0.00000000000E+00  0.00000000000E+00 -0.61797615049E+03  0.61797615049E+03  0.25500000920E-02 0.  1.
    10030    2    1    2    0    0  0.00000000000E+00  0.00000000000E+00  0.63940118461E+03  0.18753534856E+04  0.17629852016E+04 0.  0.
        3    1    3    3  502    0  0.24133135085E+03 -0.75330964095E+02 -0.57858376873E+03  0.63140697074E+03  0.10100000352E+00 0.  1.
       -3    1    3    3    0  502 -0.24133135085E+03  0.75330964095E+02  0.12179849533E+04  0.12439465149E+04  0.10100000352E+00 0. -1.
</event>
<event>
 5   0  0.1308893E-04  0.1813015E+04  0.7818609E-02  0.8699409E-01
        1   -1    0    0  501    0  0.00000000000E+00  0.00000000000E+00  0.91966067212E+03  0.91966067213E+03  0.50400001928E-02 0.  1.
       -1   -1    0    0    0  501  0.00000000000E+00  0.00000000000E+00 -0.89354283001E+03  0.89354283003E+03  0.50400001928E-02 0. -1.
    10030    2    1    2    0    0  0.00000000000E+00  0.00000000000E+00  0.26117842105E+02  0.18132035022E+04  0.18130153884E+04 0.  0.
        4    1    3    3  502    0 -0.59602156764E+02  0.44174398874E+02  0.91661865070E+03  0.91961685409E+03  0.12699999809E+01 0.  1.
       -4    1    3    3    0  502  0.59602156764E+02 -0.44174398874E+02 -0.89050080860E+03  0.89358664808E+03  0.12699999809E+01 0. -1.
</event>
<event>
 5   0  0.1214723E-04  0.1797634E+04  0.7818609E-02  0.8707559E-01
        1   -1    0    0  501    0  0.00000000000E+00  0.00000000000E+00  0.11111542591E+04  0.11111542591E+04  0.50400001928E-02 0. -1.
       -1   -1    0    0    0  501  0.00000000000E+00  0.00000000000E+00 -0.72705656053E+03  0.72705656054E+03  0.50400001928E-02 0.  1.
    10030    2    1    2    0    0  0.00000000000E+00  0.00000000000E+00  0.38409769860E+03  0.18382108197E+04  0.17976339938E+04 0.  0.
        1    1    3    3  502    0  0.31560109259E+03 -0.21067686044E+03  0.10252308644E+04  0.10932004000E+04  0.50400001928E-02 0. -1.
       -1    1    3    3    0  502 -0.31560109259E+03  0.21067686044E+03 -0.64113316579E+03  0.74501041971E+03  0.50400001928E-02 0.  1.
</event>
<event>
 5   0  0.1239119E-04  0.1787166E+04  0.7818609E-02  0.8713154E-01
        1   -1    0    0  501    0  0.00000000000E+00  0.00000000000E+00  0.16956254203E+04  0.16956254203E+04  0.50400001928E-02 0. -1.
       -1   -1    0    0    0  501  0.00000000000E+00  0.00000000000E+00 -0.47091226077E+03  0.47091226079E+03  0.50400001928E-02 0.  1.
    10030    2    1    2    0    0  0.00000000000E+00  0.00000000000E+00  0.12247131595E+04  0.21665376811E+04  0.17871662487E+04 0.  0.
        5    1    3    3  502    0  0.43955769989E+03 -0.67080802857E+03  0.10900520478E+04  0.13533033436E+04  0.46999998093E+01 0. -1.
       -5    1    3    3    0  502 -0.43955769989E+03  0.67080802857E+03  0.13466111169E+03  0.81323433753E+03  0.46999998093E+01 0.  1.
</event>
<event>
 5   0  0.2417106E-04  0.1804117E+04  0.7818609E-02  0.8704113E-01
       -2   -1    0    0    0  501  0.00000000000E+00  0.00000000000E+00  0.10541843274E+04  0.10541843274E+04  0.25500000920E-02 0.  1.
        2   -1    0    0  501    0  0.00000000000E+00  0.00000000000E+00 -0.77188506722E+03  0.77188506723E+03  0.25500000920E-02 0. -1.
    10030    2    1    2    0    0  0.00000000000E+00  0.00000000000E+00  0.28229926019E+03  0.18260693946E+04  0.18041165599E+04 0.  0.
        4    1    3    3  502    0  0.55111328236E+03 -0.38288697946E+02 -0.58063037625E+03  0.80145188321E+03  0.12699999809E+01 0. -1.
       -4    1    3    3    0  502 -0.55111328236E+03  0.38288697946E+02  0.86292963645E+03  0.10246175114E+04  0.12699999809E+01 0.  1.
</event>
<event>
 5   0  0.1253925E-04  0.1613825E+04  0.7818609E-02  0.8812099E-01
       -1   -1    0    0    0  501  0.00000000000E+00  0.00000000000E+00  0.70273946511E+03  0.70273946513E+03  0.50400001928E-02 0. -1.
        1   -1    0    0  501    0  0.00000000000E+00  0.00000000000E+00 -0.92652826073E+03  0.92652826074E+03  0.50400001928E-02 0.  1.
    10030    2    1    2    0    0  0.00000000000E+00  0.00000000000E+00 -0.22378879562E+03  0.16292677259E+04  0.16138252376E+04 0.  0.
        2    1    3    3  502    0  0.35084605929E+03  0.25877683936E+03  0.57360923375E+03  0.72047620568E+03  0.25500000920E-02 0. -1.
       -2    1    3    3    0  502 -0.35084605929E+03 -0.25877683936E+03 -0.79739802937E+03  0.90879152018E+03  0.25500000920E-02 0.  1.
</event>
<event>
 5   0  0.2569405E-04  0.1799344E+04  0.7818609E-02  0.8706648E-01
       -2   -1    0    0    0  501  0.00000000000E+00  0.00000000000E+00  0.59060360606E+03  0.59060360606E+03  0.25500000920E-02 0.  1.
        2   -1    0    0  501    0  0.00000000000E+00  0.00000000000E+00 -0.13704788674E+04  0.13704788674E+04  0.25500000920E-02 0. -1.
    10030    2    1    2    0    0  0.00000000000E+00  0.00000000000E+00 -0.77987526137E+03  0.19610824735E+04  0.17993440595E+04 0.  0.
        2    1    3    3  502    0  0.67625224143E+03 -0.21281107055E+03  0.21374994007E+03  0.74046923142E+03  0.25500000920E-02 0.  1.
       -2    1    3    3    0  502 -0.67625224143E+03  0.21281107055E+03 -0.99362520144E+03  0.12206132421E+04  0.25500000920E-02 0. -1.
</event>
<event>
 5   0  0.2550616E-04  0.1832179E+04  0.7818609E-02  0.8689372E-01
       -2   -1    0    0    0  501  0.00000000000E+00  0.00000000000E+00  0.76515477411E+03  0.76515477411E+03  0.25500000920E-02 0. -1.
        2   -1    0    0  501    0  0.00000000000E+00  0.00000000000E+00 -0.10967977677E+04  0.10967977677E+04  0.25500000920E-02 0.  1.
    10030    2    1    2    0    0  0.00000000000E+00  0.00000000000E+00 -0.33164299359E+03  0.18619525418E+04  0.18321790832E+04 0.  0.
        1    1    3    3  502    0  0.70940237837E+03 -0.20190602800E+03  0.38633289723E+03  0.83262890058E+03  0.50400001928E-02 0. -1.
       -1    1    3    3    0  502 -0.70940237837E+03  0.20190602800E+03 -0.71797589083E+03  0.10293236412E+04  0.50400001928E-02 0.  1.
</event>
<event>
 5   0  0.2393421E-04  0.1824171E+04  0.7818609E-02  0.8693550E-01
       -2   -1    0    0    0  501  0.00000000000E+00  0.00000000000E+00  0.10293547909E+04  0.10293547909E+04  0.25500000920E-02 0. -1.
        2   -1    0    0  501    0  0.00000000000E+00  0.00000000000E+00 -0.80817638268E+03  0.80817638268E+03  0.25500000920E-02 0.  1.
    10030    2    1    2    0    0  0.00000000000E+00  0.00000000000E+00  0.22117840819E+03  0.18375311736E+04  0.18241712983E+04 0.  0.
        5    1    3    3  502    0 -0.58293642748E+03 -0.55997735606E+02 -0.59376536673E+03  0.83398442767E+03  0.46999998093E+01 0.  1.
       -5    1    3    3    0  502  0.58293642748E+03  0.55997735606E+02  0.81494377493E+03  0.10035467459E+04  0.46999998093E+01 0. -1.
</event>
<event>
 5   0  0.1253925E-04  0.1805529E+04  0.7818609E-02  0.8703365E-01
       -1   -1    0    0    0  501  0.00000000000E+00  0.00000000000E+00  0.35625165700E+03  0.35625165704E+03  0.50400001928E-02 0.  1.
        1   -1    0    0  501    0  0.00000000000E+00  0.00000000000E+00 -0.22876629963E+04  0.22876629963E+04  0.50400001928E-02 0. -1.
    10030    2    1    2    0    0  0.00000000000E+00  0.00000000000E+00 -0.19314113393E+04  0.26439146533E+04  0.18055289897E+04 0.  0.
        2    1    3    3  502    0 -0.48340178193E+03  0.27857270344E+03  0.73569463862E+02  0.56275438683E+03  0.25500000920E-02 0.  1.
       -2    1    3    3    0  502  0.48340178193E+03 -0.27857270344E+03 -0.20049808031E+04  0.20811602665E+04  0.25500000920E-02 0. -1.
</event>
<event>
 5   0  0.1308893E-04  0.1791737E+04  0.7818609E-02  0.8710706E-01
        1   -1    0    0  501    0  0.00000000000E+00  0.00000000000E+00  0.56909878511E+03  0.56909878514E+03  0.50400001928E-02 0.  1.
       -1   -1    0    0    0  501  0.00000000000E+00  0.00000000000E+00 -0.14102647363E+04  0.14102647363E+04  0.50400001928E-02 0. -1.
    10030    2    1    2    0    0  0.00000000000E+00  0.00000000000E+00 -0.84116595122E+03  0.19793635215E+04  0.17917365299E+04 0.  0.
        4    1    3    3  502    0  0.50701056722E+03 -0.38139795016E+03 -0.11193153147E+04  0.12866205728E+04  0.12699999809E+01 0. -1.
       -4    1    3    3    0  502 -0.50701056722E+03  0.38139795016E+03  0.27814936349E+03  0.69274294870E+03  0.12699999809E+01 0.  1.
</event>
<event>
 5   0  0.2417106E-04  0.1759579E+04  0.7818609E-02  0.8728095E-01
       -2   -1    0    0    0  501  0.00000000000E+00  0.00000000000E+00  0.40220599596E+03  0.40220599597E+03  0.25500000920E-02 0. -1.
        2   -1    0    0  501    0  0.00000000000E+00  0.00000000000E+00 -0.19244606192E+04  0.19244606192E+04  0.25500000920E-02 0.  1.
    10030    2    1    2    0    0  0.00000000000E+00  0.00000000000E+00 -0.15222546233E+04  0.23266666152E+04  0.17595790406E+04 0.  0.
        4    1    3    3  502    0 -0.20882431639E+03 -0.84441790897E+02  0.36343001978E+03  0.42757572820E+03  0.12699999809E+01 0. -1.
       -4    1    3    3    0  502  0.20882431639E+03  0.84441790897E+02 -0.18856846431E+04  0.18990908870E+04  0.12699999809E+01 0.  1.
</event>
<event>
 5   0  0.2431811E-04  0.1782339E+04  0.7818609E-02  0.8715748E-01
        2   -1    0    0  501    0  0.00000000000E+00  0.00000000000E+00  0.75294166069E+03  0.75294166069E+03  0.25500000920E-02 0.  1.
       -2   -1    0    0    0  501  0.00000000000E+00  0.00000000000E+00 -0.10547737078E+04  0.10547737078E+04  0.25500000920E-02 0. -1.
    10030    2    1    2    0    0  0.00000000000E+00  0.00000000000E+00 -0.30183204711E+03  0.18077153685E+04  0.17823389882E+04 0.  0.
        3    1    3    3  502    0 -0.57915406426E+03  0.53255677210E+03 -0.57538014291E+03  0.97472994451E+03  0.10100000352E+00 0. -1.
       -3    1    3    3    0  502  0.57915406426E+03 -0.53255677210E+03  0.27354809580E+03  0.83298542399E+03  0.10100000352E+00 0.  1.
</event>
<event>
 5   0  0.1214723E-04  0.1797890E+04  0.7818609E-02  0.8707422E-01
       -1   -1    0    0    0  501  0.00000000000E+00  0.00000000000E+00  0.51206426729E+03  0.51206426732E+03  0.50400001928E-02 0.  1.
        1   -1    0    0  501    0  0.00000000000E+00  0.00000000000E+00 -0.15781265495E+04  0.15781265495E+04  0.50400001928E-02 0. -1.
    10030    2    1    2    0    0  0.00000000000E+00  0.00000000000E+00 -0.10660622822E+04  0.20901908168E+04  0.17978901138E+04 0.  0.
        1    1    3    3  502    0  0.15648654783E+03  0.35440582417E+02  0.49528249291E+03  0.52062349385E+03  0.50400001928E-02 0.  1.
       -1    1    3    3    0  502 -0.15648654783E+03 -0.35440582417E+02 -0.15613447751E+04  0.15695673230E+04  0.50400001928E-02 0. -1.
</event>
<event>
 5   0  0.1214723E-04  0.1796280E+04  0.7818609E-02  0.8708280E-01
        1   -1    0    0  501    0  0.00000000000E+00  0.00000000000E+00  0.99991901358E+03  0.99991901359E+03  0.50400001928E-02 0. -1.
       -1   -1    0    0    0  501  0.00000000000E+00  0.00000000000E+00 -0.80672108460E+03  0.80672108461E+03  0.50400001928E-02 0.  1.
    10030    2    1    2    0    0  0.00000000000E+00  0.00000000000E+00  0.19319792898E+03  0.18066400982E+04  0.17962803246E+04 0.  0.
        1    1    3    3  502    0 -0.66386302396E+03 -0.59905381454E+03  0.18120405069E+03  0.91236752206E+03  0.50400001928E-02 0.  1.
       -1    1    3    3    0  502  0.66386302396E+03  0.59905381454E+03  0.11993878290E+02  0.89427257614E+03  0.50400001928E-02 0. -1.
</event>
<event>
 5   0  0.1253925E-04  0.1803711E+04  0.7818609E-02  0.8704328E-01
        1   -1    0    0  501    0  0.00000000000E+00  0.00000000000E+00  0.20291137091E+04  0.20291137091E+04  0.50400001928E-02 0. -1.
       -1   -1    0    0    0  501  0.00000000000E+00  0.00000000000E+00 -0.40083679208E+03  0.40083679211E+03  0.50400001928E-02 0.  1.
    10030    2    1    2    0    0  0.00000000000E+00  0.00000000000E+00  0.16282769170E+04  0.24299505012E+04  0.18037110966E+04 0.  0.
        2    1    3    3  502    0  0.15292288179E+02 -0.40458339019E+03 -0.27152169957E+03  0.48748908402E+03  0.25500000920E-02 0.  1.
       -2    1    3    3    0  502 -0.15292288179E+02  0.40458339019E+03  0.18997986166E+04  0.19424614172E+04  0.25500000920E-02 0. -1.
</event>
<event>
 5   0  0.1253925E-04  0.1773198E+04  0.7818609E-02  0.8720684E-01
       -1   -1    0    0    0  501  0.00000000000E+00  0.00000000000E+00  0.61643905210E+03  0.61643905212E+03  0.50400001928E-02 0. -1.
        1   -1    0    0  501    0  0.00000000000E+00  0.00000000000E+00 -0.12751591868E+04  0.12751591868E+04  0.50400001928E-02 0.  1.
    10030    2    1    2    0    0  0.00000000000E+00  0.00000000000E+00 -0.65872013471E+03  0.18915982389E+04  0.17731981507E+04 0.  0.
        2    1    3    3  502    0  0.57627812391E+03 -0.14981182596E+03 -0.10301228356E+04  0.11898290279E+04  0.25500000920E-02 0. -1.
       -2    1    3    3    0  502 -0.57627812391E+03  0.14981182596E+03  0.37140270088E+03  0.70176921101E+03  0.25500000920E-02 0.  1.
</event>
<event>
 5   0  0.2393421E-04  0.1801292E+04  0.7818609E-02  0.8705613E-01
        2   -1    0    0  501    0  0.00000000000E+00  0.00000000000E+00  0.23670359081E+04  0.23670359081E+04  0.25500000920E-02 0.  1.
       -2   -1    0    0    0  501  0.00000000000E+00  0.00000000000E+00 -0.34269141809E+03  0.34269141810E+03  0.25500000920E-02 0. -1.
    10030    2    1    2    0    0  0.00000000000E+00  0.00000000000E+00  0.20243444900E+04  0.27097273262E+04  0.18012916388E+04 0.  0.
        5    1    3    3  502    0  0.33521191026E+03  0.58403776811E+03  0.19118459737E+04  0.20269790962E+04  0.46999998093E+01 0. -1.
       -5    1    3    3    0  502 -0.33521191026E+03 -0.58403776811E+03  0.11249851631E+03  0.68274822997E+03  0.46999998093E+01 0.  1.
</event>
<event>
 5   0  0.1239119E-04  0.1792823E+04  0.7818609E-02  0.8710126E-01
       -1   -1    0    0    0  501  0.00000000000E+00  0.00000000000E+00  0.12464166231E+04  0.12464166231E+04  0.50400001928E-02 0. -1.
        1   -1    0    0  501    0  0.00000000000E+00  0.00000000000E+00 -0.64469079872E+03  0.64469079874E+03  0.50400001928E-02 0.  1.
    10030    2    1    2    0    0  0.00000000000E+00  0.00000000000E+00  0.60172582437E+03  0.18911074218E+04  0.17928227222E+04 0.  0.
        5    1    3    3  502    0 -0.38638307874E+03  0.79463797615E+03  0.14162388899E+03  0.89488592156E+03  0.46999998093E+01 0.  1.
       -5    1    3    3    0  502  0.38638307874E+03 -0.79463797615E+03  0.46010193538E+03  0.99622150028E+03  0.46999998093E+01 0. -1.
</event>
<event>
 5   0  0.1330225E-04  0.1806762E+04  0.7818609E-02  0.8702712E-01
        1   -1    0    0  501    0  0.00000000000E+00  0.00000000000E+00  0.12868065312E+04  0.12868065312E+04  0.50400001928E-02 0.  1.
       -1   -1    0    0    0  501  0.00000000000E+00  0.00000000000E+00 -0.63420340434E+03  0.63420340436E+03  0.50400001928E-02 0. -1.
    10030    2    1    2    0    0  0.00000000000E+00  0.00000000000E+00  0.65260312682E+03  0.19210099355E+04  0.18067618358E+04 0.  0.
        3    1    3    3  502    0  0.49333514697E+03  0.17611371295E+03 -0.45624233207E+03  0.69466012041E+03  0.10100000352E+00 0. -1.
       -3    1    3    3    0  502 -0.49333514697E+03 -0.17611371295E+03  0.11088454589E+04  0.12263498151E+04  0.10100000352E+00 0.  1.
</event>
<event>
 5   0  0.1239119E-04  0.1810710E+04  0.7818609E-02  0.8700625E-01
       -1   -1    0    0    0  501  0.00000000000E+00  0.00000000000E+00  0.10549062659E+04  0.10549062659E+04  0.50400001928E-02 0.  1.
        1   -1    0    0  501    0  0.00000000000E+00  0.00000000000E+00 -0.77700500569E+03  0.77700500571E+03  0.50400001928E-02 0. -1.
    10030    2    1    2    0    0  0.00000000000E+00  0.00000000000E+00  0.27790126017E+03  0.18319112716E+04  0.18107097494E+04 0.  0.
        5    1    3    3  502    0  0.54367750432E+03 -0.41985603448E+03  0.73558538246E+03  0.10064652320E+04  0.46999998093E+01 0.  1.
       -5    1    3    3    0  502 -0.54367750432E+03  0.41985603448E+03 -0.45768412229E+03  0.82544603954E+03  0.46999998093E+01 0. -1.
</event>
<event>
 5   0  0.1308893E-04  0.1798426E+04  0.7818609E-02  0.8707137E-01
       -1   -1    0    0    0  501  0.00000000000E+00  0.00000000000E+00  0.32969030019E+03  0.32969030023E+03  0.50400001928E-02 0.  1.
        1   -1    0    0  501    0  0.00000000000E+00  0.00000000000E+00 -0.24525550815E+04  0.24525550815E+04  0.50400001928E-02 0. -1.
    10030    2    1    2    0    0  0.00000000000E+00  0.00000000000E+00 -0.21228647813E+04  0.27822453817E+04  0.17984255571E+04 0.  0.
        4    1    3    3  502    0  0.50789068962E+03  0.54609519782E+03 -0.28419182246E+03  0.79808490935E+03  0.12699999809E+01 0.  1.
       -4    1    3    3    0  502 -0.50789068962E+03 -0.54609519782E+03 -0.18386729588E+04  0.19841604724E+04  0.12699999809E+01 0. -1.
</event>
<event>
 5   0  0.2569405E-04  0.1817870E+04  0.7818609E-02  0.8696854E-01
       -2   -1    0    0    0  501  0.00000000000E+00  0.00000000000E+00  0.57362552574E+03  0.57362552574E+03  0.25500000920E-02 0.  1.
        2   -1    0    0  501    0  0.00000000000E+00  0.00000000000E+00 -0.14402475443E+04  0.14402475443E+04  0.25500000920E-02 0. -1.
    10030    2    1    2    0    0  0.00000000000E+00  0.00000000000E+00 -0.86662201859E+03  0.20138730701E+04  0.18178699126E+04 0.  0.
        2    1    3    3  502    0 -0.13740384670E+03  0.10706188527E+03 -0.14215839532E+04  0.14322161151E+04  0.25500000920E-02 0. -1.
       -2    1    3    3    0  502  0.13740384670E+03 -0.10706188527E+03  0.55496193462E+03  0.58165695496E+03  0.25500000920E-02 0.  1.
</event>
<event>
 5   0  0.2550616E-04  0.1550997E+04  0.7818609E-02  0.8851231E-01
       -2   -1    0    0    0  501  0.00000000000E+00  0.00000000000E+00  0.41434167128E+03  0.41434167129E+03  0.25500000920E-02 0. -1.
        2   -1    0    0  501    0  0.00000000000E+00  0.00000000000E+00 -0.14514541709E+04  0.14514541709E+04  0.25500000920E-02 0.  1.
    10030    2    1    2    0    0  0.00000000000E+00  0.00000000000E+00 -0.10371124997E+04  0.18657958422E+04  0.15509970303E+04 0.  0.
        1    1    3    3  502    0 -0.21315535349E+03 -0.39072406910E+03  0.24539542879E+03  0.50825133487E+03  0.50400001928E-02 0. -1.
       -1    1    3    3    0  502  0.21315535349E+03  0.39072406910E+03 -0.12825079285E+04  0.13575445074E+04  0.50400001928E-02 0.  1.
</event>
<event>
 5   0  0.1239119E-04  0.1765757E+04  0.7818609E-02  0.8724724E-01
       -1   -1    0    0    0  501  0.00000000000E+00  0.00000000000E+00  0.40959877798E+03  0.40959877801E+03  0.50400001928E-02 0. -1.
        1   -1    0    0  501    0  0.00000000000E+00  0.00000000000E+00 -0.19030198513E+04  0.19030198513E+04  0.50400001928E-02 0.  1.
    10030    2    1    2    0    0  0.00000000000E+00  0.00000000000E+00 -0.14934210733E+04  0.23126186293E+04  0.17657571810E+04 0.  0.
        5    1    3    3  502    0  0.23607959215E+03  0.39913401194E+03 -0.17306554082E+04  0.17917119649E+04  0.46999998093E+01 0.  1.
       -5    1    3    3    0  502 -0.23607959215E+03 -0.39913401194E+03  0.23723433491E+03  0.52090666436E+03  0.46999998093E+01 0. -1.
</event>
<event>
 5   0  0.1253925E-04  0.1873104E+04  0.7818609E-02  0.8668361E-01
        1   -1    0    0  501    0  0.00000000000E+00  0.00000000000E+00  0.18743233273E+04  0.18743233273E+04  0.50400001928E-02 0. -1.
       -1   -1    0    0    0  501  0.00000000000E+00  0.00000000000E+00 -0.46797143832E+03  0.46797143834E+03  0.50400001928E-02 0.  1.
    10030    2    1    2    0    0  0.00000000000E+00  0.00000000000E+00  0.14063518890E+04  0.23422947657E+04  0.18731041438E+04 0.  0.
        2    1    3    3  502    0 -0.64293926632E+03 -0.42637144929E+03  0.13671914232E+04  0.15698330805E+04  0.25500000920E-02 0. -1.
       -2    1    3    3    0  502  0.64293926632E+03  0.42637144929E+03  0.39160465787E+02  0.77246168516E+03  0.25500000920E-02 0.  1.
</event>
<event>
 5   0  0.1330225E-04  0.1798742E+04  0.7818609E-02  0.8706969E-01
        1   -1    0    0  501    0  0.00000000000E+00  0.00000000000E+00  0.86345377035E+03  0.86345377036E+03  0.50400001928E-02 0. -1.
       -1   -1    0    0    0  501  0.00000000000E+00  0.00000000000E+00 -0.93678180981E+03  0.93678180982E+03  0.50400001928E-02 0.  1.
    10030    2    1    2    0    0  0.00000000000E+00  0.00000000000E+00 -0.73328039461E+02  0.18002355802E+04  0.17987415442E+04 0.  0.
        3    1    3    3  502    0  0.89178412685E+03  0.65706299997E+02  0.59704735635E+02  0.89619245278E+03  0.10100000352E+00 0.  1.
       -3    1    3    3    0  502 -0.89178412685E+03 -0.65706299997E+02 -0.13303277510E+03  0.90404312741E+03  0.10100000352E+00 0. -1.
</event>
<event>
 5   0  0.2569405E-04  0.1809691E+04  0.7818609E-02  0.8701163E-01
       -2   -1    0    0    0  501  0.00000000000E+00  0.00000000000E+00  0.58941177661E+03  0.58941177661E+03  0.25500000920E-02 0. -1.
        2   -1    0    0  501    0  0.00000000000E+00  0.00000000000E+00 -0.13890887058E+04  0.13890887058E+04  0.25500000920E-02 0.  1.
    10030    2    1    2    0    0  0.00000000000E+00  0.00000000000E+00 -0.79967692923E+03  0.19785004825E+04  0.18096908487E+04 0.  0.
        2    1    3    3  502    0  0.40690081864E+03  0.27490087123E+03 -0.12307366250E+04  0.13250854332E+04  0.25500000920E-02 0.  1.
       -2    1    3    3    0  502 -0.40690081864E+03 -0.27490087123E+03  0.43105969578E+03  0.65341504922E+03  0.25500000920E-02 0. -1.
</event>
<event>
 5   0  0.2550616E-04  0.1810462E+04  0.7818609E-02  0.8700755E-01
       -2   -1    0    0    0  501  0.00000000000E+00  0.00000000000E+00  0.58832642863E+03  0.58832642864E+03  0.25500000920E-02 0. -1.
        2   -1    0    0  501    0  0.00000000000E+00  0.00000000000E+00 -0.13928379195E+04  0.13928379195E+04  0.25500000920E-02 0.  1.
    10030    2    1    2    0    0  0.00000000000E+00  0.00000000000E+00 -0.80451149083E+03  0.19811643481E+04  0.18104622159E+04 0.  0.
        1    1    3    3  502    0  0.64487481983E+03 -0.40721059406E+03 -0.93583612032E+03  0.12072585660E+04  0.50400001928E-02 0.  1.
       -1    1    3    3    0  502 -0.64487481983E+03  0.40721059406E+03  0.13132462949E+03  0.77390578205E+03  0.50400001928E-02 0. -1.
</event>
<event>
 5   0  0.1214723E-04  0.1705846E+04  0.7818609E-02  0.8758037E-01
       -1   -1    0    0    0  501  0.00000000000E+00  0.00000000000E+00  0.15845469943E+04  0.15845469943E+04  0.50400001928E-02 0.  1.
        1   -1    0    0  501    0  0.00000000000E+00  0.00000000000E+00 -0.45910740081E+03  0.45910740084E+03  0.50400001928E-02 0. -1.
    10030    2    1    2    0    0  0.00000000000E+00  0.00000000000E+00  0.11254395934E+04  0.20436543951E+04  0.17058455405E+04 0.  0.
        1    1    3    3  502    0  0.51504120517E+03 -0.58863481400E+03  0.15518018134E+03  0.79739530723E+03  0.50400001928E-02 0. -1.
       -1    1    3    3    0  502 -0.51504120517E+03  0.58863481400E+03  0.97025941211E+03  0.12462590879E+04  0.50400001928E-02 0.  1.
</event>
<event>
 5   0  0.2569405E-04  0.1771585E+04  0.7818609E-02  0.8721558E-01
        2   -1    0    0  501    0  0.00000000000E+00  0.00000000000E+00  0.39397902630E+03  0.39397902631E+03  0.25500000920E-02 0.  1.
       -2   -1    0    0    0  501  0.00000000000E+00  0.00000000000E+00 -0.19915487610E+04  0.19915487610E+04  0.25500000920E-02 0. -1.
    10030    2    1    2    0    0  0.00000000000E+00  0.00000000000E+00 -0.15975697347E+04  0.23855277873E+04  0.17715851001E+04 0.  0.
        2    1    3    3  502    0 -0.16268635360E+03 -0.48715094792E+03 -0.17705849642E+04  0.18435709944E+04  0.25500000920E-02 0. -1.
       -2    1    3    3    0  502  0.16268635360E+03  0.48715094792E+03  0.17301522958E+03  0.54195679291E+03  0.25500000920E-02 0.  1.
</event>
<event>
 5   0  0.1308893E-04  0.1804662E+04  0.7818609E-02  0.8703824E-01
       -1   -1    0    0    0  501  0.00000000000E+00  0.00000000000E+00  0.50189436231E+03  0.50189436234E+03  0.50400001928E-02 0. -1.
        1   -1    0    0  501    0  0.00000000000E+00  0.00000000000E+00 -0.16222570824E+04  0.16222570825E+04  0.50400001928E-02 0.  1.
    10030    2    1    2    0    0  0.00000000000E+00  0.00000000000E+00 -0.11203627201E+04  0.21241514448E+04  0.18046624991E+04 0.  0.
        4    1    3    3  502    0 -0.56104230992E+03  0.30556277177E+03 -0.13102244038E+04  0.14576785250E+04  0.12699999809E+01 0.  1.
       -4    1    3    3    0  502  0.56104230992E+03 -0.30556277177E+03  0.18986168365E+03  0.66647291981E+03  0.12699999809E+01 0. -1.
</event>
<event>
 5   0  0.9144875E-05  0.1788213E+04  0.7818609E-02  0.8712593E-01
       -3   -1    0    0    0  501  0.00000000000E+00  0.00000000000E+00  0.46270304293E+03  0.46270305395E+03  0.10100000352E+00 0. -1.
        3   -1    0    0  501    0  0.00000000000E+00  0.00000000000E+00 -0.17277306221E+04  0.17277306251E+04  0.10100000352E+00 0.  1.
    10030    2    1    2    0    0  0.00000000000E+00  0.00000000000E+00 -0.12650275792E+04  0.21904336790E+04  0.17882127743E+04 0.  0.
        5    1    3    3  502    0  0.75060880042E+03  0.11996008459E+03 -0.55885508583E+02  0.76220028420E+03  0.46999998093E+01 0.  1.
       -5    1    3    3    0  502 -0.75060880042E+03 -0.11996008459E+03 -0.12091420706E+04  0.14282333948E+04  0.46999998093E+01 0. -1.
</event>
<event>
 5   0  0.1330225E-04  0.1760278E+04  0.7818609E-02  0.8727713E-01
        1   -1    0    0  501    0  0.00000000000E+00  0.00000000000E+00  0.95891800246E+03  0.95891800248E+03  0.50400001928E-02 0. -1.
       -1   -1    0    0    0  501  0.00000000000E+00  0.00000000000E+00 -0.80783188362E+03  0.80783188363E+03  0.50400001928E-02 0.  1.
    10030    2    1    2    0    0  0.00000000000E+00  0.00000000000E+00  0.15108611885E+03  0.17667498861E+04  0.17602778601E+04 0.  0.
        3    1    3    3  502    0 -0.58323551565E+03 -0.35743583604E+03 -0.48031669933E+03  0.83583980849E+03  0.10100000352E+00 0.  1.
       -3    1    3    3    0  502  0.58323551565E+03  0.35743583604E+03  0.63140281817E+03  0.93091007762E+03  0.10100000352E+00 0. -1.
</event>
<event>
 5   0  0.2393421E-04  0.1802901E+04  0.7818609E-02  0.8704758E-01
       -2   -1    0    0    0  501  0.00000000000E+00  0.00000000000E+00  0.13834359284E+04  0.13834359284E+04  0.25500000920E-02 0.  1.
        2   -1    0    0  501    0  0.00000000000E+00  0.00000000000E+00 -0.58738774126E+03  0.58738774126E+03  0.25500000920E-02 0. -1.
    10030    2    1    2    0    0  0.00000000000E+00  0.00000000000E+00  0.79604818716E+03  0.19708236697E+04  0.18029013342E+04 0.  0.
        5    1    3    3  502    0 -0.71287079686E+02 -0.14737337127E+03  0.13670361588E+04  0.13768117910E+04  0.46999998093E+01 0.  1.
       -5    1    3    3    0  502  0.71287079686E+02  0.14737337127E+03 -0.57098797164E+03  0.59401187871E+03  0.46999998093E+01 0. -1.
</event>
<event>
 5   0  0.2569405E-04  0.1757256E+04  0.7818609E-02  0.8729366E-01
       -2   -1    0    0    0  501  0.00000000000E+00  0.00000000000E+00  0.40541886111E+03  0.40541886112E+03  0.25500000920E-02 0.  1.
        2   -1    0    0  501    0  0.00000000000E+00  0.00000000000E+00 -0.19041718897E+04  0.19041718897E+04  0.25500000920E-02 0. -1.
    10030    2    1    2    0    0  0.00000000000E+00  0.00000000000E+00 -0.14987530285E+04  0.23095907508E+04  0.17572560415E+04 0.  0.
        2    1    3    3  502    0  0.70284514580E+03 -0.32499315230E+03 -0.20369710282E+03  0.80068992608E+03  0.25500000920E-02 0.  1.
       -2    1    3    3    0  502 -0.70284514580E+03  0.32499315230E+03 -0.12950559257E+04  0.15089008247E+04  0.25500000920E-02 0. -1.
</event>
<event>
 5   0  0.9144875E-05  0.1792802E+04  0.7818609E-02  0.8710136E-01
       -3   -1    0    0    0  501  0.00000000000E+00  0.00000000000E+00  0.56223249997E+03  0.56223250904E+03  0.10100000352E+00 0.  1.
        3   -1    0    0  501    0  0.00000000000E+00  0.00000000000E+00 -0.14291866577E+04  0.14291866613E+04  0.10100000352E+00 0. -1.
    10030    2    1    2    0    0  0.00000000000E+00  0.00000000000E+00 -0.86695415777E+03  0.19914191704E+04  0.17928024990E+04 0.  0.
        2    1    3    3  502    0  0.15179480925E+03  0.25449239605E+03  0.50625484897E+03  0.58660209331E+03  0.25500000920E-02 0.  1.
       -2    1    3    3    0  502 -0.15179480925E+03 -0.25449239605E+03 -0.13732090067E+04  0.14048170770E+04  0.25500000920E-02 0. -1.
</event>
<event>
 5   0  0.1239119E-04  0.1786663E+04  0.7818609E-02  0.8713424E-01
        1   -1    0    0  501    0  0.00000000000E+00  0.00000000000E+00  0.18038508240E+04  0.18038508240E+04  0.50400001928E-02 0.  1.
       -1   -1    0    0    0  501  0.00000000000E+00  0.00000000000E+00 -0.44240993052E+03  0.44240993054E+03  0.50400001928E-02 0. -1.
    10030    2    1    2    0    0  0.00000000000E+00  0.00000000000E+00  0.13614408935E+04  0.22462607545E+04  0.17866633905E+04 0.  0.
        5    1    3    3  502    0 -0.35777438487E+03  0.40096605830E+03 -0.21646046151E+03  0.57935611826E+03  0.46999998093E+01 0. -1.
       -5    1    3    3    0  502  0.35777438487E+03 -0.40096605830E+03  0.15779013550E+04  0.16669046363E+04  0.46999998093E+01 0.  1.
</event>
<event>
 5   0  0.1253925E-04  0.1793645E+04  0.7818609E-02  0.8709686E-01
        1   -1    0    0  501    0  0.00000000000E+00  0.00000000000E+00  0.15726409209E+04  0.15726409209E+04  0.50400001928E-02 0. -1.
       -1   -1    0    0    0  501  0.00000000000E+00  0.00000000000E+00 -0.51142651542E+03  0.51142651544E+03  0.50400001928E-02 0.  1.
    10030    2    1    2    0    0  0.00000000000E+00  0.00000000000E+00  0.10612144055E+04  0.20840674364E+04  0.17936446317E+04 0.  0.
        2    1    3    3  502    0 -0.57483159660E+03  0.19495153642E+02 -0.26890602520E+03  0.63491879470E+03  0.25500000920E-02 0.  1.
       -2    1    3    3    0  502  0.57483159660E+03 -0.19495153642E+02  0.13301204307E+04  0.14491486417E+04  0.25500000920E-02 0. -1.
</event>
<event>
 5   0  0.1214723E-04  0.1801735E+04  0.7818609E-02  0.8705377E-01
        1   -1    0    0  501    0  0.00000000000E+00  0.00000000000E+00  0.80364802718E+03  0.80364802720E+03  0.50400001928E-02 0. -1.
       -1   -1    0    0    0  501  0.00000000000E+00  0.00000000000E+00 -0.10098476280E+04  0.10098476280E+04  0.50400001928E-02 0.  1.
    10030    2    1    2    0    0  0.00000000000E+00  0.00000000000E+00 -0.20619960083E+03  0.18134956552E+04  0.18017347796E+04 0.  0.
        1    1    3    3  502    0 -0.58555814100E+03  0.52471863875E+03  0.33949093005E+03  0.85642400594E+03  0.50400001928E-02 0. -1.
       -1    1    3    3    0  502  0.58555814100E+03 -0.52471863875E+03 -0.54569053087E+03  0.95707164928E+03  0.50400001928E-02 0.  1.
</event>
<event>
 5   0  0.2569405E-04  0.1829832E+04  0.7818609E-02  0.8690594E-01
        2   -1    0    0  501    0  0.00000000000E+00  0.00000000000E+00  0.91416145565E+03  0.91416145565E+03  0.25500000920E-02 0. -1.
       -2   -1    0    0    0  501  0.00000000000E+00  0.00000000000E+00 -0.91567101371E+03  0.91567101371E+03  0.25500000920E-02 0.  1.
    10030    2    1    2    0    0  0.00000000000E+00  0.00000000000E+00 -0.15095580600E+01  0.18298324694E+04  0.18298318467E+04 0.  0.
        2    1    3    3  502    0 -0.55940167819E+03  0.37987331105E+03 -0.61706430782E+03  0.91542467194E+03  0.25500000920E-02 0.  1.
       -2    1    3    3    0  502  0.55940167819E+03 -0.37987331105E+03  0.61555474976E+03  0.91440779741E+03  0.25500000920E-02 0. -1.
</event>
<event>
 5   0  0.1214723E-04  0.1831301E+04  0.7818609E-02  0.8689829E-01
       -1   -1    0    0    0  501  0.00000000000E+00  0.00000000000E+00  0.14213600022E+04  0.14213600022E+04  0.50400001928E-02 0. -1.
        1   -1    0    0  501    0  0.00000000000E+00  0.00000000000E+00 -0.58986851252E+03  0.58986851254E+03  0.50400001928E-02 0.  1.
    10030    2    1    2    0    0  0.00000000000E+00  0.00000000000E+00  0.83149148967E+03  0.20112285147E+04  0.18313006419E+04 0.  0.
        1    1    3    3  502    0 -0.79764066970E+03 -0.73538565198E+02 -0.71433619458E+02  0.80420228833E+03  0.50400001928E-02 0.  1.
       -1    1    3    3    0  502  0.79764066970E+03  0.73538565198E+02  0.90292510913E+03  0.12070262264E+04  0.50400001928E-02 0. -1.
</event>
<event>
 5   0  0.2393421E-04  0.1810657E+04  0.7818609E-02  0.8700653E-01
       -2   -1    0    0    0  501  0.00000000000E+00  0.00000000000E+00  0.41324273438E+03  0.41324273439E+03  0.25500000920E-02 0.  1.
        2   -1    0    0  501    0  0.00000000000E+00  0.00000000000E+00 -0.19833848716E+04  0.19833848716E+04  0.25500000920E-02 0. -1.
    10030    2    1    2    0    0  0.00000000000E+00  0.00000000000E+00 -0.15701421372E+04  0.23966276060E+04  0.18106566628E+04 0.  0.
        5    1    3    3  502    0  0.16746286587E+03  0.46203925498E+03  0.22129473990E+03  0.53899678709E+03  0.46999998093E+01 0.  1.
       -5    1    3    3    0  502 -0.16746286587E+03 -0.46203925498E+03 -0.17914368771E+04  0.18576308189E+04  0.46999998093E+01 0. -1.
</event>
<event>
 5   0  0.1330225E-04  0.1750973E+04  0.7818609E-02  0.8732815E-01
       -1   -1    0    0    0  501  0.00000000000E+00  0.00000000000E+00  0.56002307630E+03  0.56002307632E+03  0.50400001928E-02 0. -1.
        1   -1    0    0  501    0  0.00000000000E+00  0.00000000000E+00 -0.13686515056E+04  0.13686515056E+04  0.50400001928E-02 0.  1.
    10030    2    1    2    0    0  0.00000000000E+00  0.00000000000E+00 -0.80862842929E+03  0.19286745819E+04  0.17509727886E+04 0.  0.
        3    1    3    3  502    0  0.30355602443E+03 -0.96418468498E+02  0.49394434762E+03  0.58772766634E+03  0.10100000352E+00 0. -1.
       -3    1    3    3    0  502 -0.30355602443E+03  0.96418468498E+02 -0.13025727769E+04  0.13409469156E+04  0.10100000352E+00 0.  1.
</event>
<event>
 5   0  0.1239119E-04  0.1793862E+04  0.7818609E-02  0.8709571E-01
       -1   -1    0    0    0  501  0.00000000000E+00  0.00000000000E+00  0.70951235742E+03  0.70951235744E+03  0.50400001928E-02 0.  1.
        1   -1    0    0  501    0  0.00000000000E+00  0.00000000000E+00 -0.11338562734E+04  0.11338562734E+04  0.50400001928E-02 0. -1.
    10030    2    1    2    0    0  0.00000000000E+00  0.00000000000E+00 -0.42434391596E+03  0.18433686308E+04  0.17938617979E+04 0.  0.
        5    1    3    3  502    0  0.65573469022E+03 -0.34931304066E+03  0.30414395716E+03  0.80282826371E+03  0.46999998093E+01 0.  1.
       -5    1    3    3    0  502 -0.65573469022E+03  0.34931304066E+03 -0.72848787312E+03  0.10405403671E+04  0.46999998093E+01 0. -1.
</event>
<event>
 5   0  0.1239119E-04  0.1795055E+04  0.7818609E-02  0.8708934E-01
        1   -1    0    0  501    0  0.00000000000E+00  0.00000000000E+00  0.28954843653E+03  0.28954843657E+03  0.50400001928E-02 0. -1.
       -1   -1    0    0    0  501  0.00000000000E+00  0.00000000000E+00 -0.27821099579E+04  0.27821099579E+04  0.50400001928E-02 0.  1.
    10030    2    1    2    0    0  0.00000000000E+00  0.00000000000E+00 -0.24925615214E+04  0.30716583945E+04  0.17950549726E+04 0.  0.
        5    1    3    3  502    0 -0.62232146623E+01 -0.89547996411E+03 -0.13490996884E+04  0.16192637690E+04  0.46999998093E+01 0.  1.
       -5    1    3    3    0  502  0.62232146623E+01  0.89547996411E+03 -0.11434618330E+04  0.14523946255E+04  0.46999998093E+01 0. -1.
</event>
<event>
 5   0  0.2569405E-04  0.1791065E+04  0.7818609E-02  0.8711066E-01
        2   -1    0    0  501    0  0.00000000000E+00  0.00000000000E+00  0.98412429177E+03  0.98412429177E+03  0.25500000920E-02 0.  1.
       -2   -1    0    0    0  501  0.00000000000E+00  0.00000000000E+00 -0.81491541876E+03  0.81491541877E+03  0.25500000920E-02 0. -1.
    10030    2    1    2    0    0  0.00000000000E+00  0.00000000000E+00  0.16920887301E+03  0.17990397105E+04  0.17910645542E+04 0.  0.
        2    1    3    3  502    0 -0.67112290981E+03  0.46908074153E+03  0.44889738501E+03  0.93378346763E+03  0.25500000920E-02 0.  1.
       -2    1    3    3    0  502  0.67112290981E+03 -0.46908074153E+03 -0.27968851200E+03  0.86525624291E+03  0.25500000920E-02 0. -1.
</event>
<event>
 5   0  0.9144875E-05  0.1803498E+04  0.7818609E-02  0.8704441E-01
        3   -1    0    0  501    0  0.00000000000E+00  0.00000000000E+00  0.92839166411E+03  0.92839166961E+03  0.10100000352E+00 0.  1.
       -3   -1    0    0    0  501  0.00000000000E+00  0.00000000000E+00 -0.87587136773E+03  0.87587137355E+03  0.10100000352E+00 0. -1.
    10030    2    1    2    0    0  0.00000000000E+00  0.00000000000E+00  0.52520296388E+02  0.18042630432E+04  0.18034984745E+04 0.  0.
        2    1    3    3  502    0  0.27294297855E+03  0.81710427254E+03  0.29282089568E+03  0.90989083889E+03  0.25500000920E-02 0.  1.
       -2    1    3    3    0  502 -0.27294297855E+03 -0.81710427254E+03 -0.24030059930E+03  0.89437220427E+03  0.25500000920E-02 0. -1.
</event>
<event>
 5   0  0.1214723E-04  0.1783128E+04  0.7818609E-02  0.8715324E-01
       -1   -1    0    0    0  501  0.00000000000E+00  0.00000000000E+00  0.62863366502E+03  0.62863366504E+03  0.50400001928E-02 0. -1.
        1   -1    0    0  501    0  0.00000000000E+00  0.00000000000E+00 -0.12644669810E+04  0.12644669810E+04  0.50400001928E-02 0.  1.
    10030    2    1    2    0    0  0.00000000000E+00  0.00000000000E+00 -0.63583331602E+03  0.18931006461E+04  0.17831281643E+04 0.  0.
        1    1    3    3  502    0  0.19519782040E+03 -0.73307136480E+03 -0.81519580585E+03  0.11135708405E+04  0.50400001928E-02 0.  1.
       -1    1    3    3    0  502 -0.19519782040E+03  0.73307136480E+03  0.17936248983E+03  0.77952980557E+03  0.50400001928E-02 0. -1.
</event>
<event>
 5   0  0.2569405E-04  0.1794550E+04  0.7818609E-02  0.8709203E-01
        2   -1    0    0  501    0  0.00000000000E+00  0.00000000000E+00  0.51490862307E+03  0.51490862307E+03  0.25500000920E-02 0.  1.
       -2   -1    0    0    0  501  0.00000000000E+00  0.00000000000E+00 -0.15635822564E+04  0.15635822565E+04  0.25500000920E-02 0. -1.
    10030    2    1    2    0    0  0.00000000000E+00  0.00000000000E+00 -0.10486736334E+04  0.20784908795E+04  0.17945495109E+04 0.  0.
        2    1    3    3  502    0  0.35576130184E+03 -0.26575596788E+02  0.42923399681E+03  0.55813456286E+03  0.25500000920E-02 0.  1.
       -2    1    3    3    0  502 -0.35576130184E+03  0.26575596788E+02 -0.14779076302E+04  0.15203563167E+04  0.25500000920E-02 0. -1.
</event>
<event>
 5   0  0.1253925E-04  0.1625125E+04  0.7818609E-02  0.8805260E-01
        1   -1    0    0  501    0  0.00000000000E+00  0.00000000000E+00  0.95390209726E+03  0.95390209727E+03  0.50400001928E-02 0.  1.
       -1   -1    0    0    0  501  0.00000000000E+00  0.00000000000E+00 -0.69216486406E+03  0.69216486408E+03  0.50400001928E-02 0. -1.
    10030    2    1    2    0    0  0.00000000000E+00  0.00000000000E+00  0.26173723320E+03  0.16460669613E+04  0.16251246297E+04 0.  0.
        2    1    3    3  502    0  0.70816421578E+03  0.20015475155E+03  0.47983566396E+03  0.87852190951E+03  0.25500000920E-02 0.  1.
       -2    1    3    3    0  502 -0.70816421578E+03 -0.20015475155E+03 -0.21809843076E+03  0.76754505183E+03  0.25500000920E-02 0. -1.
</event>
<event>
 5   0  0.1253925E-04  0.1793378E+04  0.7818609E-02  0.8709829E-01
        1   -1    0    0  501    0  0.00000000000E+00  0.00000000000E+00  0.12835293755E+04  0.12835293755E+04  0.50400001928E-02 0. -1.
       -1   -1    0    0    0  501  0.00000000000E+00  0.00000000000E+00 -0.62643794114E+03  0.62643794116E+03  0.50400001928E-02 0.  1.
    10030    2    1    2    0    0  0.00000000000E+00  0.00000000000E+00  0.65709143435E+03  0.19099673166E+04  0.17933783755E+04 0.  0.
        2    1    3    3  502    0  0.15165045759E+03 -0.86238930050E+03  0.12275230589E+03  0.88418397153E+03  0.25500000920E-02 0.  1.
       -2    1    3    3    0  502 -0.15165045759E+03  0.86238930050E+03  0.53433912846E+03  0.10257833451E+04  0.25500000920E-02 0. -1.
</event>
<event>
 5   0  0.1308893E-04  0.1829971E+04  0.7818609E-02  0.8690522E-01
        1   -1    0    0  501    0  0.00000000000E+00  0.00000000000E+00  0.12415094995E+04  0.12415094995E+04  0.50400001928E-02 0. -1.
       -1   -1    0    0    0  501  0.00000000000E+00  0.00000000000E+00 -0.67433911255E+03  0.67433911257E+03  0.50400001928E-02 0.  1.
    10030    2    1    2    0    0  0.00000000000E+00  0.00000000000E+00  0.56717038693E+03  0.19158486121E+04  0.18299709442E+04 0.  0.
        4    1    3    3  502    0 -0.30278662392E+03  0.78114441558E+03  0.66872178214E+03  0.10719406571E+04  0.12699999809E+01 0. -1.
       -4    1    3    3    0  502  0.30278662392E+03 -0.78114441558E+03 -0.10155139521E+03  0.84390795492E+03  0.12699999809E+01 0.  1.
</event>
<event>
 5   0  0.1308893E-04  0.1797070E+04  0.7818609E-02  0.8707859E-01
        1   -1    0    0  501    0  0.00000000000E+00  0.00000000000E+00  0.15312459405E+04  0.15312459405E+04  0.50400001928E-02 0.  1.
       -1   -1    0    0    0  501  0.00000000000E+00  0.00000000000E+00 -0.52726025786E+03  0.52726025788E+03  0.50400001928E-02 0. -1.
    10030    2    1    2    0    0  0.00000000000E+00  0.00000000000E+00  0.10039856826E+04  0.20585061984E+04  0.17970699813E+04 0.  0.
        4    1    3    3  502    0 -0.43091644078E+03 -0.22698099033E+03 -0.36294189892E+03  0.60740248913E+03  0.12699999809E+01 0. -1.
       -4    1    3    3    0  502  0.43091644078E+03  0.22698099033E+03  0.13669275815E+04  0.14511037092E+04  0.12699999809E+01 0.  1.
</event>
<event>
 5   0  0.1239119E-04  0.1809659E+04  0.7818609E-02  0.8701180E-01
        1   -1    0    0  501    0  0.00000000000E+00  0.00000000000E+00  0.17527242184E+04  0.17527242184E+04  0.50400001928E-02 0. -1.
       -1   -1    0    0    0  501  0.00000000000E+00  0.00000000000E+00 -0.46711059788E+03  0.46711059790E+03  0.50400001928E-02 0.  1.
    10030    2    1    2    0    0  0.00000000000E+00  0.00000000000E+00  0.12856136205E+04  0.22198348163E+04  0.18096585950E+04 0.  0.
        5    1    3    3  502    0  0.23125780676E+03  0.48166647877E+03 -0.25291601119E+03  0.59116103447E+03  0.46999998093E+01 0.  1.
       -5    1    3    3    0  502 -0.23125780676E+03 -0.48166647877E+03  0.15385296317E+04  0.16286737818E+04  0.46999998093E+01 0. -1.
</event>
<event>
 5   0  0.1330225E-04  0.1818909E+04  0.7818609E-02  0.8696308E-01
        1   -1    0    0  501    0  0.00000000000E+00  0.00000000000E+00  0.18581750850E+04  0.18581750850E+04  0.50400001928E-02 0. -1.
       -1   -1    0    0    0  501  0.00000000000E+00  0.00000000000E+00 -0.44511810810E+03  0.44511810813E+03  0.50400001928E-02 0.  1.
    10030    2    1    2    0    0  0.00000000000E+00  0.00000000000E+00  0.14130569769E+04  0.23032931931E+04  0.18189088799E+04 0.  0.
        3    1    3    3  502    0 -0.73056504386E+03 -0.47454121424E+03  0.10372080022E+04  0.13545165549E+04  0.10100000352E+00 0.  1.
       -3    1    3    3    0  502  0.73056504386E+03  0.47454121424E+03  0.37584897462E+03  0.94877663823E+03  0.10100000352E+00 0. -1.
</event>
<event>
 5   0  0.2393421E-04  0.1808768E+04  0.7818609E-02  0.8701650E-01
       -2   -1    0    0    0  501  0.00000000000E+00  0.00000000000E+00  0.88198512829E+03  0.88198512829E+03  0.25500000920E-02 0.  1.
        2   -1    0    0  501    0  0.00000000000E+00  0.00000000000E+00 -0.92735204338E+03  0.92735204338E+03  0.25500000920E-02 0. -1.
    10030    2    1    2    0    0  0.00000000000E+00  0.00000000000E+00 -0.45366915088E+02  0.18093371717E+04  0.18087683223E+04 0.  0.
        5    1    3    3  502    0 -0.41266749927E+03 -0.76829652645E+03  0.21679651965E+03  0.89866391851E+03  0.46999998093E+01 0.  1.
       -5    1    3    3    0  502  0.41266749927E+03  0.76829652645E+03 -0.26216343473E+03  0.91067325316E+03  0.46999998093E+01 0. -1.
</event>
<event>
 5   0  0.1239119E-04  0.1802722E+04  0.7818609E-02  0.8704853E-01
       -1   -1    0    0    0  501  0.00000000000E+00  0.00000000000E+00  0.50879148857E+03  0.50879148860E+03  0.50400001928E-02 0. -1.
        1   -1    0    0  501    0  0.00000000000E+00  0.00000000000E+00 -0.15968264948E+04  0.15968264948E+04  0.50400001928E-02 0.  1.
    10030    2    1    2    0    0  0.00000000000E+00  0.00000000000E+00 -0.10880350062E+04  0.21056179834E+04  0.18027220854E+04 0.  0.
        5    1    3    3  502    0 -0.67657893723E+00 -0.86790660441E+03 -0.82813089521E+03  0.11996187733E+04  0.46999998093E+01 0.  1.
       -5    1    3    3    0  502  0.67657893723E+00  0.86790660441E+03 -0.25990411104E+03  0.90599921009E+03  0.46999998093E+01 0. -1.
</event>
<event>
 5   0  0.2550616E-04  0.1962385E+04  0.7818609E-02  0.8624412E-01
        2   -1    0    0  501    0  0.00000000000E+00  0.00000000000E+00  0.94719566719E+03  0.94719566719E+03  0.25500000920E-02 0.  1.
       -2   -1    0    0    0  501  0.00000000000E+00  0.00000000000E+00 -0.10164095865E+04  0.10164095865E+04  0.25500000920E-02 0. -1.
    10030    2    1    2    0    0  0.00000000000E+00  0.00000000000E+00 -0.69213919316E+02  0.19636052537E+04  0.19623850350E+04 0.  0.
        1    1    3    3  502    0 -0.85635414195E+03  0.24753298267E+03  0.37567697556E+03  0.96734077963E+03  0.50400001928E-02 0.  1.
       -1    1    3    3    0  502  0.85635414195E+03 -0.24753298267E+03 -0.44489089487E+03  0.99626447408E+03  0.50400001928E-02 0. -1.
</event>
<event>
 5   0  0.1330225E-04  0.1792807E+04  0.7818609E-02  0.8710134E-01
        1   -1    0    0  501    0  0.00000000000E+00  0.00000000000E+00  0.82406926278E+03  0.82406926280E+03  0.50400001928E-02 0. -1.
       -1   -1    0    0    0  501  0.00000000000E+00  0.00000000000E+00 -0.97508692412E+03  0.97508692413E+03  0.50400001928E-02 0.  1.
    10030    2    1    2    0    0  0.00000000000E+00  0.00000000000E+00 -0.15101766133E+03  0.17991561869E+04  0.17928069196E+04 0.  0.
        3    1    3    3  502    0  0.25880424446E+03 -0.30424896201E+03 -0.88084204601E+03  0.96717619287E+03  0.10100000352E+00 0.  1.
       -3    1    3    3    0  502 -0.25880424446E+03  0.30424896201E+03  0.72982438468E+03  0.83197999406E+03  0.10100000352E+00 0. -1.
</event>
<event>
 5   0  0.1253925E-04  0.1788549E+04  0.7818609E-02  0.8712413E-01
       -1   -1    0    0    0  501  0.00000000000E+00  0.00000000000E+00  0.50207024163E+03  0.50207024165E+03  0.50400001928E-02 0.  1.
        1   -1    0    0  501    0  0.00000000000E+00  0.00000000000E+00 -0.15928584565E+04  0.15928584565E+04  0.50400001928E-02 0. -1.
    10030    2    1    2    0    0  0.00000000000E+00  0.00000000000E+00 -0.10907882149E+04  0.20949286982E+04  0.17885489428E+04 0.  0.
        2    1    3    3  502    0 -0.87458714395E+03  0.65015266429E+02 -0.75027859023E+03  0.11541436740E+04  0.25500000920E-02 0. -1.
       -2    1    3    3    0  502  0.87458714395E+03 -0.65015266429E+02 -0.34050962464E+03  0.94078502417E+03  0.25500000920E-02 0.  1.
</event>
<event>
 5   0  0.9144875E-05  0.1811520E+04  0.7818609E-02  0.8700197E-01
        3   -1    0    0  501    0  0.00000000000E+00  0.00000000000E+00  0.94651816789E+03  0.94651817328E+03  0.10100000352E+00 0. -1.
       -3   -1    0    0    0  501  0.00000000000E+00  0.00000000000E+00 -0.86675688113E+03  0.86675688702E+03  0.10100000352E+00 0.  1.
    10030    2    1    2    0    0  0.00000000000E+00  0.00000000000E+00  0.79761286758E+02  0.18132750603E+04  0.18115199644E+04 0.  0.
        5    1    3    3  502    0 -0.39137652494E+03 -0.58287868344E+03  0.61267269282E+03  0.93183317305E+03  0.46999998093E+01 0. -1.
       -5    1    3    3    0  502  0.39137652494E+03  0.58287868344E+03 -0.53291140606E+03  0.88144188724E+03  0.46999998093E+01 0.  1.
</event>
<event>
 5   0  0.2550616E-04  0.1773347E+04  0.7818609E-02  0.8720603E-01
        2   -1    0    0  501    0  0.00000000000E+00  0.00000000000E+00  0.53320790542E+03  0.53320790542E+03  0.25500000920E-02 0. -1.
       -2   -1    0    0    0  501  0.00000000000E+00  0.00000000000E+00 -0.14744524777E+04  0.14744524777E+04  0.25500000920E-02 0.  1.
    10030    2    1    2    0    0  0.00000000000E+00  0.00000000000E+00 -0.94124457233E+03  0.20076603832E+04  0.17733467989E+04 0.  0.
        1    1    3    3  502    0  0.51286552581E+03  0.71654205938E+03 -0.35897016325E+03  0.95148470748E+03  0.50400001928E-02 0. -1.
       -1    1    3    3    0  502 -0.51286552581E+03 -0.71654205938E+03 -0.58227440908E+03  0.10561756757E+04  0.50400001928E-02 0.  1.
</event>
<event>
 5   0  0.2431811E-04  0.1790634E+04  0.7818609E-02  0.8711296E-01
        2   -1    0    0  501    0  0.00000000000E+00  0.00000000000E+00  0.14001962441E+04  0.14001962441E+04  0.25500000920E-02 0.  1.
       -2   -1    0    0    0  501  0.00000000000E+00  0.00000000000E+00 -0.57248599418E+03  0.57248599419E+03  0.25500000920E-02 0. -1.
    10030    2    1    2    0    0  0.00000000000E+00  0.00000000000E+00  0.82771024992E+03  0.19726822383E+04  0.17906342327E+04 0.  0.
        3    1    3    3  502    0  0.68505303754E+03  0.44446359529E+02 -0.21931062417E+03  0.72067350665E+03  0.10100000352E+00 0. -1.
       -3    1    3    3    0  502 -0.68505303754E+03 -0.44446359529E+02  0.10470208741E+04  0.12520087316E+04  0.10100000352E+00 0.  1.
</event>
<event>
 5   0  0.2550616E-04  0.1778697E+04  0.7818609E-02  0.8717711E-01
        2   -1    0    0  501    0  0.00000000000E+00  0.00000000000E+00  0.64424775869E+03  0.64424775869E+03  0.25500000920E-02 0.  1.
       -2   -1    0    0    0  501  0.00000000000E+00  0.00000000000E+00 -0.12276965090E+04  0.12276965090E+04  0.25500000920E-02 0. -1.
    10030    2    1    2    0    0  0.00000000000E+00  0.00000000000E+00 -0.58344875035E+03  0.18719442677E+04  0.17786969661E+04 0.  0.
        1    1    3    3  502    0  0.17226685674E+03 -0.38116892312E+03  0.53426132926E+03  0.67852839723E+03  0.50400001928E-02 0.  1.
       -1    1    3    3    0  502 -0.17226685674E+03  0.38116892312E+03 -0.11177100796E+04  0.11934158705E+04  0.50400001928E-02 0. -1.
</event>
<event>
 5   0  0.2431811E-04  0.1784070E+04  0.7818609E-02  0.8714817E-01
        2   -1    0    0  501    0  0.00000000000E+00  0.00000000000E+00  0.18651874639E+04  0.18651874639E+04  0.25500000920E-02 0. -1.
       -2   -1    0    0    0  501  0.00000000000E+00  0.00000000000E+00 -0.42661994607E+03  0.42661994608E+03  0.25500000920E-02 0.  1.
    10030    2    1    2    0    0  0.00000000000E+00  0.00000000000E+00  0.14385675178E+04  0.22918074100E+04  0.17840697018E+04 0.  0.
        3    1    3    3  502    0 -0.69716221661E+03  0.17118382590E+03  0.39070143135E+02  0.71893361641E+03  0.10100000352E+00 0.  1.
       -3    1    3    3    0  502  0.69716221661E+03 -0.17118382590E+03  0.13994973747E+04  0.15728737936E+04  0.10100000352E+00 0. -1.
</event>
<event>
 5   0  0.2569405E-04  0.1780044E+04  0.7818609E-02  0.8716984E-01
       -2   -1    0    0    0  501  0.00000000000E+00  0.00000000000E+00  0.66351248772E+03  0.66351248772E+03  0.25500000920E-02 0. -1.
        2   -1    0    0  501    0  0.00000000000E+00  0.00000000000E+00 -0.11938573281E+04  0.11938573281E+04  0.25500000920E-02 0.  1.
    10030    2    1    2    0    0  0.00000000000E+00  0.00000000000E+00 -0.53034484036E+03  0.18573698158E+04  0.17800440958E+04 0.  0.
        2    1    3    3  502    0 -0.45976811392E+03  0.75563102119E+03 -0.16201269760E+03  0.89922915486E+03  0.25500000920E-02 0. -1.
       -2    1    3    3    0  502  0.45976811392E+03 -0.75563102119E+03 -0.36833214276E+03  0.95814066094E+03  0.25500000920E-02 0.  1.
</event>
<event>
 5   0  0.2550616E-04  0.1793120E+04  0.7818609E-02  0.8709967E-01
       -2   -1    0    0    0  501  0.00000000000E+00  0.00000000000E+00  0.59084015710E+03  0.59084015710E+03  0.25500000920E-02 0.  1.
        2   -1    0    0  501    0  0.00000000000E+00  0.00000000000E+00 -0.13604691297E+04  0.13604691297E+04  0.25500000920E-02 0. -1.
    10030    2    1    2    0    0  0.00000000000E+00  0.00000000000E+00 -0.76962897257E+03  0.19513092868E+04  0.17931199562E+04 0.  0.
        1    1    3    3  502    0 -0.84089544472E+03 -0.30731953013E+03 -0.43665480623E+03  0.99610133139E+03  0.50400001928E-02 0.  1.
       -1    1    3    3    0  502  0.84089544472E+03  0.30731953013E+03 -0.33297416633E+03  0.95520795538E+03  0.50400001928E-02 0. -1.
</event>
<event>
 5   0  0.1239119E-04  0.1758897E+04  0.7818609E-02  0.8728468E-01
        1   -1    0    0  501    0  0.00000000000E+00  0.00000000000E+00  0.76502982260E+03  0.76502982262E+03  0.50400001928E-02 0.  1.
       -1   -1    0    0    0  501  0.00000000000E+00  0.00000000000E+00 -0.10109801450E+04  0.10109801450E+04  0.50400001928E-02 0. -1.
    10030    2    1    2    0    0  0.00000000000E+00  0.00000000000E+00 -0.24595032239E+03  0.17760099676E+04  0.17588973375E+04 0.  0.
        5    1    3    3  502    0  0.42161547531E+03  0.69146431087E+03 -0.46913024851E+03  0.93594218961E+03  0.46999998093E+01 0. -1.
       -5    1    3    3    0  502 -0.42161547531E+03 -0.69146431087E+03  0.22317992611E+03  0.84006777801E+03  0.46999998093E+01 0.  1.
</event>
<event>
 5   0  0.1239119E-04  0.1807024E+04  0.7818609E-02  0.8702573E-01
        1   -1    0    0  501    0  0.00000000000E+00  0.00000000000E+00  0.81093124249E+03  0.81093124251E+03  0.50400001928E-02 0.  1.
       -1   -1    0    0    0  501  0.00000000000E+00  0.00000000000E+00 -0.10066623912E+04  0.10066623912E+04  0.50400001928E-02 0. -1.
    10030    2    1    2    0    0  0.00000000000E+00  0.00000000000E+00 -0.19573114874E+03  0.18175936338E+04  0.18070240549E+04 0.  0.
        5    1    3    3  502    0  0.16987606223E+03 -0.65965932640E+03  0.49915788083E+03  0.84450517075E+03  0.46999998093E+01 0.  1.
       -5    1    3    3    0  502 -0.16987606223E+03  0.65965932640E+03 -0.69488902957E+03  0.97308846301E+03  0.46999998093E+01 0. -1.
</event>
<event>
 5   0  0.2569405E-04  0.1795923E+04  0.7818609E-02  0.8708470E-01
       -2   -1    0    0    0  501  0.00000000000E+00  0.00000000000E+00  0.55186266248E+03  0.55186266249E+03  0.25500000920E-02 0.  1.
        2   -1    0    0  501    0  0.00000000000E+00  0.00000000000E+00 -0.14611158809E+04  0.14611158809E+04  0.25500000920E-02 0. -1.
    10030    2    1    2    0    0  0.00000000000E+00  0.00000000000E+00 -0.90925321837E+03  0.20129785433E+04  0.17959234953E+04 0.  0.
        2    1    3    3  502    0  0.38267733854E+03 -0.35998993961E+03 -0.12708562692E+04  0.13751764828E+04  0.25500000920E-02 0. -1.
       -2    1    3    3    0  502 -0.38267733854E+03  0.35998993961E+03  0.36160305078E+03  0.63780206052E+03  0.25500000920E-02 0.  1.
</event>
<event>
 5   0  0.1330225E-04  0.1799504E+04  0.7818609E-02  0.8706563E-01
        1   -1    0    0  501    0  0.00000000000E+00  0.00000000000E+00  0.64714171498E+03  0.64714171500E+03  0.50400001928E-02 0. -1.
       -1   -1    0    0    0  501  0.00000000000E+00  0.00000000000E+00 -0.12509686293E+04  0.12509686293E+04  0.50400001928E-02 0.  1.
    10030    2    1    2    0    0  0.00000000000E+00  0.00000000000E+00 -0.60382691435E+03  0.18981103443E+04  0.17995043586E+04 0.  0.
        3    1    3    3  502    0  0.17723040925E+03  0.88006359923E+03 -0.23835012821E+03  0.92883440423E+03  0.10100000352E+00 0.  1.
       -3    1    3    3    0  502 -0.17723040925E+03 -0.88006359923E+03 -0.36547678614E+03  0.96927594011E+03  0.10100000352E+00 0. -1.
</event>
<event>
 5   0  0.1239119E-04  0.1808350E+04  0.7818609E-02  0.8701872E-01
        1   -1    0    0  501    0  0.00000000000E+00  0.00000000000E+00  0.10002270032E+04  0.10002270032E+04  0.50400001928E-02 0. -1.
       -1   -1    0    0    0  501  0.00000000000E+00  0.00000000000E+00 -0.81734704276E+03  0.81734704278E+03  0.50400001928E-02 0.  1.
    10030    2    1    2    0    0  0.00000000000E+00  0.00000000000E+00  0.18287996041E+03  0.18175740460E+04  0.18083501687E+04 0.  0.
        5    1    3    3  502    0  0.71825320133E+03  0.28239845269E+03 -0.38199760763E+03  0.86115086340E+03  0.46999998093E+01 0.  1.
       -5    1    3    3    0  502 -0.71825320133E+03 -0.28239845269E+03  0.56487756804E+03  0.95642318258E+03  0.46999998093E+01 0. -1.
</event>
<event>
 5   0  0.2393421E-04  0.1649886E+04  0.7818609E-02  0.8790474E-01
       -2   -1    0    0    0  501  0.00000000000E+00  0.00000000000E+00  0.27447977346E+03  0.27447977347E+03  0.25500000920E-02 0.  1.
        2   -1    0    0  501    0  0.00000000000E+00  0.00000000000E+00 -0.24793472941E+04  0.24793472941E+04  0.25500000920E-02 0. -1.
    10030    2    1    2    0    0  0.00000000000E+00  0.00000000000E+00 -0.22048675206E+04  0.27538270676E+04  0.16498856732E+04 0.  0.
        5    1    3    3  502    0 -0.53366881751E+03  0.39028616595E+03 -0.19258659487E+04  0.20361992634E+04  0.46999998093E+01 0. -1.
       -5    1    3    3    0  502  0.53366881751E+03 -0.39028616595E+03 -0.27900157196E+03  0.71762780414E+03  0.46999998093E+01 0.  1.
</event>
<event>
 5   0  0.2431811E-04  0.1754240E+04  0.7818609E-02  0.8731020E-01
       -2   -1    0    0    0  501  0.00000000000E+00  0.00000000000E+00  0.65058895040E+03  0.65058895040E+03  0.25500000920E-02 0.  1.
        2   -1    0    0  501    0  0.00000000000E+00  0.00000000000E+00 -0.11825284293E+04  0.11825284293E+04  0.25500000920E-02 0. -1.
    10030    2    1    2    0    0  0.00000000000E+00  0.00000000000E+00 -0.53193947893E+03  0.18331173797E+04  0.17542404962E+04 0.  0.
        3    1    3    3  502    0 -0.24893573811E+03 -0.27697271132E+03  0.56387675723E+03  0.67575135373E+03  0.10100000352E+00 0.  1.
       -3    1    3    3    0  502  0.24893573811E+03  0.27697271132E+03 -0.10958162362E+04  0.11573660260E+04  0.10100000352E+00 0. -1.
</event>
<event>
 5   0  0.1239119E-04  0.1797478E+04  0.7818609E-02  0.8707642E-01
        1   -1    0    0  501    0  0.00000000000E+00  0.00000000000E+00  0.13182711030E+04  0.13182711030E+04  0.50400001928E-02 0.  1.
       -1   -1    0    0    0  501  0.00000000000E+00  0.00000000000E+00 -0.61272053082E+03  0.61272053084E+03  0.50400001928E-02 0. -1.
    10030    2    1    2    0    0  0.00000000000E+00  0.00000000000E+00  0.70555057219E+03  0.19309916339E+04  0.17974779776E+04 0.  0.
        5    1    3    3  502    0 -0.35368085037E+03  0.79046522679E+02 -0.53073042692E+03  0.64267828089E+03  0.46999998093E+01 0. -1.
       -5    1    3    3    0  502  0.35368085037E+03 -0.79046522679E+02  0.12362809991E+04  0.12883133530E+04  0.46999998093E+01 0.  1.
</event>
<event>
 5   0  0.2569405E-04  0.1706228E+04  0.7818609E-02  0.8757821E-01
        2   -1    0    0  501    0  0.00000000000E+00  0.00000000000E+00  0.91547497900E+03  0.91547497901E+03  0.25500000920E-02 0. -1.
       -2   -1    0    0    0  501  0.00000000000E+00  0.00000000000E+00 -0.79500052826E+03  0.79500052827E+03  0.25500000920E-02 0.  1.
    10030    2    1    2    0    0  0.00000000000E+00  0.00000000000E+00  0.12047445074E+03  0.17104755073E+04  0.17062275252E+04 0.  0.
        2    1    3    3  502    0 -0.54018975808E+02  0.68885231537E+03 -0.44137593044E+03  0.81990747900E+03  0.25500000920E-02 0.  1.
       -2    1    3    3    0  502  0.54018975808E+02 -0.68885231537E+03  0.56185038118E+03  0.89056802827E+03  0.25500000920E-02 0. -1.
</event>
<event>
 5   0  0.1214723E-04  0.1806025E+04  0.7818609E-02  0.8703102E-01
        1   -1    0    0  501    0  0.00000000000E+00  0.00000000000E+00  0.13085804146E+04  0.13085804146E+04  0.50400001928E-02 0.  1.
       -1   -1    0    0    0  501  0.00000000000E+00  0.00000000000E+00 -0.62314208448E+03  0.62314208450E+03  0.50400001928E-02 0. -1.
    10030    2    1    2    0    0  0.00000000000E+00  0.00000000000E+00  0.68543833009E+03  0.19317224991E+04  0.18060249470E+04 0.  0.
        1    1    3    3  502    0  0.37352952249E+03 -0.81048900057E+03  0.19522769348E+03  0.91352645093E+03  0.50400001928E-02 0. -1.
       -1    1    3    3    0  502 -0.37352952249E+03  0.81048900057E+03  0.49021063661E+03  0.10181960482E+04  0.50400001928E-02 0.  1.
</event>
<event>
 5   0  0.9144875E-05  0.1817254E+04  0.7818609E-02  0.8697177E-01
        3   -1    0    0  501    0  0.00000000000E+00  0.00000000000E+00  0.14337929548E+04  0.14337929584E+04  0.10100000352E+00 0. -1.
       -3   -1    0    0    0  501  0.00000000000E+00  0.00000000000E+00 -0.57581751863E+03  0.57581752748E+03  0.10100000352E+00 0.  1.
    10030    2    1    2    0    0  0.00000000000E+00  0.00000000000E+00  0.85797543618E+03  0.20096104858E+04  0.18172540977E+04 0.  0.
        1    1    3    3  502    0 -0.90566293146E+02 -0.18099136767E+03 -0.55057507206E+03  0.58659444135E+03  0.50400001928E-02 0.  1.
       -1    1    3    3    0  502  0.90566293146E+02  0.18099136767E+03  0.14085505082E+04  0.14230160445E+04  0.50400001928E-02 0. -1.
</event>
<event>
 5   0  0.2431811E-04  0.1854017E+04  0.7818609E-02  0.8678090E-01
        2   -1    0    0  501    0  0.00000000000E+00  0.00000000000E+00  0.95929774950E+03  0.95929774951E+03  0.25500000920E-02 0. -1.
       -2   -1    0    0    0  501  0.00000000000E+00  0.00000000000E+00 -0.89580585522E+03  0.89580585522E+03  0.25500000920E-02 0.  1.
    10030    2    1    2    0    0  0.00000000000E+00  0.00000000000E+00  0.63491894287E+02  0.18551036047E+04  0.18540167647E+04 0.  0.
        3    1    3    3  502    0  0.46511339617E+03 -0.74386602521E+03  0.33138333805E+03  0.93780704929E+03  0.10100000352E+00 0. -1.
       -3    1    3    3    0  502 -0.46511339617E+03  0.74386602521E+03 -0.26789144377E+03  0.91729655543E+03  0.10100000352E+00 0.  1.
</event>
<event>
 5   0  0.1253925E-04  0.1799740E+04  0.7818609E-02  0.8706438E-01
       -1   -1    0    0    0  501  0.00000000000E+00  0.00000000000E+00  0.94254624384E+03  0.94254624385E+03  0.50400001928E-02 0.  1.
        1   -1    0    0  501    0  0.00000000000E+00  0.00000000000E+00 -0.85912579935E+03  0.85912579937E+03  0.50400001928E-02 0. -1.
    10030    2    1    2    0    0  0.00000000000E+00  0.00000000000E+00  0.83420444484E+02  0.18016720432E+04  0.17997397536E+04 0.  0.
        2    1    3    3  502    0  0.31653335330E+03 -0.79905542472E+03  0.30861016180E+03  0.91319393751E+03  0.25500000920E-02 0.  1.
       -2    1    3    3    0  502 -0.31653335330E+03  0.79905542472E+03 -0.22518971731E+03  0.88847810571E+03  0.25500000920E-02 0. -1.
</event>
<event>
 5   0  0.1330225E-04  0.1794460E+04  0.7818609E-02  0.8709251E-01
       -1   -1    0    0    0  501  0.00000000000E+00  0.00000000000E+00  0.12708687512E+04  0.12708687512E+04  0.50400001928E-02 0.  1.
        1   -1    0    0  501    0  0.00000000000E+00  0.00000000000E+00 -0.63344170178E+03  0.63344170180E+03  0.50400001928E-02 0. -1.
    10030    2    1    2    0    0  0.00000000000E+00  0.00000000000E+00  0.63742704942E+03  0.19043104530E+04  0.17944595449E+04 0.  0.
        3    1    3    3  502    0 -0.45474000892E+02  0.34720909527E+03 -0.55793062394E+03  0.65871741432E+03  0.10100000352E+00 0. -1.
       -3    1    3    3    0  502  0.45474000892E+02 -0.34720909527E+03  0.11953576734E+04  0.12455930387E+04  0.10100000352E+00 0.  1.
</event>
<event>
 5   0  0.1239119E-04  0.1799908E+04  0.7818609E-02  0.8706349E-01
       -1   -1    0    0    0  501  0.00000000000E+00  0.00000000000E+00  0.59041801131E+03  0.59041801133E+03  0.50400001928E-02 0.  1.
        1   -1    0    0  501    0  0.00000000000E+00  0.00000000000E+00 -0.13717685661E+04  0.13717685661E+04  0.50400001928E-02 0. -1.
    10030    2    1    2    0    0  0.00000000000E+00  0.00000000000E+00 -0.78135055479E+03  0.19621865774E+04  0.17999076296E+04 0.  0.
        5    1    3    3  502    0 -0.14215854154E+03 -0.10101150374E+03  0.57180810630E+03  0.59782855005E+03  0.46999998093E+01 0.  1.
       -5    1    3    3    0  502  0.14215854154E+03  0.10101150374E+03 -0.13531586611E+04  0.13643580274E+04  0.46999998093E+01 0. -1.
</event>
<event>
 5   0  0.1253925E-04  0.1784762E+04  0.7818609E-02  0.8714445E-01
       -1   -1    0    0    0  501  0.00000000000E+00  0.00000000000E+00  0.74019302897E+03  0.74019302898E+03  0.50400001928E-02 0. -1.
        1   -1    0    0  501    0  0.00000000000E+00  0.00000000000E+00 -0.10758593953E+04  0.10758593953E+04  0.50400001928E-02 0.  1.
    10030    2    1    2    0    0  0.00000000000E+00  0.00000000000E+00 -0.33566636635E+03  0.18160524243E+04  0.17847617483E+04 0.  0.
        2    1    3    3  502    0  0.36649192689E+03  0.77330659186E+03 -0.42529939083E+03  0.95561445643E+03  0.25500000920E-02 0. -1.
       -2    1    3    3    0  502 -0.36649192689E+03 -0.77330659186E+03  0.89633024481E+02  0.86043796788E+03  0.25500000920E-02 0.  1.
</event>
<event>
 5   0  0.2417106E-04  0.1796807E+04  0.7818609E-02  0.8707999E-01
       -2   -1    0    0    0  501  0.00000000000E+00  0.00000000000E+00  0.99399035799E+03  0.99399035799E+03  0.25500000920E-02 0. -1.
        2   -1    0    0  501    0  0.00000000000E+00  0.00000000000E+00 -0.81200851924E+03  0.81200851925E+03  0.25500000920E-02 0.  1.
    10030    2    1    2    0    0  0.00000000000E+00  0.00000000000E+00  0.18198183874E+03  0.18059988772E+04  0.17968067662E+04 0.  0.
        4    1    3    3  502    0  0.61935894080E+03 -0.15615509310E+03  0.72599593951E+03  0.96698584671E+03  0.12699999809E+01 0. -1.
       -4    1    3    3    0  502 -0.61935894080E+03  0.15615509310E+03 -0.54401410077E+03  0.83901303052E+03  0.12699999809E+01 0.  1.
</event>
<event>
 5   0  0.1308893E-04  0.1791715E+04  0.7818609E-02  0.8710718E-01
       -1   -1    0    0    0  501  0.00000000000E+00  0.00000000000E+00  0.82662724510E+03  0.82662724511E+03  0.50400001928E-02 0. -1.
        1   -1    0    0  501    0  0.00000000000E+00  0.00000000000E+00 -0.97088582688E+03  0.97088582689E+03  0.50400001928E-02 0.  1.
    10030    2    1    2    0    0  0.00000000000E+00  0.00000000000E+00 -0.14425858178E+03  0.17975130720E+04  0.17917150180E+04 0.  0.
        4    1    3    3  502    0 -0.27213681181E+03 -0.72297020204E+03 -0.52726543418E+03  0.93528327707E+03  0.12699999809E+01 0.  1.
       -4    1    3    3    0  502  0.27213681181E+03  0.72297020204E+03  0.38300685240E+03  0.86222979493E+03  0.12699999809E+01 0. -1.
</event>
<event>
 5   0  0.1330225E-04  0.1837527E+04  0.7818609E-02  0.8686594E-01
        1   -1    0    0  501    0  0.00000000000E+00  0.00000000000E+00  0.10590085651E+04  0.10590085651E+04  0.50400001928E-02 0.  1.
       -1   -1    0    0    0  501  0.00000000000E+00  0.00000000000E+00 -0.79709106585E+03  0.79709106587E+03  0.50400001928E-02 0. -1.
    10030    2    1    2    0    0  0.00000000000E+00  0.00000000000E+00  0.26191749925E+03  0.18560996310E+04  0.18375268879E+04 0.  0.
        3    1    3    3  502    0  0.11298967963E+03  0.41948092605E+03  0.94870630880E+03  0.10434436188E+04  0.10100000352E+00 0.  1.
       -3    1    3    3    0  502 -0.11298967963E+03 -0.41948092605E+03 -0.68678880956E+03  0.81265601219E+03  0.10100000352E+00 0. -1.
</event>
<event>
 5   0  0.9144875E-05  0.1785887E+04  0.7818609E-02  0.8713841E-01
        4   -1    0    0  501    0  0.00000000000E+00  0.00000000000E+00  0.67359650517E+03  0.67359770240E+03  0.12699999809E+01 0. -1.
       -4   -1    0    0    0  501  0.00000000000E+00  0.00000000000E+00 -0.11837155435E+04  0.11837162248E+04  0.12699999809E+01 0.  1.
    10030    2    1    2    0    0  0.00000000000E+00  0.00000000000E+00 -0.51011903834E+03  0.18573139272E+04  0.17858873399E+04 0.  0.
        2    1    3    3  502    0 -0.53630267064E+02  0.64742760387E+03 -0.89218671801E+03  0.11036466136E+04  0.25500000920E-02 0. -1.
       -2    1    3    3    0  502  0.53630267064E+02 -0.64742760387E+03  0.38206767967E+03  0.75366731364E+03  0.25500000920E-02 0.  1.
</event>
<event>
 5   0  0.2550616E-04  0.1744343E+04  0.7818609E-02  0.8736470E-01
        2   -1    0    0  501    0  0.00000000000E+00  0.00000000000E+00  0.11725458377E+04  0.11725458378E+04  0.25500000920E-02 0. -1.
       -2   -1    0    0    0  501  0.00000000000E+00  0.00000000000E+00 -0.64874467533E+03  0.64874467534E+03  0.25500000920E-02 0.  1.
    10030    2    1    2    0    0  0.00000000000E+00  0.00000000000E+00  0.52380116241E+03  0.18212905131E+04  0.17443427058E+04 0.  0.
        1    1    3    3  502    0  0.58434621192E+03  0.53714270088E+03  0.63937311735E+03  0.10192059457E+04  0.50400001928E-02 0. -1.
       -1    1    3    3    0  502 -0.58434621192E+03 -0.53714270088E+03 -0.11557195493E+03  0.80208456741E+03  0.50400001928E-02 0.  1.
</event>
<event>
 5   0  0.2431811E-04  0.1805525E+04  0.7818609E-02  0.8703367E-01
        2   -1    0    0  501    0  0.00000000000E+00  0.00000000000E+00  0.94947478682E+03  0.94947478682E+03  0.25500000920E-02 0. -1.
       -2   -1    0    0    0  501  0.00000000000E+00  0.00000000000E+00 -0.85834836480E+03  0.85834836481E+03  0.25500000920E-02 0.  1.
    10030    2    1    2    0    0  0.00000000000E+00  0.00000000000E+00  0.91126422015E+02  0.18078231516E+04  0.18055249992E+04 0.  0.
        3    1    3    3  502    0 -0.27932747786E+03 -0.22440209977E+02  0.90482375950E+03  0.94722407532E+03  0.10100000352E+00 0. -1.
       -3    1    3    3    0  502  0.27932747786E+03  0.22440209977E+02 -0.81369733749E+03  0.86059907631E+03  0.10100000352E+00 0.  1.
</event>
<event>
 5   0  0.2431811E-04  0.1810288E+04  0.7818609E-02  0.8700848E-01
        2   -1    0    0  501    0  0.00000000000E+00  0.00000000000E+00  0.64677618050E+03  0.64677618050E+03  0.25500000920E-02 0. -1.
       -2   -1    0    0    0  501  0.00000000000E+00  0.00000000000E+00 -0.12667217543E+04  0.12667217543E+04  0.25500000920E-02 0.  1.
    10030    2    1    2    0    0  0.00000000000E+00  0.00000000000E+00 -0.61994557378E+03  0.19134979348E+04  0.18102877760E+04 0.  0.
        3    1    3    3  502    0 -0.62865070066E+03  0.69062974624E+02  0.37449038610E+03  0.73499282812E+03  0.10100000352E+00 0. -1.
       -3    1    3    3    0  502  0.62865070066E+03 -0.69062974624E+02 -0.99443595988E+03  0.11785051067E+04  0.10100000352E+00 0.  1.
</event>
<event>
 5   0  0.1308893E-04  0.1740197E+04  0.7818609E-02  0.8738765E-01
       -1   -1    0    0    0  501  0.00000000000E+00  0.00000000000E+00  0.49141740640E+03  0.49141740643E+03  0.50400001928E-02 0.  1.
        1   -1    0    0  501    0  0.00000000000E+00  0.00000000000E+00 -0.15405865354E+04  0.15405865354E+04  0.50400001928E-02 0. -1.
    10030    2    1    2    0    0  0.00000000000E+00  0.00000000000E+00 -0.10491691290E+04  0.20320039419E+04  0.17401965862E+04 0.  0.
        4    1    3    3  502    0  0.24182970335E+03 -0.12552106025E+03 -0.14894866767E+04  0.15142025343E+04  0.12699999809E+01 0. -1.
       -4    1    3    3    0  502 -0.24182970335E+03  0.12552106025E+03  0.44031754766E+03  0.51780140755E+03  0.12699999809E+01 0.  1.
</event>
<event>
 5   0  0.2550616E-04  0.1794837E+04  0.7818609E-02  0.8709050E-01
        2   -1    0    0  501    0  0.00000000000E+00  0.00000000000E+00  0.89859678757E+03  0.89859678757E+03  0.25500000920E-02 0.  1.
       -2   -1    0    0    0  501  0.00000000000E+00  0.00000000000E+00 -0.89624188015E+03  0.89624188015E+03  0.25500000920E-02 0. -1.
    10030    2    1    2    0    0  0.00000000000E+00  0.00000000000E+00  0.23549074236E+01  0.17948386677E+04  0.17948371229E+04 0.  0.
        1    1    3    3  502    0  0.39155312149E+02  0.18916665034E+03 -0.87520387679E+03  0.89626948294E+03  0.50400001928E-02 0. -1.
       -1    1    3    3    0  502 -0.39155312149E+02 -0.18916665034E+03  0.87755878422E+03  0.89856918479E+03  0.50400001928E-02 0.  1.
</event>
<event>
 5   0  0.1253925E-04  0.1458512E+04  0.7818609E-02  0.8912521E-01
       -1   -1    0    0    0  501  0.00000000000E+00  0.00000000000E+00  0.87648750704E+03  0.87648750706E+03  0.50400001928E-02 0. -1.
        1   -1    0    0  501    0  0.00000000000E+00  0.00000000000E+00 -0.60675619154E+03  0.60675619156E+03  0.50400001928E-02 0.  1.
    10030    2    1    2    0    0  0.00000000000E+00  0.00000000000E+00  0.26973131550E+03  0.14832436986E+04  0.14585118741E+04 0.  0.
        2    1    3    3  502    0  0.21354136484E+03  0.53415516893E+03  0.59067631200E+03  0.82451207666E+03  0.25500000920E-02 0. -1.
       -2    1    3    3    0  502 -0.21354136484E+03 -0.53415516893E+03 -0.32094499650E+03  0.65873162196E+03  0.25500000920E-02 0.  1.
</event>
<event>
 5   0  0.1214723E-04  0.1506619E+04  0.7818609E-02  0.8880063E-01
        1   -1    0    0  501    0  0.00000000000E+00  0.00000000000E+00  0.91881379063E+03  0.91881379064E+03  0.50400001928E-02 0. -1.
       -1   -1    0    0    0  501  0.00000000000E+00  0.00000000000E+00 -0.61761696584E+03  0.61761696586E+03  0.50400001928E-02 0.  1.
    10030    2    1    2    0    0  0.00000000000E+00  0.00000000000E+00  0.30119682479E+03  0.15364307565E+04  0.15066187116E+04 0.  0.
        1    1    3    3  502    0  0.62707910759E+03  0.33684144042E+03 -0.10082545185E+03  0.71892707205E+03  0.50400001928E-02 0. -1.
       -1    1    3    3    0  502 -0.62707910759E+03 -0.33684144042E+03  0.40202227664E+03  0.81750368446E+03  0.50400001928E-02 0.  1.
</event>
<event>
 5   0  0.1239119E-04  0.1799433E+04  0.7818609E-02  0.8706601E-01
       -1   -1    0    0    0  501  0.00000000000E+00  0.00000000000E+00  0.58119348363E+03  0.58119348365E+03  0.50400001928E-02 0.  1.
        1   -1    0    0  501    0  0.00000000000E+00  0.00000000000E+00 -0.13928058288E+04  0.13928058288E+04  0.50400001928E-02 0. -1.
    10030    2    1    2    0    0  0.00000000000E+00  0.00000000000E+00 -0.81161234517E+03  0.19739993125E+04  0.17994328792E+04 0.  0.
        5    1    3    3  502    0  0.63071286442E+03  0.50408034162E+03 -0.84126860572E+03  0.11660405933E+04  0.46999998093E+01 0. -1.
       -5    1    3    3    0  502 -0.63071286442E+03 -0.50408034162E+03  0.29656260545E+02  0.80795871921E+03  0.46999998093E+01 0.  1.
</event>
<event>
 5   0  0.2569405E-04  0.1793677E+04  0.7818609E-02  0.8709669E-01
       -2   -1    0    0    0  501  0.00000000000E+00  0.00000000000E+00  0.36089666512E+03  0.36089666513E+03  0.25500000920E-02 0.  1.
        2   -1    0    0  501    0  0.00000000000E+00  0.00000000000E+00 -0.22286701288E+04  0.22286701288E+04  0.25500000920E-02 0. -1.
    10030    2    1    2    0    0  0.00000000000E+00  0.00000000000E+00 -0.18677734637E+04  0.25895667940E+04  0.17936773591E+04 0.  0.
        2    1    3    3  502    0  0.74326281118E+03 -0.25466919085E+02 -0.16575221095E+04  0.18167189419E+04  0.25500000920E-02 0. -1.
       -2    1    3    3    0  502 -0.74326281118E+03  0.25466919085E+02 -0.21025135422E+03  0.77284785205E+03  0.25500000920E-02 0.  1.
</event>
<event>
 5   0  0.2550616E-04  0.1822125E+04  0.7818609E-02  0.8694622E-01
        2   -1    0    0  501    0  0.00000000000E+00  0.00000000000E+00  0.73870194971E+03  0.73870194972E+03  0.25500000920E-02 0. -1.
       -2   -1    0    0    0  501  0.00000000000E+00  0.00000000000E+00 -0.11236393014E+04  0.11236393014E+04  0.25500000920E-02 0.  1.
    10030    2    1    2    0    0  0.00000000000E+00  0.00000000000E+00 -0.38493735164E+03  0.18623412511E+04  0.18221246310E+04 0.  0.
        1    1    3    3  502    0 -0.12626614118E+03 -0.90205399956E+03 -0.17228474405E+03  0.92699869988E+03  0.50400001928E-02 0.  1.
       -1    1    3    3    0  502  0.12626614118E+03  0.90205399956E+03 -0.21265260759E+03  0.93534255119E+03  0.50400001928E-02 0. -1.
</event>
<event>
 5   0  0.2431811E-04  0.1814383E+04  0.7818609E-02  0.8698688E-01
        2   -1    0    0  501    0  0.00000000000E+00  0.00000000000E+00  0.11978848274E+04  0.11978848275E+04  0.25500000920E-02 0. -1.
       -2   -1    0    0    0  501  0.00000000000E+00  0.00000000000E+00 -0.68704157190E+03  0.68704157191E+03  0.25500000920E-02 0.  1.
    10030    2    1    2    0    0  0.00000000000E+00  0.00000000000E+00  0.51084325555E+03  0.18849263994E+04  0.18143832834E+04 0.  0.
        3    1    3    3  502    0 -0.34349285115E+03 -0.40435494858E+03  0.10199034417E+04  0.11496492091E+04  0.10100000352E+00 0. -1.
       -3    1    3    3    0  502  0.34349285115E+03  0.40435494858E+03 -0.50906018617E+03  0.73527719030E+03  0.10100000352E+00 0.  1.
</event>
<event>
 5   0  0.9144875E-05  0.1821178E+04  0.7818609E-02  0.8695118E-01
        3   -1    0    0  501    0  0.00000000000E+00  0.00000000000E+00  0.17568162227E+04  0.17568162256E+04  0.10100000352E+00 0.  1.
       -3   -1    0    0    0  501  0.00000000000E+00  0.00000000000E+00 -0.47197425506E+03  0.47197426587E+03  0.10100000352E+00 0. -1.
    10030    2    1    2    0    0  0.00000000000E+00  0.00000000000E+00  0.12848419676E+04  0.22287904914E+04  0.18211776885E+04 0.  0.
        4    1    3    3  502    0 -0.30990293876E+03  0.81905150851E+03  0.33699256412E+03  0.93832340172E+03  0.12699999809E+01 0. -1.
       -4    1    3    3    0  502  0.30990293876E+03 -0.81905150851E+03  0.94784940349E+03  0.12904670897E+04  0.12699999809E+01 0.  1.
</event>
<event>
 5   0  0.9144875E-05  0.1817672E+04  0.7818609E-02  0.8696958E-01
        4   -1    0    0  501    0  0.00000000000E+00  0.00000000000E+00  0.11917440484E+04  0.11917447251E+04  0.12699999809E+01 0.  1.
       -4   -1    0    0    0  501  0.00000000000E+00  0.00000000000E+00 -0.69308586838E+03  0.69308703194E+03  0.12699999809E+01 0. -1.
    10030    2    1    2    0    0  0.00000000000E+00  0.00000000000E+00  0.49865818000E+03  0.18848317570E+04  0.18176717998E+04 0.  0.
        2    1    3    3  502    0 -0.41274055945E+03  0.63004726977E+03  0.77671530880E+03  0.10819431605E+04  0.25500000920E-02 0. -1.
       -2    1    3    3    0  502  0.41274055945E+03 -0.63004726977E+03 -0.27805712880E+03  0.80288859654E+03  0.25500000920E-02 0.  1.
</event>
<event>
 5   0  0.2417106E-04  0.1799351E+04  0.7818609E-02  0.8706645E-01
       -2   -1    0    0    0  501  0.00000000000E+00  0.00000000000E+00  0.13982819857E+04  0.13982819857E+04  0.25500000920E-02 0.  1.
        2   -1    0    0  501    0  0.00000000000E+00  0.00000000000E+00 -0.57886469695E+03  0.57886469695E+03  0.25500000920E-02 0. -1.
    10030    2    1    2    0    0  0.00000000000E+00  0.00000000000E+00  0.81941728871E+03  0.19771466826E+04  0.17993510807E+04 0.  0.
        4    1    3    3  502    0 -0.73995791877E+03 -0.42836988189E+03  0.71732859265E+03  0.11160646935E+04  0.12699999809E+01 0.  1.
       -4    1    3    3    0  502  0.73995791877E+03  0.42836988189E+03  0.10208869606E+03  0.86108198915E+03  0.12699999809E+01 0. -1.
</event>
<event>
 5   0  0.2550616E-04  0.1798167E+04  0.7818609E-02  0.8707275E-01
       -2   -1    0    0    0  501  0.00000000000E+00  0.00000000000E+00  0.45789381384E+03  0.45789381384E+03  0.25500000920E-02 0.  1.
        2   -1    0    0  501    0  0.00000000000E+00  0.00000000000E+00 -0.17653679562E+04  0.17653679562E+04  0.25500000920E-02 0. -1.
    10030    2    1    2    0    0  0.00000000000E+00  0.00000000000E+00 -0.13074741423E+04  0.22232617700E+04  0.17981669180E+04 0.  0.
        1    1    3    3  502    0 -0.33585772445E+03 -0.57005012595E+03  0.98941411858E+02  0.66898950678E+03  0.50400001928E-02 0.  1.
       -1    1    3    3    0  502  0.33585772445E+03  0.57005012595E+03 -0.14064155542E+04  0.15542722632E+04  0.50400001928E-02 0. -1.
</event>
<event>
 5   0  0.1214723E-04  0.1845162E+04  0.7818609E-02  0.8682645E-01
        1   -1    0    0  501    0  0.00000000000E+00  0.00000000000E+00  0.40810481466E+03  0.40810481469E+03  0.50400001928E-02 0. -1.
       -1   -1    0    0    0  501  0.00000000000E+00  0.00000000000E+00 -0.20856291450E+04  0.20856291450E+04  0.50400001928E-02 0.  1.
    10030    2    1    2    0    0  0.00000000000E+00  0.00000000000E+00 -0.16775243304E+04  0.24937339597E+04  0.18451615601E+04 0.  0.
        1    1    3    3  502    0 -0.35049956842E+03  0.60570901073E+03 -0.16512614343E+04  0.17934318157E+04  0.50400001928E-02 0.  1.
       -1    1    3    3    0  502  0.35049956842E+03 -0.60570901073E+03 -0.26262896043E+02  0.70030214400E+03  0.50400001928E-02 0. -1.
</event>
<event>
 5   0  0.1239119E-04  0.1798763E+04  0.7818609E-02  0.8706957E-01
        1   -1    0    0  501    0  0.00000000000E+00  0.00000000000E+00  0.26852934932E+04  0.26852934932E+04  0.50400001928E-02 0.  1.
       -1   -1    0    0    0  501  0.00000000000E+00  0.00000000000E+00 -0.30122864317E+03  0.30122864322E+03  0.50400001928E-02 0. -1.
    10030    2    1    2    0    0  0.00000000000E+00  0.00000000000E+00  0.23840648500E+04  0.29865221364E+04  0.17987632591E+04 0.  0.
        5    1    3    3  502    0 -0.33469679369E+03  0.79125845185E+03  0.16336691858E+04  0.18458084895E+04  0.46999998093E+01 0.  1.
       -5    1    3    3    0  502  0.33469679369E+03 -0.79125845185E+03  0.75039566422E+03  0.11407136469E+04  0.46999998093E+01 0. -1.
</event>
<event>
 5   0  0.2393421E-04  0.1791196E+04  0.7818609E-02  0.8710995E-01
        2   -1    0    0  501    0  0.00000000000E+00  0.00000000000E+00  0.10428627525E+04  0.10428627525E+04  0.25500000920E-02 0. -1.
       -2   -1    0    0    0  501  0.00000000000E+00  0.00000000000E+00 -0.76912881658E+03  0.76912881658E+03  0.25500000920E-02 0.  1.
    10030    2    1    2    0    0  0.00000000000E+00  0.00000000000E+00  0.27373393587E+03  0.18119915690E+04  0.17911960190E+04 0.  0.
        5    1    3    3  502    0  0.74288933059E+03 -0.39135062661E+03  0.45198601432E+03  0.95360018749E+03  0.46999998093E+01 0. -1.
       -5    1    3    3    0  502 -0.74288933059E+03  0.39135062661E+03 -0.17825207845E+03  0.85839138155E+03  0.46999998093E+01 0.  1.
</event>
<event>
 5   0  0.2393421E-04  0.1822452E+04  0.7818609E-02  0.8694450E-01
       -2   -1    0    0    0  501  0.00000000000E+00  0.00000000000E+00  0.67656304190E+03  0.67656304190E+03  0.25500000920E-02 0. -1.
        2   -1    0    0  501    0  0.00000000000E+00  0.00000000000E+00 -0.12272807843E+04  0.12272807843E+04  0.25500000920E-02 0.  1.
    10030    2    1    2    0    0  0.00000000000E+00  0.00000000000E+00 -0.55071774243E+03  0.19038438262E+04  0.18224519974E+04 0.  0.
        5    1    3    3  502    0  0.96264889894E+02  0.25742021395E+03  0.63222134673E+03  0.68938959727E+03  0.46999998093E+01 0. -1.
       -5    1    3    3    0  502 -0.96264889894E+02 -0.25742021395E+03 -0.11829390892E+04  0.12144542290E+04  0.46999998093E+01 0.  1.
</event>
<event>
 5   0  0.2393421E-04  0.1816267E+04  0.7818609E-02  0.8697697E-01
       -2   -1    0    0    0  501  0.00000000000E+00  0.00000000000E+00  0.87629281212E+03  0.87629281212E+03  0.25500000920E-02 0.  1.
        2   -1    0    0  501    0  0.00000000000E+00  0.00000000000E+00 -0.94113078067E+03  0.94113078068E+03  0.25500000920E-02 0. -1.
    10030    2    1    2    0    0  0.00000000000E+00  0.00000000000E+00 -0.64837968556E+02  0.18174235928E+04  0.18162666526E+04 0.  0.
        5    1    3    3  502    0 -0.72292084730E+03 -0.14005066974E+03  0.49938479790E+03  0.88973929211E+03  0.46999998093E+01 0.  1.
       -5    1    3    3    0  502  0.72292084730E+03  0.14005066974E+03 -0.56422276646E+03  0.92768430069E+03  0.46999998093E+01 0. -1.
</event>
<event>
 5   0  0.2417106E-04  0.1789151E+04  0.7818609E-02  0.8712090E-01
        2   -1    0    0  501    0  0.00000000000E+00  0.00000000000E+00  0.76993149398E+03  0.76993149399E+03  0.25500000920E-02 0.  1.
       -2   -1    0    0    0  501  0.00000000000E+00  0.00000000000E+00 -0.10393978758E+04  0.10393978758E+04  0.25500000920E-02 0. -1.
    10030    2    1    2    0    0  0.00000000000E+00  0.00000000000E+00 -0.26946638178E+03  0.18093293698E+04  0.17891508146E+04 0.  0.
        4    1    3    3  502    0  0.56103346481E+02 -0.12963187303E+03  0.75858195383E+03  0.77162179956E+03  0.12699999809E+01 0.  1.
       -4    1    3    3    0  502 -0.56103346481E+02  0.12963187303E+03 -0.10280483356E+04  0.10377075702E+04  0.12699999809E+01 0. -1.
</event>
<event>
 5   0  0.2417106E-04  0.1792748E+04  0.7818609E-02  0.8710165E-01
       -2   -1    0    0    0  501  0.00000000000E+00  0.00000000000E+00  0.77051950706E+03  0.77051950707E+03  0.25500000920E-02 0.  1.
        2   -1    0    0  501    0  0.00000000000E+00  0.00000000000E+00 -0.10427857595E+04  0.10427857595E+04  0.25500000920E-02 0. -1.
    10030    2    1    2    0    0  0.00000000000E+00  0.00000000000E+00 -0.27226625248E+03  0.18133052666E+04  0.17927484703E+04 0.  0.
        4    1    3    3  502    0 -0.21865419623E+03 -0.38953282985E+03 -0.92217981442E+03  0.10246768789E+04  0.12699999809E+01 0. -1.
       -4    1    3    3    0  502  0.21865419623E+03  0.38953282985E+03  0.64991356194E+03  0.78862838774E+03  0.12699999809E+01 0.  1.
</event>
<event>
 5   0  0.1239119E-04  0.1808778E+04  0.7818609E-02  0.8701645E-01
       -1   -1    0    0    0  501  0.00000000000E+00  0.00000000000E+00  0.47962259708E+03  0.47962259711E+03  0.50400001928E-02 0. -1.
        1   -1    0    0  501    0  0.00000000000E+00  0.00000000000E+00 -0.17053399767E+04  0.17053399767E+04  0.50400001928E-02 0.  1.
    10030    2    1    2    0    0  0.00000000000E+00  0.00000000000E+00 -0.12257173796E+04  0.21849625738E+04  0.18087781385E+04 0.  0.
        5    1    3    3  502    0 -0.85823344123E+03  0.25981557744E+03 -0.75491147944E+03  0.11721698707E+04  0.46999998093E+01 0.  1.
       -5    1    3    3    0  502  0.85823344123E+03 -0.25981557744E+03 -0.47080590020E+03  0.10127927032E+04  0.46999998093E+01 0. -1.
</event>
<event>
 5   0  0.2431811E-04  0.1796410E+04  0.7818609E-02  0.8708211E-01
       -2   -1    0    0    0  501  0.00000000000E+00  0.00000000000E+00  0.62884605706E+03  0.62884605707E+03  0.25500000920E-02 0. -1.
        2   -1    0    0  501    0  0.00000000000E+00  0.00000000000E+00 -0.12829407472E+04  0.12829407472E+04  0.25500000920E-02 0.  1.
    10030    2    1    2    0    0  0.00000000000E+00  0.00000000000E+00 -0.65409469010E+03  0.19117868042E+04  0.17964100092E+04 0.  0.
        3    1    3    3  502    0 -0.79910991833E+03  0.36714111667E+03 -0.52155041641E+03  0.10224402712E+04  0.10100000352E+00 0. -1.
       -3    1    3    3    0  502  0.79910991833E+03 -0.36714111667E+03 -0.13254427369E+03  0.88934653303E+03  0.10100000352E+00 0.  1.
</event>
<event>
 5   0  0.2569405E-04  0.1664697E+04  0.7818609E-02  0.8781759E-01
        2   -1    0    0  501    0  0.00000000000E+00  0.00000000000E+00  0.73688782649E+03  0.73688782649E+03  0.25500000920E-02 0. -1.
       -2   -1    0    0    0  501  0.00000000000E+00  0.00000000000E+00 -0.94017544669E+03  0.94017544669E+03  0.25500000920E-02 0.  1.
    10030    2    1    2    0    0  0.00000000000E+00  0.00000000000E+00 -0.20328762020E+03  0.16770632732E+04  0.16646967789E+04 0.  0.
        2    1    3    3  502    0 -0.53752129683E+03  0.35204508695E+03  0.43137922330E+03  0.77392048822E+03  0.25500000920E-02 0. -1.
       -2    1    3    3    0  502  0.53752129683E+03 -0.35204508695E+03 -0.63466684349E+03  0.90314278496E+03  0.25500000920E-02 0.  1.
</event>
<event>
 5   0  0.1214723E-04  0.1844697E+04  0.7818609E-02  0.8682885E-01
       -1   -1    0    0    0  501  0.00000000000E+00  0.00000000000E+00  0.81886666330E+03  0.81886666331E+03  0.50400001928E-02 0. -1.
        1   -1    0    0  501    0  0.00000000000E+00  0.00000000000E+00 -0.10389076458E+04  0.10389076458E+04  0.50400001928E-02 0.  1.
    10030    2    1    2    0    0  0.00000000000E+00  0.00000000000E+00 -0.22004098250E+03  0.18577743091E+04  0.18446970889E+04 0.  0.
        1    1    3    3  502    0  0.44159019938E+03  0.53765781496E+03  0.49978755025E+03  0.85665945718E+03  0.50400001928E-02 0. -1.
       -1    1    3    3    0  502 -0.44159019938E+03 -0.53765781496E+03 -0.71982853274E+03  0.10011148519E+04  0.50400001928E-02 0.  1.
</event>
<event>
 5   0  0.2393421E-04  0.1769844E+04  0.7818609E-02  0.8722502E-01
        2   -1    0    0  501    0  0.00000000000E+00  0.00000000000E+00  0.10406233150E+04  0.10406233151E+04  0.25500000920E-02 0. -1.
       -2   -1    0    0    0  501  0.00000000000E+00  0.00000000000E+00 -0.75251750645E+03  0.75251750645E+03  0.25500000920E-02 0.  1.
    10030    2    1    2    0    0  0.00000000000E+00  0.00000000000E+00  0.28810580860E+03  0.17931408215E+04  0.17698443572E+04 0.  0.
        5    1    3    3  502    0  0.30956654905E+03 -0.80010394374E+03 -0.75753043889E+02  0.86125395949E+03  0.46999998093E+01 0. -1.
       -5    1    3    3    0  502 -0.30956654905E+03  0.80010394374E+03  0.36385885249E+03  0.93188686202E+03  0.46999998093E+01 0.  1.
</event>
<event>
 5   0  0.2569405E-04  0.1806344E+04  0.7818609E-02  0.8702933E-01
        2   -1    0    0  501    0  0.00000000000E+00  0.00000000000E+00  0.76096938807E+03  0.76096938807E+03  0.25500000920E-02 0. -1.
       -2   -1    0    0    0  501  0.00000000000E+00  0.00000000000E+00 -0.10719480149E+04  0.10719480149E+04  0.25500000920E-02 0.  1.
    10030    2    1    2    0    0  0.00000000000E+00  0.00000000000E+00 -0.31097862680E+03  0.18329174029E+04  0.18063439594E+04 0.  0.
        2    1    3    3  502    0  0.34636034990E+03  0.77599404748E+03 -0.46591029499E+03  0.96912571769E+03  0.25500000920E-02 0.  1.
       -2    1    3    3    0  502 -0.34636034990E+03 -0.77599404748E+03  0.15493166819E+03  0.86379168526E+03  0.25500000920E-02 0. -1.
</event>
<event>
 5   0  0.1214723E-04  0.1800725E+04  0.7818609E-02  0.8705914E-01
        1   -1    0    0  501    0  0.00000000000E+00  0.00000000000E+00  0.14613952462E+04  0.14613952463E+04  0.50400001928E-02 0.  1.
       -1   -1    0    0    0  501  0.00000000000E+00  0.00000000000E+00 -0.55471142530E+03  0.55471142532E+03  0.50400001928E-02 0. -1.
    10030    2    1    2    0    0  0.00000000000E+00  0.00000000000E+00  0.90668382095E+03  0.20161066716E+04  0.18007250095E+04 0.  0.
        1    1    3    3  502    0  0.59776405785E+03 -0.76025266931E+02  0.12023514385E+04  0.13448980228E+04  0.50400001928E-02 0.  1.
       -1    1    3    3    0  502 -0.59776405785E+03  0.76025266931E+02 -0.29566761756E+03  0.67120864876E+03  0.50400001928E-02 0. -1.
</event>
<event>
 5   0  0.2393421E-04  0.1789244E+04  0.7818609E-02  0.8712040E-01
        2   -1    0    0  501    0  0.00000000000E+00  0.00000000000E+00  0.52770392108E+03  0.52770392109E+03  0.25500000920E-02 0.  1.
       -2   -1    0    0    0  501  0.00000000000E+00  0.00000000000E+00 -0.15166621985E+04  0.15166621985E+04  0.25500000920E-02 0. -1.
    10030    2    1    2    0    0  0.00000000000E+00  0.00000000000E+00 -0.98895827738E+03  0.20443661196E+04  0.17892440740E+04 0.  0.
        5    1    3    3  502    0  0.49595785265E+03  0.64160682467E+03 -0.92608805375E+03  0.12309730632E+04  0.46999998093E+01 0. -1.
       -5    1    3    3    0  502 -0.49595785265E+03 -0.64160682467E+03 -0.62870223628E+02  0.81339305633E+03  0.46999998093E+01 0.  1.
</event>
<event>
 5   0  0.2393421E-04  0.1795009E+04  0.7818609E-02  0.8708958E-01
        2   -1    0    0  501    0  0.00000000000E+00  0.00000000000E+00  0.20040824338E+04  0.20040824338E+04  0.25500000920E-02 0.  1.
       -2   -1    0    0    0  501  0.00000000000E+00  0.00000000000E+00 -0.40193659444E+03  0.40193659445E+03  0.25500000920E-02 0. -1.
    10030    2    1    2    0    0  0.00000000000E+00  0.00000000000E+00  0.16021458393E+04  0.24060190282E+04  0.17950087113E+04 0.  0.
        5    1    3    3  502    0  0.23944320894E+03  0.83745114863E+03  0.51099448087E+03  0.10098489620E+04  0.46999998093E+01 0.  1.
       -5    1    3    3    0  502 -0.23944320894E+03 -0.83745114863E+03  0.10911513585E+04  0.13961700662E+04  0.46999998093E+01 0. -1.
</event>
<event>
 5   0  0.2431811E-04  0.1793694E+04  0.7818609E-02  0.8709660E-01
       -2   -1    0    0    0  501  0.00000000000E+00  0.00000000000E+00  0.16742707273E+04  0.16742707273E+04  0.25500000920E-02 0. -1.
        2   -1    0    0  501    0  0.00000000000E+00  0.00000000000E+00 -0.48040882166E+03  0.48040882166E+03  0.25500000920E-02 0.  1.
    10030    2    1    2    0    0  0.00000000000E+00  0.00000000000E+00  0.11938619057E+04  0.21546795490E+04  0.17936938727E+04 0.  0.
        3    1    3    3  502    0  0.59065744226E+03  0.53615953796E+03  0.10892850658E+04  0.13501426698E+04  0.10100000352E+00 0. -1.
       -3    1    3    3    0  502 -0.59065744226E+03 -0.53615953796E+03  0.10457683989E+03  0.80453687913E+03  0.10100000352E+00 0.  1.
</event>
<event>
 5   0  0.1253925E-04  0.1806948E+04  0.7818609E-02  0.8702613E-01
        1   -1    0    0  501    0  0.00000000000E+00  0.00000000000E+00  0.23807074148E+04  0.23807074148E+04  0.50400001928E-02 0.  1.
       -1   -1    0    0    0  501  0.00000000000E+00  0.00000000000E+00 -0.34286672458E+03  0.34286672461E+03  0.50400001928E-02 0. -1.
    10030    2    1    2    0    0  0.00000000000E+00  0.00000000000E+00  0.20378406903E+04  0.27235741395E+04  0.18069480939E+04 0.  0.
        2    1    3    3  502    0  0.64164308041E+03  0.37949779867E+03  0.17882837154E+04  0.19374424040E+04  0.25500000920E-02 0. -1.
       -2    1    3    3    0  502 -0.64164308041E+03 -0.37949779867E+03  0.24955697483E+03  0.78613173548E+03  0.25500000920E-02 0.  1.
</event>
<event>
 5   0  0.1239119E-04  0.1793692E+04  0.7818609E-02  0.8709661E-01
        1   -1    0    0  501    0  0.00000000000E+00  0.00000000000E+00  0.17137495459E+04  0.17137495459E+04  0.50400001928E-02 0.  1.
       -1   -1    0    0    0  501  0.00000000000E+00  0.00000000000E+00 -0.46934100908E+03  0.46934100910E+03  0.50400001928E-02 0. -1.
    10030    2    1    2    0    0  0.00000000000E+00  0.00000000000E+00  0.12444085368E+04  0.21830905550E+04  0.17936922158E+04 0.  0.
        5    1    3    3  502    0 -0.11346023705E+03  0.38542280006E+02 -0.45953902504E+03  0.47492835067E+03  0.46999998093E+01 0. -1.
       -5    1    3    3    0  502  0.11346023705E+03 -0.38542280006E+02  0.17039475619E+04  0.17081622044E+04  0.46999998093E+01 0.  1.
</event>
<event>
 5   0  0.2569405E-04  0.1823438E+04  0.7818609E-02  0.8693934E-01
        2   -1    0    0  501    0  0.00000000000E+00  0.00000000000E+00  0.21553988063E+04  0.21553988063E+04  0.25500000920E-02 0. -1.
       -2   -1    0    0    0  501  0.00000000000E+00  0.00000000000E+00 -0.38565087986E+03  0.38565087987E+03  0.25500000920E-02 0.  1.
    10030    2    1    2    0    0  0.00000000000E+00  0.00000000000E+00  0.17697479265E+04  0.25410496862E+04  0.18234379026E+04 0.  0.
        2    1    3    3  502    0 -0.32297370911E+03 -0.36938831955E+03  0.19557069042E+04  0.20163207192E+04  0.25500000920E-02 0. -1.
       -2    1    3    3    0  502  0.32297370911E+03  0.36938831955E+03 -0.18595897776E+03  0.52472896701E+03  0.25500000920E-02 0.  1.
</event>
<event>
 5   0  0.2550616E-04  0.1807452E+04  0.7818609E-02  0.8702347E-01
       -2   -1    0    0    0  501  0.00000000000E+00  0.00000000000E+00  0.71347639765E+03  0.71347639766E+03  0.25500000920E-02 0. -1.
        2   -1    0    0  501    0  0.00000000000E+00  0.00000000000E+00 -0.11447056812E+04  0.11447056812E+04  0.25500000920E-02 0.  1.
    10030    2    1    2    0    0  0.00000000000E+00  0.00000000000E+00 -0.43122928355E+03  0.18581820789E+04  0.18074517817E+04 0.  0.
        1    1    3    3  502    0  0.49406603385E+03 -0.73717951627E+03 -0.39981744434E+02  0.88833182141E+03  0.50400001928E-02 0.  1.
       -1    1    3    3    0  502 -0.49406603385E+03  0.73717951627E+03 -0.39124753912E+03  0.96985025746E+03  0.50400001928E-02 0. -1.
</event>
<event>
 5   0  0.1253925E-04  0.1751265E+04  0.7818609E-02  0.8732654E-01
       -1   -1    0    0    0  501  0.00000000000E+00  0.00000000000E+00  0.62320830200E+03  0.62320830202E+03  0.50400001928E-02 0.  1.
        1   -1    0    0  501    0  0.00000000000E+00  0.00000000000E+00 -0.12302984546E+04  0.12302984546E+04  0.50400001928E-02 0. -1.
    10030    2    1    2    0    0  0.00000000000E+00  0.00000000000E+00 -0.60709015262E+03  0.18535067566E+04  0.17512649267E+04 0.  0.
        2    1    3    3  502    0 -0.31168642646E+03  0.42911305882E+03  0.43387113685E+03  0.68522303602E+03  0.25500000920E-02 0.  1.
       -2    1    3    3    0  502  0.31168642646E+03 -0.42911305882E+03 -0.10409612895E+04  0.11682837206E+04  0.25500000920E-02 0. -1.
</event>
<event>
 5   0  0.1330225E-04  0.1802200E+04  0.7818609E-02  0.8705130E-01
       -1   -1    0    0    0  501  0.00000000000E+00  0.00000000000E+00  0.13869612391E+04  0.13869612391E+04  0.50400001928E-02 0. -1.
        1   -1    0    0  501    0  0.00000000000E+00  0.00000000000E+00 -0.58543908085E+03  0.58543908087E+03  0.50400001928E-02 0.  1.
    10030    2    1    2    0    0  0.00000000000E+00  0.00000000000E+00  0.80152215828E+03  0.19724003200E+04  0.18022001143E+04 0.  0.
        3    1    3    3  502    0 -0.37364547384E+03 -0.47052823615E+03  0.11357276445E+04  0.12848677184E+04  0.10100000352E+00 0. -1.
       -3    1    3    3    0  502  0.37364547384E+03  0.47052823615E+03 -0.33420548617E+03  0.68753260164E+03  0.10100000352E+00 0.  1.
</event>
<event>
 5   0  0.2569405E-04  0.1789169E+04  0.7818609E-02  0.8712081E-01
        2   -1    0    0  501    0  0.00000000000E+00  0.00000000000E+00  0.16681013020E+04  0.16681013020E+04  0.25500000920E-02 0.  1.
       -2   -1    0    0    0  501  0.00000000000E+00  0.00000000000E+00 -0.47975582871E+03  0.47975582872E+03  0.25500000920E-02 0. -1.
    10030    2    1    2    0    0  0.00000000000E+00  0.00000000000E+00  0.11883454733E+04  0.21478571307E+04  0.17891688825E+04 0.  0.
        2    1    3    3  502    0 -0.33795791332E+01 -0.47393371592E+03  0.15049996366E+04  0.15778620012E+04  0.25500000920E-02 0.  1.
       -2    1    3    3    0  502  0.33795791332E+01  0.47393371592E+03 -0.31665416325E+03  0.56999512958E+03  0.25500000920E-02 0. -1.
</event>
<event>
 5   0  0.1214723E-04  0.1811773E+04  0.7818609E-02  0.8700063E-01
       -1   -1    0    0    0  501  0.00000000000E+00  0.00000000000E+00  0.35944532964E+03  0.35944532968E+03  0.50400001928E-02 0.  1.
        1   -1    0    0  501    0  0.00000000000E+00  0.00000000000E+00 -0.22830476006E+04  0.22830476006E+04  0.50400001928E-02 0. -1.
    10030    2    1    2    0    0  0.00000000000E+00  0.00000000000E+00 -0.19236022710E+04  0.26424929303E+04  0.18117734930E+04 0.  0.
        1    1    3    3  502    0 -0.27983536152E+03  0.65851417961E+02 -0.22147523416E+04  0.22333320787E+04  0.50400001928E-02 0. -1.
       -1    1    3    3    0  502  0.27983536152E+03 -0.65851417961E+02  0.29115007068E+03  0.40916085161E+03  0.50400001928E-02 0.  1.
</event>
<event>
 5   0  0.1214723E-04  0.1790694E+04  0.7818609E-02  0.8711264E-01
       -1   -1    0    0    0  501  0.00000000000E+00  0.00000000000E+00  0.87766994452E+03  0.87766994453E+03  0.50400001928E-02 0.  1.
        1   -1    0    0  501    0  0.00000000000E+00  0.00000000000E+00 -0.91338017655E+03  0.91338017656E+03  0.50400001928E-02 0. -1.
    10030    2    1    2    0    0  0.00000000000E+00  0.00000000000E+00 -0.35710232029E+02  0.17910501211E+04  0.17906940877E+04 0.  0.
        1    1    3    3  502    0  0.15555519307E+03 -0.48493523686E+03  0.71869249805E+03  0.88083966124E+03  0.50400001928E-02 0.  1.
       -1    1    3    3    0  502 -0.15555519307E+03  0.48493523686E+03 -0.75440273008E+03  0.91021045985E+03  0.50400001928E-02 0. -1.
</event>
<event>
 5   0  0.1253925E-04  0.1810221E+04  0.7818609E-02  0.8700883E-01
        1   -1    0    0  501    0  0.00000000000E+00  0.00000000000E+00  0.12918368797E+04  0.12918368798E+04  0.50400001928E-02 0. -1.
       -1   -1    0    0    0  501  0.00000000000E+00  0.00000000000E+00 -0.63415512396E+03  0.63415512398E+03  0.50400001928E-02 0.  1.
    10030    2    1    2    0    0  0.00000000000E+00  0.00000000000E+00  0.65768175579E+03  0.19259920037E+04  0.18102209552E+04 0.  0.
        2    1    3    3  502    0  0.81767377070E+03 -0.46307787137E+02 -0.81147687341E+02  0.82299438248E+03  0.25500000920E-02 0.  1.
       -2    1    3    3    0  502 -0.81767377070E+03  0.46307787137E+02  0.73882944313E+03  0.11029976212E+04  0.25500000920E-02 0. -1.
</event>
<event>
 5   0  0.2417106E-04  0.1785931E+04  0.7818609E-02  0.8713817E-01
        2   -1    0    0  501    0  0.00000000000E+00  0.00000000000E+00  0.82544507446E+03  0.82544507446E+03  0.25500000920E-02 0.  1.
       -2   -1    0    0    0  501  0.00000000000E+00  0.00000000000E+00 -0.96600935808E+03  0.96600935809E+03  0.25500000920E-02 0. -1.
    10030    2    1    2    0    0  0.00000000000E+00  0.00000000000E+00 -0.14056428363E+03  0.17914544325E+04  0.17859313162E+04 0.  0.
        4    1    3    3  502    0  0.77471113467E+03 -0.22313180928E+03 -0.45542385054E+03  0.92594688996E+03  0.12699999809E+01 0. -1.
       -4    1    3    3    0  502 -0.77471113467E+03  0.22313180928E+03  0.31485956692E+03  0.86550754258E+03  0.12699999809E+01 0.  1.
</event>
<event>
 5   0  0.2393421E-04  0.1764378E+04  0.7818609E-02  0.8725476E-01
        2   -1    0    0  501    0  0.00000000000E+00  0.00000000000E+00  0.84009121670E+03  0.84009121671E+03  0.25500000920E-02 0.  1.
       -2   -1    0    0    0  501  0.00000000000E+00  0.00000000000E+00 -0.92639605037E+03  0.92639605037E+03  0.25500000920E-02 0. -1.
    10030    2    1    2    0    0  0.00000000000E+00  0.00000000000E+00 -0.86304833667E+02  0.17664872671E+04  0.17643777205E+04 0.  0.
        5    1    3    3  502    0 -0.19949005397E+02  0.53193460389E+03 -0.74747252320E+03  0.91765442764E+03  0.46999998093E+01 0. -1.
       -5    1    3    3    0  502  0.19949005397E+02 -0.53193460389E+03  0.66116768954E+03  0.84883283944E+03  0.46999998093E+01 0.  1.
</event>
<event>
 5   0  0.2417106E-04  0.1800707E+04  0.7818609E-02  0.8705923E-01
        2   -1    0    0  501    0  0.00000000000E+00  0.00000000000E+00  0.81938733777E+03  0.81938733778E+03  0.25500000920E-02 0.  1.
       -2   -1    0    0    0  501  0.00000000000E+00  0.00000000000E+00 -0.98932049004E+03  0.98932049005E+03  0.25500000920E-02 0. -1.
    10030    2    1    2    0    0  0.00000000000E+00  0.00000000000E+00 -0.16993315227E+03  0.18087078278E+04  0.18007072861E+04 0.  0.
        4    1    3    3  502    0  0.45492389295E+03  0.37207324553E+03  0.60014957077E+03  0.83998533833E+03  0.12699999809E+01 0.  1.
       -4    1    3    3    0  502 -0.45492389295E+03 -0.37207324553E+03 -0.77008272304E+03  0.96872248949E+03  0.12699999809E+01 0. -1.
</event>
<event>
 5   0  0.2550616E-04  0.1784663E+04  0.7818609E-02  0.8714498E-01
        2   -1    0    0  501    0  0.00000000000E+00  0.00000000000E+00  0.78518554963E+03  0.78518554964E+03  0.25500000920E-02 0.  1.
       -2   -1    0    0    0  501  0.00000000000E+00  0.00000000000E+00 -0.10140983204E+04  0.10140983204E+04  0.25500000920E-02 0. -1.
    10030    2    1    2    0    0  0.00000000000E+00  0.00000000000E+00 -0.22891277080E+03  0.17992838701E+04  0.17846628221E+04 0.  0.
        1    1    3    3  502    0 -0.40664397193E+03  0.79083926943E+03 -0.18901682743E+03  0.90912784088E+03  0.50400001928E-02 0.  1.
       -1    1    3    3    0  502  0.40664397193E+03 -0.79083926943E+03 -0.39895943367E+02  0.89015602919E+03  0.50400001928E-02 0. -1.
</event>
<event>
 5   0  0.2393421E-04  0.1794857E+04  0.7818609E-02  0.8709039E-01
       -2   -1    0    0    0  501  0.00000000000E+00  0.00000000000E+00  0.13616272171E+04  0.13616272171E+04  0.25500000920E-02 0. -1.
        2   -1    0    0  501    0  0.00000000000E+00  0.00000000000E+00 -0.59148192145E+03  0.59148192145E+03  0.25500000920E-02 0.  1.
    10030    2    1    2    0    0  0.00000000000E+00  0.00000000000E+00  0.77014529570E+03  0.19531091386E+04  0.17948569667E+04 0.  0.
        5    1    3    3  502    0 -0.86059624393E+03  0.20116682988E+03  0.55456816393E+03  0.10433896333E+04  0.46999998093E+01 0. -1.
       -5    1    3    3    0  502  0.86059624393E+03 -0.20116682988E+03  0.21557713176E+03  0.90971950526E+03  0.46999998093E+01 0.  1.
</event>
<event>
 5   0  0.2431811E-04  0.1770708E+04  0.7818609E-02  0.8722033E-01
        2   -1    0    0  501    0  0.00000000000E+00  0.00000000000E+00  0.13740543218E+04  0.13740543218E+04  0.25500000920E-02 0. -1.
       -2   -1    0    0    0  501  0.00000000000E+00  0.00000000000E+00 -0.57046659216E+03  0.57046659217E+03  0.25500000920E-02 0.  1.
    10030    2    1    2    0    0  0.00000000000E+00  0.00000000000E+00  0.80358772965E+03  0.19445209140E+04  0.17707084305E+04 0.  0.
        3    1    3    3  502    0 -0.16705063530E+03 -0.71583717517E+03 -0.14012693932E+03  0.74830765426E+03  0.10100000352E+00 0.  1.
       -3    1    3    3    0  502  0.16705063530E+03  0.71583717517E+03  0.94371466897E+03  0.11962132597E+04  0.10100000352E+00 0. -1.
</event>
<event>
 5   0  0.2417106E-04  0.1796669E+04  0.7818609E-02  0.8708073E-01
       -2   -1    0    0    0  501  0.00000000000E+00  0.00000000000E+00  0.36063444329E+03  0.36063444330E+03  0.25500000920E-02 0.  1.
        2   -1    0    0  501    0  0.00000000000E+00  0.00000000000E+00 -0.22377360741E+04  0.22377360741E+04  0.25500000920E-02 0. -1.
    10030    2    1    2    0    0  0.00000000000E+00  0.00000000000E+00 -0.18771016308E+04  0.25983705174E+04  0.17966688101E+04 0.  0.
        4    1    3    3  502    0 -0.51884746291E+03 -0.13784199733E+03 -0.19802277034E+04  0.20517081850E+04  0.12699999809E+01 0. -1.
       -4    1    3    3    0  502  0.51884746291E+03  0.13784199733E+03  0.10312607257E+03  0.54666233247E+03  0.12699999809E+01 0.  1.
</event>
<event>
 5   0  0.1330225E-04  0.1795558E+04  0.7818609E-02  0.8708665E-01
       -1   -1    0    0    0  501  0.00000000000E+00  0.00000000000E+00  0.69642628959E+03  0.69642628961E+03  0.50400001928E-02 0.  1.
        1   -1    0    0  501    0  0.00000000000E+00  0.00000000000E+00 -0.11573478833E+04  0.11573478833E+04  0.50400001928E-02 0. -1.
    10030    2    1    2    0    0  0.00000000000E+00  0.00000000000E+00 -0.46092159369E+03  0.18537741729E+04  0.17955584002E+04 0.  0.
        3    1    3    3  502    0  0.54113718178E+03  0.57497824706E+03  0.21068441702E+03  0.81720093482E+03  0.10100000352E+00 0.  1.
       -3    1    3    3    0  502 -0.54113718178E+03 -0.57497824706E+03 -0.67160601071E+03  0.10365732381E+04  0.10100000352E+00 0. -1.
</event>
<event>
 5   0  0.1253925E-04  0.1788817E+04  0.7818609E-02  0.8712269E-01
        1   -1    0    0  501    0  0.00000000000E+00  0.00000000000E+00  0.13605154872E+04  0.13605154872E+04  0.50400001928E-02 0.  1.
       -1   -1    0    0    0  501  0.00000000000E+00  0.00000000000E+00 -0.58798779214E+03  0.58798779216E+03  0.50400001928E-02 0. -1.
    10030    2    1    2    0    0  0.00000000000E+00  0.00000000000E+00  0.77252769508E+03  0.19485032794E+04  0.17888169247E+04 0.  0.
        2    1    3    3  502    0 -0.40576431679E+02 -0.60476312330E+03  0.11026864432E+04  0.12582933975E+04  0.25500000920E-02 0.  1.
       -2    1    3    3    0  502  0.40576431679E+02  0.60476312330E+03 -0.33015874814E+03  0.69020988191E+03  0.25500000920E-02 0. -1.
</event>
<event>
 5   0  0.1330225E-04  0.1801100E+04  0.7818609E-02  0.8705715E-01
       -1   -1    0    0    0  501  0.00000000000E+00  0.00000000000E+00  0.86643480270E+03  0.86643480271E+03  0.50400001928E-02 0. -1.
        1   -1    0    0  501    0  0.00000000000E+00  0.00000000000E+00 -0.93600822341E+03  0.93600822343E+03  0.50400001928E-02 0.  1.
    10030    2    1    2    0    0  0.00000000000E+00  0.00000000000E+00 -0.69573420718E+02  0.18024430261E+04  0.18010997756E+04 0.  0.
        3    1    3    3  502    0 -0.50738379789E+03  0.74215555437E+03  0.17758685849E+02  0.89919328643E+03  0.10100000352E+00 0.  1.
       -3    1    3    3    0  502  0.50738379789E+03 -0.74215555437E+03 -0.87332106567E+02  0.90324973971E+03  0.10100000352E+00 0. -1.
</event>
<event>
 5   0  0.2417106E-04  0.1795061E+04  0.7818609E-02  0.8708930E-01
        2   -1    0    0  501    0  0.00000000000E+00  0.00000000000E+00  0.83273243887E+03  0.83273243888E+03  0.25500000920E-02 0. -1.
       -2   -1    0    0    0  501  0.00000000000E+00  0.00000000000E+00 -0.96737074145E+03  0.96737074145E+03  0.25500000920E-02 0.  1.
    10030    2    1    2    0    0  0.00000000000E+00  0.00000000000E+00 -0.13463830257E+03  0.18001031803E+04  0.17950609982E+04 0.  0.
        4    1    3    3  502    0  0.24779202825E+03  0.79670866173E+03 -0.39902585221E+03  0.92486151642E+03  0.12699999809E+01 0.  1.
       -4    1    3    3    0  502 -0.24779202825E+03 -0.79670866173E+03  0.26438754963E+03  0.87524166391E+03  0.12699999809E+01 0. -1.
</event>
<event>
 5   0  0.1214723E-04  0.1460045E+04  0.7818609E-02  0.8911466E-01
       -1   -1    0    0    0  501  0.00000000000E+00  0.00000000000E+00  0.33677332889E+03  0.33677332893E+03  0.50400001928E-02 0. -1.
        1   -1    0    0  501    0  0.00000000000E+00  0.00000000000E+00 -0.15824666989E+04  0.15824666990E+04  0.50400001928E-02 0.  1.
    10030    2    1    2    0    0  0.00000000000E+00  0.00000000000E+00 -0.12456933701E+04  0.19192400279E+04  0.14600446269E+04 0.  0.
        1    1    3    3  502    0 -0.29811616941E+03 -0.44876883494E+03 -0.12703880303E+04  0.13799103106E+04  0.50400001928E-02 0.  1.
       -1    1    3    3    0  502  0.29811616941E+03  0.44876883494E+03  0.24694660262E+02  0.53932971729E+03  0.50400001928E-02 0. -1.
</event>
<event>
 5   0  0.1239119E-04  0.1728148E+04  0.7818609E-02  0.8745472E-01
        1   -1    0    0  501    0  0.00000000000E+00  0.00000000000E+00  0.92913558156E+03  0.92913558158E+03  0.50400001928E-02 0.  1.
       -1   -1    0    0    0  501  0.00000000000E+00  0.00000000000E+00 -0.80356791141E+03  0.80356791143E+03  0.50400001928E-02 0. -1.
    10030    2    1    2    0    0  0.00000000000E+00  0.00000000000E+00  0.12556767015E+03  0.17327034930E+04  0.17281476080E+04 0.  0.
        5    1    3    3  502    0 -0.70256781062E+03  0.33512456633E+03  0.43886125768E+03  0.89360578388E+03  0.46999998093E+01 0.  1.
       -5    1    3    3    0  502  0.70256781062E+03 -0.33512456633E+03 -0.31329358753E+03  0.83909770913E+03  0.46999998093E+01 0. -1.
</event>
<event>
 5   0  0.1214723E-04  0.1848843E+04  0.7818609E-02  0.8680748E-01
        1   -1    0    0  501    0  0.00000000000E+00  0.00000000000E+00  0.76956368813E+03  0.76956368814E+03  0.50400001928E-02 0. -1.
       -1   -1    0    0    0  501  0.00000000000E+00  0.00000000000E+00 -0.11104410669E+04  0.11104410670E+04  0.50400001928E-02 0.  1.
    10030    2    1    2    0    0  0.00000000000E+00  0.00000000000E+00 -0.34087737882E+03  0.18800047551E+04  0.18488430144E+04 0.  0.
        1    1    3    3  502    0  0.59160640837E+03  0.49105007163E+03 -0.69234061051E+03  0.10346322227E+04  0.50400001928E-02 0.  1.
       -1    1    3    3    0  502 -0.59160640837E+03 -0.49105007163E+03  0.35146323169E+03  0.84537253239E+03  0.50400001928E-02 0. -1.
</event>
<event>
 5   0  0.1253925E-04  0.1753072E+04  0.7818609E-02  0.8731661E-01
       -1   -1    0    0    0  501  0.00000000000E+00  0.00000000000E+00  0.48904350449E+03  0.48904350452E+03  0.50400001928E-02 0.  1.
        1   -1    0    0  501    0  0.00000000000E+00  0.00000000000E+00 -0.15710578159E+04  0.15710578159E+04  0.50400001928E-02 0. -1.
    10030    2    1    2    0    0  0.00000000000E+00  0.00000000000E+00 -0.10820143114E+04  0.20601013204E+04  0.17530722975E+04 0.  0.
        2    1    3    3  502    0 -0.25490000168E+02  0.80939842861E+03 -0.14678381682E+03  0.82299516720E+03  0.25500000920E-02 0.  1.
       -2    1    3    3    0  502  0.25490000168E+02 -0.80939842861E+03 -0.93523049461E+03  0.12371061532E+04  0.25500000920E-02 0. -1.
</event>
<event>
 5   0  0.2393421E-04  0.1805069E+04  0.7818609E-02  0.8703608E-01
        2   -1    0    0  501    0  0.00000000000E+00  0.00000000000E+00  0.16793326268E+04  0.16793326268E+04  0.25500000920E-02 0.  1.
       -2   -1    0    0    0  501  0.00000000000E+00  0.00000000000E+00 -0.48505510951E+03  0.48505510952E+03  0.25500000920E-02 0. -1.
    10030    2    1    2    0    0  0.00000000000E+00  0.00000000000E+00  0.11942775173E+04  0.21643877364E+04  0.18050693851E+04 0.  0.
        5    1    3    3  502    0 -0.35342421359E+02 -0.74431448960E+03  0.12077110510E+04  0.14190987347E+04  0.46999998093E+01 0.  1.
       -5    1    3    3    0  502  0.35342421359E+02  0.74431448960E+03 -0.13433533646E+02  0.74528900166E+03  0.46999998093E+01 0. -1.
</event>
<event>
 5   0  0.2417106E-04  0.1755922E+04  0.7818609E-02  0.8730097E-01
       -2   -1    0    0    0  501  0.00000000000E+00  0.00000000000E+00  0.13817999035E+04  0.13817999035E+04  0.25500000920E-02 0.  1.
        2   -1    0    0  501    0  0.00000000000E+00  0.00000000000E+00 -0.55783432562E+03  0.55783432562E+03  0.25500000920E-02 0. -1.
    10030    2    1    2    0    0  0.00000000000E+00  0.00000000000E+00  0.82396557784E+03  0.19396342291E+04  0.17559218858E+04 0.  0.
        4    1    3    3  502    0  0.81225766767E+03  0.32430889784E+03  0.49665082538E+03  0.10057844874E+04  0.12699999809E+01 0.  1.
       -4    1    3    3    0  502 -0.81225766767E+03 -0.32430889784E+03  0.32731475247E+03  0.93384974166E+03  0.12699999809E+01 0. -1.
</event>
<event>
 5   0  0.1330225E-04  0.1808396E+04  0.7818609E-02  0.8701847E-01
       -1   -1    0    0    0  501  0.00000000000E+00  0.00000000000E+00  0.39447964728E+03  0.39447964732E+03  0.50400001928E-02 0.  1.
        1   -1    0    0  501    0  0.00000000000E+00  0.00000000000E+00 -0.20725383443E+04  0.20725383443E+04  0.50400001928E-02 0. -1.
    10030    2    1    2    0    0  0.00000000000E+00  0.00000000000E+00 -0.16780586970E+04  0.24670179916E+04  0.18083961901E+04 0.  0.
        3    1    3    3  502    0  0.21840295542E+03  0.38777045836E+03 -0.19127772671E+04  0.19638693091E+04  0.10100000352E+00 0. -1.
       -3    1    3    3    0  502 -0.21840295542E+03 -0.38777045836E+03  0.23471857016E+03  0.50314868249E+03  0.10100000352E+00 0.  1.
</event>
<event>
 5   0  0.1253925E-04  0.1779373E+04  0.7818609E-02  0.8717346E-01
       -1   -1    0    0    0  501  0.00000000000E+00  0.00000000000E+00  0.74418996062E+03  0.74418996063E+03  0.50400001928E-02 0. -1.
        1   -1    0    0  501    0  0.00000000000E+00  0.00000000000E+00 -0.10636293015E+04  0.10636293015E+04  0.50400001928E-02 0.  1.
    10030    2    1    2    0    0  0.00000000000E+00  0.00000000000E+00 -0.31943934091E+03  0.18078192622E+04  0.17793732020E+04 0.  0.
        2    1    3    3  502    0  0.43752439837E+03  0.28143021334E+03  0.57356062199E+03  0.77433994554E+03  0.25500000920E-02 0. -1.
       -2    1    3    3    0  502 -0.43752439837E+03 -0.28143021334E+03 -0.89299996291E+03  0.10334793166E+04  0.25500000920E-02 0.  1.
</event>
<event>
 5   0  0.2417106E-04  0.1937408E+04  0.7818609E-02  0.8636457E-01
       -2   -1    0    0    0  501  0.00000000000E+00  0.00000000000E+00  0.51612855997E+03  0.51612855998E+03  0.25500000920E-02 0.  1.
        2   -1    0    0  501    0  0.00000000000E+00  0.00000000000E+00 -0.18181274414E+04  0.18181274414E+04  0.25500000920E-02 0. -1.
    10030    2    1    2    0    0  0.00000000000E+00  0.00000000000E+00 -0.13019988814E+04  0.23342560014E+04  0.19374080605E+04 0.  0.
        4    1    3    3  502    0  0.16042854836E+01 -0.86701577585E+03 -0.11715478270E+04  0.14574789375E+04  0.12699999809E+01 0. -1.
       -4    1    3    3    0  502 -0.16042854836E+01  0.86701577585E+03 -0.13045105443E+03  0.87677706391E+03  0.12699999809E+01 0.  1.
</event>
<event>
 5   0  0.1214723E-04  0.1766635E+04  0.7818609E-02  0.8724247E-01
       -1   -1    0    0    0  501  0.00000000000E+00  0.00000000000E+00  0.82265038601E+03  0.82265038602E+03  0.50400001928E-02 0.  1.
        1   -1    0    0  501    0  0.00000000000E+00  0.00000000000E+00 -0.94845872893E+03  0.94845872895E+03  0.50400001928E-02 0. -1.
    10030    2    1    2    0    0  0.00000000000E+00  0.00000000000E+00 -0.12580834292E+03  0.17711091150E+04  0.17666351513E+04 0.  0.
        1    1    3    3  502    0 -0.35525056913E+03 -0.47339525154E+03 -0.72026580125E+03  0.93224935265E+03  0.50400001928E-02 0. -1.
       -1    1    3    3    0  502  0.35525056913E+03  0.47339525154E+03  0.59445745833E+03  0.83885976231E+03  0.50400001928E-02 0.  1.
</event>
<event>
 5   0  0.2550616E-04  0.1834675E+04  0.7818609E-02  0.8688074E-01
       -2   -1    0    0    0  501  0.00000000000E+00  0.00000000000E+00  0.11528136820E+04  0.11528136820E+04  0.25500000920E-02 0. -1.
        2   -1    0    0  501    0  0.00000000000E+00  0.00000000000E+00 -0.72996013086E+03  0.72996013087E+03  0.25500000920E-02 0.  1.
    10030    2    1    2    0    0  0.00000000000E+00  0.00000000000E+00  0.42285355115E+03  0.18827738129E+04  0.18346749316E+04 0.  0.
        1    1    3    3  502    0  0.36434649813E+03  0.67175096224E+03 -0.30933167335E+03  0.82442938456E+03  0.50400001928E-02 0.  1.
       -1    1    3    3    0  502 -0.36434649813E+03 -0.67175096224E+03  0.73218522450E+03  0.10583444283E+04  0.50400001928E-02 0. -1.
</event>
<event>
 5   0  0.1214723E-04  0.1797221E+04  0.7818609E-02  0.8707778E-01
       -1   -1    0    0    0  501  0.00000000000E+00  0.00000000000E+00  0.12082748614E+04  0.12082748614E+04  0.50400001928E-02 0.  1.
        1   -1    0    0  501    0  0.00000000000E+00  0.00000000000E+00 -0.66830921967E+03  0.66830921969E+03  0.50400001928E-02 0. -1.
    10030    2    1    2    0    0  0.00000000000E+00  0.00000000000E+00  0.53996564173E+03  0.18765840811E+04  0.17972214441E+04 0.  0.
        1    1    3    3  502    0  0.34705506289E+03 -0.66734428611E+03  0.78332837780E+03  0.10860013630E+04  0.50400001928E-02 0.  1.
       -1    1    3    3    0  502 -0.34705506289E+03  0.66734428611E+03 -0.24336273607E+03  0.79058271813E+03  0.50400001928E-02 0. -1.
</event>
<event>
 5   0  0.1214723E-04  0.1800621E+04  0.7818609E-02  0.8705970E-01
        1   -1    0    0  501    0  0.00000000000E+00  0.00000000000E+00  0.16401315274E+04  0.16401315274E+04  0.50400001928E-02 0. -1.
       -1   -1    0    0    0  501  0.00000000000E+00  0.00000000000E+00 -0.49420344185E+03  0.49420344187E+03  0.50400001928E-02 0.  1.
    10030    2    1    2    0    0  0.00000000000E+00  0.00000000000E+00  0.11459280856E+04  0.21343349693E+04  0.18006206107E+04 0.  0.
        1    1    3    3  502    0 -0.45766503600E+03  0.42966770199E+03 -0.19200014158E+03  0.65645690926E+03  0.50400001928E-02 0.  1.
       -1    1    3    3    0  502  0.45766503600E+03 -0.42966770199E+03  0.13379282271E+04  0.14778780600E+04  0.50400001928E-02 0. -1.
</event>
<event>
 5   0  0.2431811E-04  0.1794805E+04  0.7818609E-02  0.8709067E-01
        2   -1    0    0  501    0  0.00000000000E+00  0.00000000000E+00  0.10740618513E+04  0.10740618513E+04  0.25500000920E-02 0.  1.
       -2   -1    0    0    0  501  0.00000000000E+00  0.00000000000E+00 -0.74979929644E+03  0.74979929645E+03  0.25500000920E-02 0. -1.
    10030    2    1    2    0    0  0.00000000000E+00  0.00000000000E+00  0.32426255482E+03  0.18238611477E+04  0.17948045246E+04 0.  0.
        3    1    3    3  502    0 -0.66246554589E+03  0.38444206783E+03  0.63732828215E+03  0.99641540155E+03  0.10100000352E+00 0.  1.
       -3    1    3    3    0  502  0.66246554589E+03 -0.38444206783E+03 -0.31306572733E+03  0.82744574616E+03  0.10100000352E+00 0. -1.
</event>
<event>
 5   0  0.1239119E-04  0.1789799E+04  0.7818609E-02  0.8711743E-01
       -1   -1    0    0    0  501  0.00000000000E+00  0.00000000000E+00  0.59342476905E+03  0.59342476907E+03  0.50400001928E-02 0.  1.
        1   -1    0    0  501    0  0.00000000000E+00  0.00000000000E+00 -0.13495308891E+04  0.13495308891E+04  0.50400001928E-02 0. -1.
    10030    2    1    2    0    0  0.00000000000E+00  0.00000000000E+00 -0.75610612005E+03  0.19429556582E+04  0.17897989342E+04 0.  0.
        5    1    3    3  502    0  0.65429745780E+03  0.43862916527E+03 -0.83903436504E+03  0.11508698726E+04  0.46999998093E+01 0. -1.
       -5    1    3    3    0  502 -0.65429745780E+03 -0.43862916527E+03  0.82928244992E+02  0.79208578559E+03  0.46999998093E+01 0.  1.
</event>
<event>
 5   0  0.2431811E-04  0.1813528E+04  0.7818609E-02  0.8699138E-01
       -2   -1    0    0    0  501  0.00000000000E+00  0.00000000000E+00  0.10485164982E+04  0.10485164982E+04  0.25500000920E-02 0.  1.
        2   -1    0    0  501    0  0.00000000000E+00  0.00000000000E+00 -0.78417590320E+03  0.78417590320E+03  0.25500000920E-02 0. -1.
    10030    2    1    2    0    0  0.00000000000E+00  0.00000000000E+00  0.26434059498E+03  0.18326924014E+04  0.18135284635E+04 0.  0.
        3    1    3    3  502    0  0.26875153950E+03  0.46355522773E+03  0.87141283404E+03  0.10229717380E+04  0.10100000352E+00 0.  1.
       -3    1    3    3    0  502 -0.26875153950E+03 -0.46355522773E+03 -0.60707223906E+03  0.80972066343E+03  0.10100000352E+00 0. -1.
</event>
<event>
 5   0  0.2417106E-04  0.1834291E+04  0.7818609E-02  0.8688274E-01
        2   -1    0    0  501    0  0.00000000000E+00  0.00000000000E+00  0.27821459995E+04  0.27821459995E+04  0.25500000920E-02 0.  1.
       -2   -1    0    0    0  501  0.00000000000E+00  0.00000000000E+00 -0.30234062097E+03  0.30234062098E+03  0.25500000920E-02 0. -1.
    10030    2    1    2    0    0  0.00000000000E+00  0.00000000000E+00  0.24798053785E+04  0.30844866205E+04  0.18342908702E+04 0.  0.
        4    1    3    3  502    0 -0.26104475447E+03 -0.33189198009E+02 -0.23749538115E+03  0.35447363184E+03  0.12699999809E+01 0. -1.
       -4    1    3    3    0  502  0.26104475447E+03  0.33189198009E+02  0.27173007597E+04  0.27300129886E+04  0.12699999809E+01 0.  1.
</event>
<event>
 5   0  0.2431811E-04  0.1780426E+04  0.7818609E-02  0.8716778E-01
       -2   -1    0    0    0  501  0.00000000000E+00  0.00000000000E+00  0.79565325717E+03  0.79565325717E+03  0.25500000920E-02 0.  1.
        2   -1    0    0  501    0  0.00000000000E+00  0.00000000000E+00 -0.99601090564E+03  0.99601090564E+03  0.25500000920E-02 0. -1.
    10030    2    1    2    0    0  0.00000000000E+00  0.00000000000E+00 -0.20035764847E+03  0.17916641628E+04  0.17804261526E+04 0.  0.
        3    1    3    3  502    0  0.46941555279E+03 -0.74382994392E+03  0.37966093302E+02  0.88038365564E+03  0.10100000352E+00 0. -1.
       -3    1    3    3    0  502 -0.46941555279E+03  0.74382994392E+03 -0.23832374177E+03  0.91128050718E+03  0.10100000352E+00 0.  1.
</event>
<event>
 5   0  0.2550616E-04  0.1804928E+04  0.7818609E-02  0.8703683E-01
       -2   -1    0    0    0  501  0.00000000000E+00  0.00000000000E+00  0.62719339089E+03  0.62719339090E+03  0.25500000920E-02 0. -1.
        2   -1    0    0  501    0  0.00000000000E+00  0.00000000000E+00 -0.12985490899E+04  0.12985490899E+04  0.25500000920E-02 0.  1.
    10030    2    1    2    0    0  0.00000000000E+00  0.00000000000E+00 -0.67135569904E+03  0.19257424808E+04  0.18049281503E+04 0.  0.
        1    1    3    3  502    0 -0.64776454309E+03  0.24723338424E+03  0.28067330082E+03  0.74799782846E+03  0.50400001928E-02 0. -1.
       -1    1    3    3    0  502  0.64776454309E+03 -0.24723338424E+03 -0.95202899986E+03  0.11777446524E+04  0.50400001928E-02 0.  1.
</event>
<event>
 5   0  0.1253925E-04  0.1761381E+04  0.7818609E-02  0.8727110E-01
        1   -1    0    0  501    0  0.00000000000E+00  0.00000000000E+00  0.60218305271E+03  0.60218305273E+03  0.50400001928E-02 0. -1.
       -1   -1    0    0    0  501  0.00000000000E+00  0.00000000000E+00 -0.12880067332E+04  0.12880067332E+04  0.50400001928E-02 0.  1.
    10030    2    1    2    0    0  0.00000000000E+00  0.00000000000E+00 -0.68582368051E+03  0.18901897860E+04  0.17613810792E+04 0.  0.
        2    1    3    3  502    0  0.43849112706E+03  0.55158776657E+03  0.22401368060E+03  0.73939547053E+03  0.25500000920E-02 0. -1.
       -2    1    3    3    0  502 -0.43849112706E+03 -0.55158776657E+03 -0.90983736110E+03  0.11507943154E+04  0.25500000920E-02 0.  1.
</event>
<event>
 5   0  0.1308893E-04  0.1802575E+04  0.7818609E-02  0.8704931E-01
       -1   -1    0    0    0  501  0.00000000000E+00  0.00000000000E+00  0.87947408156E+03  0.87947408157E+03  0.50400001928E-02 0. -1.
        1   -1    0    0  501    0  0.00000000000E+00  0.00000000000E+00 -0.92364203723E+03  0.92364203724E+03  0.50400001928E-02 0.  1.
    10030    2    1    2    0    0  0.00000000000E+00  0.00000000000E+00 -0.44167955671E+02  0.18031161188E+04  0.18025750829E+04 0.  0.
        4    1    3    3  502    0  0.39326011379E+03  0.39667800766E+03  0.68545474075E+03  0.88422665272E+03  0.12699999809E+01 0. -1.
       -4    1    3    3    0  502 -0.39326011379E+03 -0.39667800766E+03 -0.72962269642E+03  0.91888946609E+03  0.12699999809E+01 0.  1.
</event>
<event>
 5   0  0.2393421E-04  0.1794753E+04  0.7818609E-02  0.8709095E-01
       -2   -1    0    0    0  501  0.00000000000E+00  0.00000000000E+00  0.94960397191E+03  0.94960397191E+03  0.25500000920E-02 0.  1.
        2   -1    0    0  501    0  0.00000000000E+00  0.00000000000E+00 -0.84802184725E+03  0.84802184725E+03  0.25500000920E-02 0. -1.
    10030    2    1    2    0    0  0.00000000000E+00  0.00000000000E+00  0.10158212466E+03  0.17976258192E+04  0.17947533696E+04 0.  0.
        5    1    3    3  502    0  0.44223365372E+03  0.37277996244E+03  0.73798484545E+03  0.93764557642E+03  0.46999998093E+01 0.  1.
       -5    1    3    3    0  502 -0.44223365372E+03 -0.37277996244E+03 -0.63640272079E+03  0.85998024274E+03  0.46999998093E+01 0. -1.
</event>
<event>
 5   0  0.1214723E-04  0.1782504E+04  0.7818609E-02  0.8715659E-01
       -1   -1    0    0    0  501  0.00000000000E+00  0.00000000000E+00  0.89288923101E+03  0.89288923103E+03  0.50400001928E-02 0.  1.
        1   -1    0    0  501    0  0.00000000000E+00  0.00000000000E+00 -0.88961792875E+03  0.88961792876E+03  0.50400001928E-02 0. -1.
    10030    2    1    2    0    0  0.00000000000E+00  0.00000000000E+00  0.32713022622E+01  0.17825071598E+04  0.17825041580E+04 0.  0.
        1    1    3    3  502    0 -0.63267570474E+03  0.18990510058E+03  0.59995745370E+03  0.89235163521E+03  0.50400001928E-02 0.  1.
       -1    1    3    3    0  502  0.63267570474E+03 -0.18990510058E+03 -0.59668615144E+03  0.89015552458E+03  0.50400001928E-02 0. -1.
</event>
<event>
 5   0  0.1308893E-04  0.1818807E+04  0.7818609E-02  0.8696361E-01
       -1   -1    0    0    0  501  0.00000000000E+00  0.00000000000E+00  0.12290921877E+04  0.12290921877E+04  0.50400001928E-02 0. -1.
        1   -1    0    0  501    0  0.00000000000E+00  0.00000000000E+00 -0.67286660838E+03  0.67286660840E+03  0.50400001928E-02 0.  1.
    10030    2    1    2    0    0  0.00000000000E+00  0.00000000000E+00  0.55622557930E+03  0.19019587961E+04  0.18188074024E+04 0.  0.
        4    1    3    3  502    0 -0.75551946262E+03  0.49327334959E+02  0.80489981985E+03  0.11050376361E+04  0.12699999809E+01 0. -1.
       -4    1    3    3    0  502  0.75551946262E+03 -0.49327334959E+02 -0.24867424055E+03  0.79692115996E+03  0.12699999809E+01 0.  1.
</event>
<event>
 5   0  0.1239119E-04  0.1770735E+04  0.7818609E-02  0.8722019E-01
        1   -1    0    0  501    0  0.00000000000E+00  0.00000000000E+00  0.12913128267E+04  0.12913128267E+04  0.50400001928E-02 0. -1.
       -1   -1    0    0    0  501  0.00000000000E+00  0.00000000000E+00 -0.60703804174E+03  0.60703804176E+03  0.50400001928E-02 0.  1.
    10030    2    1    2    0    0  0.00000000000E+00  0.00000000000E+00  0.68427478495E+03  0.18983508685E+04  0.17707354513E+04 0.  0.
        5    1    3    3  502    0  0.42643520059E+02  0.34031655466E+03 -0.53291018387E+03  0.63375798318E+03  0.46999998093E+01 0.  1.
       -5    1    3    3    0  502 -0.42643520059E+02 -0.34031655466E+03  0.12171849688E+04  0.12645928853E+04  0.46999998093E+01 0. -1.
</event>
<event>
 5   0  0.2417106E-04  0.1797818E+04  0.7818609E-02  0.8707461E-01
       -2   -1    0    0    0  501  0.00000000000E+00  0.00000000000E+00  0.40826973321E+03  0.40826973321E+03  0.25500000920E-02 0.  1.
        2   -1    0    0  501    0  0.00000000000E+00  0.00000000000E+00 -0.19791761254E+04  0.19791761254E+04  0.25500000920E-02 0. -1.
    10030    2    1    2    0    0  0.00000000000E+00  0.00000000000E+00 -0.15709063922E+04  0.23874458586E+04  0.17978183542E+04 0.  0.
        4    1    3    3  502    0  0.13320293544E+03  0.22309855193E+02 -0.19656243801E+04  0.19702592643E+04  0.12699999809E+01 0. -1.
       -4    1    3    3    0  502 -0.13320293544E+03 -0.22309855193E+02  0.39471798792E+03  0.41718659439E+03  0.12699999809E+01 0.  1.
</event>
<event>
 5   0  0.1214723E-04  0.1773383E+04  0.7818609E-02  0.8720583E-01
        1   -1    0    0  501    0  0.00000000000E+00  0.00000000000E+00  0.20669804861E+04  0.20669804861E+04  0.50400001928E-02 0. -1.
       -1   -1    0    0    0  501  0.00000000000E+00  0.00000000000E+00 -0.38037219391E+03  0.38037219395E+03  0.50400001928E-02 0.  1.
    10030    2    1    2    0    0  0.00000000000E+00  0.00000000000E+00  0.16866082922E+04  0.24473526801E+04  0.17733830972E+04 0.  0.
        1    1    3    3  502    0 -0.15664033772E+03  0.87075361441E+03  0.92464327530E+03  0.12797317059E+04  0.50400001928E-02 0. -1.
       -1    1    3    3    0  502  0.15664033772E+03 -0.87075361441E+03  0.76196501691E+03  0.11676209742E+04  0.50400001928E-02 0.  1.
</event>
<event>
 5   0  0.2569405E-04  0.1517123E+04  0.7818609E-02  0.8873146E-01
       -2   -1    0    0    0  501  0.00000000000E+00  0.00000000000E+00  0.32779989817E+03  0.32779989818E+03  0.25500000920E-02 0. -1.
        2   -1    0    0  501    0  0.00000000000E+00  0.00000000000E+00 -0.17553862580E+04  0.17553862580E+04  0.25500000920E-02 0.  1.
    10030    2    1    2    0    0  0.00000000000E+00  0.00000000000E+00 -0.14275863598E+04  0.20831861562E+04  0.15171228515E+04 0.  0.
        2    1    3    3  502    0 -0.13859301994E+03  0.31249500168E+03  0.21603501088E+03  0.40439124271E+03  0.25500000920E-02 0. -1.
       -2    1    3    3    0  502  0.13859301994E+03 -0.31249500168E+03 -0.16436213707E+04  0.16787949135E+04  0.25500000920E-02 0.  1.
</event>
<event>
 5   0  0.2393421E-04  0.1808831E+04  0.7818609E-02  0.8701617E-01
        2   -1    0    0  501    0  0.00000000000E+00  0.00000000000E+00  0.17232701384E+04  0.17232701384E+04  0.25500000920E-02 0.  1.
       -2   -1    0    0    0  501  0.00000000000E+00  0.00000000000E+00 -0.47466009336E+03  0.47466009337E+03  0.25500000920E-02 0. -1.
    10030    2    1    2    0    0  0.00000000000E+00  0.00000000000E+00  0.12486100450E+04  0.21979302317E+04  0.18088311859E+04 0.  0.
        5    1    3    3  502    0  0.24480356491E+03  0.64772658029E+03 -0.82621067543E+02  0.69737137811E+03  0.46999998093E+01 0. -1.
       -5    1    3    3    0  502 -0.24480356491E+03 -0.64772658029E+03  0.13312311125E+04  0.15005588536E+04  0.46999998093E+01 0.  1.
</event>
<event>
 5   0  0.1330225E-04  0.1753934E+04  0.7818609E-02  0.8731188E-01
        1   -1    0    0  501    0  0.00000000000E+00  0.00000000000E+00  0.80973880017E+03  0.80973880019E+03  0.50400001928E-02 0. -1.
       -1   -1    0    0    0  501  0.00000000000E+00  0.00000000000E+00 -0.94977660311E+03  0.94977660313E+03  0.50400001928E-02 0.  1.
    10030    2    1    2    0    0  0.00000000000E+00  0.00000000000E+00 -0.14003780294E+03  0.17595154033E+04  0.17539338266E+04 0.  0.
        3    1    3    3  502    0  0.42692986824E+03 -0.41479296032E+02 -0.83735915732E+03  0.94082942819E+03  0.10100000352E+00 0.  1.
       -3    1    3    3    0  502 -0.42692986824E+03  0.41479296032E+02  0.69732135438E+03  0.81868597513E+03  0.10100000352E+00 0. -1.
</event>
<event>
 5   0  0.1239119E-04  0.1800570E+04  0.7818609E-02  0.8705996E-01
        1   -1    0    0  501    0  0.00000000000E+00  0.00000000000E+00  0.81204973936E+03  0.81204973937E+03  0.50400001928E-02 0. -1.
       -1   -1    0    0    0  501  0.00000000000E+00  0.00000000000E+00 -0.99810760348E+03  0.99810760349E+03  0.50400001928E-02 0.  1.
    10030    2    1    2    0    0  0.00000000000E+00  0.00000000000E+00 -0.18605786412E+03  0.18101573429E+04  0.18005699312E+04 0.  0.
        5    1    3    3  502    0 -0.12907114091E+03 -0.55409573777E+03 -0.79446137304E+03  0.97717573101E+03  0.46999998093E+01 0.  1.
       -5    1    3    3    0  502  0.12907114091E+03  0.55409573777E+03  0.60840350892E+03  0.83298161185E+03  0.46999998093E+01 0. -1.
</event>
<event>
 5   0  0.2569405E-04  0.1794298E+04  0.7818609E-02  0.8709338E-01
       -2   -1    0    0    0  501  0.00000000000E+00  0.00000000000E+00  0.67435622096E+03  0.67435622096E+03  0.25500000920E-02 0. -1.
        2   -1    0    0  501    0  0.00000000000E+00  0.00000000000E+00 -0.11935477521E+04  0.11935477521E+04  0.25500000920E-02 0.  1.
    10030    2    1    2    0    0  0.00000000000E+00  0.00000000000E+00 -0.51919153111E+03  0.18679039730E+04  0.17942980261E+04 0.  0.
        2    1    3    3  502    0  0.20160717721E+03 -0.69593681167E+03 -0.81035733421E+03  0.10870384119E+04  0.25500000920E-02 0.  1.
       -2    1    3    3    0  502 -0.20160717721E+03  0.69593681167E+03  0.29116580310E+03  0.78086556118E+03  0.25500000920E-02 0. -1.
</event>
<event>
 5   0  0.1308893E-04  0.1965790E+04  0.7818609E-02  0.8622784E-01
       -1   -1    0    0    0  501  0.00000000000E+00  0.00000000000E+00  0.60130658566E+03  0.60130658568E+03  0.50400001928E-02 0.  1.
        1   -1    0    0  501    0  0.00000000000E+00  0.00000000000E+00 -0.16066391332E+04  0.16066391332E+04  0.50400001928E-02 0. -1.
    10030    2    1    2    0    0  0.00000000000E+00  0.00000000000E+00 -0.10053325475E+04  0.22079457189E+04  0.19657901125E+04 0.  0.
        4    1    3    3  502    0  0.44171111097E+03  0.22692395433E+03  0.45004207880E+03  0.67018107418E+03  0.12699999809E+01 0.  1.
       -4    1    3    3    0  502 -0.44171111097E+03 -0.22692395433E+03 -0.14553746263E+04  0.15377646447E+04  0.12699999809E+01 0. -1.
</event>
<event>
 5   0  0.2431811E-04  0.1807872E+04  0.7818609E-02  0.8702124E-01
       -2   -1    0    0    0  501  0.00000000000E+00  0.00000000000E+00  0.32427269484E+03  0.32427269485E+03  0.25500000920E-02 0. -1.
        2   -1    0    0  501    0  0.00000000000E+00  0.00000000000E+00 -0.25197936696E+04  0.25197936696E+04  0.25500000920E-02 0.  1.
    10030    2    1    2    0    0  0.00000000000E+00  0.00000000000E+00 -0.21955209747E+04  0.28440663644E+04  0.18078719907E+04 0.  0.
        3    1    3    3  502    0 -0.40897801127E+03  0.80515868737E+03 -0.11598304091E+04  0.14699490174E+04  0.10100000352E+00 0. -1.
       -3    1    3    3    0  502  0.40897801127E+03 -0.80515868737E+03 -0.10356905656E+04  0.13741173470E+04  0.10100000352E+00 0.  1.
</event>
<event>
 5   0  0.2393421E-04  0.1761875E+04  0.7818609E-02  0.8726841E-01
        2   -1    0    0  501    0  0.00000000000E+00  0.00000000000E+00  0.13692136172E+04  0.13692136172E+04  0.25500000920E-02 0. -1.
       -2   -1    0    0    0  501  0.00000000000E+00  0.00000000000E+00 -0.56678556349E+03  0.56678556349E+03  0.25500000920E-02 0.  1.
    10030    2    1    2    0    0  0.00000000000E+00  0.00000000000E+00  0.80242805370E+03  0.19359991807E+04  0.17618745830E+04 0.  0.
        5    1    3    3  502    0  0.57491223013E+03  0.24591547492E+03 -0.28061804096E+03  0.68539555591E+03  0.46999998093E+01 0.  1.
       -5    1    3    3    0  502 -0.57491223013E+03 -0.24591547492E+03  0.10830460947E+04  0.12506036248E+04  0.46999998093E+01 0. -1.
</event>
<event>
 5   0  0.2417106E-04  0.1802032E+04  0.7818609E-02  0.8705220E-01
        2   -1    0    0  501    0  0.00000000000E+00  0.00000000000E+00  0.12722144878E+04  0.12722144878E+04  0.25500000920E-02 0.  1.
       -2   -1    0    0    0  501  0.00000000000E+00  0.00000000000E+00 -0.63812327565E+03  0.63812327565E+03  0.25500000920E-02 0. -1.
    10030    2    1    2    0    0  0.00000000000E+00  0.00000000000E+00  0.63409121219E+03  0.19103377635E+04  0.18020318269E+04 0.  0.
        4    1    3    3  502    0  0.19579955084E+03 -0.87664146104E+03  0.39193375979E+03  0.98002622429E+03  0.12699999809E+01 0.  1.
       -4    1    3    3    0  502 -0.19579955084E+03  0.87664146104E+03  0.24215745241E+03  0.93031153921E+03  0.12699999809E+01 0. -1.
</event>
<event>
 5   0  0.1308893E-04  0.1796160E+04  0.7818609E-02  0.8708344E-01
       -1   -1    0    0    0  501  0.00000000000E+00  0.00000000000E+00  0.58636578608E+03  0.58636578610E+03  0.50400001928E-02 0. -1.
        1   -1    0    0  501    0  0.00000000000E+00  0.00000000000E+00 -0.13755027851E+04  0.13755027851E+04  0.50400001928E-02 0.  1.
    10030    2    1    2    0    0  0.00000000000E+00  0.00000000000E+00 -0.78913699904E+03  0.19618685712E+04  0.17961600952E+04 0.  0.
        4    1    3    3  502    0 -0.33839580471E+03  0.68894192966E+02  0.51094359630E+03  0.61670341492E+03  0.12699999809E+01 0. -1.
       -4    1    3    3    0  502  0.33839580471E+03 -0.68894192966E+02 -0.13000805953E+04  0.13451651563E+04  0.12699999809E+01 0.  1.
</event>
<event>
 5   0  0.2550616E-04  0.1819589E+04  0.7818609E-02  0.8695951E-01
        2   -1    0    0  501    0  0.00000000000E+00  0.00000000000E+00  0.13447258487E+04  0.13447258487E+04  0.25500000920E-02 0. -1.
       -2   -1    0    0    0  501  0.00000000000E+00  0.00000000000E+00 -0.61553482211E+03  0.61553482212E+03  0.25500000920E-02 0.  1.
    10030    2    1    2    0    0  0.00000000000E+00  0.00000000000E+00  0.72919102655E+03  0.19602606708E+04  0.18195885096E+04 0.  0.
        1    1    3    3  502    0  0.69010011158E+03  0.42641700386E+03 -0.79141036811E+02  0.81506621137E+03  0.50400001928E-02 0.  1.
       -1    1    3    3    0  502 -0.69010011158E+03 -0.42641700386E+03  0.80833206336E+03  0.11451944594E+04  0.50400001928E-02 0. -1.
</event>
<event>
 5   0  0.1308893E-04  0.1767118E+04  0.7818609E-02  0.8723984E-01
       -1   -1    0    0    0  501  0.00000000000E+00  0.00000000000E+00  0.13478956443E+04  0.13478956443E+04  0.50400001928E-02 0.  1.
        1   -1    0    0  501    0  0.00000000000E+00  0.00000000000E+00 -0.57918190245E+03  0.57918190247E+03  0.50400001928E-02 0. -1.
    10030    2    1    2    0    0  0.00000000000E+00  0.00000000000E+00  0.76871374184E+03  0.19270775468E+04  0.17671182910E+04 0.  0.
        4    1    3    3  502    0  0.21058811760E+03  0.33167028549E+02  0.13194277080E+04  0.13365397474E+04  0.12699999809E+01 0.  1.
       -4    1    3    3    0  502 -0.21058811760E+03 -0.33167028549E+02 -0.55071396612E+03  0.59053779933E+03  0.12699999809E+01 0. -1.
</event>
<event>
 5   0  0.2417106E-04  0.1815807E+04  0.7818609E-02  0.8697939E-01
        2   -1    0    0  501    0  0.00000000000E+00  0.00000000000E+00  0.74323049372E+03  0.74323049373E+03  0.25500000920E-02 0. -1.
       -2   -1    0    0    0  501  0.00000000000E+00  0.00000000000E+00 -0.11090616837E+04  0.11090616837E+04  0.25500000920E-02 0.  1.
    10030    2    1    2    0    0  0.00000000000E+00  0.00000000000E+00 -0.36583119001E+03  0.18522921775E+04  0.18158066668E+04 0.  0.
        4    1    3    3  502    0  0.90695151910E+03 -0.21446115905E+02 -0.14662182868E+03  0.91897800160E+03  0.12699999809E+01 0.  1.
       -4    1    3    3    0  502 -0.90695151910E+03  0.21446115905E+02 -0.21920936132E+03  0.93331417586E+03  0.12699999809E+01 0. -1.
</event>
<event>
 5   0  0.1214723E-04  0.1800047E+04  0.7818609E-02  0.8706274E-01
       -1   -1    0    0    0  501  0.00000000000E+00  0.00000000000E+00  0.76301847353E+03  0.76301847354E+03  0.50400001928E-02 0.  1.
        1   -1    0    0  501    0  0.00000000000E+00  0.00000000000E+00 -0.10616291909E+04  0.10616291909E+04  0.50400001928E-02 0. -1.
    10030    2    1    2    0    0  0.00000000000E+00  0.00000000000E+00 -0.29861071737E+03  0.18246476645E+04  0.18000474268E+04 0.  0.
        1    1    3    3  502    0  0.40193255408E+03  0.63437899392E+03  0.35351426990E+03  0.83003543599E+03  0.50400001928E-02 0.  1.
       -1    1    3    3    0  502 -0.40193255408E+03 -0.63437899392E+03 -0.65212498727E+03  0.99461222846E+03  0.50400001928E-02 0. -1.
</event>
<event>
 5   0  0.2393421E-04  0.1798114E+04  0.7818609E-02  0.8707303E-01
        2   -1    0    0  501    0  0.00000000000E+00  0.00000000000E+00  0.77417255583E+03  0.77417255584E+03  0.25500000920E-02 0.  1.
       -2   -1    0    0    0  501  0.00000000000E+00  0.00000000000E+00 -0.10440867897E+04  0.10440867897E+04  0.25500000920E-02 0. -1.
    10030    2    1    2    0    0  0.00000000000E+00  0.00000000000E+00 -0.26991423388E+03  0.18182593456E+04  0.17981138323E+04 0.  0.
        5    1    3    3  502    0 -0.74996380958E+03  0.49143600773E+03 -0.68446481560E+02  0.89925640182E+03  0.46999998093E+01 0.  1.
       -5    1    3    3    0  502  0.74996380958E+03 -0.49143600773E+03 -0.20146775232E+03  0.91900294374E+03  0.46999998093E+01 0. -1.
</event>
<event>
 5   0  0.2393421E-04  0.1862681E+04  0.7818609E-02  0.8673659E-01
       -2   -1    0    0    0  501  0.00000000000E+00  0.00000000000E+00  0.48893773794E+03  0.48893773795E+03  0.25500000920E-02 0.  1.
        2   -1    0    0  501    0  0.00000000000E+00  0.00000000000E+00 -0.17740392614E+04  0.17740392614E+04  0.25500000920E-02 0. -1.
    10030    2    1    2    0    0  0.00000000000E+00  0.00000000000E+00 -0.12851015235E+04  0.22629769994E+04  0.18626805883E+04 0.  0.
        5    1    3    3  502    0 -0.86607763365E+03 -0.16583412611E+03 -0.10065785385E+04  0.13382129386E+04  0.46999998093E+01 0. -1.
       -5    1    3    3    0  502  0.86607763365E+03  0.16583412611E+03 -0.27852298494E+03  0.92476406073E+03  0.46999998093E+01 0.  1.
</event>
<event>
 5   0  0.2569405E-04  0.1821436E+04  0.7818609E-02  0.8694982E-01
        2   -1    0    0  501    0  0.00000000000E+00  0.00000000000E+00  0.93880274374E+03  0.93880274374E+03  0.25500000920E-02 0. -1.
       -2   -1    0    0    0  501  0.00000000000E+00  0.00000000000E+00 -0.88347335201E+03  0.88347335202E+03  0.25500000920E-02 0.  1.
    10030    2    1    2    0    0  0.00000000000E+00  0.00000000000E+00  0.55329391723E+02  0.18222760958E+04  0.18214359246E+04 0.  0.
        2    1    3    3  502    0 -0.42705403658E+03 -0.17428774601E+03  0.81330128960E+03  0.93499216908E+03  0.25500000920E-02 0. -1.
       -2    1    3    3    0  502  0.42705403658E+03  0.17428774601E+03 -0.75797189788E+03  0.88728392668E+03  0.25500000920E-02 0.  1.
</event>
<event>
 5   0  0.2569405E-04  0.2091842E+04  0.7818609E-02  0.8564846E-01
       -2   -1    0    0    0  501  0.00000000000E+00  0.00000000000E+00  0.63757143058E+03  0.63757143058E+03  0.25500000920E-02 0.  1.
        2   -1    0    0  501    0  0.00000000000E+00  0.00000000000E+00 -0.17158086821E+04  0.17158086821E+04  0.25500000920E-02 0. -1.
    10030    2    1    2    0    0  0.00000000000E+00  0.00000000000E+00 -0.10782372515E+04  0.23533801126E+04  0.20918418640E+04 0.  0.
        2    1    3    3  502    0 -0.10167897379E+04 -0.13991273627E+03 -0.76556424383E+03  0.12804395949E+04  0.25500000920E-02 0. -1.
       -2    1    3    3    0  502  0.10167897379E+04  0.13991273627E+03 -0.31267300764E+03  0.10729405177E+04  0.25500000920E-02 0.  1.
</event>
<event>
 5   0  0.2550616E-04  0.1806926E+04  0.7818609E-02  0.8702625E-01
       -2   -1    0    0    0  501  0.00000000000E+00  0.00000000000E+00  0.14670435786E+04  0.14670435786E+04  0.25500000920E-02 0. -1.
        2   -1    0    0  501    0  0.00000000000E+00  0.00000000000E+00 -0.55638782559E+03  0.55638782560E+03  0.25500000920E-02 0.  1.
    10030    2    1    2    0    0  0.00000000000E+00  0.00000000000E+00  0.91065575298E+03  0.20234314042E+04  0.18069257724E+04 0.  0.
        1    1    3    3  502    0  0.11035165240E+03  0.34157405901E+03  0.13837624712E+04  0.14295624861E+04  0.50400001928E-02 0. -1.
       -1    1    3    3    0  502 -0.11035165240E+03 -0.34157405901E+03 -0.47310671822E+03  0.59386891805E+03  0.50400001928E-02 0.  1.
</event>
<event>
 5   0  0.1330225E-04  0.1807504E+04  0.7818609E-02  0.8702319E-01
        1   -1    0    0  501    0  0.00000000000E+00  0.00000000000E+00  0.69106440647E+03  0.69106440649E+03  0.50400001928E-02 0.  1.
       -1   -1    0    0    0  501  0.00000000000E+00  0.00000000000E+00 -0.11818984806E+04  0.11818984806E+04  0.50400001928E-02 0. -1.
    10030    2    1    2    0    0  0.00000000000E+00  0.00000000000E+00 -0.49083407409E+03  0.18729628871E+04  0.18075043259E+04 0.  0.
        3    1    3    3  502    0  0.52802326115E+03  0.61681197605E+03 -0.65665518251E+03  0.10442517020E+04  0.10100000352E+00 0. -1.
       -3    1    3    3    0  502 -0.52802326115E+03 -0.61681197605E+03  0.16582110842E+03  0.82871118511E+03  0.10100000352E+00 0.  1.
</event>
<event>
 5   0  0.1330225E-04  0.1789208E+04  0.7818609E-02  0.8712060E-01
       -1   -1    0    0    0  501  0.00000000000E+00  0.00000000000E+00  0.89068154685E+03  0.89068154687E+03  0.50400001928E-02 0. -1.
        1   -1    0    0  501    0  0.00000000000E+00  0.00000000000E+00 -0.89854330700E+03  0.89854330702E+03  0.50400001928E-02 0.  1.
    10030    2    1    2    0    0  0.00000000000E+00  0.00000000000E+00 -0.78617601506E+01  0.17892248539E+04  0.17892075817E+04 0.  0.
        3    1    3    3  502    0 -0.54606888542E+03 -0.66422904848E+03  0.24290034207E+03  0.89352786350E+03  0.10100000352E+00 0.  1.
       -3    1    3    3    0  502  0.54606888542E+03  0.66422904848E+03 -0.25076210222E+03  0.89569699038E+03  0.10100000352E+00 0. -1.
</event>
<event>
 5   0  0.9144875E-05  0.1798763E+04  0.7818609E-02  0.8706958E-01
        3   -1    0    0  501    0  0.00000000000E+00  0.00000000000E+00  0.13818684124E+04  0.13818684161E+04  0.10100000352E+00 0.  1.
       -3   -1    0    0    0  501  0.00000000000E+00  0.00000000000E+00 -0.58535736892E+03  0.58535737763E+03  0.10100000352E+00 0. -1.
    10030    2    1    2    0    0  0.00000000000E+00  0.00000000000E+00  0.79651104353E+03  0.19672257938E+04  0.17987627640E+04 0.  0.
        3    1    3    3  502    0  0.14142045820E+03  0.19008833189E+02 -0.57289884950E+03  0.59040171384E+03  0.10100000352E+00 0. -1.
       -3    1    3    3    0  502 -0.14142045820E+03 -0.19008833189E+02  0.13694098930E+04  0.13768240799E+04  0.10100000352E+00 0.  1.
</event>
<event>
 5   0  0.2431811E-04  0.1776022E+04  0.7818609E-02  0.8719156E-01
       -2   -1    0    0    0  501  0.00000000000E+00  0.00000000000E+00  0.61853036496E+03  0.61853036497E+03  0.25500000920E-02 0. -1.
        2   -1    0    0  501    0  0.00000000000E+00  0.00000000000E+00 -0.12748984299E+04  0.12748984299E+04  0.25500000920E-02 0.  1.
    10030    2    1    2    0    0  0.00000000000E+00  0.00000000000E+00 -0.65636806493E+03  0.18934287949E+04  0.17760218367E+04 0.  0.
        3    1    3    3  502    0 -0.29416808614E+03 -0.71923751064E+03 -0.78639406817E+03  0.11055555618E+04  0.10100000352E+00 0.  1.
       -3    1    3    3    0  502  0.29416808614E+03  0.71923751064E+03  0.13002600324E+03  0.78787323304E+03  0.10100000352E+00 0. -1.
</event>
<event>
 5   0  0.1214723E-04  0.1785055E+04  0.7818609E-02  0.8714288E-01
       -1   -1    0    0    0  501  0.00000000000E+00  0.00000000000E+00  0.74834843702E+03  0.74834843704E+03  0.50400001928E-02 0. -1.
        1   -1    0    0  501    0  0.00000000000E+00  0.00000000000E+00 -0.10644846185E+04  0.10644846185E+04  0.50400001928E-02 0.  1.
    10030    2    1    2    0    0  0.00000000000E+00  0.00000000000E+00 -0.31613618147E+03  0.18128330555E+04  0.17850550697E+04 0.  0.
        1    1    3    3  502    0 -0.16103933510E+03  0.35726199483E+03 -0.97244171872E+03  0.10484334489E+04  0.50400001928E-02 0.  1.
       -1    1    3    3    0  502  0.16103933510E+03 -0.35726199483E+03  0.65630553725E+03  0.76439960665E+03  0.50400001928E-02 0. -1.
</event>
<event>
 5   0  0.2569405E-04  0.1811223E+04  0.7818609E-02  0.8700354E-01
        2   -1    0    0  501    0  0.00000000000E+00  0.00000000000E+00  0.71976527486E+03  0.71976527487E+03  0.25500000920E-02 0.  1.
       -2   -1    0    0    0  501  0.00000000000E+00  0.00000000000E+00 -0.11394443080E+04  0.11394443080E+04  0.25500000920E-02 0. -1.
    10030    2    1    2    0    0  0.00000000000E+00  0.00000000000E+00 -0.41967903312E+03  0.18592095828E+04  0.18112232833E+04 0.  0.
        2    1    3    3  502    0  0.13524450741E+03  0.86108514409E+03  0.42380998919E+02  0.87267110141E+03  0.25500000920E-02 0.  1.
       -2    1    3    3    0  502 -0.13524450741E+03 -0.86108514409E+03 -0.46206003204E+03  0.98653848144E+03  0.25500000920E-02 0. -1.
</event>
<event>
 5   0  0.1308893E-04  0.1809145E+04  0.7818609E-02  0.8701451E-01
       -1   -1    0    0    0  501  0.00000000000E+00  0.00000000000E+00  0.13190537408E+04  0.13190537408E+04  0.50400001928E-02 0.  1.
        1   -1    0    0  501    0  0.00000000000E+00  0.00000000000E+00 -0.62033201243E+03  0.62033201245E+03  0.50400001928E-02 0. -1.
    10030    2    1    2    0    0  0.00000000000E+00  0.00000000000E+00  0.69872172840E+03  0.19393857533E+04  0.18091448384E+04 0.  0.
        4    1    3    3  502    0  0.72052530422E+03  0.42241533415E+03  0.72172626509E+03  0.11038486505E+04  0.12699999809E+01 0. -1.
       -4    1    3    3    0  502 -0.72052530422E+03 -0.42241533415E+03 -0.23004536691E+02  0.83553710280E+03  0.12699999809E+01 0.  1.
</event>
<event>
 5   0  0.1214723E-04  0.1792943E+04  0.7818609E-02  0.8710061E-01
        1   -1    0    0  501    0  0.00000000000E+00  0.00000000000E+00  0.10451040186E+04  0.10451040186E+04  0.50400001928E-02 0. -1.
       -1   -1    0    0    0  501  0.00000000000E+00  0.00000000000E+00 -0.76897747389E+03  0.76897747391E+03  0.50400001928E-02 0.  1.
    10030    2    1    2    0    0  0.00000000000E+00  0.00000000000E+00  0.27612654467E+03  0.18140814925E+04  0.17929433323E+04 0.  0.
        1    1    3    3  502    0  0.43232066484E+03 -0.47414507809E+02  0.93121352711E+03  0.10277684204E+04  0.50400001928E-02 0. -1.
       -1    1    3    3    0  502 -0.43232066484E+03  0.47414507809E+02 -0.65508698244E+03  0.78631307212E+03  0.50400001928E-02 0.  1.
</event>
<event>
 5   0  0.1253925E-04  0.1796250E+04  0.7818609E-02  0.8708296E-01
       -1   -1    0    0    0  501  0.00000000000E+00  0.00000000000E+00  0.28571868788E+03  0.28571868793E+03  0.50400001928E-02 0. -1.
        1   -1    0    0  501    0  0.00000000000E+00  0.00000000000E+00 -0.28231578205E+04  0.28231578205E+04  0.50400001928E-02 0.  1.
    10030    2    1    2    0    0  0.00000000000E+00  0.00000000000E+00 -0.25374391326E+04  0.31088765084E+04  0.17962504817E+04 0.  0.
        2    1    3    3  502    0 -0.62566037274E+03 -0.37323650277E+03 -0.21777759596E+04  0.22964025168E+04  0.25500000920E-02 0.  1.
       -2    1    3    3    0  502  0.62566037274E+03  0.37323650277E+03 -0.35966317300E+03  0.81247399160E+03  0.25500000920E-02 0. -1.
</event>
<event>
 5   0  0.1330225E-04  0.1834733E+04  0.7818609E-02  0.8688044E-01
       -1   -1    0    0    0  501  0.00000000000E+00  0.00000000000E+00  0.59505369928E+03  0.59505369930E+03  0.50400001928E-02 0. -1.
        1   -1    0    0  501    0  0.00000000000E+00  0.00000000000E+00 -0.14142606484E+04  0.14142606484E+04  0.50400001928E-02 0.  1.
    10030    2    1    2    0    0  0.00000000000E+00  0.00000000000E+00 -0.81920694915E+03  0.20093143477E+04  0.18347327115E+04 0.  0.
        3    1    3    3  502    0 -0.65926723405E+03  0.58240755723E+03 -0.69461535526E+03  0.11208578637E+04  0.10100000352E+00 0. -1.
       -3    1    3    3    0  502  0.65926723405E+03 -0.58240755723E+03 -0.12459159390E+03  0.88845648407E+03  0.10100000352E+00 0.  1.
</event>
<event>
 5   0  0.2417106E-04  0.1794790E+04  0.7818609E-02  0.8709075E-01
       -2   -1    0    0    0  501  0.00000000000E+00  0.00000000000E+00  0.81557355883E+03  0.81557355884E+03  0.25500000920E-02 0. -1.
        2   -1    0    0  501    0  0.00000000000E+00  0.00000000000E+00 -0.98742561320E+03  0.98742561320E+03  0.25500000920E-02 0.  1.
    10030    2    1    2    0    0  0.00000000000E+00  0.00000000000E+00 -0.17185205437E+03  0.18029991720E+04  0.17947904852E+04 0.  0.
        4    1    3    3  502    0  0.15057336158E+03 -0.14011626363E+03 -0.96342651917E+03  0.98513815036E+03  0.12699999809E+01 0.  1.
       -4    1    3    3    0  502 -0.15057336158E+03  0.14011626363E+03  0.79157446481E+03  0.81786102168E+03  0.12699999809E+01 0. -1.
</event>
<event>
 5   0  0.2417106E-04  0.1802849E+04  0.7818609E-02  0.8704786E-01
       -2   -1    0    0    0  501  0.00000000000E+00  0.00000000000E+00  0.51787712038E+03  0.51787712038E+03  0.25500000920E-02 0. -1.
        2   -1    0    0  501    0  0.00000000000E+00  0.00000000000E+00 -0.15690333421E+04  0.15690333421E+04  0.25500000920E-02 0.  1.
    10030    2    1    2    0    0  0.00000000000E+00  0.00000000000E+00 -0.10511562217E+04  0.20869104625E+04  0.18028493769E+04 0.  0.
        4    1    3    3  502    0  0.42077996808E+03  0.79568257875E+03 -0.58226686164E+03  0.10720087960E+04  0.12699999809E+01 0.  1.
       -4    1    3    3    0  502 -0.42077996808E+03 -0.79568257875E+03 -0.46888936005E+03  0.10149016664E+04  0.12699999809E+01 0. -1.
</event>
<event>
 5   0  0.1253925E-04  0.1598881E+04  0.7818609E-02  0.8821236E-01
        1   -1    0    0  501    0  0.00000000000E+00  0.00000000000E+00  0.14453606941E+04  0.14453606941E+04  0.50400001928E-02 0. -1.
       -1   -1    0    0    0  501  0.00000000000E+00  0.00000000000E+00 -0.44217693824E+03  0.44217693827E+03  0.50400001928E-02 0.  1.
    10030    2    1    2    0    0  0.00000000000E+00  0.00000000000E+00  0.10031837559E+04  0.18875376324E+04  0.15988810668E+04 0.  0.
        2    1    3    3  502    0  0.25105770761E+03  0.20501517916E+03 -0.36112434967E+03  0.48525456429E+03  0.25500000920E-02 0.  1.
       -2    1    3    3    0  502 -0.25105770761E+03 -0.20501517916E+03  0.13643081055E+04  0.14022830681E+04  0.25500000920E-02 0. -1.
</event>
<event>
 5   0  0.2417106E-04  0.1797792E+04  0.7818609E-02  0.8707474E-01
       -2   -1    0    0    0  501  0.00000000000E+00  0.00000000000E+00  0.51170344013E+03  0.51170344013E+03  0.25500000920E-02 0.  1.
        2   -1    0    0  501    0  0.00000000000E+00  0.00000000000E+00 -0.15790674544E+04  0.15790674544E+04  0.25500000920E-02 0. -1.
    10030    2    1    2    0    0  0.00000000000E+00  0.00000000000E+00 -0.10673640143E+04  0.20907708945E+04  0.17977922556E+04 0.  0.
        4    1    3    3  502    0  0.38336945787E+03  0.81036632106E+03 -0.61035771127E+03  0.10845293284E+04  0.12699999809E+01 0. -1.
       -4    1    3    3    0  502 -0.38336945787E+03 -0.81036632106E+03 -0.45700630299E+03  0.10062415661E+04  0.12699999809E+01 0.  1.
</event>
<event>
 5   0  0.2550616E-04  0.1796808E+04  0.7818609E-02  0.8707999E-01
       -2   -1    0    0    0  501  0.00000000000E+00  0.00000000000E+00  0.64961633356E+03  0.64961633356E+03  0.25500000920E-02 0. -1.
        2   -1    0    0  501    0  0.00000000000E+00  0.00000000000E+00 -0.12424714066E+04  0.12424714066E+04  0.25500000920E-02 0.  1.
    10030    2    1    2    0    0  0.00000000000E+00  0.00000000000E+00 -0.59285507306E+03  0.18920877402E+04  0.17968079694E+04 0.  0.
        1    1    3    3  502    0 -0.90387413101E+02 -0.85977470386E+02 -0.12333068322E+04  0.12395998355E+04  0.50400001928E-02 0.  1.
       -1    1    3    3    0  502  0.90387413101E+02  0.85977470386E+02  0.64045175916E+03  0.65248790464E+03  0.50400001928E-02 0. -1.
</event>
<event>
 5   0  0.2417106E-04  0.1823568E+04  0.7818609E-02  0.8693866E-01
       -2   -1    0    0    0  501  0.00000000000E+00  0.00000000000E+00  0.83075647573E+03  0.83075647573E+03  0.25500000920E-02 0.  1.
        2   -1    0    0  501    0  0.00000000000E+00  0.00000000000E+00 -0.10007141002E+04  0.10007141002E+04  0.25500000920E-02 0. -1.
    10030    2    1    2    0    0  0.00000000000E+00  0.00000000000E+00 -0.16995762451E+03  0.18314705760E+04  0.18235676232E+04 0.  0.
        4    1    3    3  502    0  0.65269829268E+00 -0.67677555868E+02 -0.99818690671E+03  0.10004795806E+04  0.12699999809E+01 0. -1.
       -4    1    3    3    0  502 -0.65269829268E+00  0.67677555868E+02  0.82822928220E+03  0.83099099537E+03  0.12699999809E+01 0.  1.
</event>
<event>
 5   0  0.1330225E-04  0.1817606E+04  0.7818609E-02  0.8696993E-01
       -1   -1    0    0    0  501  0.00000000000E+00  0.00000000000E+00  0.10468249699E+04  0.10468249699E+04  0.50400001928E-02 0. -1.
        1   -1    0    0  501    0  0.00000000000E+00  0.00000000000E+00 -0.78897887263E+03  0.78897887265E+03  0.50400001928E-02 0.  1.
    10030    2    1    2    0    0  0.00000000000E+00  0.00000000000E+00  0.25784609727E+03  0.18358038426E+04  0.18176058810E+04 0.  0.
        3    1    3    3  502    0  0.47760508057E+03  0.37468809196E+03  0.81202653433E+03  0.10138465771E+04  0.10100000352E+00 0. -1.
       -3    1    3    3    0  502 -0.47760508057E+03 -0.37468809196E+03 -0.55418043705E+03  0.82195726547E+03  0.10100000352E+00 0.  1.
</event>
<event>
 5   0  0.2393421E-04  0.1819914E+04  0.7818609E-02  0.8695781E-01
        2   -1    0    0  501    0  0.00000000000E+00  0.00000000000E+00  0.11697991085E+04  0.11697991085E+04  0.25500000920E-02 0. -1.
       -2   -1    0    0    0  501  0.00000000000E+00  0.00000000000E+00 -0.70783242458E+03  0.70783242458E+03  0.25500000920E-02 0.  1.
    10030    2    1    2    0    0  0.00000000000E+00  0.00000000000E+00  0.46196668396E+03  0.18776315331E+04  0.18199139972E+04 0.  0.
        5    1    3    3  502    0 -0.51853278380E+03  0.13971487857E+03 -0.52689019836E+03  0.75235089306E+03  0.46999998093E+01 0.  1.
       -5    1    3    3    0  502  0.51853278380E+03 -0.13971487857E+03  0.98885688233E+03  0.11252806401E+04  0.46999998093E+01 0. -1.
</event>
<event>
 5   0  0.1330225E-04  0.1793921E+04  0.7818609E-02  0.8709539E-01
        1   -1    0    0  501    0  0.00000000000E+00  0.00000000000E+00  0.56238115705E+03  0.56238115707E+03  0.50400001928E-02 0. -1.
       -1   -1    0    0    0  501  0.00000000000E+00  0.00000000000E+00 -0.14305927952E+04  0.14305927952E+04  0.50400001928E-02 0.  1.
    10030    2    1    2    0    0  0.00000000000E+00  0.00000000000E+00 -0.86821163814E+03  0.19929739523E+04  0.17939213265E+04 0.  0.
        3    1    3    3  502    0 -0.62295801489E+02  0.13273467982E+03  0.54897669257E+03  0.56822062730E+03  0.10100000352E+00 0. -1.
       -3    1    3    3    0  502  0.62295801489E+02 -0.13273467982E+03 -0.14171883307E+04  0.14247533250E+04  0.10100000352E+00 0.  1.
</event>
<event>
 5   0  0.1330225E-04  0.1790145E+04  0.7818609E-02  0.8711558E-01
       -1   -1    0    0    0  501  0.00000000000E+00  0.00000000000E+00  0.10139038504E+04  0.10139038504E+04  0.50400001928E-02 0.  1.
        1   -1    0    0  501    0  0.00000000000E+00  0.00000000000E+00 -0.79016883592E+03  0.79016883594E+03  0.50400001928E-02 0. -1.
    10030    2    1    2    0    0  0.00000000000E+00  0.00000000000E+00  0.22373501445E+03  0.18040726863E+04  0.17901454971E+04 0.  0.
        3    1    3    3  502    0  0.67768989406E+03  0.55858133306E+03  0.28606633119E+03  0.92363989422E+03  0.10100000352E+00 0. -1.
       -3    1    3    3    0  502 -0.67768989406E+03 -0.55858133306E+03 -0.62331316747E+02  0.88043279210E+03  0.10100000352E+00 0.  1.
</event>
<event>
 5   0  0.2431811E-04  0.1819282E+04  0.7818609E-02  0.8696112E-01
        2   -1    0    0  501    0  0.00000000000E+00  0.00000000000E+00  0.24302084158E+04  0.24302084158E+04  0.25500000920E-02 0.  1.
       -2   -1    0    0    0  501  0.00000000000E+00  0.00000000000E+00 -0.34048386641E+03  0.34048386642E+03  0.25500000920E-02 0. -1.
    10030    2    1    2    0    0  0.00000000000E+00  0.00000000000E+00  0.20897245494E+04  0.27706922822E+04  0.18192820096E+04 0.  0.
        3    1    3    3  502    0 -0.64082211332E+03 -0.35250138426E+03  0.22114470264E+03  0.76407800422E+03  0.10100000352E+00 0. -1.
       -3    1    3    3    0  502  0.64082211332E+03  0.35250138426E+03  0.18685798467E+04  0.20066142780E+04  0.10100000352E+00 0.  1.
</event>
<event>
 5   0  0.1214723E-04  0.1800339E+04  0.7818609E-02  0.8706119E-01
        1   -1    0    0  501    0  0.00000000000E+00  0.00000000000E+00  0.11668589195E+04  0.11668589195E+04  0.50400001928E-02 0.  1.
       -1   -1    0    0    0  501  0.00000000000E+00  0.00000000000E+00 -0.69443270650E+03  0.69443270652E+03  0.50400001928E-02 0. -1.
    10030    2    1    2    0    0  0.00000000000E+00  0.00000000000E+00  0.47242621299E+03  0.18612916260E+04  0.18003388543E+04 0.  0.
        1    1    3    3  502    0 -0.10916751624E+03 -0.12134170655E+03  0.11514320863E+04  0.11629433373E+04  0.50400001928E-02 0.  1.
       -1    1    3    3    0  502  0.10916751624E+03  0.12134170655E+03 -0.67900587332E+03  0.69834828873E+03  0.50400001928E-02 0. -1.
</event>
<event>
 5   0  0.1308893E-04  0.1817439E+04  0.7818609E-02  0.8697080E-01
       -1   -1    0    0    0  501  0.00000000000E+00  0.00000000000E+00  0.56046282191E+03  0.56046282193E+03  0.50400001928E-02 0.  1.
        1   -1    0    0  501    0  0.00000000000E+00  0.00000000000E+00 -0.14733734978E+04  0.14733734978E+04  0.50400001928E-02 0. -1.
    10030    2    1    2    0    0  0.00000000000E+00  0.00000000000E+00 -0.91291067585E+03  0.20338363197E+04  0.18174389325E+04 0.  0.
        4    1    3    3  502    0 -0.68869588199E+03 -0.46299465487E+03 -0.42093010760E+02  0.83092689375E+03  0.12699999809E+01 0.  1.
       -4    1    3    3    0  502  0.68869588199E+03  0.46299465487E+03 -0.87081766509E+03  0.12029094259E+04  0.12699999809E+01 0. -1.
</event>
<event>
 5   0  0.1239119E-04  0.1780005E+04  0.7818609E-02  0.8717006E-01
       -1   -1    0    0    0  501  0.00000000000E+00  0.00000000000E+00  0.13002429302E+04  0.13002429302E+04  0.50400001928E-02 0.  1.
        1   -1    0    0  501    0  0.00000000000E+00  0.00000000000E+00 -0.60919698623E+03  0.60919698625E+03  0.50400001928E-02 0. -1.
    10030    2    1    2    0    0  0.00000000000E+00  0.00000000000E+00  0.69104594399E+03  0.19094399165E+04  0.17800045781E+04 0.  0.
        5    1    3    3  502    0 -0.54168765925E+03 -0.53884725472E+03 -0.14406373492E+03  0.77753349370E+03  0.46999998093E+01 0. -1.
       -5    1    3    3    0  502  0.54168765925E+03  0.53884725472E+03  0.83510967892E+03  0.11319064228E+04  0.46999998093E+01 0.  1.
</event>
<event>
 5   0  0.1308893E-04  0.1784434E+04  0.7818609E-02  0.8714621E-01
       -1   -1    0    0    0  501  0.00000000000E+00  0.00000000000E+00  0.67792195734E+03  0.67792195736E+03  0.50400001928E-02 0. -1.
        1   -1    0    0  501    0  0.00000000000E+00  0.00000000000E+00 -0.11742516070E+04  0.11742516070E+04  0.50400001928E-02 0.  1.
    10030    2    1    2    0    0  0.00000000000E+00  0.00000000000E+00 -0.49632964967E+03  0.18521735644E+04  0.17844337453E+04 0.  0.
        4    1    3    3  502    0 -0.53687639714E+03 -0.27750888668E+03  0.43310641001E+03  0.74352553641E+03  0.12699999809E+01 0. -1.
       -4    1    3    3    0  502  0.53687639714E+03  0.27750888668E+03 -0.92943605968E+03  0.11086480280E+04  0.12699999809E+01 0.  1.
</event>
<event>
 5   0  0.1214723E-04  0.1808504E+04  0.7818609E-02  0.8701790E-01
        1   -1    0    0  501    0  0.00000000000E+00  0.00000000000E+00  0.14624619863E+04  0.14624619863E+04  0.50400001928E-02 0. -1.
       -1   -1    0    0    0  501  0.00000000000E+00  0.00000000000E+00 -0.55910605109E+03  0.55910605111E+03  0.50400001928E-02 0.  1.
    10030    2    1    2    0    0  0.00000000000E+00  0.00000000000E+00  0.90335593524E+03  0.20215680374E+04  0.18085036313E+04 0.  0.
        1    1    3    3  502    0 -0.76485803504E+03  0.36407137552E+03  0.80536552392E+03  0.11688324976E+04  0.50400001928E-02 0. -1.
       -1    1    3    3    0  502  0.76485803504E+03 -0.36407137552E+03  0.97990411323E+02  0.85273553988E+03  0.50400001928E-02 0.  1.
</event>
<event>
 5   0  0.2417106E-04  0.1795950E+04  0.7818609E-02  0.8708456E-01
        2   -1    0    0  501    0  0.00000000000E+00  0.00000000000E+00  0.10965607217E+04  0.10965607217E+04  0.25500000920E-02 0.  1.
       -2   -1    0    0    0  501  0.00000000000E+00  0.00000000000E+00 -0.73535282295E+03  0.73535282296E+03  0.25500000920E-02 0. -1.
    10030    2    1    2    0    0  0.00000000000E+00  0.00000000000E+00  0.36120789877E+03  0.18319135447E+04  0.17959499127E+04 0.  0.
        4    1    3    3  502    0 -0.17183656303E+03  0.62944705701E+03 -0.44869931269E+03  0.79187378292E+03  0.12699999809E+01 0.  1.
       -4    1    3    3    0  502  0.17183656303E+03 -0.62944705701E+03  0.80990721146E+03  0.10400397618E+04  0.12699999809E+01 0. -1.
</event>
<event>
 5   0  0.1308893E-04  0.1793270E+04  0.7818609E-02  0.8709887E-01
        1   -1    0    0  501    0  0.00000000000E+00  0.00000000000E+00  0.71299568760E+03  0.71299568762E+03  0.50400001928E-02 0. -1.
       -1   -1    0    0    0  501  0.00000000000E+00  0.00000000000E+00 -0.11275723895E+04  0.11275723895E+04  0.50400001928E-02 0.  1.
    10030    2    1    2    0    0  0.00000000000E+00  0.00000000000E+00 -0.41457670189E+03  0.18405680771E+04  0.17932699197E+04 0.  0.
        4    1    3    3  502    0  0.68076919559E+03 -0.58314965511E+03 -0.18569978582E+03  0.91542134631E+03  0.12699999809E+01 0.  1.
       -4    1    3    3    0  502 -0.68076919559E+03  0.58314965511E+03 -0.22887691608E+03  0.92514673081E+03  0.12699999809E+01 0. -1.
</event>
<event>
 5   0  0.1308893E-04  0.1806406E+04  0.7818609E-02  0.8702900E-01
        1   -1    0    0  501    0  0.00000000000E+00  0.00000000000E+00  0.11805277005E+04  0.11805277005E+04  0.50400001928E-02 0. -1.
       -1   -1    0    0    0  501  0.00000000000E+00  0.00000000000E+00 -0.69102650558E+03  0.69102650560E+03  0.50400001928E-02 0.  1.
    10030    2    1    2    0    0  0.00000000000E+00  0.00000000000E+00  0.48950119488E+03  0.18715542061E+04  0.18064063016E+04 0.  0.
        4    1    3    3  502    0  0.20753531244E+03 -0.83220022298E+03 -0.48560465000E+02  0.85906219141E+03  0.12699999809E+01 0.  1.
       -4    1    3    3    0  502 -0.20753531244E+03  0.83220022298E+03  0.53806165988E+03  0.10124920147E+04  0.12699999809E+01 0. -1.
</event>
<event>
 5   0  0.1330225E-04  0.1869258E+04  0.7818609E-02  0.8670312E-01
       -1   -1    0    0    0  501  0.00000000000E+00  0.00000000000E+00  0.65784559747E+03  0.65784559749E+03  0.50400001928E-02 0.  1.
        1   -1    0    0  501    0  0.00000000000E+00  0.00000000000E+00 -0.13278664730E+04  0.13278664731E+04  0.50400001928E-02 0. -1.
    10030    2    1    2    0    0  0.00000000000E+00  0.00000000000E+00 -0.67002087557E+03  0.19857120705E+04  0.18692577279E+04 0.  0.
        3    1    3    3  502    0 -0.34735149213E+02 -0.54260382416E+03 -0.11425718632E+04  0.12653441877E+04  0.10100000352E+00 0. -1.
       -3    1    3    3    0  502  0.34735149213E+02  0.54260382416E+03  0.47255098759E+03  0.72036788287E+03  0.10100000352E+00 0.  1.
</event>
<event>
 5   0  0.1330225E-04  0.1792819E+04  0.7818609E-02  0.8710128E-01
        1   -1    0    0  501    0  0.00000000000E+00  0.00000000000E+00  0.22459116419E+04  0.22459116419E+04  0.50400001928E-02 0. -1.
       -1   -1    0    0    0  501  0.00000000000E+00  0.00000000000E+00 -0.35778348361E+03  0.35778348365E+03  0.50400001928E-02 0.  1.
    10030    2    1    2    0    0  0.00000000000E+00  0.00000000000E+00  0.18881281583E+04  0.26036951256E+04  0.17928191110E+04 0.  0.
        3    1    3    3  502    0  0.57271009707E+03  0.65560767997E+03  0.63349173207E+03  0.10766290309E+04  0.10100000352E+00 0.  1.
       -3    1    3    3    0  502 -0.57271009707E+03 -0.65560767997E+03  0.12546364262E+04  0.15270660947E+04  0.10100000352E+00 0. -1.
</event>
<event>
 5   0  0.2417106E-04  0.1988356E+04  0.7818609E-02  0.8612084E-01
       -2   -1    0    0    0  501  0.00000000000E+00  0.00000000000E+00  0.97626402144E+03  0.97626402144E+03  0.25500000920E-02 0. -1.
        2   -1    0    0  501    0  0.00000000000E+00  0.00000000000E+00 -0.10124203214E+04  0.10124203214E+04  0.25500000920E-02 0.  1.
    10030    2    1    2    0    0  0.00000000000E+00  0.00000000000E+00 -0.36156299920E+02  0.19886843428E+04  0.19883556365E+04 0.  0.
        4    1    3    3  502    0  0.66285424450E+02 -0.20351616429E+03  0.95294553947E+03  0.97668797511E+03  0.12699999809E+01 0. -1.
       -4    1    3    3    0  502 -0.66285424450E+02  0.20351616429E+03 -0.98910183939E+03  0.10119963677E+04  0.12699999809E+01 0.  1.
</event>
<event>
 5   0  0.1253925E-04  0.1798533E+04  0.7818609E-02  0.8707080E-01
       -1   -1    0    0    0  501  0.00000000000E+00  0.00000000000E+00  0.35208920501E+03  0.35208920505E+03  0.50400001928E-02 0. -1.
        1   -1    0    0  501    0  0.00000000000E+00  0.00000000000E+00 -0.22968041934E+04  0.22968041934E+04  0.50400001928E-02 0.  1.
    10030    2    1    2    0    0  0.00000000000E+00  0.00000000000E+00 -0.19447149884E+04  0.26488933985E+04  0.17985326937E+04 0.  0.
        2    1    3    3  502    0 -0.78747514006E+03 -0.73183844580E+02 -0.34195609934E+03  0.86163039941E+03  0.25500000920E-02 0. -1.
       -2    1    3    3    0  502  0.78747514006E+03  0.73183844580E+02 -0.16027588891E+04  0.17872629991E+04  0.25500000920E-02 0.  1.
</event>
<event>
 5   0  0.1308893E-04  0.1730153E+04  0.7818609E-02  0.8744351E-01
        1   -1    0    0  501    0  0.00000000000E+00  0.00000000000E+00  0.22212737426E+04  0.22212737426E+04  0.50400001928E-02 0.  1.
       -1   -1    0    0    0  501  0.00000000000E+00  0.00000000000E+00 -0.33690467301E+03  0.33690467304E+03  0.50400001928E-02 0. -1.
    10030    2    1    2    0    0  0.00000000000E+00  0.00000000000E+00  0.18843690696E+04  0.25581784156E+04  0.17301531770E+04 0.  0.
        4    1    3    3  502    0 -0.98155204711E+02 -0.77688838920E+03  0.14857849878E+04  0.16795084567E+04  0.12699999809E+01 0.  1.
       -4    1    3    3    0  502  0.98155204711E+02  0.77688838920E+03  0.39858408182E+03  0.87866995890E+03  0.12699999809E+01 0. -1.
</event>
<event>
 5   0  0.2417106E-04  0.1795524E+04  0.7818609E-02  0.8708683E-01
       -2   -1    0    0    0  501  0.00000000000E+00  0.00000000000E+00  0.47175443675E+03  0.47175443676E+03  0.25500000920E-02 0.  1.
        2   -1    0    0  501    0  0.00000000000E+00  0.00000000000E+00 -0.17084670219E+04  0.17084670219E+04  0.25500000920E-02 0. -1.
    10030    2    1    2    0    0  0.00000000000E+00  0.00000000000E+00 -0.12367125851E+04  0.21802214586E+04  0.17955243219E+04 0.  0.
        4    1    3    3  502    0  0.16363436574E+03  0.71694404896E+03 -0.12436558808E+04  0.14448067476E+04  0.12699999809E+01 0. -1.
       -4    1    3    3    0  502 -0.16363436574E+03 -0.71694404896E+03  0.69432957125E+01  0.73541471106E+03  0.12699999809E+01 0.  1.
</event>
<event>
 5   0  0.2393421E-04  0.1805929E+04  0.7818609E-02  0.8703153E-01
       -2   -1    0    0    0  501  0.00000000000E+00  0.00000000000E+00  0.14026514582E+04  0.14026514582E+04  0.25500000920E-02 0.  1.
        2   -1    0    0  501    0  0.00000000000E+00  0.00000000000E+00 -0.58128812475E+03  0.58128812476E+03  0.25500000920E-02 0. -1.
    10030    2    1    2    0    0  0.00000000000E+00  0.00000000000E+00  0.82136333347E+03  0.19839395830E+04  0.18059287205E+04 0.  0.
        5    1    3    3  502    0  0.91141532601E+02  0.69344374580E+03 -0.21670827697E+03  0.73222645054E+03  0.46999998093E+01 0. -1.
       -5    1    3    3    0  502 -0.91141532601E+02 -0.69344374580E+03  0.10380716104E+04  0.12517131325E+04  0.46999998093E+01 0.  1.
</event>
<event>
 5   0  0.1308893E-04  0.1813604E+04  0.7818609E-02  0.8699098E-01
       -1   -1    0    0    0  501  0.00000000000E+00  0.00000000000E+00  0.89241262256E+03  0.89241262258E+03  0.50400001928E-02 0. -1.
        1   -1    0    0  501    0  0.00000000000E+00  0.00000000000E+00 -0.92142380039E+03  0.92142380040E+03  0.50400001928E-02 0.  1.
    10030    2    1    2    0    0  0.00000000000E+00  0.00000000000E+00 -0.29011177827E+02  0.18138364230E+04  0.18136044003E+04 0.  0.
        4    1    3    3  502    0 -0.34322417677E+03 -0.50355943083E+03  0.65708138511E+03  0.89617659837E+03  0.12699999809E+01 0. -1.
       -4    1    3    3    0  502  0.34322417677E+03  0.50355943083E+03 -0.68609256294E+03  0.91765982462E+03  0.12699999809E+01 0.  1.
</event>
<event>
 5   0  0.2417106E-04  0.1785173E+04  0.7818609E-02  0.8714224E-01
       -2   -1    0    0    0  501  0.00000000000E+00  0.00000000000E+00  0.61796852935E+03  0.61796852936E+03  0.25500000920E-02 0. -1.
        2   -1    0    0  501    0  0.00000000000E+00  0.00000000000E+00 -0.12892413625E+04  0.12892413625E+04  0.25500000920E-02 0.  1.
    10030    2    1    2    0    0  0.00000000000E+00  0.00000000000E+00 -0.67127283317E+03  0.19072098919E+04  0.17851729202E+04 0.  0.
        4    1    3    3  502    0  0.32650474385E+03  0.70348910325E+03 -0.80766203615E+03  0.11197418648E+04  0.12699999809E+01 0.  1.
       -4    1    3    3    0  502 -0.32650474385E+03 -0.70348910325E+03  0.13638920298E+03  0.78746802712E+03  0.12699999809E+01 0. -1.
</event>
<event>
 5   0  0.2431811E-04  0.1792582E+04  0.7818609E-02  0.8710254E-01
        2   -1    0    0  501    0  0.00000000000E+00  0.00000000000E+00  0.14889467138E+04  0.14889467138E+04  0.25500000920E-02 0.  1.
       -2   -1    0    0    0  501  0.00000000000E+00  0.00000000000E+00 -0.53953439210E+03  0.53953439211E+03  0.25500000920E-02 0. -1.
    10030    2    1    2    0    0  0.00000000000E+00  0.00000000000E+00  0.94941232170E+03  0.20284811059E+04  0.17925824501E+04 0.  0.
        3    1    3    3  502    0 -0.41668536451E+03 -0.97564885572E+01  0.13726097922E+04  0.14344962649E+04  0.10100000352E+00 0.  1.
       -3    1    3    3    0  502  0.41668536451E+03  0.97564885572E+01 -0.42319747055E+03  0.59398484101E+03  0.10100000352E+00 0. -1.
</event>
<event>
 5   0  0.1239119E-04  0.1857986E+04  0.7818609E-02  0.8676057E-01
       -1   -1    0    0    0  501  0.00000000000E+00  0.00000000000E+00  0.12195680408E+04  0.12195680408E+04  0.50400001928E-02 0.  1.
        1   -1    0    0  501    0  0.00000000000E+00  0.00000000000E+00 -0.70765070632E+03  0.70765070634E+03  0.50400001928E-02 0. -1.
    10030    2    1    2    0    0  0.00000000000E+00  0.00000000000E+00  0.51191733446E+03  0.19272187471E+04  0.18579862061E+04 0.  0.
        5    1    3    3  502    0 -0.64540756316E+03 -0.34074817986E+03 -0.34021522642E+03  0.80525072800E+03  0.46999998093E+01 0. -1.
       -5    1    3    3    0  502  0.64540756316E+03  0.34074817986E+03  0.85213256088E+03  0.11219680191E+04  0.46999998093E+01 0.  1.
</event>
<event>
 5   0  0.2569405E-04  0.1814867E+04  0.7818609E-02  0.8698433E-01
       -2   -1    0    0    0  501  0.00000000000E+00  0.00000000000E+00  0.14218208234E+04  0.14218208234E+04  0.25500000920E-02 0. -1.
        2   -1    0    0  501    0  0.00000000000E+00  0.00000000000E+00 -0.57914183558E+03  0.57914183559E+03  0.25500000920E-02 0.  1.
    10030    2    1    2    0    0  0.00000000000E+00  0.00000000000E+00  0.84267898787E+03  0.20009626590E+04  0.18148674018E+04 0.  0.
        2    1    3    3  502    0 -0.47062621613E+03 -0.60753944595E+03 -0.11067737724E+03  0.77642945304E+03  0.25500000920E-02 0.  1.
       -2    1    3    3    0  502  0.47062621613E+03  0.60753944595E+03  0.95335636510E+03  0.12245332060E+04  0.25500000920E-02 0. -1.
</event>
<event>
 5   0  0.1239119E-04  0.1786580E+04  0.7818609E-02  0.8713469E-01
        1   -1    0    0  501    0  0.00000000000E+00  0.00000000000E+00  0.92046296859E+03  0.92046296861E+03  0.50400001928E-02 0.  1.
       -1   -1    0    0    0  501  0.00000000000E+00  0.00000000000E+00 -0.86691914545E+03  0.86691914547E+03  0.50400001928E-02 0. -1.
    10030    2    1    2    0    0  0.00000000000E+00  0.00000000000E+00  0.53543823137E+02  0.17873821141E+04  0.17865799396E+04 0.  0.
        5    1    3    3  502    0  0.94992364460E+02 -0.88786960489E+03  0.20850222269E+01  0.89295152271E+03  0.46999998093E+01 0. -1.
       -5    1    3    3    0  502 -0.94992364460E+02  0.88786960489E+03  0.51458800910E+02  0.89443059137E+03  0.46999998093E+01 0.  1.
</event>
<event>
 5   0  0.2569405E-04  0.1794450E+04  0.7818609E-02  0.8709257E-01
        2   -1    0    0  501    0  0.00000000000E+00  0.00000000000E+00  0.20385366570E+04  0.20385366570E+04  0.25500000920E-02 0. -1.
       -2   -1    0    0    0  501  0.00000000000E+00  0.00000000000E+00 -0.39489724667E+03  0.39489724668E+03  0.25500000920E-02 0.  1.
    10030    2    1    2    0    0  0.00000000000E+00  0.00000000000E+00  0.16436394103E+04  0.24334339037E+04  0.17944497910E+04 0.  0.
        2    1    3    3  502    0 -0.60006448267E+03 -0.22475234214E+03  0.16734841985E+04  0.17919655022E+04  0.25500000920E-02 0. -1.
       -2    1    3    3    0  502  0.60006448267E+03  0.22475234214E+03 -0.29844788149E+02  0.64146840144E+03  0.25500000920E-02 0.  1.
</event>
<event>
 5   0  0.1330225E-04  0.1786922E+04  0.7818609E-02  0.8713285E-01
       -1   -1    0    0    0  501  0.00000000000E+00  0.00000000000E+00  0.12383932903E+04  0.12383932903E+04  0.50400001928E-02 0. -1.
        1   -1    0    0  501    0  0.00000000000E+00  0.00000000000E+00 -0.64460327632E+03  0.64460327633E+03  0.50400001928E-02 0.  1.
    10030    2    1    2    0    0  0.00000000000E+00  0.00000000000E+00  0.59379001395E+03  0.18829965666E+04  0.17869217916E+04 0.  0.
        3    1    3    3  502    0  0.74757136789E+03  0.29041698127E+03 -0.11806306797E+03  0.81064410891E+03  0.10100000352E+00 0.  1.
       -3    1    3    3    0  502 -0.74757136789E+03 -0.29041698127E+03  0.71185308192E+03  0.10723524577E+04  0.10100000352E+00 0. -1.
</event>
<event>
 5   0  0.2431811E-04  0.1789516E+04  0.7818609E-02  0.8711894E-01
       -2   -1    0    0    0  501  0.00000000000E+00  0.00000000000E+00  0.11535186248E+04  0.11535186248E+04  0.25500000920E-02 0.  1.
        2   -1    0    0  501    0  0.00000000000E+00  0.00000000000E+00 -0.69404362166E+03  0.69404362166E+03  0.25500000920E-02 0. -1.
    10030    2    1    2    0    0  0.00000000000E+00  0.00000000000E+00  0.45947500310E+03  0.18475622464E+04  0.17895164084E+04 0.  0.
        3    1    3    3  502    0  0.89291859437E+03  0.49732329722E+02  0.20025763086E+03  0.91644969841E+03  0.10100000352E+00 0. -1.
       -3    1    3    3    0  502 -0.89291859437E+03 -0.49732329722E+02  0.25921737224E+03  0.93111254801E+03  0.10100000352E+00 0.  1.
</event>
<event>
 5   0  0.1253925E-04  0.1680587E+04  0.7818609E-02  0.8772515E-01
        1   -1    0    0  501    0  0.00000000000E+00  0.00000000000E+00  0.11920412799E+04  0.11920412800E+04  0.50400001928E-02 0. -1.
       -1   -1    0    0    0  501  0.00000000000E+00  0.00000000000E+00 -0.59233935458E+03  0.59233935460E+03  0.50400001928E-02 0.  1.
    10030    2    1    2    0    0  0.00000000000E+00  0.00000000000E+00  0.59970192537E+03  0.17843806346E+04  0.16805867576E+04 0.  0.
        2    1    3    3  502    0 -0.18505219629E+03 -0.74670387551E+03  0.65878564308E+03  0.10128225494E+04  0.25500000920E-02 0. -1.
       -2    1    3    3    0  502  0.18505219629E+03  0.74670387551E+03 -0.59083717713E+02  0.77155808515E+03  0.25500000920E-02 0.  1.
</event>
<event>
 5   0  0.1214723E-04  0.1806237E+04  0.7818609E-02  0.8702990E-01
       -1   -1    0    0    0  501  0.00000000000E+00  0.00000000000E+00  0.52845893749E+03  0.52845893752E+03  0.50400001928E-02 0. -1.
        1   -1    0    0  501    0  0.00000000000E+00  0.00000000000E+00 -0.15433987194E+04  0.15433987194E+04  0.50400001928E-02 0.  1.
    10030    2    1    2    0    0  0.00000000000E+00  0.00000000000E+00 -0.10149397819E+04  0.20718576569E+04  0.18062368033E+04 0.  0.
        1    1    3    3  502    0 -0.22886535765E+03  0.82676047735E+03 -0.18362034685E+03  0.87728482868E+03  0.50400001928E-02 0. -1.
       -1    1    3    3    0  502  0.22886535765E+03 -0.82676047735E+03 -0.83131943503E+03  0.11945728282E+04  0.50400001928E-02 0.  1.
</event>
<event>
 5   0  0.2569405E-04  0.1805301E+04  0.7818609E-02  0.8703485E-01
        2   -1    0    0  501    0  0.00000000000E+00  0.00000000000E+00  0.11044928653E+04  0.11044928653E+04  0.25500000920E-02 0. -1.
       -2   -1    0    0    0  501  0.00000000000E+00  0.00000000000E+00 -0.73769441071E+03  0.73769441071E+03  0.25500000920E-02 0.  1.
    10030    2    1    2    0    0  0.00000000000E+00  0.00000000000E+00  0.36679845458E+03  0.18421872760E+04  0.18053013193E+04 0.  0.
        2    1    3    3  502    0  0.72733402191E+03  0.35028544931E+03 -0.22866271872E+03  0.83904786179E+03  0.25500000920E-02 0.  1.
       -2    1    3    3    0  502 -0.72733402191E+03 -0.35028544931E+03  0.59546117330E+03  0.10031394142E+04  0.25500000920E-02 0. -1.
</event>
<event>
 5   0  0.1330225E-04  0.1836779E+04  0.7818609E-02  0.8686982E-01
       -1   -1    0    0    0  501  0.00000000000E+00  0.00000000000E+00  0.59749706719E+03  0.59749706721E+03  0.50400001928E-02 0. -1.
        1   -1    0    0  501    0  0.00000000000E+00  0.00000000000E+00 -0.14116203362E+04  0.14116203362E+04  0.50400001928E-02 0.  1.
    10030    2    1    2    0    0  0.00000000000E+00  0.00000000000E+00 -0.81412326903E+03  0.20091174034E+04  0.18367787138E+04 0.  0.
        3    1    3    3  502    0 -0.14896003311E+03 -0.69230711068E+03  0.23257985126E+03  0.74536677171E+03  0.10100000352E+00 0. -1.
       -3    1    3    3    0  502  0.14896003311E+03  0.69230711068E+03 -0.10467031203E+04  0.12637506317E+04  0.10100000352E+00 0.  1.
</event>
<event>
 5   0  0.2417106E-04  0.1819323E+04  0.7818609E-02  0.8696091E-01
       -2   -1    0    0    0  501  0.00000000000E+00  0.00000000000E+00  0.41413224100E+03  0.41413224100E+03  0.25500000920E-02 0. -1.
        2   -1    0    0  501    0  0.00000000000E+00  0.00000000000E+00 -0.19981158435E+04  0.19981158435E+04  0.25500000920E-02 0.  1.
    10030    2    1    2    0    0  0.00000000000E+00  0.00000000000E+00 -0.15839836025E+04  0.24122480845E+04  0.18193231621E+04 0.  0.
        4    1    3    3  502    0  0.49150191848E+03 -0.40690135673E+03 -0.16516233416E+04  0.17705942860E+04  0.12699999809E+01 0.  1.
       -4    1    3    3    0  502 -0.49150191848E+03  0.40690135673E+03  0.67639739121E+02  0.64165379854E+03  0.12699999809E+01 0. -1.
</event>
<event>
 5   0  0.2431811E-04  0.1794373E+04  0.7818609E-02  0.8709298E-01
        2   -1    0    0  501    0  0.00000000000E+00  0.00000000000E+00  0.46929683718E+03  0.46929683718E+03  0.25500000920E-02 0.  1.
       -2   -1    0    0    0  501  0.00000000000E+00  0.00000000000E+00 -0.17152117935E+04  0.17152117935E+04  0.25500000920E-02 0. -1.
    10030    2    1    2    0    0  0.00000000000E+00  0.00000000000E+00 -0.12459149563E+04  0.21845086307E+04  0.17943728373E+04 0.  0.
        3    1    3    3  502    0  0.26069368383E+03  0.85222328530E+03 -0.74887523887E+03  0.11640703838E+04  0.10100000352E+00 0. -1.
       -3    1    3    3    0  502 -0.26069368383E+03 -0.85222328530E+03 -0.49703971743E+03  0.10204382469E+04  0.10100000352E+00 0.  1.
</event>
<event>
 5   0  0.2393421E-04  0.1795662E+04  0.7818609E-02  0.8708610E-01
        2   -1    0    0  501    0  0.00000000000E+00  0.00000000000E+00  0.14732176264E+04  0.14732176264E+04  0.25500000920E-02 0.  1.
       -2   -1    0    0    0  501  0.00000000000E+00  0.00000000000E+00 -0.54716984119E+03  0.54716984120E+03  0.25500000920E-02 0. -1.
    10030    2    1    2    0    0  0.00000000000E+00  0.00000000000E+00  0.92604778519E+03  0.20203874676E+04  0.17956617217E+04 0.  0.
        5    1    3    3  502    0  0.70068678349E+03  0.42725061875E+03  0.53350408923E+02  0.82241924583E+03  0.46999998093E+01 0. -1.
       -5    1    3    3    0  502 -0.70068678349E+03 -0.42725061875E+03  0.87269737627E+03  0.11979682218E+04  0.46999998093E+01 0.  1.
</event>
<event>
 5   0  0.1308893E-04  0.1796678E+04  0.7818609E-02  0.8708068E-01
        1   -1    0    0  501    0  0.00000000000E+00  0.00000000000E+00  0.78414062220E+03  0.78414062221E+03  0.50400001928E-02 0. -1.
       -1   -1    0    0    0  501  0.00000000000E+00  0.00000000000E+00 -0.10291690420E+04  0.10291690421E+04  0.50400001928E-02 0.  1.
    10030    2    1    2    0    0  0.00000000000E+00  0.00000000000E+00 -0.24502841985E+03  0.18133096643E+04  0.17966783274E+04 0.  0.
        4    1    3    3  502    0  0.58412166778E+03  0.27433690849E+02 -0.81078060522E+03  0.99965870819E+03  0.12699999809E+01 0.  1.
       -4    1    3    3    0  502 -0.58412166778E+03 -0.27433690849E+02  0.56575218538E+03  0.81365095607E+03  0.12699999809E+01 0. -1.
</event>
<event>
 5   0  0.1330225E-04  0.1789294E+04  0.7818609E-02  0.8712014E-01
       -1   -1    0    0    0  501  0.00000000000E+00  0.00000000000E+00  0.66270789297E+03  0.66270789299E+03  0.50400001928E-02 0.  1.
        1   -1    0    0  501    0  0.00000000000E+00  0.00000000000E+00 -0.12077613808E+04  0.12077613808E+04  0.50400001928E-02 0. -1.
    10030    2    1    2    0    0  0.00000000000E+00  0.00000000000E+00 -0.54505348779E+03  0.18704692738E+04  0.17892937153E+04 0.  0.
        3    1    3    3  502    0 -0.85210540195E+03 -0.14080116153E+03 -0.28518188161E+02  0.86413070792E+03  0.10100000352E+00 0.  1.
       -3    1    3    3    0  502  0.85210540195E+03  0.14080116153E+03 -0.51653529963E+03  0.10063385658E+04  0.10100000352E+00 0. -1.
</event>
<event>
 5   0  0.1239119E-04  0.1802867E+04  0.7818609E-02  0.8704776E-01
       -1   -1    0    0    0  501  0.00000000000E+00  0.00000000000E+00  0.82918888723E+03  0.82918888724E+03  0.50400001928E-02 0.  1.
        1   -1    0    0  501    0  0.00000000000E+00  0.00000000000E+00 -0.97997240891E+03  0.97997240892E+03  0.50400001928E-02 0. -1.
    10030    2    1    2    0    0  0.00000000000E+00  0.00000000000E+00 -0.15078352169E+03  0.18091612962E+04  0.18028668628E+04 0.  0.
        5    1    3    3  502    0  0.31065259893E+03 -0.81463326601E+03 -0.30516223745E+03  0.92373073808E+03  0.46999998093E+01 0. -1.
       -5    1    3    3    0  502 -0.31065259893E+03  0.81463326601E+03  0.15437871577E+03  0.88543055808E+03  0.46999998093E+01 0.  1.
</event>
<event>
 5   0  0.2417106E-04  0.1831982E+04  0.7818609E-02  0.8689474E-01
        2   -1    0    0  501    0  0.00000000000E+00  0.00000000000E+00  0.13517238958E+04  0.13517238958E+04  0.25500000920E-02 0.  1.
       -2   -1    0    0    0  501  0.00000000000E+00  0.00000000000E+00 -0.62071787992E+03  0.62071787992E+03  0.25500000920E-02 0. -1.
    10030    2    1    2    0    0  0.00000000000E+00  0.00000000000E+00  0.73100601585E+03  0.19724417757E+04  0.18319816493E+04 0.  0.
        4    1    3    3  502    0  0.17064843528E+03 -0.37712112669E+03 -0.51427392845E+03  0.66016703874E+03  0.12699999809E+01 0. -1.
       -4    1    3    3    0  502 -0.17064843528E+03  0.37712112669E+03  0.12452799443E+04  0.13122747370E+04  0.12699999809E+01 0.  1.
</event>
<event>
 5   0  0.2550616E-04  0.1792412E+04  0.7818609E-02  0.8710345E-01
       -2   -1    0    0    0  501  0.00000000000E+00  0.00000000000E+00  0.71551225810E+03  0.71551225811E+03  0.25500000920E-02 0. -1.
        2   -1    0    0  501    0  0.00000000000E+00  0.00000000000E+00 -0.11225312633E+04  0.11225312633E+04  0.25500000920E-02 0.  1.
    10030    2    1    2    0    0  0.00000000000E+00  0.00000000000E+00 -0.40701900518E+03  0.18380435214E+04  0.17924116480E+04 0.  0.
        1    1    3    3  502    0  0.47327564897E+03 -0.59741172839E+03 -0.68699356543E+03  0.10260851681E+04  0.50400001928E-02 0.  1.
       -1    1    3    3    0  502 -0.47327564897E+03  0.59741172839E+03  0.27997456025E+03  0.81195835333E+03  0.50400001928E-02 0. -1.
</event>
<event>
 5   0  0.2393421E-04  0.1796867E+04  0.7818609E-02  0.8707967E-01
        2   -1    0    0  501    0  0.00000000000E+00  0.00000000000E+00  0.13722802578E+04  0.13722802578E+04  0.25500000920E-02 0. -1.
       -2   -1    0    0    0  501  0.00000000000E+00  0.00000000000E+00 -0.58820526856E+03  0.58820526857E+03  0.25500000920E-02 0.  1.
    10030    2    1    2    0    0  0.00000000000E+00  0.00000000000E+00  0.78407498927E+03  0.19604855264E+04  0.17968666924E+04 0.  0.
        5    1    3    3  502    0 -0.81916399872E+03  0.36858742911E+03  0.37397602429E+03  0.97301927342E+03  0.46999998093E+01 0.  1.
       -5    1    3    3    0  502  0.81916399872E+03 -0.36858742911E+03  0.41009896497E+03  0.98746625298E+03  0.46999998093E+01 0. -1.
</event>
<event>
 5   0  0.2417106E-04  0.1791780E+04  0.7818609E-02  0.8710683E-01
        2   -1    0    0  501    0  0.00000000000E+00  0.00000000000E+00  0.98404272370E+03  0.98404272370E+03  0.25500000920E-02 0. -1.
       -2   -1    0    0    0  501  0.00000000000E+00  0.00000000000E+00 -0.81563420357E+03  0.81563420358E+03  0.25500000920E-02 0.  1.
    10030    2    1    2    0    0  0.00000000000E+00  0.00000000000E+00  0.16840852013E+03  0.17996769273E+04  0.17917800124E+04 0.  0.
        4    1    3    3  502    0  0.56801288723E+03  0.95934381915E+02  0.77335887701E+03  0.96432754355E+03  0.12699999809E+01 0. -1.
       -4    1    3    3    0  502 -0.56801288723E+03 -0.95934381915E+02 -0.60495035689E+03  0.83534938373E+03  0.12699999809E+01 0.  1.
</event>
<event>
 5   0  0.2569405E-04  0.1783390E+04  0.7818609E-02  0.8715182E-01
       -2   -1    0    0    0  501  0.00000000000E+00  0.00000000000E+00  0.10318131439E+04  0.10318131439E+04  0.25500000920E-02 0. -1.
        2   -1    0    0  501    0  0.00000000000E+00  0.00000000000E+00 -0.77060488887E+03  0.77060488887E+03  0.25500000920E-02 0.  1.
    10030    2    1    2    0    0  0.00000000000E+00  0.00000000000E+00  0.26120825498E+03  0.18024180327E+04  0.17833903140E+04 0.  0.
        2    1    3    3  502    0  0.86773229301E+03 -0.80612410844E+02 -0.60256073776E+02  0.87354936182E+03  0.25500000920E-02 0. -1.
       -2    1    3    3    0  502 -0.86773229301E+03  0.80612410844E+02  0.32146432876E+03  0.92886867090E+03  0.25500000920E-02 0.  1.
</event>
<event>
 5   0  0.2393421E-04  0.1799238E+04  0.7818609E-02  0.8706705E-01
        2   -1    0    0  501    0  0.00000000000E+00  0.00000000000E+00  0.11447816040E+04  0.11447816040E+04  0.25500000920E-02 0.  1.
       -2   -1    0    0    0  501  0.00000000000E+00  0.00000000000E+00 -0.70695993374E+03  0.70695993374E+03  0.25500000920E-02 0. -1.
    10030    2    1    2    0    0  0.00000000000E+00  0.00000000000E+00  0.43782167029E+03  0.18517415378E+04  0.17992384244E+04 0.  0.
        5    1    3    3  502    0 -0.81438599978E+03  0.37934567676E+03  0.17102419518E+03  0.91454855774E+03  0.46999998093E+01 0.  1.
       -5    1    3    3    0  502  0.81438599978E+03 -0.37934567676E+03  0.26679747512E+03  0.93719298005E+03  0.46999998093E+01 0. -1.
</event>
<event>
 5   0  0.2393421E-04  0.1804480E+04  0.7818609E-02  0.8703921E-01
        2   -1    0    0  501    0  0.00000000000E+00  0.00000000000E+00  0.18320813489E+04  0.18320813489E+04  0.25500000920E-02 0.  1.
       -2   -1    0    0    0  501  0.00000000000E+00  0.00000000000E+00 -0.44432351211E+03  0.44432351211E+03  0.25500000920E-02 0. -1.
    10030    2    1    2    0    0  0.00000000000E+00  0.00000000000E+00  0.13877578368E+04  0.22764048610E+04  0.18044797803E+04 0.  0.
        5    1    3    3  502    0 -0.48191727738E+03  0.46793894753E+03 -0.65980556730E+02  0.67497158808E+03  0.46999998093E+01 0. -1.
       -5    1    3    3    0  502  0.48191727738E+03 -0.46793894753E+03  0.14537383935E+04  0.16014332729E+04  0.46999998093E+01 0.  1.
</event>
<event>
 5   0  0.1253925E-04  0.1803445E+04  0.7818609E-02  0.8704470E-01
       -1   -1    0    0    0  501  0.00000000000E+00  0.00000000000E+00  0.57808016069E+03  0.57808016071E+03  0.50400001928E-02 0. -1.
        1   -1    0    0  501    0  0.00000000000E+00  0.00000000000E+00 -0.14065585385E+04  0.14065585385E+04  0.50400001928E-02 0.  1.
    10030    2    1    2    0    0  0.00000000000E+00  0.00000000000E+00 -0.82847837779E+03  0.19846386992E+04  0.18034451319E+04 0.  0.
        2    1    3    3  502    0 -0.75352097594E+02  0.27742736275E+02 -0.14026163530E+04  0.14049128911E+04  0.25500000920E-02 0.  1.
       -2    1    3    3    0  502  0.75352097594E+02 -0.27742736275E+02  0.57413797516E+03  0.57972580809E+03  0.25500000920E-02 0. -1.
</event>
<event>
 5   0  0.1253925E-04  0.1805791E+04  0.7818609E-02  0.8703226E-01
       -1   -1    0    0    0  501  0.00000000000E+00  0.00000000000E+00  0.12000968972E+04  0.12000968973E+04  0.50400001928E-02 0.  1.
        1   -1    0    0  501    0  0.00000000000E+00  0.00000000000E+00 -0.67929528158E+03  0.67929528160E+03  0.50400001928E-02 0. -1.
    10030    2    1    2    0    0  0.00000000000E+00  0.00000000000E+00  0.52080161566E+03  0.18793921789E+04  0.18057908625E+04 0.  0.
        2    1    3    3  502    0 -0.19727759233E+03 -0.41465685233E+03  0.10694935875E+04  0.11639051883E+04  0.25500000920E-02 0.  1.
       -2    1    3    3    0  502  0.19727759233E+03  0.41465685233E+03 -0.54869197187E+03  0.71548699053E+03  0.25500000920E-02 0. -1.
</event>
<event>
 5   0  0.9144875E-05  0.1785287E+04  0.7818609E-02  0.8714163E-01
       -4   -1    0    0    0  501  0.00000000000E+00  0.00000000000E+00  0.75880218839E+03  0.75880325118E+03  0.12699999809E+01 0.  1.
        4   -1    0    0  501    0  0.00000000000E+00  0.00000000000E+00 -0.10500907074E+04  0.10500914754E+04  0.12699999809E+01 0. -1.
    10030    2    1    2    0    0  0.00000000000E+00  0.00000000000E+00 -0.29128851903E+03  0.18088947266E+04  0.17852874084E+04 0.  0.
        4    1    3    3  502    0  0.63209958128E+03 -0.14375356624E+03  0.47614486007E+03  0.80431990472E+03  0.12699999809E+01 0.  1.
       -4    1    3    3    0  502 -0.63209958128E+03  0.14375356624E+03 -0.76743337910E+03  0.10045748219E+04  0.12699999809E+01 0. -1.
</event>
<event>
 5   0  0.1239119E-04  0.1806674E+04  0.7818609E-02  0.8702758E-01
        1   -1    0    0  501    0  0.00000000000E+00  0.00000000000E+00  0.15455323471E+04  0.15455323471E+04  0.50400001928E-02 0. -1.
       -1   -1    0    0    0  501  0.00000000000E+00  0.00000000000E+00 -0.52798498230E+03  0.52798498233E+03  0.50400001928E-02 0.  1.
    10030    2    1    2    0    0  0.00000000000E+00  0.00000000000E+00  0.10175473648E+04  0.20735173294E+04  0.18066741477E+04 0.  0.
        5    1    3    3  502    0  0.56812584053E+03  0.59197733301E+03  0.75083852125E+02  0.82393191971E+03  0.46999998093E+01 0.  1.
       -5    1    3    3    0  502 -0.56812584053E+03 -0.59197733301E+03  0.94246351268E+03  0.12495854097E+04  0.46999998093E+01 0. -1.
</event>
<event>
 5   0  0.2431811E-04  0.1806163E+04  0.7818609E-02  0.8703029E-01
        2   -1    0    0  501    0  0.00000000000E+00  0.00000000000E+00  0.11632663020E+04  0.11632663020E+04  0.25500000920E-02 0. -1.
       -2   -1    0    0    0  501  0.00000000000E+00  0.00000000000E+00 -0.70109170251E+03  0.70109170252E+03  0.25500000920E-02 0.  1.
    10030    2    1    2    0    0  0.00000000000E+00  0.00000000000E+00  0.46217459952E+03  0.18643580046E+04  0.18061631733E+04 0.  0.
        3    1    3    3  502    0  0.85550004619E+03 -0.44226378140E+02 -0.63990553392E+02  0.85902916288E+03  0.10100000352E+00 0.  1.
       -3    1    3    3    0  502 -0.85550004619E+03  0.44226378140E+02  0.52616515291E+03  0.10053288417E+04  0.10100000352E+00 0. -1.
</event>
<event>
 5   0  0.1214723E-04  0.1804562E+04  0.7818609E-02  0.8703877E-01
        1   -1    0    0  501    0  0.00000000000E+00  0.00000000000E+00  0.76663193386E+03  0.76663193388E+03  0.50400001928E-02 0.  1.
       -1   -1    0    0    0  501  0.00000000000E+00  0.00000000000E+00 -0.10619322593E+04  0.10619322593E+04  0.50400001928E-02 0. -1.
    10030    2    1    2    0    0  0.00000000000E+00  0.00000000000E+00 -0.29530032540E+03  0.18285641931E+04  0.18045621980E+04 0.  0.
        1    1    3    3  502    0  0.87163089051E+03  0.10450805691E+03 -0.35886646740E+03  0.94839205221E+03  0.50400001928E-02 0. -1.
       -1    1    3    3    0  502 -0.87163089051E+03 -0.10450805691E+03  0.63566142000E+02  0.88017214094E+03  0.50400001928E-02 0.  1.
</event>
<event>
 5   0  0.1253925E-04  0.1815063E+04  0.7818609E-02  0.8698330E-01
       -1   -1    0    0    0  501  0.00000000000E+00  0.00000000000E+00  0.39977827436E+03  0.39977827440E+03  0.50400001928E-02 0. -1.
        1   -1    0    0  501    0  0.00000000000E+00  0.00000000000E+00 -0.20601762464E+04  0.20601762464E+04  0.50400001928E-02 0.  1.
    10030    2    1    2    0    0  0.00000000000E+00  0.00000000000E+00 -0.16603979721E+04  0.24599545208E+04  0.18150633099E+04 0.  0.
        2    1    3    3  502    0  0.39194573550E+03  0.39768047498E+03  0.13942525763E+03  0.57550901142E+03  0.25500000920E-02 0. -1.
       -2    1    3    3    0  502 -0.39194573550E+03 -0.39768047498E+03 -0.17998232297E+04  0.18844455094E+04  0.25500000920E-02 0.  1.
</event>
<event>
 5   0  0.1239119E-04  0.1677435E+04  0.7818609E-02  0.8774340E-01
        1   -1    0    0  501    0  0.00000000000E+00  0.00000000000E+00  0.81782055355E+03  0.81782055356E+03  0.50400001928E-02 0.  1.
       -1   -1    0    0    0  501  0.00000000000E+00  0.00000000000E+00 -0.86014797753E+03  0.86014797754E+03  0.50400001928E-02 0. -1.
    10030    2    1    2    0    0  0.00000000000E+00  0.00000000000E+00 -0.42327423981E+02  0.16779685311E+04  0.16774345831E+04 0.  0.
        5    1    3    3  502    0  0.71124919509E+03 -0.14273968405E+03 -0.44221879373E+03  0.84960554756E+03  0.46999998093E+01 0. -1.
       -5    1    3    3    0  502 -0.71124919509E+03  0.14273968405E+03  0.39989136975E+03  0.82836298355E+03  0.46999998093E+01 0.  1.
</event>
<event>
 5   0  0.2569405E-04  0.1812546E+04  0.7818609E-02  0.8699656E-01
        2   -1    0    0  501    0  0.00000000000E+00  0.00000000000E+00  0.93017819776E+03  0.93017819776E+03  0.25500000920E-02 0. -1.
       -2   -1    0    0    0  501  0.00000000000E+00  0.00000000000E+00 -0.88298205128E+03  0.88298205129E+03  0.25500000920E-02 0.  1.
    10030    2    1    2    0    0  0.00000000000E+00  0.00000000000E+00  0.47196146473E+02  0.18131602490E+04  0.18125458925E+04 0.  0.
        2    1    3    3  502    0 -0.74400048823E+03 -0.50687060068E+03  0.12792206328E+03  0.90929565412E+03  0.25500000920E-02 0. -1.
       -2    1    3    3    0  502  0.74400048823E+03  0.50687060068E+03 -0.80725916807E+02  0.90386459493E+03  0.25500000920E-02 0.  1.
</event>
<event>
 5   0  0.2417106E-04  0.1795153E+04  0.7818609E-02  0.8708881E-01
       -2   -1    0    0    0  501  0.00000000000E+00  0.00000000000E+00  0.39058151484E+03  0.39058151484E+03  0.25500000920E-02 0. -1.
        2   -1    0    0  501    0  0.00000000000E+00  0.00000000000E+00 -0.20626767604E+04  0.20626767604E+04  0.25500000920E-02 0.  1.
    10030    2    1    2    0    0  0.00000000000E+00  0.00000000000E+00 -0.16720952455E+04  0.24532582752E+04  0.17951528221E+04 0.  0.
        4    1    3    3  502    0  0.15570349658E+03 -0.24858868294E+02  0.37150553601E+03  0.40358334748E+03  0.12699999809E+01 0. -1.
       -4    1    3    3    0  502 -0.15570349658E+03  0.24858868294E+02 -0.20436007815E+04  0.20496749277E+04  0.12699999809E+01 0.  1.
</event>
<event>
 5   0  0.1330225E-04  0.1802254E+04  0.7818609E-02  0.8705102E-01
       -1   -1    0    0    0  501  0.00000000000E+00  0.00000000000E+00  0.50446068365E+03  0.50446068367E+03  0.50400001928E-02 0.  1.
        1   -1    0    0  501    0  0.00000000000E+00  0.00000000000E+00 -0.16096986420E+04  0.16096986421E+04  0.50400001928E-02 0. -1.
    10030    2    1    2    0    0  0.00000000000E+00  0.00000000000E+00 -0.11052379584E+04  0.21141593257E+04  0.18022537862E+04 0.  0.
        3    1    3    3  502    0  0.70971625040E+03  0.16739176179E+03 -0.11736924892E+04  0.13817638103E+04  0.10100000352E+00 0. -1.
       -3    1    3    3    0  502 -0.70971625040E+03 -0.16739176179E+03  0.68454530838E+02  0.73239551541E+03  0.10100000352E+00 0.  1.
</event>
<event>
 5   0  0.2569405E-04  0.1782875E+04  0.7818609E-02  0.8715460E-01
        2   -1    0    0  501    0  0.00000000000E+00  0.00000000000E+00  0.47400874397E+03  0.47400874397E+03  0.25500000920E-02 0.  1.
       -2   -1    0    0    0  501  0.00000000000E+00  0.00000000000E+00 -0.16764690404E+04  0.16764690404E+04  0.25500000920E-02 0. -1.
    10030    2    1    2    0    0  0.00000000000E+00  0.00000000000E+00 -0.12024602964E+04  0.21504777844E+04  0.17828751882E+04 0.  0.
        2    1    3    3  502    0  0.73282845737E+03  0.47986354427E+03 -0.40173711401E+03  0.96369044710E+03  0.25500000920E-02 0. -1.
       -2    1    3    3    0  502 -0.73282845737E+03 -0.47986354427E+03 -0.80072318243E+03  0.11867873373E+04  0.25500000920E-02 0.  1.
</event>
<event>
 5   0  0.1239119E-04  0.1825123E+04  0.7818609E-02  0.8693052E-01
        1   -1    0    0  501    0  0.00000000000E+00  0.00000000000E+00  0.51748943744E+03  0.51748943746E+03  0.50400001928E-02 0.  1.
       -1   -1    0    0    0  501  0.00000000000E+00  0.00000000000E+00 -0.16092477288E+04  0.16092477288E+04  0.50400001928E-02 0. -1.
    10030    2    1    2    0    0  0.00000000000E+00  0.00000000000E+00 -0.10917582913E+04  0.21267371662E+04  0.18251232308E+04 0.  0.
        5    1    3    3  502    0  0.11914656045E+03 -0.30855555169E+03  0.44516756329E+03  0.55461579562E+03  0.46999998093E+01 0.  1.
       -5    1    3    3    0  502 -0.11914656045E+03  0.30855555169E+03 -0.15369258546E+04  0.15721213706E+04  0.46999998093E+01 0. -1.
</event>
<event>
 5   0  0.9144875E-05  0.1803425E+04  0.7818609E-02  0.8704480E-01
        3   -1    0    0  501    0  0.00000000000E+00  0.00000000000E+00  0.45864425706E+03  0.45864426818E+03  0.10100000352E+00 0.  1.
       -3   -1    0    0    0  501  0.00000000000E+00  0.00000000000E+00 -0.17728027713E+04  0.17728027742E+04  0.10100000352E+00 0. -1.
    10030    2    1    2    0    0  0.00000000000E+00  0.00000000000E+00 -0.13141585143E+04  0.22314470424E+04  0.18034254358E+04 0.  0.
        3    1    3    3  502    0  0.60166682772E+03 -0.25045451765E+03 -0.14281656792E+04  0.15698368242E+04  0.10100000352E+00 0. -1.
       -3    1    3    3    0  502 -0.60166682772E+03  0.25045451765E+03  0.11400716495E+03  0.66161021822E+03  0.10100000352E+00 0.  1.
</event>
<event>
 5   0  0.1308893E-04  0.1775316E+04  0.7818609E-02  0.8719537E-01
       -1   -1    0    0    0  501  0.00000000000E+00  0.00000000000E+00  0.72416493910E+03  0.72416493912E+03  0.50400001928E-02 0.  1.
        1   -1    0    0  501    0  0.00000000000E+00  0.00000000000E+00 -0.10880627507E+04  0.10880627508E+04  0.50400001928E-02 0. -1.
    10030    2    1    2    0    0  0.00000000000E+00  0.00000000000E+00 -0.36389781165E+03  0.18122276899E+04  0.17753161923E+04 0.  0.
        4    1    3    3  502    0  0.70901336525E+02  0.16889970805E+03  0.70466077291E+03  0.72808140251E+03  0.12699999809E+01 0.  1.
       -4    1    3    3    0  502 -0.70901336525E+02 -0.16889970805E+03 -0.10685585846E+04  0.10841462874E+04  0.12699999809E+01 0. -1.
</event>
<event>
 5   0  0.1253925E-04  0.1714032E+04  0.7818609E-02  0.8753402E-01
        1   -1    0    0  501    0  0.00000000000E+00  0.00000000000E+00  0.18526462452E+04  0.18526462452E+04  0.50400001928E-02 0.  1.
       -1   -1    0    0    0  501  0.00000000000E+00  0.00000000000E+00 -0.39644709099E+03  0.39644709102E+03  0.50400001928E-02 0. -1.
    10030    2    1    2    0    0  0.00000000000E+00  0.00000000000E+00  0.14561991542E+04  0.22490933362E+04  0.17140317553E+04 0.  0.
        2    1    3    3  502    0  0.21585903565E+02 -0.84451213118E+03  0.91738609597E+03  0.12471022172E+04  0.25500000920E-02 0.  1.
       -2    1    3    3    0  502 -0.21585903565E+02  0.84451213118E+03  0.53881305819E+03  0.10019911190E+04  0.25500000920E-02 0. -1.
</event>
<event>
 5   0  0.1239119E-04  0.1799366E+04  0.7818609E-02  0.8706637E-01
        1   -1    0    0  501    0  0.00000000000E+00  0.00000000000E+00  0.14063171078E+04  0.14063171078E+04  0.50400001928E-02 0.  1.
       -1   -1    0    0    0  501  0.00000000000E+00  0.00000000000E+00 -0.57556678159E+03  0.57556678161E+03  0.50400001928E-02 0. -1.
    10030    2    1    2    0    0  0.00000000000E+00  0.00000000000E+00  0.83075032618E+03  0.19818838894E+04  0.17993659013E+04 0.  0.
        5    1    3    3  502    0  0.37881257518E+03 -0.15365577061E+03  0.12981035511E+04  0.13609570098E+04  0.46999998093E+01 0.  1.
       -5    1    3    3    0  502 -0.37881257518E+03  0.15365577061E+03 -0.46735322497E+03  0.62092687962E+03  0.46999998093E+01 0. -1.
</event>
<event>
 5   0  0.1214723E-04  0.1779827E+04  0.7818609E-02  0.8717102E-01
       -1   -1    0    0    0  501  0.00000000000E+00  0.00000000000E+00  0.81104335536E+03  0.81104335538E+03  0.50400001928E-02 0. -1.
        1   -1    0    0  501    0  0.00000000000E+00  0.00000000000E+00 -0.97645290861E+03  0.97645290862E+03  0.50400001928E-02 0.  1.
    10030    2    1    2    0    0  0.00000000000E+00  0.00000000000E+00 -0.16540955325E+03  0.17874962640E+04  0.17798265571E+04 0.  0.
        1    1    3    3  502    0  0.73457570174E+02  0.38555142306E+03 -0.88483276240E+03  0.96797465457E+03  0.50400001928E-02 0.  1.
       -1    1    3    3    0  502 -0.73457570174E+02 -0.38555142306E+03  0.71942320915E+03  0.81952160943E+03  0.50400001928E-02 0. -1.
</event>
<event>
 5   0  0.2431811E-04  0.1794937E+04  0.7818609E-02  0.8708997E-01
        2   -1    0    0  501    0  0.00000000000E+00  0.00000000000E+00  0.10736681904E+04  0.10736681904E+04  0.25500000920E-02 0.  1.
       -2   -1    0    0    0  501  0.00000000000E+00  0.00000000000E+00 -0.75018492953E+03  0.75018492953E+03  0.25500000920E-02 0. -1.
    10030    2    1    2    0    0  0.00000000000E+00  0.00000000000E+00  0.32348326091E+03  0.18238531200E+04  0.17949369858E+04 0.  0.
        3    1    3    3  502    0  0.70683263561E+03  0.41871821649E+03 -0.20534324004E+03  0.84681944711E+03  0.10100000352E+00 0.  1.
       -3    1    3    3    0  502 -0.70683263561E+03 -0.41871821649E+03  0.52882650095E+03  0.97703367285E+03  0.10100000352E+00 0. -1.
</event>
<event>
 5   0  0.2431811E-04  0.1797146E+04  0.7818609E-02  0.8707819E-01
       -2   -1    0    0    0  501  0.00000000000E+00  0.00000000000E+00  0.61036625373E+03  0.61036625374E+03  0.25500000920E-02 0. -1.
        2   -1    0    0  501    0  0.00000000000E+00  0.00000000000E+00 -0.13228671239E+04  0.13228671239E+04  0.25500000920E-02 0.  1.
    10030    2    1    2    0    0  0.00000000000E+00  0.00000000000E+00 -0.71250087017E+03  0.19332333776E+04  0.17971460159E+04 0.  0.
        3    1    3    3  502    0  0.66332598352E+02  0.60683463408E+03  0.35306314282E+03  0.70519634127E+03  0.10100000352E+00 0. -1.
       -3    1    3    3    0  502 -0.66332598352E+02 -0.60683463408E+03 -0.10655640130E+04  0.12280370364E+04  0.10100000352E+00 0.  1.
</event>
<event>
 5   0  0.1239119E-04  0.1864358E+04  0.7818609E-02  0.8672804E-01
       -1   -1    0    0    0  501  0.00000000000E+00  0.00000000000E+00  0.11470000921E+04  0.11470000922E+04  0.50400001928E-02 0. -1.
        1   -1    0    0  501    0  0.00000000000E+00  0.00000000000E+00 -0.75759158870E+03  0.75759158872E+03  0.50400001928E-02 0.  1.
    10030    2    1    2    0    0  0.00000000000E+00  0.00000000000E+00  0.38940850344E+03  0.19045916809E+04  0.18643579292E+04 0.  0.
        5    1    3    3  502    0  0.43033354227E+03  0.63832331172E+03 -0.34227398488E+03  0.84250648580E+03  0.46999998093E+01 0.  1.
       -5    1    3    3    0  502 -0.43033354227E+03 -0.63832331172E+03  0.73168248832E+03  0.10620851951E+04  0.46999998093E+01 0. -1.
</event>
<event>
 5   0  0.1330225E-04  0.1810070E+04  0.7818609E-02  0.8700963E-01
       -1   -1    0    0    0  501  0.00000000000E+00  0.00000000000E+00  0.43974580809E+03  0.43974580812E+03  0.50400001928E-02 0.  1.
        1   -1    0    0  501    0  0.00000000000E+00  0.00000000000E+00 -0.18626407143E+04  0.18626407143E+04  0.50400001928E-02 0. -1.
    10030    2    1    2    0    0  0.00000000000E+00  0.00000000000E+00 -0.14228949062E+04  0.23023865224E+04  0.18100701048E+04 0.  0.
        3    1    3    3  502    0 -0.54849689690E+03 -0.30013804821E+03 -0.15437557660E+04  0.16655670413E+04  0.10100000352E+00 0. -1.
       -3    1    3    3    0  502  0.54849689690E+03  0.30013804821E+03  0.12086085978E+03  0.63681948110E+03  0.10100000352E+00 0.  1.
</event>
<event>
 5   0  0.1330225E-04  0.1800900E+04  0.7818609E-02  0.8705821E-01
        1   -1    0    0  501    0  0.00000000000E+00  0.00000000000E+00  0.14337479534E+04  0.14337479534E+04  0.50400001928E-02 0.  1.
       -1   -1    0    0    0  501  0.00000000000E+00  0.00000000000E+00 -0.56551768210E+03  0.56551768212E+03  0.50400001928E-02 0. -1.
    10030    2    1    2    0    0  0.00000000000E+00  0.00000000000E+00  0.86823027126E+03  0.19992656355E+04  0.18008995745E+04 0.  0.
        3    1    3    3  502    0 -0.72477869553E+03 -0.29594983008E+03 -0.59769065107E+02  0.78515145721E+03  0.10100000352E+00 0. -1.
       -3    1    3    3    0  502  0.72477869553E+03  0.29594983008E+03  0.92799933637E+03  0.12141141783E+04  0.10100000352E+00 0.  1.
</event>
<event>
 5   0  0.2569405E-04  0.1809039E+04  0.7818609E-02  0.8701507E-01
       -2   -1    0    0    0  501  0.00000000000E+00  0.00000000000E+00  0.99074632715E+03  0.99074632716E+03  0.25500000920E-02 0. -1.
        2   -1    0    0  501    0  0.00000000000E+00  0.00000000000E+00 -0.82579724438E+03  0.82579724438E+03  0.25500000920E-02 0.  1.
    10030    2    1    2    0    0  0.00000000000E+00  0.00000000000E+00  0.16494908277E+03  0.18165435715E+04  0.18090390674E+04 0.  0.
        2    1    3    3  502    0  0.69051147481E+03 -0.13454121175E+03  0.65338223946E+03  0.96011238163E+03  0.25500000920E-02 0. -1.
       -2    1    3    3    0  502 -0.69051147481E+03  0.13454121175E+03 -0.48843315669E+03  0.85643118992E+03  0.25500000920E-02 0.  1.
</event>
<event>
 5   0  0.2569405E-04  0.1807429E+04  0.7818609E-02  0.8702359E-01
       -2   -1    0    0    0  501  0.00000000000E+00  0.00000000000E+00  0.16214690790E+04  0.16214690790E+04  0.25500000920E-02 0.  1.
        2   -1    0    0  501    0  0.00000000000E+00  0.00000000000E+00 -0.50367872480E+03  0.50367872481E+03  0.25500000920E-02 0. -1.
    10030    2    1    2    0    0  0.00000000000E+00  0.00000000000E+00  0.11177903542E+04  0.21251478038E+04  0.18074285358E+04 0.  0.
        2    1    3    3  502    0  0.63264191794E+03  0.58878485254E+03  0.86952526465E+03  0.12259598626E+04  0.25500000920E-02 0.  1.
       -2    1    3    3    0  502 -0.63264191794E+03 -0.58878485254E+03  0.24826508958E+03  0.89918794121E+03  0.25500000920E-02 0. -1.
</event>
<event>
 5   0  0.1308893E-04  0.1806674E+04  0.7818609E-02  0.8702758E-01
       -1   -1    0    0    0  501  0.00000000000E+00  0.00000000000E+00  0.14876944651E+04  0.14876944651E+04  0.50400001928E-02 0. -1.
        1   -1    0    0  501    0  0.00000000000E+00  0.00000000000E+00 -0.54851154844E+03  0.54851154846E+03  0.50400001928E-02 0.  1.
    10030    2    1    2    0    0  0.00000000000E+00  0.00000000000E+00  0.93918291669E+03  0.20362060136E+04  0.18066738441E+04 0.  0.
        4    1    3    3  502    0 -0.89487988612E+03  0.61511018438E+02  0.34913780097E+03  0.96254476932E+03  0.12699999809E+01 0.  1.
       -4    1    3    3    0  502  0.89487988612E+03 -0.61511018438E+02  0.59004511571E+03  0.10736612443E+04  0.12699999809E+01 0. -1.
</event>
<event>
 5   0  0.2550616E-04  0.1769549E+04  0.7818609E-02  0.8722663E-01
       -2   -1    0    0    0  501  0.00000000000E+00  0.00000000000E+00  0.47929473279E+03  0.47929473280E+03  0.25500000920E-02 0.  1.
        2   -1    0    0  501    0  0.00000000000E+00  0.00000000000E+00 -0.16332862697E+04  0.16332862697E+04  0.25500000920E-02 0. -1.
    10030    2    1    2    0    0  0.00000000000E+00  0.00000000000E+00 -0.11539915369E+04  0.21125810025E+04  0.17695485370E+04 0.  0.
        1    1    3    3  502    0  0.38561366399E+03 -0.68929369985E+03 -0.10530450523E+04  0.13163311075E+04  0.50400001928E-02 0. -1.
       -1    1    3    3    0  502 -0.38561366399E+03  0.68929369985E+03 -0.10094648468E+03  0.79624989501E+03  0.50400001928E-02 0.  1.
</event>
<event>
 5   0  0.9144875E-05  0.1793799E+04  0.7818609E-02  0.8709604E-01
       -3   -1    0    0    0  501  0.00000000000E+00  0.00000000000E+00  0.14040299205E+04  0.14040299241E+04  0.10100000352E+00 0. -1.
        3   -1    0    0  501    0  0.00000000000E+00  0.00000000000E+00 -0.57294275112E+03  0.57294276003E+03  0.10100000352E+00 0.  1.
    10030    2    1    2    0    0  0.00000000000E+00  0.00000000000E+00  0.83108716939E+03  0.19769726842E+04  0.17937990720E+04 0.  0.
        1    1    3    3  502    0 -0.11572010975E+03 -0.43936387023E+03 -0.43672481265E+03  0.63020656636E+03  0.50400001928E-02 0.  1.
       -1    1    3    3    0  502  0.11572010975E+03  0.43936387023E+03  0.12678119820E+04  0.13467661178E+04  0.50400001928E-02 0. -1.
</event>
<event>
 5   0  0.2393421E-04  0.1810904E+04  0.7818609E-02  0.8700522E-01
       -2   -1    0    0    0  501  0.00000000000E+00  0.00000000000E+00  0.70399909780E+03  0.70399909781E+03  0.25500000920E-02 0.  1.
        2   -1    0    0  501    0  0.00000000000E+00  0.00000000000E+00 -0.11645518598E+04  0.11645518598E+04  0.25500000920E-02 0. -1.
    10030    2    1    2    0    0  0.00000000000E+00  0.00000000000E+00 -0.46055276202E+03  0.18685509576E+04  0.18109041484E+04 0.  0.
        5    1    3    3  502    0  0.29703517259E+02  0.40802192080E+03  0.60318501755E+03  0.72884733806E+03  0.46999998093E+01 0.  1.
       -5    1    3    3    0  502 -0.29703517259E+02 -0.40802192080E+03 -0.10637377796E+04  0.11397036196E+04  0.46999998093E+01 0. -1.
</event>
<event>
 5   0  0.2393421E-04  0.1675421E+04  0.7818609E-02  0.8775508E-01
        2   -1    0    0  501    0  0.00000000000E+00  0.00000000000E+00  0.15610863342E+04  0.15610863342E+04  0.25500000920E-02 0. -1.
       -2   -1    0    0    0  501  0.00000000000E+00  0.00000000000E+00 -0.44953215992E+03  0.44953215993E+03  0.25500000920E-02 0.  1.
    10030    2    1    2    0    0  0.00000000000E+00  0.00000000000E+00  0.11115541743E+04  0.20106184941E+04  0.16754205581E+04 0.  0.
        5    1    3    3  502    0 -0.57591316834E+03  0.38561174184E+03 -0.88469435024E+01  0.69316141794E+03  0.46999998093E+01 0.  1.
       -5    1    3    3    0  502  0.57591316834E+03 -0.38561174184E+03  0.11204011178E+04  0.13174570762E+04  0.46999998093E+01 0. -1.
</event>
<event>
 5   0  0.2569405E-04  0.1803888E+04  0.7818609E-02  0.8704235E-01
       -2   -1    0    0    0  501  0.00000000000E+00  0.00000000000E+00  0.85079953211E+03  0.85079953211E+03  0.25500000920E-02 0.  1.
        2   -1    0    0  501    0  0.00000000000E+00  0.00000000000E+00 -0.95616248135E+03  0.95616248135E+03  0.25500000920E-02 0. -1.
    10030    2    1    2    0    0  0.00000000000E+00  0.00000000000E+00 -0.10536294924E+03  0.18069620135E+04  0.18038875705E+04 0.  0.
        2    1    3    3  502    0  0.45208729207E+03 -0.20980272281E+03  0.70033272705E+03  0.85957316776E+03  0.25500000920E-02 0.  1.
       -2    1    3    3    0  502 -0.45208729207E+03  0.20980272281E+03 -0.80569567629E+03  0.94738884570E+03  0.25500000920E-02 0. -1.
</event>
<event>
 5   0  0.1239119E-04  0.1766190E+04  0.7818609E-02  0.8724489E-01
       -1   -1    0    0    0  501  0.00000000000E+00  0.00000000000E+00  0.39485259408E+03  0.39485259411E+03  0.50400001928E-02 0. -1.
        1   -1    0    0  501    0  0.00000000000E+00  0.00000000000E+00 -0.19750577221E+04  0.19750577221E+04  0.50400001928E-02 0.  1.
    10030    2    1    2    0    0  0.00000000000E+00  0.00000000000E+00 -0.15802051280E+04  0.23699103162E+04  0.17661898710E+04 0.  0.
        5    1    3    3  502    0  0.77164437443E+03 -0.13561581478E+02 -0.21418841898E+03  0.80094801698E+03  0.46999998093E+01 0. -1.
       -5    1    3    3    0  502 -0.77164437443E+03  0.13561581478E+02 -0.13660167090E+04  0.15689622992E+04  0.46999998093E+01 0.  1.
</event>
<event>
 5   0  0.2431811E-04  0.1781543E+04  0.7818609E-02  0.8716177E-01
        2   -1    0    0  501    0  0.00000000000E+00  0.00000000000E+00  0.14313807911E+04  0.14313807911E+04  0.25500000920E-02 0.  1.
       -2   -1    0    0    0  501  0.00000000000E+00  0.00000000000E+00 -0.55434135669E+03  0.55434135669E+03  0.25500000920E-02 0. -1.
    10030    2    1    2    0    0  0.00000000000E+00  0.00000000000E+00  0.87703943438E+03  0.19857221478E+04  0.17815426682E+04 0.  0.
        3    1    3    3  502    0 -0.44549703995E+03 -0.29622587885E+03 -0.35532566536E+03  0.64224117165E+03  0.10100000352E+00 0. -1.
       -3    1    3    3    0  502  0.44549703995E+03  0.29622587885E+03  0.12323650997E+04  0.13434809761E+04  0.10100000352E+00 0.  1.
</event>
<event>
 5   0  0.1330225E-04  0.1809512E+04  0.7818609E-02  0.8701257E-01
       -1   -1    0    0    0  501  0.00000000000E+00  0.00000000000E+00  0.93063925031E+03  0.93063925033E+03  0.50400001928E-02 0. -1.
        1   -1    0    0  501    0  0.00000000000E+00  0.00000000000E+00 -0.87959306747E+03  0.87959306748E+03  0.50400001928E-02 0.  1.
    10030    2    1    2    0    0  0.00000000000E+00  0.00000000000E+00  0.51046182849E+02  0.18102323178E+04  0.18095124569E+04 0.  0.
        3    1    3    3  502    0  0.47207238087E+03 -0.62883944157E+03 -0.42219539064E+03  0.89249108351E+03  0.10100000352E+00 0. -1.
       -3    1    3    3    0  502 -0.47207238087E+03  0.62883944157E+03  0.47324157349E+03  0.91774123430E+03  0.10100000352E+00 0.  1.
</event>
<event>
 5   0  0.2417106E-04  0.1812968E+04  0.7818609E-02  0.8699433E-01
       -2   -1    0    0    0  501  0.00000000000E+00  0.00000000000E+00  0.50927311270E+03  0.50927311271E+03  0.25500000920E-02 0. -1.
        2   -1    0    0  501    0  0.00000000000E+00  0.00000000000E+00 -0.16135028580E+04  0.16135028580E+04  0.25500000920E-02 0.  1.
    10030    2    1    2    0    0  0.00000000000E+00  0.00000000000E+00 -0.11042297453E+04  0.21227759707E+04  0.18129684199E+04 0.  0.
        4    1    3    3  502    0 -0.54549764288E+03 -0.46084574964E+03 -0.12058893610E+04  0.14014696740E+04  0.12699999809E+01 0.  1.
       -4    1    3    3    0  502  0.54549764288E+03  0.46084574964E+03  0.10165961565E+03  0.72130629673E+03  0.12699999809E+01 0. -1.
</event>
<event>
 5   0  0.1253925E-04  0.1741997E+04  0.7818609E-02  0.8737768E-01
        1   -1    0    0  501    0  0.00000000000E+00  0.00000000000E+00  0.15924111690E+04  0.15924111690E+04  0.50400001928E-02 0. -1.
       -1   -1    0    0    0  501  0.00000000000E+00  0.00000000000E+00 -0.47640879761E+03  0.47640879763E+03  0.50400001928E-02 0.  1.
    10030    2    1    2    0    0  0.00000000000E+00  0.00000000000E+00  0.11160023714E+04  0.20688199667E+04  0.17419973483E+04 0.  0.
        2    1    3    3  502    0 -0.49965051391E+03  0.69814086210E+03  0.38350927915E+03  0.94028222709E+03  0.25500000920E-02 0.  1.
       -2    1    3    3    0  502  0.49965051391E+03 -0.69814086210E+03  0.73249309226E+03  0.11285377396E+04  0.25500000920E-02 0. -1.
</event>
<event>
 5   0  0.1214723E-04  0.1789517E+04  0.7818609E-02  0.8711894E-01
       -1   -1    0    0    0  501  0.00000000000E+00  0.00000000000E+00  0.33575806885E+03  0.33575806889E+03  0.50400001928E-02 0. -1.
        1   -1    0    0  501    0  0.00000000000E+00  0.00000000000E+00 -0.23844332833E+04  0.23844332833E+04  0.50400001928E-02 0.  1.
    10030    2    1    2    0    0  0.00000000000E+00  0.00000000000E+00 -0.20486752144E+04  0.27201913522E+04  0.17895169343E+04 0.  0.
        1    1    3    3  502    0 -0.11158210318E+03  0.63479457601E+03 -0.80940854068E+02  0.64958920970E+03  0.50400001928E-02 0. -1.
       -1    1    3    3    0  502  0.11158210318E+03 -0.63479457601E+03 -0.19677343604E+04  0.20706021425E+04  0.50400001928E-02 0.  1.
</event>
<event>
 5   0  0.2393421E-04  0.1799123E+04  0.7818609E-02  0.8706766E-01
        2   -1    0    0  501    0  0.00000000000E+00  0.00000000000E+00  0.10352308058E+04  0.10352308058E+04  0.25500000920E-02 0. -1.
       -2   -1    0    0    0  501  0.00000000000E+00  0.00000000000E+00 -0.78167213325E+03  0.78167213326E+03  0.25500000920E-02 0.  1.
    10030    2    1    2    0    0  0.00000000000E+00  0.00000000000E+00  0.25355867255E+03  0.18169029391E+04  0.17991232002E+04 0.  0.
        5    1    3    3  502    0 -0.77498981294E+03  0.45059046861E+02  0.58574780425E+03  0.97250301184E+03  0.46999998093E+01 0. -1.
       -5    1    3    3    0  502  0.77498981294E+03 -0.45059046861E+02 -0.33218913170E+03  0.84439992722E+03  0.46999998093E+01 0.  1.
</event>
<event>
 5   0  0.1239119E-04  0.1788511E+04  0.7818609E-02  0.8712433E-01
       -1   -1    0    0    0  501  0.00000000000E+00  0.00000000000E+00  0.36841320358E+03  0.36841320362E+03  0.50400001928E-02 0.  1.
        1   -1    0    0  501    0  0.00000000000E+00  0.00000000000E+00 -0.21706415989E+04  0.21706415989E+04  0.50400001928E-02 0. -1.
    10030    2    1    2    0    0  0.00000000000E+00  0.00000000000E+00 -0.18022283953E+04  0.25390548025E+04  0.17885111409E+04 0.  0.
        5    1    3    3  502    0 -0.46634827875E+03 -0.30461033537E+03  0.92033025962E+02  0.56458864793E+03  0.46999998093E+01 0.  1.
       -5    1    3    3    0  502  0.46634827875E+03  0.30461033537E+03 -0.18942614212E+04  0.19744661545E+04  0.46999998093E+01 0. -1.
</event>
<event>
 5   0  0.2431811E-04  0.1794229E+04  0.7818609E-02  0.8709375E-01
       -2   -1    0    0    0  501  0.00000000000E+00  0.00000000000E+00  0.89339634832E+03  0.89339634833E+03  0.25500000920E-02 0. -1.
        2   -1    0    0  501    0  0.00000000000E+00  0.00000000000E+00 -0.90084762551E+03  0.90084762552E+03  0.25500000920E-02 0.  1.
    10030    2    1    2    0    0  0.00000000000E+00  0.00000000000E+00 -0.74512771894E+01  0.17942439738E+04  0.17942285017E+04 0.  0.
        3    1    3    3  502    0  0.35911752776E+02  0.47907780569E+03 -0.76136583730E+03  0.90026837460E+03  0.10100000352E+00 0.  1.
       -3    1    3    3    0  502 -0.35911752776E+02 -0.47907780569E+03  0.75391456011E+03  0.89397559924E+03  0.10100000352E+00 0. -1.
</event>
<event>
 5   0  0.2550616E-04  0.1791827E+04  0.7818609E-02  0.8710658E-01
       -2   -1    0    0    0  501  0.00000000000E+00  0.00000000000E+00  0.33714311953E+03  0.33714311954E+03  0.25500000920E-02 0.  1.
        2   -1    0    0  501    0  0.00000000000E+00  0.00000000000E+00 -0.23807715035E+04  0.23807715035E+04  0.25500000920E-02 0. -1.
    10030    2    1    2    0    0  0.00000000000E+00  0.00000000000E+00 -0.20436283840E+04  0.27179146230E+04  0.17918267010E+04 0.  0.
        1    1    3    3  502    0 -0.77451786102E+03  0.44688104248E+03 -0.93763095364E+03  0.12956590556E+04  0.50400001928E-02 0.  1.
       -1    1    3    3    0  502  0.77451786102E+03 -0.44688104248E+03 -0.11059974303E+04  0.14222555674E+04  0.50400001928E-02 0. -1.
</event>
<event>
 5   0  0.1253925E-04  0.1828622E+04  0.7818609E-02  0.8691225E-01
       -1   -1    0    0    0  501  0.00000000000E+00  0.00000000000E+00  0.95775411261E+03  0.95775411263E+03  0.50400001928E-02 0. -1.
        1   -1    0    0  501    0  0.00000000000E+00  0.00000000000E+00 -0.87283880111E+03  0.87283880113E+03  0.50400001928E-02 0.  1.
    10030    2    1    2    0    0  0.00000000000E+00  0.00000000000E+00  0.84915311502E+02  0.18305929138E+04  0.18286223792E+04 0.  0.
        2    1    3    3  502    0  0.35091061820E+03  0.43456783529E+03  0.76710058649E+03  0.94891030938E+03  0.25500000920E-02 0. -1.
       -2    1    3    3    0  502 -0.35091061820E+03 -0.43456783529E+03 -0.68218527499E+03  0.88168260438E+03  0.25500000920E-02 0.  1.
</event>
<event>
 5   0  0.1253925E-04  0.1817581E+04  0.7818609E-02  0.8697006E-01
        1   -1    0    0  501    0  0.00000000000E+00  0.00000000000E+00  0.11189067038E+04  0.11189067039E+04  0.50400001928E-02 0.  1.
       -1   -1    0    0    0  501  0.00000000000E+00  0.00000000000E+00 -0.73813114878E+03  0.73813114880E+03  0.50400001928E-02 0. -1.
    10030    2    1    2    0    0  0.00000000000E+00  0.00000000000E+00  0.38077555506E+03  0.18570378527E+04  0.18175806895E+04 0.  0.
        2    1    3    3  502    0 -0.21635796765E+03  0.56036873382E+03 -0.50638154584E+03  0.78565014986E+03  0.25500000920E-02 0. -1.
       -2    1    3    3    0  502  0.21635796765E+03 -0.56036873382E+03  0.88715710090E+03  0.10713877028E+04  0.25500000920E-02 0.  1.
</event>
<event>
 5   0  0.2431811E-04  0.1797826E+04  0.7818609E-02  0.8707457E-01
        2   -1    0    0  501    0  0.00000000000E+00  0.00000000000E+00  0.10465435411E+04  0.10465435411E+04  0.25500000920E-02 0.  1.
       -2   -1    0    0    0  501  0.00000000000E+00  0.00000000000E+00 -0.77210773852E+03  0.77210773853E+03  0.25500000920E-02 0. -1.
    10030    2    1    2    0    0  0.00000000000E+00  0.00000000000E+00  0.27443580253E+03  0.18186512796E+04  0.17978257610E+04 0.  0.
        3    1    3    3  502    0  0.20406080205E+03 -0.18204442150E+03 -0.72900932498E+03  0.77861132052E+03  0.10100000352E+00 0. -1.
       -3    1    3    3    0  502 -0.20406080205E+03  0.18204442150E+03  0.10034451275E+04  0.10400399591E+04  0.10100000352E+00 0.  1.
</event>
<event>
 5   0  0.2431811E-04  0.1822591E+04  0.7818609E-02  0.8694377E-01
        2   -1    0    0  501    0  0.00000000000E+00  0.00000000000E+00  0.25280774860E+04  0.25280774860E+04  0.25500000920E-02 0.  1.
       -2   -1    0    0    0  501  0.00000000000E+00  0.00000000000E+00 -0.32849450830E+03  0.32849450831E+03  0.25500000920E-02 0. -1.
    10030    2    1    2    0    0  0.00000000000E+00  0.00000000000E+00  0.21995829777E+04  0.28565719943E+04  0.18225910904E+04 0.  0.
        3    1    3    3  502    0 -0.40685541139E+03 -0.74206123068E+03  0.16296115991E+04  0.18362516630E+04  0.10100000352E+00 0.  1.
       -3    1    3    3    0  502  0.40685541139E+03  0.74206123068E+03  0.56997137866E+03  0.10203203313E+04  0.10100000352E+00 0. -1.
</event>
<event>
 5   0  0.1308893E-04  0.1801242E+04  0.7818609E-02  0.8705639E-01
        1   -1    0    0  501    0  0.00000000000E+00  0.00000000000E+00  0.32332123921E+04  0.32332123921E+04  0.50400001928E-02 0.  1.
       -1   -1    0    0    0  501  0.00000000000E+00  0.00000000000E+00 -0.25087077298E+03  0.25087077303E+03  0.50400001928E-02 0. -1.
    10030    2    1    2    0    0  0.00000000000E+00  0.00000000000E+00  0.29823416192E+04  0.34840831652E+04  0.18012423403E+04 0.  0.
        4    1    3    3  502    0 -0.62635713955E+03  0.12651437192E+03  0.27187640275E+04  0.27928495489E+04  0.12699999809E+01 0.  1.
       -4    1    3    3    0  502  0.62635713955E+03 -0.12651437192E+03  0.26357759166E+03  0.69123361629E+03  0.12699999809E+01 0. -1.
</event>
<event>
 5   0  0.1308893E-04  0.1819006E+04  0.7818609E-02  0.8696257E-01
       -1   -1    0    0    0  501  0.00000000000E+00  0.00000000000E+00  0.11595169946E+04  0.11595169946E+04  0.50400001928E-02 0. -1.
        1   -1    0    0  501    0  0.00000000000E+00  0.00000000000E+00 -0.71339667681E+03  0.71339667683E+03  0.50400001928E-02 0.  1.
    10030    2    1    2    0    0  0.00000000000E+00  0.00000000000E+00  0.44612031783E+03  0.18729136715E+04  0.18190058501E+04 0.  0.
        4    1    3    3  502    0 -0.55036826216E+03 -0.51515643464E+03  0.74696432810E+03  0.10612486497E+04  0.12699999809E+01 0. -1.
       -4    1    3    3    0  502  0.55036826216E+03  0.51515643464E+03 -0.30084401027E+03  0.81166502177E+03  0.12699999809E+01 0.  1.
</event>
<event>
 5   0  0.1214723E-04  0.1828518E+04  0.7818609E-02  0.8691279E-01
       -1   -1    0    0    0  501  0.00000000000E+00  0.00000000000E+00  0.10013418616E+04  0.10013418616E+04  0.50400001928E-02 0. -1.
        1   -1    0    0  501    0  0.00000000000E+00  0.00000000000E+00 -0.83474977693E+03  0.83474977695E+03  0.50400001928E-02 0.  1.
    10030    2    1    2    0    0  0.00000000000E+00  0.00000000000E+00  0.16659208470E+03  0.18360916386E+04  0.18285184119E+04 0.  0.
        1    1    3    3  502    0  0.11534579879E+03 -0.90670883359E+03  0.62129519945E+02  0.91612534049E+03  0.50400001928E-02 0.  1.
       -1    1    3    3    0  502 -0.11534579879E+03  0.90670883359E+03  0.10446256476E+03  0.91996629811E+03  0.50400001928E-02 0. -1.
</event>
<event>
 5   0  0.1214723E-04  0.1793684E+04  0.7818609E-02  0.8709666E-01
        1   -1    0    0  501    0  0.00000000000E+00  0.00000000000E+00  0.11630955099E+04  0.11630955099E+04  0.50400001928E-02 0.  1.
       -1   -1    0    0    0  501  0.00000000000E+00  0.00000000000E+00 -0.69153837886E+03  0.69153837888E+03  0.50400001928E-02 0. -1.
    10030    2    1    2    0    0  0.00000000000E+00  0.00000000000E+00  0.47155713103E+03  0.18546338888E+04  0.17936835656E+04 0.  0.
        1    1    3    3  502    0  0.15258272231E+03 -0.79184052090E+03  0.64158435826E+03  0.10304966698E+04  0.50400001928E-02 0.  1.
       -1    1    3    3    0  502 -0.15258272231E+03  0.79184052090E+03 -0.17002722723E+03  0.82413721898E+03  0.50400001928E-02 0. -1.
</event>
<event>
 5   0  0.1253925E-04  0.1825475E+04  0.7818609E-02  0.8692869E-01
       -1   -1    0    0    0  501  0.00000000000E+00  0.00000000000E+00  0.40483918519E+03  0.40483918522E+03  0.50400001928E-02 0.  1.
        1   -1    0    0  501    0  0.00000000000E+00  0.00000000000E+00 -0.20578278404E+04  0.20578278404E+04  0.50400001928E-02 0. -1.
    10030    2    1    2    0    0  0.00000000000E+00  0.00000000000E+00 -0.16529886552E+04  0.24626670257E+04  0.18254745643E+04 0.  0.
        2    1    3    3  502    0  0.49407910046E+03  0.24189156975E+03  0.15606261111E+03  0.57182272395E+03  0.25500000920E-02 0.  1.
       -2    1    3    3    0  502 -0.49407910046E+03 -0.24189156975E+03 -0.18090512664E+04  0.18908443017E+04  0.25500000920E-02 0. -1.
</event>
<event>
 5   0  0.1239119E-04  0.1800559E+04  0.7818609E-02  0.8706002E-01
        1   -1    0    0  501    0  0.00000000000E+00  0.00000000000E+00  0.13127347384E+04  0.13127347384E+04  0.50400001928E-02 0. -1.
       -1   -1    0    0    0  501  0.00000000000E+00  0.00000000000E+00 -0.61741606331E+03  0.61741606333E+03  0.50400001928E-02 0.  1.
    10030    2    1    2    0    0  0.00000000000E+00  0.00000000000E+00  0.69531867505E+03  0.19301508017E+04  0.18005593735E+04 0.  0.
        5    1    3    3  502    0 -0.10777684078E+03 -0.23670687208E+03 -0.57625158321E+03  0.63224518017E+03  0.46999998093E+01 0.  1.
       -5    1    3    3    0  502  0.10777684078E+03  0.23670687208E+03  0.12715702583E+04  0.12979056215E+04  0.46999998093E+01 0. -1.
</event>
<event>
 5   0  0.1253925E-04  0.1807139E+04  0.7818609E-02  0.8702512E-01
        1   -1    0    0  501    0  0.00000000000E+00  0.00000000000E+00  0.14201477201E+04  0.14201477201E+04  0.50400001928E-02 0. -1.
       -1   -1    0    0    0  501  0.00000000000E+00  0.00000000000E+00 -0.57489648803E+03  0.57489648805E+03  0.50400001928E-02 0.  1.
    10030    2    1    2    0    0  0.00000000000E+00  0.00000000000E+00  0.84525123208E+03  0.19950442082E+04  0.18071391057E+04 0.  0.
        2    1    3    3  502    0  0.52262192783E+03 -0.63188681727E+03  0.36610154325E+01  0.82001709271E+03  0.25500000920E-02 0.  1.
       -2    1    3    3    0  502 -0.52262192783E+03  0.63188681727E+03  0.84159021665E+03  0.11750271155E+04  0.25500000920E-02 0. -1.
</event>
<event>
 5   0  0.2550616E-04  0.1797777E+04  0.7818609E-02  0.8707482E-01
       -2   -1    0    0    0  501  0.00000000000E+00  0.00000000000E+00  0.80562660033E+03  0.80562660034E+03  0.25500000920E-02 0.  1.
        2   -1    0    0  501    0  0.00000000000E+00  0.00000000000E+00 -0.10029469630E+04  0.10029469630E+04  0.25500000920E-02 0. -1.
    10030    2    1    2    0    0  0.00000000000E+00  0.00000000000E+00 -0.19732036264E+03  0.18085735633E+04  0.17977772410E+04 0.  0.
        1    1    3    3  502    0 -0.85517094601E+03 -0.27683382336E+03 -0.91804609868E+02  0.90353881991E+03  0.50400001928E-02 0. -1.
       -1    1    3    3    0  502  0.85517094601E+03  0.27683382336E+03 -0.10551575277E+03  0.90503474341E+03  0.50400001928E-02 0.  1.
</event>
<event>
 5   0  0.2550616E-04  0.1785877E+04  0.7818609E-02  0.8713846E-01
        2   -1    0    0  501    0  0.00000000000E+00  0.00000000000E+00  0.18076913210E+04  0.18076913210E+04  0.25500000920E-02 0.  1.
       -2   -1    0    0    0  501  0.00000000000E+00  0.00000000000E+00 -0.44108151376E+03  0.44108151377E+03  0.25500000920E-02 0. -1.
    10030    2    1    2    0    0  0.00000000000E+00  0.00000000000E+00  0.13666098072E+04  0.22487728348E+04  0.17858770666E+04 0.  0.
        1    1    3    3  502    0 -0.79155252559E+03 -0.28749781659E+03  0.30949308713E+03  0.89721589727E+03  0.50400001928E-02 0. -1.
       -1    1    3    3    0  502  0.79155252559E+03  0.28749781659E+03  0.10571167201E+04  0.13515569375E+04  0.50400001928E-02 0.  1.
</event>
<event>
 5   0  0.2569405E-04  0.1809876E+04  0.7818609E-02  0.8701065E-01
        2   -1    0    0  501    0  0.00000000000E+00  0.00000000000E+00  0.10394041136E+04  0.10394041136E+04  0.25500000920E-02 0.  1.
       -2   -1    0    0    0  501  0.00000000000E+00  0.00000000000E+00 -0.78786757803E+03  0.78786757803E+03  0.25500000920E-02 0. -1.
    10030    2    1    2    0    0  0.00000000000E+00  0.00000000000E+00  0.25153653557E+03  0.18272716916E+04  0.18098760196E+04 0.  0.
        2    1    3    3  502    0  0.44672810584E+02  0.45496072185E+03 -0.66271692908E+03  0.80509542696E+03  0.25500000920E-02 0. -1.
       -2    1    3    3    0  502 -0.44672810584E+02 -0.45496072185E+03  0.91425346465E+03  0.10221762647E+04  0.25500000920E-02 0.  1.
</event>
<event>
 5   0  0.1308893E-04  0.1806948E+04  0.7818609E-02  0.8702613E-01
       -1   -1    0    0    0  501  0.00000000000E+00  0.00000000000E+00  0.36906827997E+03  0.36906828000E+03  0.50400001928E-02 0. -1.
        1   -1    0    0  501    0  0.00000000000E+00  0.00000000000E+00 -0.22116918725E+04  0.22116918725E+04  0.50400001928E-02 0.  1.
    10030    2    1    2    0    0  0.00000000000E+00  0.00000000000E+00 -0.18426235925E+04  0.25807601525E+04  0.18069480516E+04 0.  0.
        4    1    3    3  502    0  0.54190867234E+03  0.40946487584E+03 -0.17722102651E+04  0.18979086728E+04  0.12699999809E+01 0.  1.
       -4    1    3    3    0  502 -0.54190867234E+03 -0.40946487584E+03 -0.70413327395E+02  0.68285147966E+03  0.12699999809E+01 0. -1.
</event>
<event>
 5   0  0.1308893E-04  0.1785363E+04  0.7818609E-02  0.8714122E-01
       -1   -1    0    0    0  501  0.00000000000E+00  0.00000000000E+00  0.44878244831E+03  0.44878244834E+03  0.50400001928E-02 0.  1.
        1   -1    0    0  501    0  0.00000000000E+00  0.00000000000E+00 -0.17756497456E+04  0.17756497456E+04  0.50400001928E-02 0. -1.
    10030    2    1    2    0    0  0.00000000000E+00  0.00000000000E+00 -0.13268672973E+04  0.22244321939E+04  0.17853632014E+04 0.  0.
        4    1    3    3  502    0 -0.79679435670E+03 -0.39836236530E+03 -0.73506097527E+03  0.11549415878E+04  0.12699999809E+01 0. -1.
       -4    1    3    3    0  502  0.79679435670E+03  0.39836236530E+03 -0.59180632199E+03  0.10694906061E+04  0.12699999809E+01 0.  1.
</event>
<event>
 5   0  0.1214723E-04  0.1744558E+04  0.7818609E-02  0.8736352E-01
       -1   -1    0    0    0  501  0.00000000000E+00  0.00000000000E+00  0.18642123489E+04  0.18642123489E+04  0.50400001928E-02 0. -1.
        1   -1    0    0  501    0  0.00000000000E+00  0.00000000000E+00 -0.40814589479E+03  0.40814589482E+03  0.50400001928E-02 0.  1.
    10030    2    1    2    0    0  0.00000000000E+00  0.00000000000E+00  0.14560664541E+04  0.22723582437E+04  0.17445579581E+04 0.  0.
        1    1    3    3  502    0  0.34371580795E+03  0.73049966935E+03  0.29779959413E+03  0.86049690403E+03  0.50400001928E-02 0.  1.
       -1    1    3    3    0  502 -0.34371580795E+03 -0.73049966935E+03  0.11582668600E+04  0.14118613397E+04  0.50400001928E-02 0. -1.
</event>
<event>
 5   0  0.1253925E-04  0.1823153E+04  0.7818609E-02  0.8694083E-01
       -1   -1    0    0    0  501  0.00000000000E+00  0.00000000000E+00  0.83788569959E+03  0.83788569961E+03  0.50400001928E-02 0. -1.
        1   -1    0    0  501    0  0.00000000000E+00  0.00000000000E+00 -0.99174857084E+03  0.99174857086E+03  0.50400001928E-02 0.  1.
    10030    2    1    2    0    0  0.00000000000E+00  0.00000000000E+00 -0.15386287125E+03  0.18296342705E+04  0.18231532521E+04 0.  0.
        2    1    3    3  502    0  0.54581831482E+03 -0.32650317780E+03  0.57842136959E+03  0.85970532086E+03  0.25500000920E-02 0. -1.
       -2    1    3    3    0  502 -0.54581831482E+03  0.32650317780E+03 -0.73228424084E+03  0.96992894961E+03  0.25500000920E-02 0.  1.
</event>
<event>
 5   0  0.1253925E-04  0.1800653E+04  0.7818609E-02  0.8705953E-01
        1   -1    0    0  501    0  0.00000000000E+00  0.00000000000E+00  0.71024978092E+03  0.71024978094E+03  0.50400001928E-02 0.  1.
       -1   -1    0    0    0  501  0.00000000000E+00  0.00000000000E+00 -0.11412708343E+04  0.11412708343E+04  0.50400001928E-02 0. -1.
    10030    2    1    2    0    0  0.00000000000E+00  0.00000000000E+00 -0.43102105340E+03  0.18515206153E+04  0.18006525040E+04 0.  0.
        2    1    3    3  502    0  0.39439105200E+02  0.62302931555E+03 -0.88257953581E+03  0.10810493088E+04  0.25500000920E-02 0. -1.
       -2    1    3    3    0  502 -0.39439105200E+02 -0.62302931555E+03  0.45155848240E+03  0.77047130647E+03  0.25500000920E-02 0.  1.
</event>
<event>
 5   0  0.2431811E-04  0.1793568E+04  0.7818609E-02  0.8709728E-01
       -2   -1    0    0    0  501  0.00000000000E+00  0.00000000000E+00  0.57690662689E+03  0.57690662690E+03  0.25500000920E-02 0.  1.
        2   -1    0    0  501    0  0.00000000000E+00  0.00000000000E+00 -0.13940231370E+04  0.13940231370E+04  0.25500000920E-02 0. -1.
    10030    2    1    2    0    0  0.00000000000E+00  0.00000000000E+00 -0.81711651008E+03  0.19709297639E+04  0.17935676020E+04 0.  0.
        3    1    3    3  502    0 -0.49225767514E+03 -0.54285671762E+03  0.15948298341E+03  0.74996391033E+03  0.10100000352E+00 0.  1.
       -3    1    3    3    0  502  0.49225767514E+03  0.54285671762E+03 -0.97659949349E+03  0.12209658535E+04  0.10100000352E+00 0. -1.
</event>
<event>
 5   0  0.2550616E-04  0.1887514E+04  0.7818609E-02  0.8661096E-01
        2   -1    0    0  501    0  0.00000000000E+00  0.00000000000E+00  0.95931139096E+03  0.95931139096E+03  0.25500000920E-02 0. -1.
       -2   -1    0    0    0  501  0.00000000000E+00  0.00000000000E+00 -0.92845514609E+03  0.92845514609E+03  0.25500000920E-02 0.  1.
    10030    2    1    2    0    0  0.00000000000E+00  0.00000000000E+00  0.30856244875E+02  0.18877665371E+04  0.18875143418E+04 0.  0.
        1    1    3    3  502    0 -0.21674861248E+02  0.36665204925E+03 -0.85404070839E+03  0.92967147770E+03  0.50400001928E-02 0.  1.
       -1    1    3    3    0  502  0.21674861248E+02 -0.36665204925E+03  0.88489695327E+03  0.95809505935E+03  0.50400001928E-02 0. -1.
</event>
<event>
 5   0  0.2431811E-04  0.1592141E+04  0.7818609E-02  0.8825391E-01
        2   -1    0    0  501    0  0.00000000000E+00  0.00000000000E+00  0.14255117573E+04  0.14255117573E+04  0.25500000920E-02 0.  1.
       -2   -1    0    0    0  501  0.00000000000E+00  0.00000000000E+00 -0.44456207541E+03  0.44456207542E+03  0.25500000920E-02 0. -1.
    10030    2    1    2    0    0  0.00000000000E+00  0.00000000000E+00  0.98094968193E+03  0.18700738328E+04  0.15921412819E+04 0.  0.
        3    1    3    3  502    0  0.61829908533E+03 -0.48413816712E+03  0.33712801929E+03  0.85459863993E+03  0.10100000352E+00 0. -1.
       -3    1    3    3    0  502 -0.61829908533E+03  0.48413816712E+03  0.64382166263E+03  0.10154751928E+04  0.10100000352E+00 0.  1.
</event>
<event>
 5   0  0.1214723E-04  0.1861374E+04  0.7818609E-02  0.8674326E-01
       -1   -1    0    0    0  501  0.00000000000E+00  0.00000000000E+00  0.56385197709E+03  0.56385197712E+03  0.50400001928E-02 0.  1.
        1   -1    0    0  501    0  0.00000000000E+00  0.00000000000E+00 -0.15361802905E+04  0.15361802905E+04  0.50400001928E-02 0. -1.
    10030    2    1    2    0    0  0.00000000000E+00  0.00000000000E+00 -0.97232831344E+03  0.21000322677E+04  0.18613740022E+04 0.  0.
        1    1    3    3  502    0  0.52888859545E+03  0.25654245883E+03  0.32790547584E+03  0.67309670976E+03  0.50400001928E-02 0.  1.
       -1    1    3    3    0  502 -0.52888859545E+03 -0.25654245883E+03 -0.13002337893E+04  0.14269355579E+04  0.50400001928E-02 0. -1.
</event>
<event>
 5   0  0.2569405E-04  0.1807971E+04  0.7818609E-02  0.8702072E-01
       -2   -1    0    0    0  501  0.00000000000E+00  0.00000000000E+00  0.50189878601E+03  0.50189878602E+03  0.25500000920E-02 0. -1.
        2   -1    0    0  501    0  0.00000000000E+00  0.00000000000E+00 -0.16281956482E+04  0.16281956482E+04  0.25500000920E-02 0.  1.
    10030    2    1    2    0    0  0.00000000000E+00  0.00000000000E+00 -0.11262968622E+04  0.21300944342E+04  0.18079705963E+04 0.  0.
        2    1    3    3  502    0  0.88471176429E+03  0.16057662756E+03 -0.45332148997E+03  0.10069757358E+04  0.25500000920E-02 0. -1.
       -2    1    3    3    0  502 -0.88471176429E+03 -0.16057662756E+03 -0.67297537224E+03  0.11231186985E+04  0.25500000920E-02 0.  1.
</event>
<event>
 5   0  0.2569405E-04  0.1791004E+04  0.7818609E-02  0.8711098E-01
       -2   -1    0    0    0  501  0.00000000000E+00  0.00000000000E+00  0.98648526335E+03  0.98648526335E+03  0.25500000920E-02 0.  1.
        2   -1    0    0  501    0  0.00000000000E+00  0.00000000000E+00 -0.81291003614E+03  0.81291003615E+03  0.25500000920E-02 0. -1.
    10030    2    1    2    0    0  0.00000000000E+00  0.00000000000E+00  0.17357522720E+03  0.17993952995E+04  0.17910039320E+04 0.  0.
        2    1    3    3  502    0  0.32655012289E+03  0.42137481898E+03  0.80969484278E+03  0.96943151344E+03  0.25500000920E-02 0.  1.
       -2    1    3    3    0  502 -0.32655012289E+03 -0.42137481898E+03 -0.63611961557E+03  0.82996378605E+03  0.25500000920E-02 0. -1.
</event>
<event>
 5   0  0.1308893E-04  0.1798201E+04  0.7818609E-02  0.8707257E-01
        1   -1    0    0  501    0  0.00000000000E+00  0.00000000000E+00  0.57678380071E+03  0.57678380073E+03  0.50400001928E-02 0.  1.
       -1   -1    0    0    0  501  0.00000000000E+00  0.00000000000E+00 -0.14015335567E+04  0.14015335567E+04  0.50400001928E-02 0. -1.
    10030    2    1    2    0    0  0.00000000000E+00  0.00000000000E+00 -0.82474975596E+03  0.19783173574E+04  0.17982011586E+04 0.  0.
        4    1    3    3  502    0 -0.75528537367E+03  0.45860013385E+03 -0.22956815962E+03  0.91294755120E+03  0.12699999809E+01 0.  1.
       -4    1    3    3    0  502  0.75528537367E+03 -0.45860013385E+03 -0.59518159634E+03  0.10653698062E+04  0.12699999809E+01 0. -1.
</event>
<event>
 5   0  0.1253925E-04  0.1800997E+04  0.7818609E-02  0.8705770E-01
        1   -1    0    0  501    0  0.00000000000E+00  0.00000000000E+00  0.17656217625E+04  0.17656217625E+04  0.50400001928E-02 0. -1.
       -1   -1    0    0    0  501  0.00000000000E+00  0.00000000000E+00 -0.45927019289E+03  0.45927019291E+03  0.50400001928E-02 0.  1.
    10030    2    1    2    0    0  0.00000000000E+00  0.00000000000E+00  0.13063515696E+04  0.22248919554E+04  0.18009968878E+04 0.  0.
        2    1    3    3  502    0  0.33887051715E+03  0.55423379759E+03 -0.11721106085E+03  0.66011117440E+03  0.25500000920E-02 0.  1.
       -2    1    3    3    0  502 -0.33887051715E+03 -0.55423379759E+03  0.14235626304E+04  0.15647807810E+04  0.25500000920E-02 0. -1.
</event>
<event>
 5   0  0.1239119E-04  0.1792884E+04  0.7818609E-02  0.8710093E-01
       -1   -1    0    0    0  501  0.00000000000E+00  0.00000000000E+00  0.12525797288E+04  0.12525797288E+04  0.50400001928E-02 0.  1.
        1   -1    0    0  501    0  0.00000000000E+00  0.00000000000E+00 -0.64156226853E+03  0.64156226855E+03  0.50400001928E-02 0. -1.
    10030    2    1    2    0    0  0.00000000000E+00  0.00000000000E+00  0.61101746025E+03  0.18941419973E+04  0.17928835906E+04 0.  0.
        5    1    3    3  502    0 -0.40412725788E+03 -0.43757253287E+03  0.10132679409E+04  0.11753818835E+04  0.46999998093E+01 0.  1.
       -5    1    3    3    0  502  0.40412725788E+03  0.43757253287E+03 -0.40225048061E+03  0.71876011383E+03  0.46999998093E+01 0. -1.
</event>
<event>
 5   0  0.2417106E-04  0.1820251E+04  0.7818609E-02  0.8695604E-01
        2   -1    0    0  501    0  0.00000000000E+00  0.00000000000E+00  0.58276262654E+03  0.58276262654E+03  0.25500000920E-02 0.  1.
       -2   -1    0    0    0  501  0.00000000000E+00  0.00000000000E+00 -0.14213818037E+04  0.14213818037E+04  0.25500000920E-02 0. -1.
    10030    2    1    2    0    0  0.00000000000E+00  0.00000000000E+00 -0.83861917712E+03  0.20041444302E+04  0.18202507445E+04 0.  0.
        4    1    3    3  502    0  0.28056823599E+03 -0.67326353550E+03 -0.10186608184E+04  0.12528662335E+04  0.12699999809E+01 0. -1.
       -4    1    3    3    0  502 -0.28056823599E+03  0.67326353550E+03  0.18004164129E+03  0.75127819666E+03  0.12699999809E+01 0.  1.
</event>
<event>
 5   0  0.1239119E-04  0.1683915E+04  0.7818609E-02  0.8770592E-01
       -1   -1    0    0    0  501  0.00000000000E+00  0.00000000000E+00  0.63989830895E+03  0.63989830897E+03  0.50400001928E-02 0. -1.
        1   -1    0    0  501    0  0.00000000000E+00  0.00000000000E+00 -0.11078202983E+04  0.11078202983E+04  0.50400001928E-02 0.  1.
    10030    2    1    2    0    0  0.00000000000E+00  0.00000000000E+00 -0.46792198934E+03  0.17477186073E+04  0.16839148856E+04 0.  0.
        5    1    3    3  502    0  0.74297624618E+02  0.34138218185E+03 -0.10290202604E+04  0.10867229258E+04  0.46999998093E+01 0.  1.
       -5    1    3    3    0  502 -0.74297624618E+02 -0.34138218185E+03  0.56109827108E+03  0.66099568147E+03  0.46999998093E+01 0. -1.
</event>
<event>
 5   0  0.2550616E-04  0.1750562E+04  0.7818609E-02  0.8733041E-01
       -2   -1    0    0    0  501  0.00000000000E+00  0.00000000000E+00  0.10209969804E+04  0.10209969804E+04  0.25500000920E-02 0.  1.
        2   -1    0    0  501    0  0.00000000000E+00  0.00000000000E+00 -0.75036151746E+03  0.75036151747E+03  0.25500000920E-02 0. -1.
    10030    2    1    2    0    0  0.00000000000E+00  0.00000000000E+00  0.27063546291E+03  0.17713584979E+04  0.17505620166E+04 0.  0.
        1    1    3    3  502    0 -0.65191768556E+03 -0.83400672576E+02  0.72025476885E+03  0.97504834394E+03  0.50400001928E-02 0.  1.
       -1    1    3    3    0  502  0.65191768556E+03  0.83400672576E+02 -0.44961930594E+03  0.79631015392E+03  0.50400001928E-02 0. -1.
</event>
<event>
 5   0  0.1239119E-04  0.1779175E+04  0.7818609E-02  0.8717453E-01
        1   -1    0    0  501    0  0.00000000000E+00  0.00000000000E+00  0.10478975942E+04  0.10478975942E+04  0.50400001928E-02 0.  1.
       -1   -1    0    0    0  501  0.00000000000E+00  0.00000000000E+00 -0.75519401622E+03  0.75519401623E+03  0.50400001928E-02 0. -1.
    10030    2    1    2    0    0  0.00000000000E+00  0.00000000000E+00  0.29270357797E+03  0.18030916104E+04  0.17791750816E+04 0.  0.
        5    1    3    3  502    0  0.65073430022E+03 -0.31510797712E+03  0.67158074669E+03  0.98680846979E+03  0.46999998093E+01 0.  1.
       -5    1    3    3    0  502 -0.65073430022E+03  0.31510797712E+03 -0.37887716872E+03  0.81628314064E+03  0.46999998093E+01 0. -1.
</event>
<event>
 5   0  0.1214723E-04  0.1794749E+04  0.7818609E-02  0.8709097E-01
       -1   -1    0    0    0  501  0.00000000000E+00  0.00000000000E+00  0.52056317084E+03  0.52056317087E+03  0.50400001928E-02 0. -1.
        1   -1    0    0  501    0  0.00000000000E+00  0.00000000000E+00 -0.15469421815E+04  0.15469421815E+04  0.50400001928E-02 0.  1.
    10030    2    1    2    0    0  0.00000000000E+00  0.00000000000E+00 -0.10263790106E+04  0.20675053523E+04  0.17947491492E+04 0.  0.
        1    1    3    3  502    0 -0.71349773094E+03  0.15586899650E+01  0.11376378068E+03  0.72251203408E+03  0.50400001928E-02 0. -1.
       -1    1    3    3    0  502  0.71349773094E+03 -0.15586899650E+01 -0.11401427913E+04  0.13449933182E+04  0.50400001928E-02 0.  1.
</event>
<event>
 5   0  0.1330225E-04  0.1529218E+04  0.7818609E-02  0.8865252E-01
        1   -1    0    0  501    0  0.00000000000E+00  0.00000000000E+00  0.44240012131E+03  0.44240012134E+03  0.50400001928E-02 0. -1.
       -1   -1    0    0    0  501  0.00000000000E+00  0.00000000000E+00 -0.13214898639E+04  0.13214898639E+04  0.50400001928E-02 0.  1.
    10030    2    1    2    0    0  0.00000000000E+00  0.00000000000E+00 -0.87908974257E+03  0.17638899852E+04  0.15292184620E+04 0.  0.
        3    1    3    3  502    0 -0.23300172357E+03 -0.16773247831E+03 -0.12569582351E+04  0.12893285084E+04  0.10100000352E+00 0.  1.
       -3    1    3    3    0  502  0.23300172357E+03  0.16773247831E+03  0.37786849253E+03  0.47456147686E+03  0.10100000352E+00 0. -1.
</event>
<event>
 5   0  0.1239119E-04  0.1811796E+04  0.7818609E-02  0.8700051E-01
       -1   -1    0    0    0  501  0.00000000000E+00  0.00000000000E+00  0.72069199948E+03  0.72069199950E+03  0.50400001928E-02 0. -1.
        1   -1    0    0  501    0  0.00000000000E+00  0.00000000000E+00 -0.11386994191E+04  0.11386994191E+04  0.50400001928E-02 0.  1.
    10030    2    1    2    0    0  0.00000000000E+00  0.00000000000E+00 -0.41800741958E+03  0.18593914186E+04  0.18117964137E+04 0.  0.
        5    1    3    3  502    0 -0.28079157762E+03 -0.15738877223E+03  0.66000743461E+03  0.73433441934E+03  0.46999998093E+01 0. -1.
       -5    1    3    3    0  502  0.28079157762E+03  0.15738877223E+03 -0.10780148542E+04  0.11250569992E+04  0.46999998093E+01 0.  1.
</event>
<event>
 5   0  0.2417106E-04  0.1775083E+04  0.7818609E-02  0.8719664E-01
       -2   -1    0    0    0  501  0.00000000000E+00  0.00000000000E+00  0.56092089370E+03  0.56092089370E+03  0.25500000920E-02 0.  1.
        2   -1    0    0  501    0  0.00000000000E+00  0.00000000000E+00 -0.14043508134E+04  0.14043508134E+04  0.25500000920E-02 0. -1.
    10030    2    1    2    0    0  0.00000000000E+00  0.00000000000E+00 -0.84342991975E+03  0.19652717071E+04  0.17750827737E+04 0.  0.
        4    1    3    3  502    0 -0.54996146120E+03 -0.17925348630E+03 -0.11669951194E+04  0.13024855633E+04  0.12699999809E+01 0. -1.
       -4    1    3    3    0  502  0.54996146120E+03  0.17925348630E+03  0.32356519961E+03  0.66278614383E+03  0.12699999809E+01 0.  1.
</event>
<event>
 5   0  0.2431811E-04  0.1793138E+04  0.7818609E-02  0.8709957E-01
       -2   -1    0    0    0  501  0.00000000000E+00  0.00000000000E+00  0.51490254055E+03  0.51490254055E+03  0.25500000920E-02 0. -1.
        2   -1    0    0  501    0  0.00000000000E+00  0.00000000000E+00 -0.15611426349E+04  0.15611426349E+04  0.25500000920E-02 0.  1.
    10030    2    1    2    0    0  0.00000000000E+00  0.00000000000E+00 -0.10462400943E+04  0.20760451754E+04  0.17931383760E+04 0.  0.
        3    1    3    3  502    0 -0.22101900082E+03  0.15253605673E+03 -0.15134852069E+04  0.15371252809E+04  0.10100000352E+00 0.  1.
       -3    1    3    3    0  502  0.22101900082E+03 -0.15253605673E+03  0.46724511258E+03  0.53891989457E+03  0.10100000352E+00 0. -1.
</event>
<event>
 5   0  0.2569405E-04  0.1660421E+04  0.7818609E-02  0.8784265E-01
       -2   -1    0    0    0  501  0.00000000000E+00  0.00000000000E+00  0.55039716905E+03  0.55039716905E+03  0.25500000920E-02 0. -1.
        2   -1    0    0  501    0  0.00000000000E+00  0.00000000000E+00 -0.12522768375E+04  0.12522768375E+04  0.25500000920E-02 0.  1.
    10030    2    1    2    0    0  0.00000000000E+00  0.00000000000E+00 -0.70187966849E+03  0.18026740066E+04  0.16604211830E+04 0.  0.
        2    1    3    3  502    0 -0.61581870750E+03 -0.55142913121E+03 -0.43463428123E+03  0.93392383291E+03  0.25500000920E-02 0.  1.
       -2    1    3    3    0  502  0.61581870750E+03  0.55142913121E+03 -0.26724538727E+03  0.86875017369E+03  0.25500000920E-02 0. -1.
</event>
<event>
 5   0  0.2550616E-04  0.1777308E+04  0.7818609E-02  0.8718461E-01
       -2   -1    0    0    0  501  0.00000000000E+00  0.00000000000E+00  0.11233056433E+04  0.11233056433E+04  0.25500000920E-02 0.  1.
        2   -1    0    0  501    0  0.00000000000E+00  0.00000000000E+00 -0.70301960076E+03  0.70301960076E+03  0.25500000920E-02 0. -1.
    10030    2    1    2    0    0  0.00000000000E+00  0.00000000000E+00  0.42028604252E+03  0.18263252440E+04  0.17773079473E+04 0.  0.
        1    1    3    3  502    0  0.58638034617E+03 -0.52680316115E+03 -0.21146823913E+03  0.81613865070E+03  0.50400001928E-02 0. -1.
       -1    1    3    3    0  502 -0.58638034617E+03  0.52680316115E+03  0.63175428165E+03  0.10101865934E+04  0.50400001928E-02 0.  1.
</event>
<event>
 5   0  0.2393421E-04  0.1808896E+04  0.7818609E-02  0.8701583E-01
       -2   -1    0    0    0  501  0.00000000000E+00  0.00000000000E+00  0.52535136328E+03  0.52535136329E+03  0.25500000920E-02 0. -1.
        2   -1    0    0  501    0  0.00000000000E+00  0.00000000000E+00 -0.15571031463E+04  0.15571031463E+04  0.25500000920E-02 0.  1.
    10030    2    1    2    0    0  0.00000000000E+00  0.00000000000E+00 -0.10317517830E+04  0.20824545096E+04  0.18088960840E+04 0.  0.
        5    1    3    3  502    0  0.44995067488E+03  0.29732363555E+03  0.31997317828E+03  0.62710595509E+03  0.46999998093E+01 0. -1.
       -5    1    3    3    0  502 -0.44995067488E+03 -0.29732363555E+03 -0.13517249613E+04  0.14553485545E+04  0.46999998093E+01 0.  1.
</event>
<event>
 5   0  0.2431811E-04  0.1791286E+04  0.7818609E-02  0.8710947E-01
       -2   -1    0    0    0  501  0.00000000000E+00  0.00000000000E+00  0.68401934421E+03  0.68401934422E+03  0.25500000920E-02 0. -1.
        2   -1    0    0  501    0  0.00000000000E+00  0.00000000000E+00 -0.11727388744E+04  0.11727388744E+04  0.25500000920E-02 0.  1.
    10030    2    1    2    0    0  0.00000000000E+00  0.00000000000E+00 -0.48871953016E+03  0.18567582186E+04  0.17912856565E+04 0.  0.
        3    1    3    3  502    0  0.82182596660E+03 -0.90864435373E+02 -0.60121299085E+03  0.10223068696E+04  0.10100000352E+00 0. -1.
       -3    1    3    3    0  502 -0.82182596660E+03  0.90864435373E+02  0.11249346069E+03  0.83445134903E+03  0.10100000352E+00 0.  1.
</event>
<event>
 5   0  0.1214723E-04  0.1790140E+04  0.7818609E-02  0.8711560E-01
       -1   -1    0    0    0  501  0.00000000000E+00  0.00000000000E+00  0.71015633041E+03  0.71015633043E+03  0.50400001928E-02 0.  1.
        1   -1    0    0  501    0  0.00000000000E+00  0.00000000000E+00 -0.11281324527E+04  0.11281324527E+04  0.50400001928E-02 0. -1.
    10030    2    1    2    0    0  0.00000000000E+00  0.00000000000E+00 -0.41797612228E+03  0.18382887831E+04  0.17901401094E+04 0.  0.
        1    1    3    3  502    0  0.40105324832E+03 -0.80002009724E+03 -0.19197319180E+03  0.91527567998E+03  0.50400001928E-02 0.  1.
       -1    1    3    3    0  502 -0.40105324832E+03  0.80002009724E+03 -0.22600293047E+03  0.92301310315E+03  0.50400001928E-02 0. -1.
</event>
<event>
 5   0  0.1330225E-04  0.1793648E+04  0.7818609E-02  0.8709685E-01
        1   -1    0    0  501    0  0.00000000000E+00  0.00000000000E+00  0.14041388087E+04  0.14041388087E+04  0.50400001928E-02 0. -1.
       -1   -1    0    0    0  501  0.00000000000E+00  0.00000000000E+00 -0.57280202537E+03  0.57280202539E+03  0.50400001928E-02 0.  1.
    10030    2    1    2    0    0  0.00000000000E+00  0.00000000000E+00  0.83133678329E+03  0.19769408341E+04  0.17936482972E+04 0.  0.
        3    1    3    3  502    0 -0.84138974973E+03 -0.11579914946E+02  0.73771433033E+02  0.84469701072E+03  0.10100000352E+00 0.  1.
       -3    1    3    3    0  502  0.84138974973E+03  0.11579914946E+02  0.75756535025E+03  0.11322438233E+04  0.10100000352E+00 0. -1.
</event>
<event>
 5   0  0.1239119E-04  0.1802354E+04  0.7818609E-02  0.8705048E-01
       -1   -1    0    0    0  501  0.00000000000E+00  0.00000000000E+00  0.28093203307E+03  0.28093203312E+03  0.50400001928E-02 0. -1.
        1   -1    0    0  501    0  0.00000000000E+00  0.00000000000E+00 -0.28908073500E+04  0.28908073500E+04  0.50400001928E-02 0.  1.
    10030    2    1    2    0    0  0.00000000000E+00  0.00000000000E+00 -0.26098753169E+04  0.31717393831E+04  0.18023544447E+04 0.  0.
        5    1    3    3  502    0 -0.14960975557E+03 -0.82230599250E+03 -0.71200015026E+03  0.10979692747E+04  0.46999998093E+01 0. -1.
       -5    1    3    3    0  502  0.14960975557E+03  0.82230599250E+03 -0.18978751666E+04  0.20737701084E+04  0.46999998093E+01 0.  1.
</event>
<event>
 5   0  0.1330225E-04  0.1786580E+04  0.7818609E-02  0.8713469E-01
       -1   -1    0    0    0  501  0.00000000000E+00  0.00000000000E+00  0.84403437430E+03  0.84403437432E+03  0.50400001928E-02 0.  1.
        1   -1    0    0  501    0  0.00000000000E+00  0.00000000000E+00 -0.94541970968E+03  0.94541970969E+03  0.50400001928E-02 0. -1.
    10030    2    1    2    0    0  0.00000000000E+00  0.00000000000E+00 -0.10138533537E+03  0.17894540840E+04  0.17865796743E+04 0.  0.
        3    1    3    3  502    0 -0.27439155108E+03  0.37670917467E+02  0.79994216247E+03  0.84653251256E+03  0.10100000352E+00 0.  1.
       -3    1    3    3    0  502  0.27439155108E+03 -0.37670917467E+02 -0.90132749784E+03  0.94292157144E+03  0.10100000352E+00 0. -1.
</event>
<event>
 5   0  0.2569405E-04  0.1793263E+04  0.7818609E-02  0.8709890E-01
       -2   -1    0    0    0  501  0.00000000000E+00  0.00000000000E+00  0.15144509740E+04  0.15144509740E+04  0.25500000920E-02 0. -1.
        2   -1    0    0  501    0  0.00000000000E+00  0.00000000000E+00 -0.53085107992E+03  0.53085107993E+03  0.25500000920E-02 0.  1.
    10030    2    1    2    0    0  0.00000000000E+00  0.00000000000E+00  0.98359989410E+03  0.20453020540E+04  0.17932628754E+04 0.  0.
        2    1    3    3  502    0 -0.62592925262E+03  0.57778960829E+03  0.81098969454E+03  0.11761515827E+04  0.25500000920E-02 0. -1.
       -2    1    3    3    0  502  0.62592925262E+03 -0.57778960829E+03  0.17261019956E+03  0.86915047129E+03  0.25500000920E-02 0.  1.
</event>
<event>
 5   0  0.2431811E-04  0.1739778E+04  0.7818609E-02  0.8738997E-01
       -2   -1    0    0    0  501  0.00000000000E+00  0.00000000000E+00  0.12485262704E+04  0.12485262704E+04  0.25500000920E-02 0. -1.
        2   -1    0    0  501    0  0.00000000000E+00  0.00000000000E+00 -0.60607995181E+03  0.60607995182E+03  0.25500000920E-02 0.  1.
    10030    2    1    2    0    0  0.00000000000E+00  0.00000000000E+00  0.64244631861E+03  0.18546062222E+04  0.17397778500E+04 0.  0.
        3    1    3    3  502    0  0.49864519535E+03 -0.69420218994E+03  0.14886343333E+03  0.86759670547E+03  0.10100000352E+00 0.  1.
       -3    1    3    3    0  502 -0.49864519535E+03  0.69420218994E+03  0.49358288528E+03  0.98700951677E+03  0.10100000352E+00 0. -1.
</event>
<event>
 5   0  0.1330225E-04  0.1805093E+04  0.7818609E-02  0.8703596E-01
       -1   -1    0    0    0  501  0.00000000000E+00  0.00000000000E+00  0.10123500063E+04  0.10123500063E+04  0.50400001928E-02 0. -1.
        1   -1    0    0  501    0  0.00000000000E+00  0.00000000000E+00 -0.80465238132E+03  0.80465238134E+03  0.50400001928E-02 0.  1.
    10030    2    1    2    0    0  0.00000000000E+00  0.00000000000E+00  0.20769762495E+03  0.18170023876E+04  0.18050926218E+04 0.  0.
        3    1    3    3  502    0 -0.86359285367E+03 -0.26141231275E+03  0.82240484659E+02  0.90603119245E+03  0.10100000352E+00 0.  1.
       -3    1    3    3    0  502  0.86359285367E+03  0.26141231275E+03  0.12545714029E+03  0.91097119517E+03  0.10100000352E+00 0. -1.
</event>
<event>
 5   0  0.1253925E-04  0.1798023E+04  0.7818609E-02  0.8707352E-01
        1   -1    0    0  501    0  0.00000000000E+00  0.00000000000E+00  0.10013833446E+04  0.10013833446E+04  0.50400001928E-02 0. -1.
       -1   -1    0    0    0  501  0.00000000000E+00  0.00000000000E+00 -0.80710500458E+03  0.80710500460E+03  0.50400001928E-02 0.  1.
    10030    2    1    2    0    0  0.00000000000E+00  0.00000000000E+00  0.19427834003E+03  0.18084883492E+04  0.17980228129E+04 0.  0.
        2    1    3    3  502    0 -0.53597892600E+03 -0.62200582141E+03  0.46540806246E+03  0.94380576158E+03  0.25500000920E-02 0.  1.
       -2    1    3    3    0  502  0.53597892600E+03  0.62200582141E+03 -0.27112972243E+03  0.86468258764E+03  0.25500000920E-02 0. -1.
</event>
<event>
 5   0  0.2569405E-04  0.1825099E+04  0.7818609E-02  0.8693065E-01
       -2   -1    0    0    0  501  0.00000000000E+00  0.00000000000E+00  0.39184906739E+03  0.39184906740E+03  0.25500000920E-02 0. -1.
        2   -1    0    0  501    0  0.00000000000E+00  0.00000000000E+00 -0.21251723466E+04  0.21251723466E+04  0.25500000920E-02 0.  1.
    10030    2    1    2    0    0  0.00000000000E+00  0.00000000000E+00 -0.17333232792E+04  0.25170214140E+04  0.18250992325E+04 0.  0.
        2    1    3    3  502    0 -0.66925042281E+03  0.50326573114E+03 -0.13669102892E+04  0.16030022655E+04  0.25500000920E-02 0.  1.
       -2    1    3    3    0  502  0.66925042281E+03 -0.50326573114E+03 -0.36641299007E+03  0.91401914853E+03  0.25500000920E-02 0. -1.
</event>
<event>
 5   0  0.1308893E-04  0.1788656E+04  0.7818609E-02  0.8712356E-01
       -1   -1    0    0    0  501  0.00000000000E+00  0.00000000000E+00  0.10073239089E+04  0.10073239090E+04  0.50400001928E-02 0. -1.
        1   -1    0    0  501    0  0.00000000000E+00  0.00000000000E+00 -0.79400712922E+03  0.79400712923E+03  0.50400001928E-02 0.  1.
    10030    2    1    2    0    0  0.00000000000E+00  0.00000000000E+00  0.21331677972E+03  0.18013310382E+04  0.17886557692E+04 0.  0.
        4    1    3    3  502    0  0.73005829622E+03 -0.29460935561E+03 -0.32066083250E+03  0.85006162758E+03  0.12699999809E+01 0.  1.
       -4    1    3    3    0  502 -0.73005829622E+03  0.29460935561E+03  0.53397761222E+03  0.95126941060E+03  0.12699999809E+01 0. -1.
</event>
<event>
 5   0  0.9144875E-05  0.1801073E+04  0.7818609E-02  0.8705729E-01
       -3   -1    0    0    0  501  0.00000000000E+00  0.00000000000E+00  0.76762044863E+03  0.76762045527E+03  0.10100000352E+00 0.  1.
        3   -1    0    0  501    0  0.00000000000E+00  0.00000000000E+00 -0.10564673507E+04  0.10564673556E+04  0.10100000352E+00 0. -1.
    10030    2    1    2    0    0  0.00000000000E+00  0.00000000000E+00 -0.28884690211E+03  0.18240878108E+04  0.18010729604E+04 0.  0.
        3    1    3    3  502    0  0.60922032963E+03  0.41711161675E+03 -0.66660323030E+03  0.99473181698E+03  0.10100000352E+00 0.  1.
       -3    1    3    3    0  502 -0.60922032963E+03 -0.41711161675E+03  0.37775632819E+03  0.82935599386E+03  0.10100000352E+00 0. -1.
</event>
<event>
 5   0  0.2550616E-04  0.1776933E+04  0.7818609E-02  0.8718663E-01
       -2   -1    0    0    0  501  0.00000000000E+00  0.00000000000E+00  0.10647634992E+04  0.10647634992E+04  0.25500000920E-02 0. -1.
        2   -1    0    0  501    0  0.00000000000E+00  0.00000000000E+00 -0.74135983788E+03  0.74135983788E+03  0.25500000920E-02 0.  1.
    10030    2    1    2    0    0  0.00000000000E+00  0.00000000000E+00  0.32340366135E+03  0.18061233371E+04  0.17769331953E+04 0.  0.
        1    1    3    3  502    0 -0.17101872191E+03  0.28374232300E+03 -0.67622873488E+03  0.75302218493E+03  0.50400001928E-02 0.  1.
       -1    1    3    3    0  502  0.17101872191E+03 -0.28374232300E+03  0.99963239623E+03  0.10531011522E+04  0.50400001928E-02 0. -1.
</event>
<event>
 5   0  0.1308893E-04  0.1787486E+04  0.7818609E-02  0.8712983E-01
       -1   -1    0    0    0  501  0.00000000000E+00  0.00000000000E+00  0.54493722576E+03  0.54493722578E+03  0.50400001928E-02 0.  1.
        1   -1    0    0  501    0  0.00000000000E+00  0.00000000000E+00 -0.14658135469E+04  0.14658135469E+04  0.50400001928E-02 0. -1.
    10030    2    1    2    0    0  0.00000000000E+00  0.00000000000E+00 -0.92087632118E+03  0.20107507727E+04  0.17874857961E+04 0.  0.
        4    1    3    3  502    0  0.86070405555E+03 -0.64355135675E+02 -0.19946589792E+03  0.88585625926E+03  0.12699999809E+01 0.  1.
       -4    1    3    3    0  502 -0.86070405555E+03  0.64355135675E+02 -0.72141042326E+03  0.11248945135E+04  0.12699999809E+01 0. -1.
</event>
<event>
 5   0  0.1214723E-04  0.1773492E+04  0.7818609E-02  0.8720525E-01
        1   -1    0    0  501    0  0.00000000000E+00  0.00000000000E+00  0.10321047863E+04  0.10321047863E+04  0.50400001928E-02 0.  1.
       -1   -1    0    0    0  501  0.00000000000E+00  0.00000000000E+00 -0.76185887517E+03  0.76185887518E+03  0.50400001928E-02 0. -1.
    10030    2    1    2    0    0  0.00000000000E+00  0.00000000000E+00  0.27024591113E+03  0.17939636615E+04  0.17734916877E+04 0.  0.
        1    1    3    3  502    0 -0.21684171827E+03 -0.62488423524E+03 -0.46230239929E+03  0.80698460125E+03  0.50400001928E-02 0. -1.
       -1    1    3    3    0  502  0.21684171827E+03  0.62488423524E+03  0.73254831041E+03  0.98697906024E+03  0.50400001928E-02 0.  1.
</event>
<event>
 5   0  0.1253925E-04  0.1848122E+04  0.7818609E-02  0.8681119E-01
        1   -1    0    0  501    0  0.00000000000E+00  0.00000000000E+00  0.10099328012E+04  0.10099328012E+04  0.50400001928E-02 0. -1.
       -1   -1    0    0    0  501  0.00000000000E+00  0.00000000000E+00 -0.84549070578E+03  0.84549070580E+03  0.50400001928E-02 0.  1.
    10030    2    1    2    0    0  0.00000000000E+00  0.00000000000E+00  0.16444209543E+03  0.18554235070E+04  0.18481220706E+04 0.  0.
        2    1    3    3  502    0 -0.12359229362E+03  0.59951407515E+03 -0.61275409614E+03  0.86611763848E+03  0.25500000920E-02 0.  1.
       -2    1    3    3    0  502  0.12359229362E+03 -0.59951407515E+03  0.77719619157E+03  0.98930586855E+03  0.25500000920E-02 0. -1.
</event>
<event>
 5   0  0.2550616E-04  0.1671093E+04  0.7818609E-02  0.8778025E-01
       -2   -1    0    0    0  501  0.00000000000E+00  0.00000000000E+00  0.96167548668E+03  0.96167548669E+03  0.25500000920E-02 0. -1.
        2   -1    0    0  501    0  0.00000000000E+00  0.00000000000E+00 -0.72595991175E+03  0.72595991176E+03  0.25500000920E-02 0.  1.
    10030    2    1    2    0    0  0.00000000000E+00  0.00000000000E+00  0.23571557493E+03  0.16876353984E+04  0.16710928777E+04 0.  0.
        1    1    3    3  502    0 -0.69453539906E+03 -0.24431433278E+03 -0.28110856948E+03  0.78809323155E+03  0.50400001928E-02 0.  1.
       -1    1    3    3    0  502  0.69453539906E+03  0.24431433278E+03  0.51682414441E+03  0.89954216690E+03  0.50400001928E-02 0. -1.
</event>
<event>
 5   0  0.2393421E-04  0.1822723E+04  0.7818609E-02  0.8694308E-01
       -2   -1    0    0    0  501  0.00000000000E+00  0.00000000000E+00  0.92047145637E+03  0.92047145637E+03  0.25500000920E-02 0.  1.
        2   -1    0    0  501    0  0.00000000000E+00  0.00000000000E+00 -0.90234179874E+03  0.90234179874E+03  0.25500000920E-02 0. -1.
    10030    2    1    2    0    0  0.00000000000E+00  0.00000000000E+00  0.18129657626E+02  0.18228132551E+04  0.18227230943E+04 0.  0.
        5    1    3    3  502    0  0.60278483175E+02  0.85740079515E+03  0.31204542453E+03  0.91442006541E+03  0.46999998093E+01 0.  1.
       -5    1    3    3    0  502 -0.60278483175E+02 -0.85740079515E+03 -0.29391576691E+03  0.90839318970E+03  0.46999998093E+01 0. -1.
</event>
<event>
 5   0  0.1239119E-04  0.1784282E+04  0.7818609E-02  0.8714703E-01
       -1   -1    0    0    0  501  0.00000000000E+00  0.00000000000E+00  0.61256822724E+03  0.61256822726E+03  0.50400001928E-02 0.  1.
        1   -1    0    0  501    0  0.00000000000E+00  0.00000000000E+00 -0.12993091069E+04  0.12993091070E+04  0.50400001928E-02 0. -1.
    10030    2    1    2    0    0  0.00000000000E+00  0.00000000000E+00 -0.68674087970E+03  0.19118773342E+04  0.17842819018E+04 0.  0.
        5    1    3    3  502    0  0.20958869407E+03 -0.86704648328E+03 -0.35838541732E+03  0.96133200414E+03  0.46999998093E+01 0.  1.
       -5    1    3    3    0  502 -0.20958869407E+03  0.86704648328E+03 -0.32835546238E+03  0.95054533007E+03  0.46999998093E+01 0. -1.
</event>
<event>
 5   0  0.2417106E-04  0.1801625E+04  0.7818609E-02  0.8705436E-01
        2   -1    0    0  501    0  0.00000000000E+00  0.00000000000E+00  0.82083757181E+03  0.82083757181E+03  0.25500000920E-02 0.  1.
       -2   -1    0    0    0  501  0.00000000000E+00  0.00000000000E+00 -0.98857947108E+03  0.98857947109E+03  0.25500000920E-02 0. -1.
    10030    2    1    2    0    0  0.00000000000E+00  0.00000000000E+00 -0.16774189928E+03  0.18094170429E+04  0.18016250138E+04 0.  0.
        4    1    3    3  502    0  0.34528617335E+03  0.39190168753E+03 -0.82097440398E+03  0.97304165332E+03  0.12699999809E+01 0. -1.
       -4    1    3    3    0  502 -0.34528617335E+03 -0.39190168753E+03  0.65323250471E+03  0.83637538958E+03  0.12699999809E+01 0.  1.
</event>
<event>
 5   0  0.1214723E-04  0.1801934E+04  0.7818609E-02  0.8705272E-01
        1   -1    0    0  501    0  0.00000000000E+00  0.00000000000E+00  0.13450197948E+04  0.13450197948E+04  0.50400001928E-02 0.  1.
       -1   -1    0    0    0  501  0.00000000000E+00  0.00000000000E+00 -0.60351657146E+03  0.60351657148E+03  0.50400001928E-02 0. -1.
    10030    2    1    2    0    0  0.00000000000E+00  0.00000000000E+00  0.74150322337E+03  0.19485363663E+04  0.18019342221E+04 0.  0.
        1    1    3    3  502    0 -0.13697650978E+03 -0.44115611876E+03 -0.46571964522E+03  0.65595432258E+03  0.50400001928E-02 0. -1.
       -1    1    3    3    0  502  0.13697650978E+03  0.44115611876E+03  0.12072228686E+04  0.12925820437E+04  0.50400001928E-02 0.  1.
</event>
<event>
 5   0  0.1239119E-04  0.1796743E+04  0.7818609E-02  0.8708033E-01
       -1   -1    0    0    0  501  0.00000000000E+00  0.00000000000E+00  0.54065298442E+03  0.54065298444E+03  0.50400001928E-02 0. -1.
        1   -1    0    0  501    0  0.00000000000E+00  0.00000000000E+00 -0.14927715451E+04  0.14927715451E+04  0.50400001928E-02 0.  1.
    10030    2    1    2    0    0  0.00000000000E+00  0.00000000000E+00 -0.95211856071E+03  0.20334245296E+04  0.17967430434E+04 0.  0.
        5    1    3    3  502    0 -0.22560729748E+03 -0.14016913203E+02 -0.14600473231E+04  0.14774489508E+04  0.46999998093E+01 0.  1.
       -5    1    3    3    0  502  0.22560729748E+03  0.14016913203E+02  0.50792876239E+03  0.55597557878E+03  0.46999998093E+01 0. -1.
</event>
<event>
 5   0  0.1253925E-04  0.1800388E+04  0.7818609E-02  0.8706093E-01
       -1   -1    0    0    0  501  0.00000000000E+00  0.00000000000E+00  0.13621237775E+04  0.13621237775E+04  0.50400001928E-02 0.  1.
        1   -1    0    0  501    0  0.00000000000E+00  0.00000000000E+00 -0.59491610946E+03  0.59491610948E+03  0.50400001928E-02 0. -1.
    10030    2    1    2    0    0  0.00000000000E+00  0.00000000000E+00  0.76720766804E+03  0.19570398870E+04  0.18003881563E+04 0.  0.
        2    1    3    3  502    0 -0.65382998316E+02  0.26701365872E+02  0.13591076138E+04  0.13609413673E+04  0.25500000920E-02 0.  1.
       -2    1    3    3    0  502  0.65382998316E+02 -0.26701365872E+02 -0.59189994573E+03  0.59609851969E+03  0.25500000920E-02 0. -1.
</event>
<event>
 5   0  0.1253925E-04  0.1779718E+04  0.7818609E-02  0.8717160E-01
        1   -1    0    0  501    0  0.00000000000E+00  0.00000000000E+00  0.18720002013E+04  0.18720002013E+04  0.50400001928E-02 0.  1.
       -1   -1    0    0    0  501  0.00000000000E+00  0.00000000000E+00 -0.42299625065E+03  0.42299625068E+03  0.50400001928E-02 0. -1.
    10030    2    1    2    0    0  0.00000000000E+00  0.00000000000E+00  0.14490039507E+04  0.22949964520E+04  0.17797180298E+04 0.  0.
        2    1    3    3  502    0  0.15211672326E+03  0.12063184559E+03 -0.39535317884E+03  0.44044940196E+03  0.25500000920E-02 0. -1.
       -2    1    3    3    0  502 -0.15211672326E+03 -0.12063184559E+03  0.18443571295E+04  0.18545470501E+04  0.25500000920E-02 0.  1.
</event>
<event>
 5   0  0.1239119E-04  0.1796203E+04  0.7818609E-02  0.8708321E-01
       -1   -1    0    0    0  501  0.00000000000E+00  0.00000000000E+00  0.90956180708E+03  0.90956180709E+03  0.50400001928E-02 0. -1.
        1   -1    0    0  501    0  0.00000000000E+00  0.00000000000E+00 -0.88678520429E+03  0.88678520430E+03  0.50400001928E-02 0.  1.
    10030    2    1    2    0    0  0.00000000000E+00  0.00000000000E+00  0.22776602790E+02  0.17963470114E+04  0.17962026088E+04 0.  0.
        5    1    3    3  502    0 -0.81436992821E+03 -0.35505182549E+03 -0.12016574262E+03  0.89650547932E+03  0.46999998093E+01 0.  1.
       -5    1    3    3    0  502  0.81436992821E+03  0.35505182549E+03  0.14294234541E+03  0.89984153208E+03  0.46999998093E+01 0. -1.
</event>
<event>
 5   0  0.1239119E-04  0.1808012E+04  0.7818609E-02  0.8702050E-01
       -1   -1    0    0    0  501  0.00000000000E+00  0.00000000000E+00  0.70835338508E+03  0.70835338509E+03  0.50400001928E-02 0.  1.
        1   -1    0    0  501    0  0.00000000000E+00  0.00000000000E+00 -0.11536992808E+04  0.11536992808E+04  0.50400001928E-02 0. -1.
    10030    2    1    2    0    0  0.00000000000E+00  0.00000000000E+00 -0.44534589572E+03  0.18620526659E+04  0.18080119368E+04 0.  0.
        5    1    3    3  502    0 -0.78891118908E+02 -0.10469869446E+03 -0.11438451800E+04  0.11513424821E+04  0.46999998093E+01 0. -1.
       -5    1    3    3    0  502  0.78891118908E+02  0.10469869446E+03  0.69849928427E+03  0.71071018382E+03  0.46999998093E+01 0.  1.
</event>
<event>
 5   0  0.1253925E-04  0.1798148E+04  0.7818609E-02  0.8707285E-01
       -1   -1    0    0    0  501  0.00000000000E+00  0.00000000000E+00  0.50051610612E+03  0.50051610615E+03  0.50400001928E-02 0.  1.
        1   -1    0    0  501    0  0.00000000000E+00  0.00000000000E+00 -0.16150004710E+04  0.16150004711E+04  0.50400001928E-02 0. -1.
    10030    2    1    2    0    0  0.00000000000E+00  0.00000000000E+00 -0.11144843649E+04  0.21155165772E+04  0.17981476549E+04 0.  0.
        2    1    3    3  502    0  0.81057805726E+03 -0.34926645148E+03 -0.75866019008E+03  0.11638681734E+04  0.25500000920E-02 0. -1.
       -2    1    3    3    0  502 -0.81057805726E+03  0.34926645148E+03 -0.35582417484E+03  0.95164840380E+03  0.25500000920E-02 0.  1.
</event>
<event>
 5   0  0.1253925E-04  0.1794730E+04  0.7818609E-02  0.8709107E-01
        1   -1    0    0  501    0  0.00000000000E+00  0.00000000000E+00  0.14688097933E+04  0.14688097933E+04  0.50400001928E-02 0. -1.
       -1   -1    0    0    0  501  0.00000000000E+00  0.00000000000E+00 -0.54824250344E+03  0.54824250346E+03  0.50400001928E-02 0.  1.
    10030    2    1    2    0    0  0.00000000000E+00  0.00000000000E+00  0.92056728985E+03  0.20170522968E+04  0.17947300167E+04 0.  0.
        2    1    3    3  502    0 -0.61555287194E+03 -0.50930466732E+03  0.10498471741E+01  0.79893534437E+03  0.25500000920E-02 0. -1.
       -2    1    3    3    0  502  0.61555287194E+03  0.50930466732E+03  0.91951744268E+03  0.12181169524E+04  0.25500000920E-02 0.  1.
</event>
<event>
 5   0  0.9144875E-05  0.1817377E+04  0.7818609E-02  0.8697113E-01
        4   -1    0    0  501    0  0.00000000000E+00  0.00000000000E+00  0.72321734596E+03  0.72321846104E+03  0.12699999809E+01 0. -1.
       -4   -1    0    0    0  501  0.00000000000E+00  0.00000000000E+00 -0.11417222283E+04  0.11417229347E+04  0.12699999809E+01 0.  1.
    10030    2    1    2    0    0  0.00000000000E+00  0.00000000000E+00 -0.41850488237E+03  0.18649413957E+04  0.18173772511E+04 0.  0.
        2    1    3    3  502    0  0.22791222769E+03  0.28459449254E+03 -0.10633683967E+04  0.11241398293E+04  0.25500000920E-02 0.  1.
       -2    1    3    3    0  502 -0.22791222769E+03 -0.28459449254E+03  0.64486351432E+03  0.74080156643E+03  0.25500000920E-02 0. -1.
</event>
<event>
 5   0  0.2550616E-04  0.1800367E+04  0.7818609E-02  0.8706104E-01
       -2   -1    0    0    0  501  0.00000000000E+00  0.00000000000E+00  0.55198943169E+03  0.55198943170E+03  0.25500000920E-02 0.  1.
        2   -1    0    0  501    0  0.00000000000E+00  0.00000000000E+00 -0.14680180732E+04  0.14680180732E+04  0.25500000920E-02 0. -1.
    10030    2    1    2    0    0  0.00000000000E+00  0.00000000000E+00 -0.91602864150E+03  0.20200075049E+04  0.18003671425E+04 0.  0.
        1    1    3    3  502    0 -0.95632177704E+02  0.95672919739E+02  0.54052039972E+03  0.55719038355E+03  0.50400001928E-02 0.  1.
       -1    1    3    3    0  502  0.95632177704E+02 -0.95672919739E+02 -0.14565490412E+04  0.14628171213E+04  0.50400001928E-02 0. -1.
</event>
<event>
 5   0  0.1239119E-04  0.1727067E+04  0.7818609E-02  0.8746076E-01
        1   -1    0    0  501    0  0.00000000000E+00  0.00000000000E+00  0.59924698552E+03  0.59924698555E+03  0.50400001928E-02 0.  1.
       -1   -1    0    0    0  501  0.00000000000E+00  0.00000000000E+00 -0.12443788879E+04  0.12443788879E+04  0.50400001928E-02 0. -1.
    10030    2    1    2    0    0  0.00000000000E+00  0.00000000000E+00 -0.64513190236E+03  0.18436258734E+04  0.17270672221E+04 0.  0.
        5    1    3    3  502    0  0.48953873306E+03 -0.34847175061E+03  0.33943882215E+03  0.69016051475E+03  0.46999998093E+01 0.  1.
       -5    1    3    3    0  502 -0.48953873306E+03  0.34847175061E+03 -0.98457072451E+03  0.11534653587E+04  0.46999998093E+01 0. -1.
</event>
<event>
 5   0  0.1253925E-04  0.1791029E+04  0.7818609E-02  0.8711085E-01
        1   -1    0    0  501    0  0.00000000000E+00  0.00000000000E+00  0.11116425632E+04  0.11116425632E+04  0.50400001928E-02 0.  1.
       -1   -1    0    0    0  501  0.00000000000E+00  0.00000000000E+00 -0.72140687889E+03  0.72140687891E+03  0.50400001928E-02 0. -1.
    10030    2    1    2    0    0  0.00000000000E+00  0.00000000000E+00  0.39023568428E+03  0.18330494421E+04  0.17910294157E+04 0.  0.
        2    1    3    3  502    0 -0.32651210995E+02  0.10679132078E+03 -0.71425285374E+03  0.72292989069E+03  0.25500000920E-02 0. -1.
       -2    1    3    3    0  502  0.32651210995E+02 -0.10679132078E+03  0.11044885380E+04  0.11101195514E+04  0.25500000920E-02 0.  1.
</event>
<event>
 5   0  0.1214723E-04  0.1791500E+04  0.7818609E-02  0.8710833E-01
       -1   -1    0    0    0  501  0.00000000000E+00  0.00000000000E+00  0.97559505190E+03  0.97559505191E+03  0.50400001928E-02 0. -1.
        1   -1    0    0  501    0  0.00000000000E+00  0.00000000000E+00 -0.82243957764E+03  0.82243957766E+03  0.50400001928E-02 0.  1.
    10030    2    1    2    0    0  0.00000000000E+00  0.00000000000E+00  0.15315547425E+03  0.17980346296E+04  0.17914999106E+04 0.  0.
        1    1    3    3  502    0  0.82189423345E+02 -0.17654636933E+03 -0.80093650370E+03  0.82427119616E+03  0.50400001928E-02 0.  1.
       -1    1    3    3    0  502 -0.82189423345E+02  0.17654636933E+03  0.95409197795E+03  0.97376343341E+03  0.50400001928E-02 0. -1.
</event>
<event>
 5   0  0.2393421E-04  0.1792824E+04  0.7818609E-02  0.8710125E-01
        2   -1    0    0  501    0  0.00000000000E+00  0.00000000000E+00  0.88498003494E+03  0.88498003495E+03  0.25500000920E-02 0.  1.
       -2   -1    0    0    0  501  0.00000000000E+00  0.00000000000E+00 -0.90799182056E+03  0.90799182056E+03  0.25500000920E-02 0. -1.
    10030    2    1    2    0    0  0.00000000000E+00  0.00000000000E+00 -0.23011785616E+02  0.17929718555E+04  0.17928241778E+04 0.  0.
        5    1    3    3  502    0  0.50293766330E+03  0.73742423314E+03  0.70912971872E+02  0.89542812797E+03  0.46999998093E+01 0.  1.
       -5    1    3    3    0  502 -0.50293766330E+03 -0.73742423314E+03 -0.93924757488E+02  0.89754372754E+03  0.46999998093E+01 0. -1.
</event>
<event>
 5   0  0.2393421E-04  0.1849036E+04  0.7818609E-02  0.8680649E-01
        2   -1    0    0  501    0  0.00000000000E+00  0.00000000000E+00  0.11042538540E+04  0.11042538540E+04  0.25500000920E-02 0. -1.
       -2   -1    0    0    0  501  0.00000000000E+00  0.00000000000E+00 -0.77403699732E+03  0.77403699732E+03  0.25500000920E-02 0.  1.
    10030    2    1    2    0    0  0.00000000000E+00  0.00000000000E+00  0.33021685668E+03  0.18782908513E+04  0.18490357892E+04 0.  0.
        5    1    3    3  502    0 -0.35064663338E+03 -0.84367738125E+03  0.30864754270E+03  0.96438062026E+03  0.46999998093E+01 0. -1.
       -5    1    3    3    0  502  0.35064663338E+03  0.84367738125E+03  0.21569313977E+02  0.91391023106E+03  0.46999998093E+01 0.  1.
</event>
<event>
 5   0  0.2417106E-04  0.1797227E+04  0.7818609E-02  0.8707775E-01
        2   -1    0    0  501    0  0.00000000000E+00  0.00000000000E+00  0.57637550815E+03  0.57637550816E+03  0.25500000920E-02 0. -1.
       -2   -1    0    0    0  501  0.00000000000E+00  0.00000000000E+00 -0.14010072640E+04  0.14010072640E+04  0.25500000920E-02 0.  1.
    10030    2    1    2    0    0  0.00000000000E+00  0.00000000000E+00 -0.82463175582E+03  0.19773827721E+04  0.17972270571E+04 0.  0.
        4    1    3    3  502    0  0.85279916014E+03 -0.23865446128E+03 -0.24443518570E+03  0.91867977681E+03  0.12699999809E+01 0. -1.
       -4    1    3    3    0  502 -0.85279916014E+03  0.23865446128E+03 -0.58019657012E+03  0.10587029953E+04  0.12699999809E+01 0.  1.
</event>
<event>
 5   0  0.1239119E-04  0.1784626E+04  0.7818609E-02  0.8714518E-01
        1   -1    0    0  501    0  0.00000000000E+00  0.00000000000E+00  0.10226032996E+04  0.10226032996E+04  0.50400001928E-02 0. -1.
       -1   -1    0    0    0  501  0.00000000000E+00  0.00000000000E+00 -0.77862327550E+03  0.77862327551E+03  0.50400001928E-02 0.  1.
    10030    2    1    2    0    0  0.00000000000E+00  0.00000000000E+00  0.24398002413E+03  0.18012265752E+04  0.17846262698E+04 0.  0.
        5    1    3    3  502    0  0.79391465831E+03  0.40673856432E+03  0.10025141420E+03  0.89766874761E+03  0.46999998093E+01 0. -1.
       -5    1    3    3    0  502 -0.79391465831E+03 -0.40673856432E+03  0.14372860993E+03  0.90355782754E+03  0.46999998093E+01 0.  1.
</event>
<event>
 5   0  0.2569405E-04  0.1789949E+04  0.7818609E-02  0.8711663E-01
        2   -1    0    0  501    0  0.00000000000E+00  0.00000000000E+00  0.10938090116E+04  0.10938090116E+04  0.25500000920E-02 0.  1.
       -2   -1    0    0    0  501  0.00000000000E+00  0.00000000000E+00 -0.73228475456E+03  0.73228475457E+03  0.25500000920E-02 0. -1.
    10030    2    1    2    0    0  0.00000000000E+00  0.00000000000E+00  0.36152425702E+03  0.18260937662E+04  0.17899493441E+04 0.  0.
        2    1    3    3  502    0 -0.53048548769E+03  0.67377698740E+03  0.44203787872E+03  0.96477342813E+03  0.25500000920E-02 0.  1.
       -2    1    3    3    0  502  0.53048548769E+03 -0.67377698740E+03 -0.80513621708E+02  0.86132033802E+03  0.25500000920E-02 0. -1.
</event>
<event>
 5   0  0.1253925E-04  0.1817550E+04  0.7818609E-02  0.8697022E-01
        1   -1    0    0  501    0  0.00000000000E+00  0.00000000000E+00  0.43682311718E+03  0.43682311721E+03  0.50400001928E-02 0. -1.
       -1   -1    0    0    0  501  0.00000000000E+00  0.00000000000E+00 -0.18906325948E+04  0.18906325948E+04  0.50400001928E-02 0.  1.
    10030    2    1    2    0    0  0.00000000000E+00  0.00000000000E+00 -0.14538094776E+04  0.23274557120E+04  0.18175500252E+04 0.  0.
        2    1    3    3  502    0 -0.18956577333E+03  0.29726451814E+03 -0.17994873653E+04  0.18337001265E+04  0.25500000920E-02 0.  1.
       -2    1    3    3    0  502  0.18956577333E+03 -0.29726451814E+03  0.34567788767E+03  0.49375558549E+03  0.25500000920E-02 0. -1.
</event>
<event>
 5   0  0.2569405E-04  0.1798696E+04  0.7818609E-02  0.8706993E-01
        2   -1    0    0  501    0  0.00000000000E+00  0.00000000000E+00  0.12946907767E+04  0.12946907767E+04  0.25500000920E-02 0. -1.
       -2   -1    0    0    0  501  0.00000000000E+00  0.00000000000E+00 -0.62472554890E+03  0.62472554890E+03  0.25500000920E-02 0.  1.
    10030    2    1    2    0    0  0.00000000000E+00  0.00000000000E+00  0.66996522777E+03  0.19194163256E+04  0.17986955341E+04 0.  0.
        2    1    3    3  502    0  0.21828820229E+03  0.38426875882E+03  0.11708239271E+04  0.12514555072E+04  0.25500000920E-02 0. -1.
       -2    1    3    3    0  502 -0.21828820229E+03 -0.38426875882E+03 -0.50085869929E+03  0.66796081840E+03  0.25500000920E-02 0.  1.
</event>
<event>
 5   0  0.1239119E-04  0.1821459E+04  0.7818609E-02  0.8694970E-01
       -1   -1    0    0    0  501  0.00000000000E+00  0.00000000000E+00  0.60498648585E+03  0.60498648588E+03  0.50400001928E-02 0. -1.
        1   -1    0    0  501    0  0.00000000000E+00  0.00000000000E+00 -0.13709860163E+04  0.13709860163E+04  0.50400001928E-02 0.  1.
    10030    2    1    2    0    0  0.00000000000E+00  0.00000000000E+00 -0.76599953046E+03  0.19759725022E+04  0.18214587694E+04 0.  0.
        5    1    3    3  502    0 -0.16739653524E+03 -0.80583246486E+03 -0.80596977393E+03  0.11519535268E+04  0.46999998093E+01 0.  1.
       -5    1    3    3    0  502  0.16739653524E+03  0.80583246486E+03  0.39970243473E+02  0.82401897539E+03  0.46999998093E+01 0. -1.
</event>
<event>
 5   0  0.2417106E-04  0.1786791E+04  0.7818609E-02  0.8713356E-01
       -2   -1    0    0    0  501  0.00000000000E+00  0.00000000000E+00  0.92359791861E+03  0.92359791862E+03  0.25500000920E-02 0.  1.
        2   -1    0    0  501    0  0.00000000000E+00  0.00000000000E+00 -0.86418061018E+03  0.86418061019E+03  0.25500000920E-02 0. -1.
    10030    2    1    2    0    0  0.00000000000E+00  0.00000000000E+00  0.59417308431E+02  0.17877785288E+04  0.17867908807E+04 0.  0.
        4    1    3    3  502    0 -0.25295932759E+03 -0.44602356170E+03 -0.70228876320E+03  0.86956113000E+03  0.12699999809E+01 0. -1.
       -4    1    3    3    0  502  0.25295932759E+03  0.44602356170E+03  0.76170607163E+03  0.91821739880E+03  0.12699999809E+01 0.  1.
</event>
<event>
 5   0  0.1214723E-04  0.1810703E+04  0.7818609E-02  0.8700628E-01
       -1   -1    0    0    0  501  0.00000000000E+00  0.00000000000E+00  0.31684695997E+04  0.31684695997E+04  0.50400001928E-02 0. -1.
        1   -1    0    0  501    0  0.00000000000E+00  0.00000000000E+00 -0.25869323544E+03  0.25869323548E+03  0.50400001928E-02 0.  1.
    10030    2    1    2    0    0  0.00000000000E+00  0.00000000000E+00  0.29097763642E+04  0.34271628351E+04  0.18107033464E+04 0.  0.
        1    1    3    3  502    0 -0.11310431881E+03 -0.49730443168E+03  0.39062634805E+02  0.51149797083E+03  0.50400001928E-02 0.  1.
       -1    1    3    3    0  502  0.11310431881E+03  0.49730443168E+03  0.28707137294E+04  0.29156648643E+04  0.50400001928E-02 0. -1.
</event>
<event>
 5   0  0.1239119E-04  0.1789080E+04  0.7818609E-02  0.8712128E-01
        1   -1    0    0  501    0  0.00000000000E+00  0.00000000000E+00  0.16046440072E+04  0.16046440072E+04  0.50400001928E-02 0.  1.
       -1   -1    0    0    0  501  0.00000000000E+00  0.00000000000E+00 -0.49867892486E+03  0.49867892489E+03  0.50400001928E-02 0. -1.
    10030    2    1    2    0    0  0.00000000000E+00  0.00000000000E+00  0.11059650823E+04  0.21033229320E+04  0.17890803764E+04 0.  0.
        5    1    3    3  502    0 -0.50808801534E+02 -0.25383211293E+03  0.15596309026E+04  0.15809753060E+04  0.46999998093E+01 0.  1.
       -5    1    3    3    0  502  0.50808801534E+02  0.25383211293E+03 -0.45366582033E+03  0.52234762602E+03  0.46999998093E+01 0. -1.
</event>
<event>
 5   0  0.1308893E-04  0.1796864E+04  0.7818609E-02  0.8707969E-01
       -1   -1    0    0    0  501  0.00000000000E+00  0.00000000000E+00  0.52413366060E+03  0.52413366062E+03  0.50400001928E-02 0.  1.
        1   -1    0    0  501    0  0.00000000000E+00  0.00000000000E+00 -0.15400275138E+04  0.15400275138E+04  0.50400001928E-02 0. -1.
    10030    2    1    2    0    0  0.00000000000E+00  0.00000000000E+00 -0.10158938532E+04  0.20641611744E+04  0.17968642222E+04 0.  0.
        4    1    3    3  502    0 -0.94975392602E+02  0.53731121617E+03  0.31199151526E+03  0.62854115754E+03  0.12699999809E+01 0.  1.
       -4    1    3    3    0  502  0.94975392602E+02 -0.53731121617E+03 -0.13278853684E+04  0.14356200169E+04  0.12699999809E+01 0. -1.
</event>
<event>
 5   0  0.2569405E-04  0.1866455E+04  0.7818609E-02  0.8671737E-01
        2   -1    0    0  501    0  0.00000000000E+00  0.00000000000E+00  0.11839519011E+04  0.11839519011E+04  0.25500000920E-02 0.  1.
       -2   -1    0    0    0  501  0.00000000000E+00  0.00000000000E+00 -0.73559839013E+03  0.73559839014E+03  0.25500000920E-02 0. -1.
    10030    2    1    2    0    0  0.00000000000E+00  0.00000000000E+00  0.44835351094E+03  0.19195502912E+04  0.18664545132E+04 0.  0.
        2    1    3    3  502    0  0.17668405273E+02 -0.49437859165E+03 -0.58965645413E+03  0.76968636361E+03  0.25500000920E-02 0. -1.
       -2    1    3    3    0  502 -0.17668405273E+02  0.49437859165E+03  0.10380099651E+04  0.11498639276E+04  0.25500000920E-02 0.  1.
</event>
<event>
 5   0  0.2431811E-04  0.1814860E+04  0.7818609E-02  0.8698437E-01
        2   -1    0    0  501    0  0.00000000000E+00  0.00000000000E+00  0.13233792357E+04  0.13233792357E+04  0.25500000920E-02 0. -1.
       -2   -1    0    0    0  501  0.00000000000E+00  0.00000000000E+00 -0.62221717342E+03  0.62221717343E+03  0.25500000920E-02 0.  1.
    10030    2    1    2    0    0  0.00000000000E+00  0.00000000000E+00  0.70116206225E+03  0.19455964091E+04  0.18148600909E+04 0.  0.
        3    1    3    3  502    0  0.88193171644E+03 -0.16999382063E+02  0.12231842194E+03  0.89053598355E+03  0.10100000352E+00 0.  1.
       -3    1    3    3    0  502 -0.88193171644E+03  0.16999382063E+02  0.57884364031E+03  0.10550604256E+04  0.10100000352E+00 0. -1.
</event>
<event>
 5   0  0.1239119E-04  0.1826592E+04  0.7818609E-02  0.8692285E-01
       -1   -1    0    0    0  501  0.00000000000E+00  0.00000000000E+00  0.50192957502E+03  0.50192957504E+03  0.50400001928E-02 0. -1.
        1   -1    0    0  501    0  0.00000000000E+00  0.00000000000E+00 -0.16618051887E+04  0.16618051887E+04  0.50400001928E-02 0.  1.
    10030    2    1    2    0    0  0.00000000000E+00  0.00000000000E+00 -0.11598756137E+04  0.21637347638E+04  0.18265915495E+04 0.  0.
        5    1    3    3  502    0  0.31742822775E+03 -0.15307850505E+03  0.41812791421E+03  0.54685167196E+03  0.46999998093E+01 0. -1.
       -5    1    3    3    0  502 -0.31742822775E+03  0.15307850505E+03 -0.15780035279E+04  0.16168830918E+04  0.46999998093E+01 0.  1.
</event>
<event>
 5   0  0.2393421E-04  0.1787156E+04  0.7818609E-02  0.8713160E-01
       -2   -1    0    0    0  501  0.00000000000E+00  0.00000000000E+00  0.44317483489E+03  0.44317483490E+03  0.25500000920E-02 0.  1.
        2   -1    0    0  501    0  0.00000000000E+00  0.00000000000E+00 -0.18017298041E+04  0.18017298041E+04  0.25500000920E-02 0. -1.
    10030    2    1    2    0    0  0.00000000000E+00  0.00000000000E+00 -0.13585549692E+04  0.22449046390E+04  0.17871556266E+04 0.  0.
        5    1    3    3  502    0 -0.47968439866E+03  0.28700238897E+03  0.19641165150E+03  0.59250917329E+03  0.46999998093E+01 0.  1.
       -5    1    3    3    0  502  0.47968439866E+03 -0.28700238897E+03 -0.15549666207E+04  0.16523954657E+04  0.46999998093E+01 0. -1.
</event>
<event>
 5   0  0.2393421E-04  0.1815291E+04  0.7818609E-02  0.8698210E-01
       -2   -1    0    0    0  501  0.00000000000E+00  0.00000000000E+00  0.39752254148E+03  0.39752254149E+03  0.25500000920E-02 0. -1.
        2   -1    0    0  501    0  0.00000000000E+00  0.00000000000E+00 -0.20723863615E+04  0.20723863615E+04  0.25500000920E-02 0.  1.
    10030    2    1    2    0    0  0.00000000000E+00  0.00000000000E+00 -0.16748638200E+04  0.24699089030E+04  0.18152909336E+04 0.  0.
        5    1    3    3  502    0 -0.64787759095E+03 -0.56177385284E+03 -0.43274845233E+03  0.96053555248E+03  0.46999998093E+01 0. -1.
       -5    1    3    3    0  502  0.64787759095E+03  0.56177385284E+03 -0.12421153677E+04  0.15093733505E+04  0.46999998093E+01 0.  1.
</event>
<event>
 5   0  0.2393421E-04  0.1781659E+04  0.7818609E-02  0.8716114E-01
       -2   -1    0    0    0  501  0.00000000000E+00  0.00000000000E+00  0.93838019293E+03  0.93838019293E+03  0.25500000920E-02 0.  1.
        2   -1    0    0  501    0  0.00000000000E+00  0.00000000000E+00 -0.84568851768E+03  0.84568851768E+03  0.25500000920E-02 0. -1.
    10030    2    1    2    0    0  0.00000000000E+00  0.00000000000E+00  0.92691675252E+02  0.17840687106E+04  0.17816591755E+04 0.  0.
        5    1    3    3  502    0  0.44707543117E+02  0.22595369957E+03  0.90803354457E+03  0.93680352626E+03  0.46999998093E+01 0.  1.
       -5    1    3    3    0  502 -0.44707543117E+02 -0.22595369957E+03 -0.81534186932E+03  0.84726518435E+03  0.46999998093E+01 0. -1.
</event>
<event>
 5   0  0.1214723E-04  0.1799871E+04  0.7818609E-02  0.8706368E-01
        1   -1    0    0  501    0  0.00000000000E+00  0.00000000000E+00  0.19325819250E+04  0.19325819250E+04  0.50400001928E-02 0. -1.
       -1   -1    0    0    0  501  0.00000000000E+00  0.00000000000E+00 -0.41906843665E+03  0.41906843668E+03  0.50400001928E-02 0.  1.
    10030    2    1    2    0    0  0.00000000000E+00  0.00000000000E+00  0.15135134883E+04  0.23516503617E+04  0.17998712021E+04 0.  0.
        1    1    3    3  502    0 -0.21731156178E+03 -0.51238802802E+03 -0.16723414360E+03  0.58114805769E+03  0.50400001928E-02 0.  1.
       -1    1    3    3    0  502  0.21731156178E+03  0.51238802802E+03  0.16807476319E+04  0.17705023040E+04  0.50400001928E-02 0. -1.
</event>
<event>
 5   0  0.2417106E-04  0.1838460E+04  0.7818609E-02  0.8686110E-01
        2   -1    0    0  501    0  0.00000000000E+00  0.00000000000E+00  0.92226237946E+03  0.92226237947E+03  0.25500000920E-02 0.  1.
       -2   -1    0    0    0  501  0.00000000000E+00  0.00000000000E+00 -0.91620728039E+03  0.91620728040E+03  0.25500000920E-02 0. -1.
    10030    2    1    2    0    0  0.00000000000E+00  0.00000000000E+00  0.60550990696E+01  0.18384696599E+04  0.18384596884E+04 0.  0.
        4    1    3    3  502    0  0.55064621879E+03 -0.20943795501E+02  0.73878421103E+03  0.92165808421E+03  0.12699999809E+01 0.  1.
       -4    1    3    3    0  502 -0.55064621879E+03  0.20943795501E+02 -0.73272911196E+03  0.91681157565E+03  0.12699999809E+01 0. -1.
</event>
<event>
 5   0  0.1214723E-04  0.1795928E+04  0.7818609E-02  0.8708468E-01
       -1   -1    0    0    0  501  0.00000000000E+00  0.00000000000E+00  0.84501596429E+03  0.84501596431E+03  0.50400001928E-02 0.  1.
        1   -1    0    0  501    0  0.00000000000E+00  0.00000000000E+00 -0.95423009433E+03  0.95423009435E+03  0.50400001928E-02 0. -1.
    10030    2    1    2    0    0  0.00000000000E+00  0.00000000000E+00 -0.10921413004E+03  0.17992460587E+04  0.17959283542E+04 0.  0.
        1    1    3    3  502    0  0.85948797915E+03  0.20474015750E+03  0.10600611011E+03  0.88987381903E+03  0.50400001928E-02 0.  1.
       -1    1    3    3    0  502 -0.85948797915E+03 -0.20474015750E+03 -0.21522024015E+03  0.90937223962E+03  0.50400001928E-02 0. -1.
</event>
<event>
 5   0  0.1214723E-04  0.1810360E+04  0.7818609E-02  0.8700810E-01
       -1   -1    0    0    0  501  0.00000000000E+00  0.00000000000E+00  0.12308990343E+04  0.12308990343E+04  0.50400001928E-02 0. -1.
        1   -1    0    0  501    0  0.00000000000E+00  0.00000000000E+00 -0.66565219798E+03  0.66565219800E+03  0.50400001928E-02 0.  1.
    10030    2    1    2    0    0  0.00000000000E+00  0.00000000000E+00  0.56524683628E+03  0.18965512323E+04  0.18103597959E+04 0.  0.
        1    1    3    3  502    0  0.37273119910E+03  0.32577874873E+03  0.10765227309E+04  0.11848888261E+04  0.50400001928E-02 0. -1.
       -1    1    3    3    0  502 -0.37273119910E+03 -0.32577874873E+03 -0.51127589466E+03  0.71166240620E+03  0.50400001928E-02 0.  1.
</event>
<event>
 5   0  0.1253925E-04  0.1811198E+04  0.7818609E-02  0.8700367E-01
       -1   -1    0    0    0  501  0.00000000000E+00  0.00000000000E+00  0.78359341509E+03  0.78359341510E+03  0.50400001928E-02 0. -1.
        1   -1    0    0  501    0  0.00000000000E+00  0.00000000000E+00 -0.10466005614E+04  0.10466005614E+04  0.50400001928E-02 0.  1.
    10030    2    1    2    0    0  0.00000000000E+00  0.00000000000E+00 -0.26300714630E+03  0.18301939765E+04  0.18111977343E+04 0.  0.
        2    1    3    3  502    0  0.25330680762E+02  0.66587716059E+03 -0.75118523519E+03  0.10041480438E+04  0.25500000920E-02 0.  1.
       -2    1    3    3    0  502 -0.25330680762E+02 -0.66587716059E+03  0.48817808889E+03  0.82604593266E+03  0.25500000920E-02 0. -1.
</event>
<event>
 5   0  0.2417106E-04  0.1451355E+04  0.7818609E-02  0.8917462E-01
       -2   -1    0    0    0  501  0.00000000000E+00  0.00000000000E+00  0.60910853561E+03  0.60910853561E+03  0.25500000920E-02 0. -1.
        2   -1    0    0  501    0  0.00000000000E+00  0.00000000000E+00 -0.86455504190E+03  0.86455504190E+03  0.25500000920E-02 0.  1.
    10030    2    1    2    0    0  0.00000000000E+00  0.00000000000E+00 -0.25544650629E+03  0.14736635775E+04  0.14513550297E+04 0.  0.
        4    1    3    3  502    0  0.82758532372E+01 -0.41866876031E+03 -0.72950008565E+03  0.84114446349E+03  0.12699999809E+01 0.  1.
       -4    1    3    3    0  502 -0.82758532372E+01  0.41866876031E+03  0.47405357936E+03  0.63251911402E+03  0.12699999809E+01 0. -1.
</event>
<event>
 5   0  0.1308893E-04  0.1808608E+04  0.7818609E-02  0.8701735E-01
        1   -1    0    0  501    0  0.00000000000E+00  0.00000000000E+00  0.56571902407E+03  0.56571902410E+03  0.50400001928E-02 0. -1.
       -1   -1    0    0    0  501  0.00000000000E+00  0.00000000000E+00 -0.14455341287E+04  0.14455341287E+04  0.50400001928E-02 0.  1.
    10030    2    1    2    0    0  0.00000000000E+00  0.00000000000E+00 -0.87981510462E+03  0.20112531528E+04  0.18086084779E+04 0.  0.
        4    1    3    3  502    0  0.70565352205E+03 -0.15181460036E+03 -0.10457115816E+04  0.12706332638E+04  0.12699999809E+01 0.  1.
       -4    1    3    3    0  502 -0.70565352205E+03  0.15181460036E+03  0.16589647702E+03  0.74061988905E+03  0.12699999809E+01 0. -1.
</event>
<event>
 5   0  0.1330225E-04  0.1802280E+04  0.7818609E-02  0.8705088E-01
       -1   -1    0    0    0  501  0.00000000000E+00  0.00000000000E+00  0.10736322724E+04  0.10736322724E+04  0.50400001928E-02 0.  1.
        1   -1    0    0  501    0  0.00000000000E+00  0.00000000000E+00 -0.75636055716E+03  0.75636055718E+03  0.50400001928E-02 0. -1.
    10030    2    1    2    0    0  0.00000000000E+00  0.00000000000E+00  0.31727171522E+03  0.18299928296E+04  0.18022797827E+04 0.  0.
        3    1    3    3  502    0  0.86735066033E+03 -0.15297803428E+03  0.35223399189E+03  0.94856114309E+03  0.10100000352E+00 0.  1.
       -3    1    3    3    0  502 -0.86735066033E+03  0.15297803428E+03 -0.34962276673E+02  0.88143168648E+03  0.10100000352E+00 0. -1.
</event>
<event>
 5   0  0.2550616E-04  0.1797006E+04  0.7818609E-02  0.8707893E-01
       -2   -1    0    0    0  501  0.00000000000E+00  0.00000000000E+00  0.54939380334E+03  0.54939380335E+03  0.25500000920E-02 0. -1.
        2   -1    0    0  501    0  0.00000000000E+00  0.00000000000E+00 -0.14694512403E+04  0.14694512403E+04  0.25500000920E-02 0.  1.
    10030    2    1    2    0    0  0.00000000000E+00  0.00000000000E+00 -0.92005743693E+03  0.20188450436E+04  0.17970057381E+04 0.  0.
        1    1    3    3  502    0 -0.53453913891E+03  0.53321352052E+02  0.34911395122E+03  0.64066825157E+03  0.50400001928E-02 0. -1.
       -1    1    3    3    0  502  0.53453913891E+03 -0.53321352052E+02 -0.12691713881E+04  0.13781767920E+04  0.50400001928E-02 0.  1.
</event>
<event>
 5   0  0.2393421E-04  0.1789510E+04  0.7818609E-02  0.8711898E-01
        2   -1    0    0  501    0  0.00000000000E+00  0.00000000000E+00  0.19472244913E+04  0.19472244913E+04  0.25500000920E-02 0. -1.
       -2   -1    0    0    0  501  0.00000000000E+00  0.00000000000E+00 -0.41114223627E+03  0.41114223627E+03  0.25500000920E-02 0.  1.
    10030    2    1    2    0    0  0.00000000000E+00  0.00000000000E+00  0.15360822550E+04  0.23583667276E+04  0.17895096891E+04 0.  0.
        5    1    3    3  502    0 -0.55369610594E+03  0.44412564157E+03  0.50142262921E+02  0.71159208805E+03  0.46999998093E+01 0.  1.
       -5    1    3    3    0  502  0.55369610594E+03 -0.44412564157E+03  0.14859399921E+04  0.16467746395E+04  0.46999998093E+01 0. -1.
</event>
<event>
 5   0  0.1308893E-04  0.1808224E+04  0.7818609E-02  0.8701938E-01
        1   -1    0    0  501    0  0.00000000000E+00  0.00000000000E+00  0.10986768550E+04  0.10986768550E+04  0.50400001928E-02 0. -1.
       -1   -1    0    0    0  501  0.00000000000E+00  0.00000000000E+00 -0.74400286680E+03  0.74400286681E+03  0.50400001928E-02 0.  1.
    10030    2    1    2    0    0  0.00000000000E+00  0.00000000000E+00  0.35467398821E+03  0.18426797218E+04  0.18082242448E+04 0.  0.
        4    1    3    3  502    0 -0.26594006920E+02 -0.22401054739E+03  0.10695363518E+04  0.10930679701E+04  0.12699999809E+01 0. -1.
       -4    1    3    3    0  502  0.26594006920E+02  0.22401054739E+03 -0.71486236359E+03  0.74961175173E+03  0.12699999809E+01 0.  1.
</event>
<event>
 5   0  0.2417106E-04  0.1811979E+04  0.7818609E-02  0.8699955E-01
       -2   -1    0    0    0  501  0.00000000000E+00  0.00000000000E+00  0.46022276832E+03  0.46022276833E+03  0.25500000920E-02 0.  1.
        2   -1    0    0  501    0  0.00000000000E+00  0.00000000000E+00 -0.17835218612E+04  0.17835218612E+04  0.25500000920E-02 0. -1.
    10030    2    1    2    0    0  0.00000000000E+00  0.00000000000E+00 -0.13232990929E+04  0.22437446295E+04  0.18119794351E+04 0.  0.
        4    1    3    3  502    0  0.28460495707E+02 -0.10995230496E+02 -0.17828844161E+04  0.17831459136E+04  0.12699999809E+01 0. -1.
       -4    1    3    3    0  502 -0.28460495707E+02  0.10995230496E+02  0.45958532324E+03  0.46059871596E+03  0.12699999809E+01 0.  1.
</event>
<event>
 5   0  0.2569405E-04  0.1824705E+04  0.7818609E-02  0.8693271E-01
        2   -1    0    0  501    0  0.00000000000E+00  0.00000000000E+00  0.10460806264E+04  0.10460806264E+04  0.25500000920E-02 0. -1.
       -2   -1    0    0    0  501  0.00000000000E+00  0.00000000000E+00 -0.79571984211E+03  0.79571984211E+03  0.25500000920E-02 0.  1.
    10030    2    1    2    0    0  0.00000000000E+00  0.00000000000E+00  0.25036078428E+03  0.18418004685E+04  0.18247050292E+04 0.  0.
        2    1    3    3  502    0  0.80481672902E+03  0.17855335951E+03 -0.26934708209E+03  0.86727107650E+03  0.25500000920E-02 0.  1.
       -2    1    3    3    0  502 -0.80481672902E+03 -0.17855335951E+03  0.51970786636E+03  0.97452939200E+03  0.25500000920E-02 0. -1.
</event>
<event>
 5   0  0.1214723E-04  0.1674501E+04  0.7818609E-02  0.8776042E-01
       -1   -1    0    0    0  501  0.00000000000E+00  0.00000000000E+00  0.19227180075E+04  0.19227180075E+04  0.50400001928E-02 0.  1.
        1   -1    0    0  501    0  0.00000000000E+00  0.00000000000E+00 -0.36458206063E+03  0.36458206066E+03  0.50400001928E-02 0. -1.
    10030    2    1    2    0    0  0.00000000000E+00  0.00000000000E+00  0.15581359469E+04  0.22873000682E+04  0.16745011116E+04 0.  0.
        1    1    3    3  502    0 -0.80274067807E+03  0.21089614109E+03  0.62869631744E+03  0.10412150778E+04  0.50400001928E-02 0. -1.
       -1    1    3    3    0  502  0.80274067807E+03 -0.21089614109E+03  0.92943962944E+03  0.12460849904E+04  0.50400001928E-02 0.  1.
</event>
<event>
 5   0  0.2569405E-04  0.1791532E+04  0.7818609E-02  0.8710815E-01
       -2   -1    0    0    0  501  0.00000000000E+00  0.00000000000E+00  0.11663724624E+04  0.11663724624E+04  0.25500000920E-02 0. -1.
        2   -1    0    0  501    0  0.00000000000E+00  0.00000000000E+00 -0.68794244504E+03  0.68794244504E+03  0.25500000920E-02 0.  1.
    10030    2    1    2    0    0  0.00000000000E+00  0.00000000000E+00  0.47843001739E+03  0.18543149075E+04  0.17915324431E+04 0.  0.
        2    1    3    3  502    0 -0.86893455234E+03  0.41877694205E+02  0.46023053584E+03  0.98418145870E+03  0.25500000920E-02 0.  1.
       -2    1    3    3    0  502  0.86893455234E+03 -0.41877694205E+02  0.18199481554E+02  0.87013344877E+03  0.25500000920E-02 0. -1.
</event>
<event>
 5   0  0.1253925E-04  0.1794956E+04  0.7818609E-02  0.8708986E-01
       -1   -1    0    0    0  501  0.00000000000E+00  0.00000000000E+00  0.88438747067E+03  0.88438747068E+03  0.50400001928E-02 0.  1.
        1   -1    0    0  501    0  0.00000000000E+00  0.00000000000E+00 -0.91076274269E+03  0.91076274271E+03  0.50400001928E-02 0. -1.
    10030    2    1    2    0    0  0.00000000000E+00  0.00000000000E+00 -0.26375272027E+02  0.17951502134E+04  0.17949564434E+04 0.  0.
        2    1    3    3  502    0 -0.12576230966E+03  0.47259742095E+03  0.73942444982E+03  0.88651734209E+03  0.25500000920E-02 0.  1.
       -2    1    3    3    0  502  0.12576230966E+03 -0.47259742095E+03 -0.76579972185E+03  0.90863287130E+03  0.25500000920E-02 0. -1.
</event>
<event>
 5   0  0.1308893E-04  0.1811885E+04  0.7818609E-02  0.8700005E-01
       -1   -1    0    0    0  501  0.00000000000E+00  0.00000000000E+00  0.24288293260E+04  0.24288293260E+04  0.50400001928E-02 0.  1.
        1   -1    0    0  501    0  0.00000000000E+00  0.00000000000E+00 -0.33791237765E+03  0.33791237769E+03  0.50400001928E-02 0. -1.
    10030    2    1    2    0    0  0.00000000000E+00  0.00000000000E+00  0.20909169483E+04  0.27667417037E+04  0.18118846459E+04 0.  0.
        4    1    3    3  502    0  0.68785582886E+03 -0.40585457307E+03  0.16984460452E+04  0.18768548578E+04  0.12699999809E+01 0.  1.
       -4    1    3    3    0  502 -0.68785582886E+03  0.40585457307E+03  0.39247090309E+03  0.88988684587E+03  0.12699999809E+01 0. -1.
</event>
<event>
 5   0  0.2550616E-04  0.1787699E+04  0.7818609E-02  0.8712868E-01
       -2   -1    0    0    0  501  0.00000000000E+00  0.00000000000E+00  0.11494568648E+04  0.11494568648E+04  0.25500000920E-02 0.  1.
        2   -1    0    0  501    0  0.00000000000E+00  0.00000000000E+00 -0.69508247408E+03  0.69508247408E+03  0.25500000920E-02 0. -1.
    10030    2    1    2    0    0  0.00000000000E+00  0.00000000000E+00  0.45437439073E+03  0.18445393389E+04  0.17876994394E+04 0.  0.
        1    1    3    3  502    0 -0.26689933632E+03 -0.35598802163E+03 -0.57270657392E+03  0.72522792769E+03  0.50400001928E-02 0. -1.
       -1    1    3    3    0  502  0.26689933632E+03  0.35598802163E+03  0.10270809647E+04  0.11193114112E+04  0.50400001928E-02 0.  1.
</event>
<event>
 5   0  0.2569405E-04  0.1784653E+04  0.7818609E-02  0.8714504E-01
        2   -1    0    0  501    0  0.00000000000E+00  0.00000000000E+00  0.10050152582E+04  0.10050152582E+04  0.25500000920E-02 0.  1.
       -2   -1    0    0    0  501  0.00000000000E+00  0.00000000000E+00 -0.79227271874E+03  0.79227271875E+03  0.25500000920E-02 0. -1.
    10030    2    1    2    0    0  0.00000000000E+00  0.00000000000E+00  0.21274253942E+03  0.17972879769E+04  0.17846525387E+04 0.  0.
        2    1    3    3  502    0  0.14547936031E+03 -0.53089481322E+03 -0.60090631130E+03  0.81492450077E+03  0.25500000920E-02 0. -1.
       -2    1    3    3    0  502 -0.14547936031E+03  0.53089481322E+03  0.81364885072E+03  0.98236347615E+03  0.25500000920E-02 0.  1.
</event>
<event>
 5   0  0.1214723E-04  0.1807074E+04  0.7818609E-02  0.8702547E-01
       -1   -1    0    0    0  501  0.00000000000E+00  0.00000000000E+00  0.68802675993E+03  0.68802675995E+03  0.50400001928E-02 0. -1.
        1   -1    0    0  501    0  0.00000000000E+00  0.00000000000E+00 -0.11865512500E+04  0.11865512500E+04  0.50400001928E-02 0.  1.
    10030    2    1    2    0    0  0.00000000000E+00  0.00000000000E+00 -0.49852449002E+03  0.18745780099E+04  0.18070738912E+04 0.  0.
        1    1    3    3  502    0  0.23998114724E+03 -0.75090953106E+03  0.20873100816E+03  0.81549047122E+03  0.50400001928E-02 0. -1.
       -1    1    3    3    0  502 -0.23998114724E+03  0.75090953106E+03 -0.70725549819E+03  0.10590875387E+04  0.50400001928E-02 0.  1.
</event>
<event>
 5   0  0.1253925E-04  0.1793899E+04  0.7818609E-02  0.8709551E-01
       -1   -1    0    0    0  501  0.00000000000E+00  0.00000000000E+00  0.16738852510E+04  0.16738852510E+04  0.50400001928E-02 0. -1.
        1   -1    0    0  501    0  0.00000000000E+00  0.00000000000E+00 -0.48062938923E+03  0.48062938925E+03  0.50400001928E-02 0.  1.
    10030    2    1    2    0    0  0.00000000000E+00  0.00000000000E+00  0.11932558618E+04  0.21545146403E+04  0.17938990449E+04 0.  0.
        2    1    3    3  502    0 -0.52611577102E+03 -0.10822601974E+03 -0.26611134880E+03  0.59943800833E+03  0.25500000920E-02 0.  1.
       -2    1    3    3    0  502  0.52611577102E+03  0.10822601974E+03  0.14593672106E+04  0.15550766319E+04  0.25500000920E-02 0. -1.
</event>
<event>
 5   0  0.2550616E-04  0.1720418E+04  0.7818609E-02  0.8749804E-01
        2   -1    0    0  501    0  0.00000000000E+00  0.00000000000E+00  0.10147988265E+04  0.10147988265E+04  0.25500000920E-02 0. -1.
       -2   -1    0    0    0  501  0.00000000000E+00  0.00000000000E+00 -0.72916889770E+03  0.72916889771E+03  0.25500000920E-02 0.  1.
    10030    2    1    2    0    0  0.00000000000E+00  0.00000000000E+00  0.28562992876E+03  0.17439677242E+04  0.17204182534E+04 0.  0.
        1    1    3    3  502    0  0.22647780329E+02  0.58720473642E+03 -0.49398573469E+03  0.76768758654E+03  0.50400001928E-02 0.  1.
       -1    1    3    3    0  502 -0.22647780329E+02 -0.58720473642E+03  0.77961566345E+03  0.97628013764E+03  0.50400001928E-02 0. -1.
</event>
<event>
 5   0  0.1253925E-04  0.1798690E+04  0.7818609E-02  0.8706997E-01
       -1   -1    0    0    0  501  0.00000000000E+00  0.00000000000E+00  0.72927924666E+03  0.72927924668E+03  0.50400001928E-02 0.  1.
        1   -1    0    0  501    0  0.00000000000E+00  0.00000000000E+00 -0.11090693384E+04  0.11090693384E+04  0.50400001928E-02 0. -1.
    10030    2    1    2    0    0  0.00000000000E+00  0.00000000000E+00 -0.37979009172E+03  0.18383485851E+04  0.17986898027E+04 0.  0.
        2    1    3    3  502    0 -0.89368718428E+03  0.95731964930E+02 -0.22188793214E+03  0.92578380137E+03  0.25500000920E-02 0. -1.
       -2    1    3    3    0  502  0.89368718428E+03 -0.95731964930E+02 -0.15790215959E+03  0.91256478370E+03  0.25500000920E-02 0.  1.
</event>
<event>
 5   0  0.1330225E-04  0.1807746E+04  0.7818609E-02  0.8702191E-01
        1   -1    0    0  501    0  0.00000000000E+00  0.00000000000E+00  0.12795075389E+04  0.12795075389E+04  0.50400001928E-02 0. -1.
       -1   -1    0    0    0  501  0.00000000000E+00  0.00000000000E+00 -0.63851610502E+03  0.63851610504E+03  0.50400001928E-02 0.  1.
    10030    2    1    2    0    0  0.00000000000E+00  0.00000000000E+00  0.64099143384E+03  0.19180236439E+04  0.18077457455E+04 0.  0.
        3    1    3    3  502    0  0.41338885642E+02  0.80791051956E+03  0.74827581934E+03  0.11019732406E+04  0.10100000352E+00 0.  1.
       -3    1    3    3    0  502 -0.41338885642E+02 -0.80791051956E+03 -0.10728438550E+03  0.81605040326E+03  0.10100000352E+00 0. -1.
</event>
<event>
 5   0  0.2417106E-04  0.1796891E+04  0.7818609E-02  0.8707955E-01
        2   -1    0    0  501    0  0.00000000000E+00  0.00000000000E+00  0.74327337878E+03  0.74327337879E+03  0.25500000920E-02 0.  1.
       -2   -1    0    0    0  501  0.00000000000E+00  0.00000000000E+00 -0.10860125534E+04  0.10860125534E+04  0.25500000920E-02 0. -1.
    10030    2    1    2    0    0  0.00000000000E+00  0.00000000000E+00 -0.34273917465E+03  0.18292859322E+04  0.17968908926E+04 0.  0.
        4    1    3    3  502    0  0.76964300278E+02  0.46557123126E+03 -0.94969375435E+03  0.10604715531E+04  0.12699999809E+01 0. -1.
       -4    1    3    3    0  502 -0.76964300278E+02 -0.46557123126E+03  0.60695457970E+03  0.76881437917E+03  0.12699999809E+01 0.  1.
</event>
<event>
 5   0  0.2417106E-04  0.1790949E+04  0.7818609E-02  0.8711127E-01
        2   -1    0    0  501    0  0.00000000000E+00  0.00000000000E+00  0.16949709149E+04  0.16949709149E+04  0.25500000920E-02 0. -1.
       -2   -1    0    0    0  501  0.00000000000E+00  0.00000000000E+00 -0.47309066455E+03  0.47309066456E+03  0.25500000920E-02 0.  1.
    10030    2    1    2    0    0  0.00000000000E+00  0.00000000000E+00  0.12218802504E+04  0.21680615795E+04  0.17909493757E+04 0.  0.
        4    1    3    3  502    0  0.79816425322E+03  0.17072523744E+03  0.16506397290E+03  0.83274306353E+03  0.12699999809E+01 0.  1.
       -4    1    3    3    0  502 -0.79816425322E+03 -0.17072523744E+03  0.10568162775E+04  0.13353185160E+04  0.12699999809E+01 0. -1.
</event>
<event>
 5   0  0.2417106E-04  0.1622124E+04  0.7818609E-02  0.8807071E-01
       -2   -1    0    0    0  501  0.00000000000E+00  0.00000000000E+00  0.47891196263E+03  0.47891196263E+03  0.25500000920E-02 0.  1.
        2   -1    0    0  501    0  0.00000000000E+00  0.00000000000E+00 -0.13735750719E+04  0.13735750719E+04  0.25500000920E-02 0. -1.
    10030    2    1    2    0    0  0.00000000000E+00  0.00000000000E+00 -0.89466310928E+03  0.18524870345E+04  0.16221239577E+04 0.  0.
        4    1    3    3  502    0 -0.51979215648E+03 -0.19531721233E+03 -0.11224605942E+04  0.12522987254E+04  0.12699999809E+01 0. -1.
       -4    1    3    3    0  502  0.51979215648E+03  0.19531721233E+03  0.22779748489E+03  0.60018830911E+03  0.12699999809E+01 0.  1.
</event>
<event>
 5   0  0.2431811E-04  0.1719466E+04  0.7818609E-02  0.8750339E-01
        2   -1    0    0  501    0  0.00000000000E+00  0.00000000000E+00  0.16064916343E+04  0.16064916343E+04  0.25500000920E-02 0. -1.
       -2   -1    0    0    0  501  0.00000000000E+00  0.00000000000E+00 -0.46009650603E+03  0.46009650603E+03  0.25500000920E-02 0.  1.
    10030    2    1    2    0    0  0.00000000000E+00  0.00000000000E+00  0.11463951283E+04  0.20665881404E+04  0.17194664148E+04 0.  0.
        3    1    3    3  502    0 -0.75528376458E+03 -0.20901175403E+03  0.99812834744E+03  0.12690152428E+04  0.10100000352E+00 0. -1.
       -3    1    3    3    0  502  0.75528376458E+03  0.20901175403E+03  0.14826678084E+03  0.79757289752E+03  0.10100000352E+00 0.  1.
</event>
<event>
 5   0  0.1214723E-04  0.1774861E+04  0.7818609E-02  0.8719784E-01
        1   -1    0    0  501    0  0.00000000000E+00  0.00000000000E+00  0.78445853739E+03  0.78445853741E+03  0.50400001928E-02 0.  1.
       -1   -1    0    0    0  501  0.00000000000E+00  0.00000000000E+00 -0.10039185993E+04  0.10039185993E+04  0.50400001928E-02 0. -1.
    10030    2    1    2    0    0  0.00000000000E+00  0.00000000000E+00 -0.21946006191E+03  0.17883771367E+04  0.17748605760E+04 0.  0.
        1    1    3    3  502    0 -0.15284467919E+03  0.14183429631E+03  0.75942472207E+03  0.78753055312E+03  0.50400001928E-02 0.  1.
       -1    1    3    3    0  502  0.15284467919E+03 -0.14183429631E+03 -0.97888478399E+03  0.10008465836E+04  0.50400001928E-02 0. -1.
</event>
<event>
 5   0  0.2569405E-04  0.1801830E+04  0.7818609E-02  0.8705327E-01
        2   -1    0    0  501    0  0.00000000000E+00  0.00000000000E+00  0.13279566104E+04  0.13279566104E+04  0.25500000920E-02 0.  1.
       -2   -1    0    0    0  501  0.00000000000E+00  0.00000000000E+00 -0.61120036079E+03  0.61120036080E+03  0.25500000920E-02 0. -1.
    10030    2    1    2    0    0  0.00000000000E+00  0.00000000000E+00  0.71675624957E+03  0.19391569712E+04  0.18018296916E+04 0.  0.
        2    1    3    3  502    0  0.51119339874E+03 -0.17636751259E+03  0.11338683749E+04  0.12562172113E+04  0.25500000920E-02 0.  1.
       -2    1    3    3    0  502 -0.51119339874E+03  0.17636751259E+03 -0.41711212536E+03  0.68293975982E+03  0.25500000920E-02 0. -1.
</event>
<event>
 5   0  0.2550616E-04  0.1753095E+04  0.7818609E-02  0.8731648E-01
       -2   -1    0    0    0  501  0.00000000000E+00  0.00000000000E+00  0.32049101749E+03  0.32049101750E+03  0.25500000920E-02 0. -1.
        2   -1    0    0  501    0  0.00000000000E+00  0.00000000000E+00 -0.23973701906E+04  0.23973701906E+04  0.25500000920E-02 0.  1.
    10030    2    1    2    0    0  0.00000000000E+00  0.00000000000E+00 -0.20768791731E+04  0.27178612081E+04  0.17530951049E+04 0.  0.
        1    1    3    3  502    0  0.54374717954E+03  0.57494162527E+03 -0.16228856292E+04  0.18055405377E+04  0.50400001928E-02 0.  1.
       -1    1    3    3    0  502 -0.54374717954E+03 -0.57494162527E+03 -0.45399354389E+03  0.91232067041E+03  0.50400001928E-02 0. -1.
</event>
<event>
 5   0  0.1253925E-04  0.1801272E+04  0.7818609E-02  0.8705623E-01
        1   -1    0    0  501    0  0.00000000000E+00  0.00000000000E+00  0.14252222487E+04  0.14252222487E+04  0.50400001928E-02 0. -1.
       -1   -1    0    0    0  501  0.00000000000E+00  0.00000000000E+00 -0.56913581101E+03  0.56913581103E+03  0.50400001928E-02 0.  1.
    10030    2    1    2    0    0  0.00000000000E+00  0.00000000000E+00  0.85608643770E+03  0.19943580598E+04  0.18012717956E+04 0.  0.
        2    1    3    3  502    0 -0.80724306770E+03  0.24625145869E+03  0.79912228717E+02  0.84774236391E+03  0.25500000920E-02 0. -1.
       -2    1    3    3    0  502  0.80724306770E+03 -0.24625145869E+03  0.77617420899E+03  0.11466156958E+04  0.25500000920E-02 0.  1.
</event>
<event>
 5   0  0.1253925E-04  0.1792455E+04  0.7818609E-02  0.8710322E-01
       -1   -1    0    0    0  501  0.00000000000E+00  0.00000000000E+00  0.68796879592E+03  0.68796879594E+03  0.50400001928E-02 0. -1.
        1   -1    0    0  501    0  0.00000000000E+00  0.00000000000E+00 -0.11675294465E+04  0.11675294465E+04  0.50400001928E-02 0.  1.
    10030    2    1    2    0    0  0.00000000000E+00  0.00000000000E+00 -0.47956065057E+03  0.18554982424E+04  0.17924551069E+04 0.  0.
        2    1    3    3  502    0 -0.84003539525E+03 -0.80211720515E+02 -0.55227599144E+03  0.10085148269E+04  0.25500000920E-02 0.  1.
       -2    1    3    3    0  502  0.84003539525E+03  0.80211720515E+02  0.72715340870E+02  0.84698341553E+03  0.25500000920E-02 0. -1.
</event>
<event>
 5   0  0.2417106E-04  0.1801241E+04  0.7818609E-02  0.8705640E-01
        2   -1    0    0  501    0  0.00000000000E+00  0.00000000000E+00  0.22440953624E+04  0.22440953624E+04  0.25500000920E-02 0.  1.
       -2   -1    0    0    0  501  0.00000000000E+00  0.00000000000E+00 -0.36144501135E+03  0.36144501136E+03  0.25500000920E-02 0. -1.
    10030    2    1    2    0    0  0.00000000000E+00  0.00000000000E+00  0.18826503511E+04  0.26055403738E+04  0.18012407654E+04 0.  0.
        4    1    3    3  502    0 -0.94335773808E+01 -0.76598594051E+03  0.16263920034E+04  0.17977697336E+04  0.12699999809E+01 0.  1.
       -4    1    3    3    0  502  0.94335773808E+01  0.76598594051E+03  0.25625834764E+03  0.80777064015E+03  0.12699999809E+01 0. -1.
</event>
<event>
 5   0  0.2417106E-04  0.1805624E+04  0.7818609E-02  0.8703314E-01
        2   -1    0    0  501    0  0.00000000000E+00  0.00000000000E+00  0.14185466015E+04  0.14185466015E+04  0.25500000920E-02 0.  1.
       -2   -1    0    0    0  501  0.00000000000E+00  0.00000000000E+00 -0.57458080414E+03  0.57458080414E+03  0.25500000920E-02 0. -1.
    10030    2    1    2    0    0  0.00000000000E+00  0.00000000000E+00  0.84396579734E+03  0.19931274056E+04  0.18056241547E+04 0.  0.
        4    1    3    3  502    0 -0.84997495710E+03  0.31791237341E+02  0.87899218832E+02  0.85509999184E+03  0.12699999809E+01 0. -1.
       -4    1    3    3    0  502  0.84997495710E+03 -0.31791237341E+02  0.75606657851E+03  0.11380274138E+04  0.12699999809E+01 0.  1.
</event>
<event>
 5   0  0.2417106E-04  0.1807818E+04  0.7818609E-02  0.8702153E-01
       -2   -1    0    0    0  501  0.00000000000E+00  0.00000000000E+00  0.79975784664E+03  0.79975784665E+03  0.25500000920E-02 0.  1.
        2   -1    0    0  501    0  0.00000000000E+00  0.00000000000E+00 -0.10216232009E+04  0.10216232009E+04  0.25500000920E-02 0. -1.
    10030    2    1    2    0    0  0.00000000000E+00  0.00000000000E+00 -0.22186535430E+03  0.18213810476E+04  0.18078176581E+04 0.  0.
        4    1    3    3  502    0  0.45481928216E+03  0.34986719864E+03  0.59272112633E+03  0.82497732248E+03  0.12699999809E+01 0.  1.
       -4    1    3    3    0  502 -0.45481928216E+03 -0.34986719864E+03 -0.81458648063E+03  0.99640372512E+03  0.12699999809E+01 0. -1.
</event>
<event>
 5   0  0.1330225E-04  0.1800637E+04  0.7818609E-02  0.8705961E-01
       -1   -1    0    0    0  501  0.00000000000E+00  0.00000000000E+00  0.18074434180E+04  0.18074434180E+04  0.50400001928E-02 0. -1.
        1   -1    0    0  501    0  0.00000000000E+00  0.00000000000E+00 -0.44846401428E+03  0.44846401430E+03  0.50400001928E-02 0.  1.
    10030    2    1    2    0    0  0.00000000000E+00  0.00000000000E+00  0.13589794037E+04  0.22559074323E+04  0.18006369216E+04 0.  0.
        3    1    3    3  502    0 -0.54406227706E+03  0.32219123075E+03 -0.12346389825E+03  0.64424707594E+03  0.10100000352E+00 0.  1.
       -3    1    3    3    0  502  0.54406227706E+03 -0.32219123075E+03  0.14824433019E+04  0.16116603563E+04  0.10100000352E+00 0. -1.
</event>
<event>
 5   0  0.1239119E-04  0.1820264E+04  0.7818609E-02  0.8695597E-01
       -1   -1    0    0    0  501  0.00000000000E+00  0.00000000000E+00  0.10395405769E+04  0.10395405769E+04  0.50400001928E-02 0. -1.
        1   -1    0    0  501    0  0.00000000000E+00  0.00000000000E+00 -0.79683294530E+03  0.79683294531E+03  0.50400001928E-02 0.  1.
    10030    2    1    2    0    0  0.00000000000E+00  0.00000000000E+00  0.24270763164E+03  0.18363735223E+04  0.18202639146E+04 0.  0.
        5    1    3    3  502    0 -0.65046691326E+02 -0.36470018087E+03 -0.71731612006E+03  0.80734243050E+03  0.46999998093E+01 0.  1.
       -5    1    3    3    0  502  0.65046691326E+02  0.36470018087E+03  0.96002375170E+03  0.10290310918E+04  0.46999998093E+01 0. -1.
</event>
<event>
 5   0  0.2569405E-04  0.1808691E+04  0.7818609E-02  0.8701691E-01
        2   -1    0    0  501    0  0.00000000000E+00  0.00000000000E+00  0.16650439460E+04  0.16650439460E+04  0.25500000920E-02 0. -1.
       -2   -1    0    0    0  501  0.00000000000E+00  0.00000000000E+00 -0.49118271689E+03  0.49118271689E+03  0.25500000920E-02 0.  1.
    10030    2    1    2    0    0  0.00000000000E+00  0.00000000000E+00  0.11738612291E+04  0.21562266629E+04  0.18086910285E+04 0.  0.
        2    1    3    3  502    0  0.46190582090E+03  0.53309027888E+03  0.12616256768E+04  0.14454209010E+04  0.25500000920E-02 0. -1.
       -2    1    3    3    0  502 -0.46190582090E+03 -0.53309027888E+03 -0.87764447667E+02  0.71080576186E+03  0.25500000920E-02 0.  1.
</event>
<event>
 5   0  0.1253925E-04  0.1806753E+04  0.7818609E-02  0.8702717E-01
        1   -1    0    0  501    0  0.00000000000E+00  0.00000000000E+00  0.10228471583E+04  0.10228471583E+04  0.50400001928E-02 0.  1.
       -1   -1    0    0    0  501  0.00000000000E+00  0.00000000000E+00 -0.79786004660E+03  0.79786004662E+03  0.50400001928E-02 0. -1.
    10030    2    1    2    0    0  0.00000000000E+00  0.00000000000E+00  0.22498711167E+03  0.18207072049E+04  0.18067527572E+04 0.  0.
        2    1    3    3  502    0 -0.27513268480E+02  0.73007825415E+03 -0.42294593055E+03  0.84418866215E+03  0.25500000920E-02 0. -1.
       -2    1    3    3    0  502  0.27513268480E+02 -0.73007825415E+03  0.64793304222E+03  0.97651854275E+03  0.25500000920E-02 0.  1.
</event>
<event>
 5   0  0.1253925E-04  0.1777897E+04  0.7818609E-02  0.8718143E-01
       -1   -1    0    0    0  501  0.00000000000E+00  0.00000000000E+00  0.87715090557E+03  0.87715090559E+03  0.50400001928E-02 0. -1.
        1   -1    0    0  501    0  0.00000000000E+00  0.00000000000E+00 -0.90090446831E+03  0.90090446833E+03  0.50400001928E-02 0.  1.
    10030    2    1    2    0    0  0.00000000000E+00  0.00000000000E+00 -0.23753562741E+02  0.17780553739E+04  0.17778967014E+04 0.  0.
        2    1    3    3  502    0 -0.84527072988E+03  0.14772042415E+03 -0.24411559279E+03  0.89213023329E+03  0.25500000920E-02 0. -1.
       -2    1    3    3    0  502  0.84527072988E+03 -0.14772042415E+03  0.22036203005E+03  0.88592514063E+03  0.25500000920E-02 0.  1.
</event>
<event>
 5   0  0.1214723E-04  0.1772834E+04  0.7818609E-02  0.8720881E-01
        1   -1    0    0  501    0  0.00000000000E+00  0.00000000000E+00  0.17460756262E+04  0.17460756262E+04  0.50400001928E-02 0. -1.
       -1   -1    0    0    0  501  0.00000000000E+00  0.00000000000E+00 -0.45000083902E+03  0.45000083905E+03  0.50400001928E-02 0.  1.
    10030    2    1    2    0    0  0.00000000000E+00  0.00000000000E+00  0.12960747871E+04  0.21960764652E+04  0.17728344500E+04 0.  0.
        1    1    3    3  502    0  0.18612047210E+03  0.47697000305E+03 -0.24831074977E+03  0.56903377968E+03  0.50400001928E-02 0.  1.
       -1    1    3    3    0  502 -0.18612047210E+03 -0.47697000305E+03  0.15443855369E+04  0.16270426855E+04  0.50400001928E-02 0. -1.
</event>
<event>
 5   0  0.2569405E-04  0.1803609E+04  0.7818609E-02  0.8704383E-01
       -2   -1    0    0    0  501  0.00000000000E+00  0.00000000000E+00  0.30920824801E+03  0.30920824802E+03  0.25500000920E-02 0. -1.
        2   -1    0    0  501    0  0.00000000000E+00  0.00000000000E+00 -0.26301082816E+04  0.26301082816E+04  0.25500000920E-02 0.  1.
    10030    2    1    2    0    0  0.00000000000E+00  0.00000000000E+00 -0.23209000336E+04  0.29393165296E+04  0.18036087978E+04 0.  0.
        2    1    3    3  502    0 -0.29198016206E+03 -0.23471886303E+03  0.17639527939E+03  0.41407807754E+03  0.25500000920E-02 0. -1.
       -2    1    3    3    0  502  0.29198016206E+03  0.23471886303E+03 -0.24972953130E+04  0.25252384521E+04  0.25500000920E-02 0.  1.
</event>
<event>
 5   0  0.2417106E-04  0.1774333E+04  0.7818609E-02  0.8720069E-01
       -2   -1    0    0    0  501  0.00000000000E+00  0.00000000000E+00  0.49459220109E+03  0.49459220110E+03  0.25500000920E-02 0.  1.
        2   -1    0    0  501    0  0.00000000000E+00  0.00000000000E+00 -0.15913400244E+04  0.15913400244E+04  0.25500000920E-02 0. -1.
    10030    2    1    2    0    0  0.00000000000E+00  0.00000000000E+00 -0.10967478233E+04  0.20859322255E+04  0.17743329624E+04 0.  0.
        4    1    3    3  502    0  0.31835558884E+03 -0.19196348139E+03  0.39860739996E+03  0.54505938331E+03  0.12699999809E+01 0.  1.
       -4    1    3    3    0  502 -0.31835558884E+03  0.19196348139E+03 -0.14953552232E+04  0.15408728422E+04  0.12699999809E+01 0. -1.
</event>
<event>
 5   0  0.1214723E-04  0.1806120E+04  0.7818609E-02  0.8703052E-01
        1   -1    0    0  501    0  0.00000000000E+00  0.00000000000E+00  0.13071497580E+04  0.13071497580E+04  0.50400001928E-02 0.  1.
       -1   -1    0    0    0  501  0.00000000000E+00  0.00000000000E+00 -0.62388968314E+03  0.62388968316E+03  0.50400001928E-02 0. -1.
    10030    2    1    2    0    0  0.00000000000E+00  0.00000000000E+00  0.68326007489E+03  0.19310394412E+04  0.18061198724E+04 0.  0.
        1    1    3    3  502    0  0.11438691689E+03 -0.29237190951E+03 -0.56366361773E+03  0.64519948404E+03  0.50400001928E-02 0. -1.
       -1    1    3    3    0  502 -0.11438691689E+03  0.29237190951E+03  0.12469236926E+04  0.12858399572E+04  0.50400001928E-02 0.  1.
</event>
<event>
 5   0  0.2550616E-04  0.1821135E+04  0.7818609E-02  0.8695140E-01
       -2   -1    0    0    0  501  0.00000000000E+00  0.00000000000E+00  0.92117457239E+03  0.92117457239E+03  0.25500000920E-02 0.  1.
        2   -1    0    0  501    0  0.00000000000E+00  0.00000000000E+00 -0.90008215475E+03  0.90008215475E+03  0.25500000920E-02 0. -1.
    10030    2    1    2    0    0  0.00000000000E+00  0.00000000000E+00  0.21092417635E+02  0.18212567271E+04  0.18211345848E+04 0.  0.
        1    1    3    3  502    0  0.32115899569E+03 -0.84534772017E+03 -0.96123616427E+02  0.90939299435E+03  0.50400001928E-02 0. -1.
       -1    1    3    3    0  502 -0.32115899569E+03  0.84534772017E+03  0.11721603406E+03  0.91186373279E+03  0.50400001928E-02 0.  1.
</event>
<event>
 5   0  0.1253925E-04  0.1817758E+04  0.7818609E-02  0.8696912E-01
       -1   -1    0    0    0  501  0.00000000000E+00  0.00000000000E+00  0.43111071594E+03  0.43111071597E+03  0.50400001928E-02 0. -1.
        1   -1    0    0  501    0  0.00000000000E+00  0.00000000000E+00 -0.19161232625E+04  0.19161232625E+04  0.50400001928E-02 0.  1.
    10030    2    1    2    0    0  0.00000000000E+00  0.00000000000E+00 -0.14850125465E+04  0.23472339784E+04  0.18177582585E+04 0.  0.
        2    1    3    3  502    0 -0.72587661545E+02  0.80562673927E+03 -0.12776600159E+04  0.15121899775E+04  0.25500000920E-02 0.  1.
       -2    1    3    3    0  502  0.72587661545E+02 -0.80562673927E+03 -0.20735253060E+03  0.83504400099E+03  0.25500000920E-02 0. -1.
</event>
<event>
 5   0  0.1214723E-04  0.1817258E+04  0.7818609E-02  0.8697176E-01
        1   -1    0    0  501    0  0.00000000000E+00  0.00000000000E+00  0.13122858455E+04  0.13122858456E+04  0.50400001928E-02 0.  1.
       -1   -1    0    0    0  501  0.00000000000E+00  0.00000000000E+00 -0.62913598530E+03  0.62913598532E+03  0.50400001928E-02 0. -1.
    10030    2    1    2    0    0  0.00000000000E+00  0.00000000000E+00  0.68314986024E+03  0.19414218309E+04  0.18172575475E+04 0.  0.
        1    1    3    3  502    0  0.40585639104E+03  0.53673051409E+03  0.99387221298E+03  0.12002420717E+04  0.50400001928E-02 0.  1.
       -1    1    3    3    0  502 -0.40585639104E+03 -0.53673051409E+03 -0.31072235274E+03  0.74117975918E+03  0.50400001928E-02 0. -1.
</event>
<event>
 5   0  0.1214723E-04  0.1809747E+04  0.7818609E-02  0.8701133E-01
       -1   -1    0    0    0  501  0.00000000000E+00  0.00000000000E+00  0.87935696606E+03  0.87935696608E+03  0.50400001928E-02 0.  1.
        1   -1    0    0  501    0  0.00000000000E+00  0.00000000000E+00 -0.93113067549E+03  0.93113067551E+03  0.50400001928E-02 0. -1.
    10030    2    1    2    0    0  0.00000000000E+00  0.00000000000E+00 -0.51773709431E+02  0.18104876416E+04  0.18097472153E+04 0.  0.
        1    1    3    3  502    0  0.35060797117E+03 -0.18848311847E+03  0.78706139552E+03  0.88199630144E+03  0.50400001928E-02 0.  1.
       -1    1    3    3    0  502 -0.35060797117E+03  0.18848311847E+03 -0.83883510495E+03  0.92849134015E+03  0.50400001928E-02 0. -1.
</event>
<event>
 5   0  0.1214723E-04  0.1786097E+04  0.7818609E-02  0.8713728E-01
        1   -1    0    0  501    0  0.00000000000E+00  0.00000000000E+00  0.80551409253E+03  0.80551409255E+03  0.50400001928E-02 0. -1.
       -1   -1    0    0    0  501  0.00000000000E+00  0.00000000000E+00 -0.99009532185E+03  0.99009532186E+03  0.50400001928E-02 0.  1.
    10030    2    1    2    0    0  0.00000000000E+00  0.00000000000E+00 -0.18458122931E+03  0.17956094144E+04  0.17860971247E+04 0.  0.
        1    1    3    3  502    0  0.58327901208E+03 -0.66898427685E+03  0.71368944683E+01  0.88758397005E+03  0.50400001928E-02 0. -1.
       -1    1    3    3    0  502 -0.58327901208E+03  0.66898427685E+03 -0.19171812378E+03  0.90802544436E+03  0.50400001928E-02 0.  1.
</event>
<event>
 5   0  0.1214723E-04  0.1788141E+04  0.7818609E-02  0.8712632E-01
       -1   -1    0    0    0  501  0.00000000000E+00  0.00000000000E+00  0.71342068987E+03  0.71342068989E+03  0.50400001928E-02 0.  1.
        1   -1    0    0  501    0  0.00000000000E+00  0.00000000000E+00 -0.11204632069E+04  0.11204632069E+04  0.50400001928E-02 0. -1.
    10030    2    1    2    0    0  0.00000000000E+00  0.00000000000E+00 -0.40704251703E+03  0.18338838968E+04  0.17881405247E+04 0.  0.
        1    1    3    3  502    0 -0.41302239671E+03 -0.68151826417E+03 -0.61923866615E+03  0.10092131441E+04  0.50400001928E-02 0. -1.
       -1    1    3    3    0  502  0.41302239671E+03  0.68151826417E+03  0.21219614913E+03  0.82467075267E+03  0.50400001928E-02 0.  1.
</event>
<event>
 5   0  0.1253925E-04  0.1776751E+04  0.7818609E-02  0.8718762E-01
       -1   -1    0    0    0  501  0.00000000000E+00  0.00000000000E+00  0.10406552342E+04  0.10406552342E+04  0.50400001928E-02 0.  1.
        1   -1    0    0  501    0  0.00000000000E+00  0.00000000000E+00 -0.75837866219E+03  0.75837866221E+03  0.50400001928E-02 0. -1.
    10030    2    1    2    0    0  0.00000000000E+00  0.00000000000E+00  0.28227657198E+03  0.17990338964E+04  0.17767506570E+04 0.  0.
        2    1    3    3  502    0  0.63703142305E+03  0.81791208759E+02 -0.48032792991E+03  0.80200608229E+03  0.25500000920E-02 0. -1.
       -2    1    3    3    0  502 -0.63703142305E+03 -0.81791208759E+02  0.76260450189E+03  0.99702781410E+03  0.25500000920E-02 0.  1.
</event>
<event>
 5   0  0.1308893E-04  0.1805770E+04  0.7818609E-02  0.8703237E-01
       -1   -1    0    0    0  501  0.00000000000E+00  0.00000000000E+00  0.11014812525E+04  0.11014812525E+04  0.50400001928E-02 0.  1.
        1   -1    0    0  501    0  0.00000000000E+00  0.00000000000E+00 -0.74009540893E+03  0.74009540895E+03  0.50400001928E-02 0. -1.
    10030    2    1    2    0    0  0.00000000000E+00  0.00000000000E+00  0.36138584354E+03  0.18415766614E+04  0.18057698835E+04 0.  0.
        4    1    3    3  502    0 -0.28412624903E+03  0.62789919193E+03 -0.41415205244E+03  0.80405761986E+03  0.12699999809E+01 0. -1.
       -4    1    3    3    0  502  0.28412624903E+03 -0.62789919193E+03  0.77553789598E+03  0.10375190416E+04  0.12699999809E+01 0.  1.
</event>
<event>
 5   0  0.2569405E-04  0.1756496E+04  0.7818609E-02  0.8729783E-01
       -2   -1    0    0    0  501  0.00000000000E+00  0.00000000000E+00  0.47659631214E+03  0.47659631215E+03  0.25500000920E-02 0. -1.
        2   -1    0    0  501    0  0.00000000000E+00  0.00000000000E+00 -0.16183917166E+04  0.16183917166E+04  0.25500000920E-02 0.  1.
    10030    2    1    2    0    0  0.00000000000E+00  0.00000000000E+00 -0.11417954045E+04  0.20949880287E+04  0.17564959707E+04 0.  0.
        2    1    3    3  502    0  0.58107991210E+03  0.62636505772E+03 -0.32841537692E+03  0.91533803023E+03  0.25500000920E-02 0. -1.
       -2    1    3    3    0  502 -0.58107991210E+03 -0.62636505772E+03 -0.81338002754E+03  0.11796499985E+04  0.25500000920E-02 0.  1.
</event>
<event>
 5   0  0.1253925E-04  0.1798123E+04  0.7818609E-02  0.8707298E-01
       -1   -1    0    0    0  501  0.00000000000E+00  0.00000000000E+00  0.35939847309E+03  0.35939847312E+03  0.50400001928E-02 0.  1.
        1   -1    0    0  501    0  0.00000000000E+00  0.00000000000E+00 -0.22490674212E+04  0.22490674212E+04  0.50400001928E-02 0. -1.
    10030    2    1    2    0    0  0.00000000000E+00  0.00000000000E+00 -0.18896689481E+04  0.26084658943E+04  0.17981227957E+04 0.  0.
        2    1    3    3  502    0  0.23794658852E+03 -0.86167757558E+03 -0.80565741386E+03  0.12034079490E+04  0.25500000920E-02 0. -1.
       -2    1    3    3    0  502 -0.23794658852E+03  0.86167757558E+03 -0.10840115342E+04  0.14050579453E+04  0.25500000920E-02 0.  1.
</event>
<event>
 5   0  0.1239119E-04  0.1811770E+04  0.7818609E-02  0.8700065E-01
        1   -1    0    0  501    0  0.00000000000E+00  0.00000000000E+00  0.11616439809E+04  0.11616439809E+04  0.50400001928E-02 0.  1.
       -1   -1    0    0    0  501  0.00000000000E+00  0.00000000000E+00 -0.70643614669E+03  0.70643614671E+03  0.50400001928E-02 0. -1.
    10030    2    1    2    0    0  0.00000000000E+00  0.00000000000E+00  0.45520783422E+03  0.18680801276E+04  0.18117696296E+04 0.  0.
        5    1    3    3  502    0 -0.39749884412E+03 -0.31968228599E+03  0.99947148728E+03  0.11221263026E+04  0.46999998093E+01 0.  1.
       -5    1    3    3    0  502  0.39749884412E+03  0.31968228599E+03 -0.54426365306E+03  0.74595382505E+03  0.46999998093E+01 0. -1.
</event>
<event>
 5   0  0.2550616E-04  0.1511915E+04  0.7818609E-02  0.8876568E-01
       -2   -1    0    0    0  501  0.00000000000E+00  0.00000000000E+00  0.42535589298E+03  0.42535589299E+03  0.25500000920E-02 0. -1.
        2   -1    0    0  501    0  0.00000000000E+00  0.00000000000E+00 -0.13435136388E+04  0.13435136388E+04  0.25500000920E-02 0.  1.
    10030    2    1    2    0    0  0.00000000000E+00  0.00000000000E+00 -0.91815774587E+03  0.17688695318E+04  0.15119146055E+04 0.  0.
        1    1    3    3  502    0  0.15477111901E+03  0.51180465446E+03  0.16613321973E+03  0.55990923401E+03  0.50400001928E-02 0. -1.
       -1    1    3    3    0  502 -0.15477111901E+03 -0.51180465446E+03 -0.10842909656E+04  0.12089602978E+04  0.50400001928E-02 0.  1.
</event>
<event>
 5   0  0.2550616E-04  0.1814656E+04  0.7818609E-02  0.8698544E-01
        2   -1    0    0  501    0  0.00000000000E+00  0.00000000000E+00  0.18130301307E+04  0.18130301307E+04  0.25500000920E-02 0. -1.
       -2   -1    0    0    0  501  0.00000000000E+00  0.00000000000E+00 -0.45407103906E+03  0.45407103906E+03  0.25500000920E-02 0.  1.
    10030    2    1    2    0    0  0.00000000000E+00  0.00000000000E+00  0.13589590917E+04  0.22671011698E+04  0.18146564141E+04 0.  0.
        1    1    3    3  502    0  0.81713722805E+03 -0.28254531965E+03  0.33574544429E+03  0.92750747194E+03  0.50400001928E-02 0. -1.
       -1    1    3    3    0  502 -0.81713722805E+03  0.28254531965E+03  0.10232136474E+04  0.13395936979E+04  0.50400001928E-02 0.  1.
</event>
<event>
 5   0  0.2569405E-04  0.1824614E+04  0.7818609E-02  0.8693318E-01
        2   -1    0    0  501    0  0.00000000000E+00  0.00000000000E+00  0.22702118876E+04  0.22702118876E+04  0.25500000920E-02 0. -1.
       -2   -1    0    0    0  501  0.00000000000E+00  0.00000000000E+00 -0.36661972290E+03  0.36661972291E+03  0.25500000920E-02 0.  1.
    10030    2    1    2    0    0  0.00000000000E+00  0.00000000000E+00  0.19035921647E+04  0.26368316106E+04  0.18246144285E+04 0.  0.
        2    1    3    3  502    0  0.61904844038E+03 -0.17362649316E+03  0.18871712110E+04  0.19936856097E+04  0.25500000920E-02 0. -1.
       -2    1    3    3    0  502 -0.61904844038E+03  0.17362649316E+03  0.16420953704E+02  0.64314600083E+03  0.25500000920E-02 0.  1.
</event>
<event>
 5   0  0.2393421E-04  0.1780187E+04  0.7818609E-02  0.8716907E-01
        2   -1    0    0  501    0  0.00000000000E+00  0.00000000000E+00  0.10021311946E+04  0.10021311946E+04  0.25500000920E-02 0. -1.
       -2   -1    0    0    0  501  0.00000000000E+00  0.00000000000E+00 -0.79058135359E+03  0.79058135359E+03  0.25500000920E-02 0.  1.
    10030    2    1    2    0    0  0.00000000000E+00  0.00000000000E+00  0.21154984096E+03  0.17927125482E+04  0.17801867725E+04 0.  0.
        5    1    3    3  502    0  0.50253212896E+03 -0.30874974970E+03  0.77708311549E+03  0.97557429597E+03  0.46999998093E+01 0. -1.
       -5    1    3    3    0  502 -0.50253212896E+03  0.30874974970E+03 -0.56553327453E+03  0.81713825218E+03  0.46999998093E+01 0.  1.
</event>
<event>
 5   0  0.1308893E-04  0.1807791E+04  0.7818609E-02  0.8702168E-01
       -1   -1    0    0    0  501  0.00000000000E+00  0.00000000000E+00  0.53307991965E+03  0.53307991968E+03  0.50400001928E-02 0. -1.
        1   -1    0    0  501    0  0.00000000000E+00  0.00000000000E+00 -0.15326531747E+04  0.15326531747E+04  0.50400001928E-02 0.  1.
    10030    2    1    2    0    0  0.00000000000E+00  0.00000000000E+00 -0.99957325504E+03  0.20657330944E+04  0.18077905092E+04 0.  0.
        4    1    3    3  502    0 -0.88085012077E+03 -0.20279926792E+03 -0.50062634951E+03  0.10332728744E+04  0.12699999809E+01 0. -1.
       -4    1    3    3    0  502  0.88085012077E+03  0.20279926792E+03 -0.49894690553E+03  0.10324602199E+04  0.12699999809E+01 0.  1.
</event>
<event>
 5   0  0.2550616E-04  0.1780328E+04  0.7818609E-02  0.8716831E-01
        2   -1    0    0  501    0  0.00000000000E+00  0.00000000000E+00  0.11483890581E+04  0.11483890581E+04  0.25500000920E-02 0.  1.
       -2   -1    0    0    0  501  0.00000000000E+00  0.00000000000E+00 -0.69000293033E+03  0.69000293034E+03  0.25500000920E-02 0. -1.
    10030    2    1    2    0    0  0.00000000000E+00  0.00000000000E+00  0.45838612775E+03  0.18383919884E+04  0.17803278521E+04 0.  0.
        1    1    3    3  502    0  0.45785480658E+02 -0.36290045889E+03  0.10672018799E+04  0.11281457822E+04  0.50400001928E-02 0.  1.
       -1    1    3    3    0  502 -0.45785480658E+02  0.36290045889E+03 -0.60881575220E+03  0.71024620622E+03  0.50400001928E-02 0. -1.
</event>
<event>
 5   0  0.1214723E-04  0.1805854E+04  0.7818609E-02  0.8703193E-01
       -1   -1    0    0    0  501  0.00000000000E+00  0.00000000000E+00  0.61292952759E+03  0.61292952761E+03  0.50400001928E-02 0.  1.
        1   -1    0    0  501    0  0.00000000000E+00  0.00000000000E+00 -0.13301314622E+04  0.13301314622E+04  0.50400001928E-02 0. -1.
    10030    2    1    2    0    0  0.00000000000E+00  0.00000000000E+00 -0.71720193456E+03  0.19430609898E+04  0.18058536472E+04 0.  0.
        1    1    3    3  502    0 -0.75328370408E+03 -0.49709129628E+03 -0.32931627857E+03  0.96072124314E+03  0.50400001928E-02 0. -1.
       -1    1    3    3    0  502  0.75328370408E+03  0.49709129628E+03 -0.38788565599E+03  0.98233974663E+03  0.50400001928E-02 0.  1.
</event>
<event>
 5   0  0.9144875E-05  0.1827569E+04  0.7818609E-02  0.8691775E-01
        4   -1    0    0  501    0  0.00000000000E+00  0.00000000000E+00  0.51790511316E+03  0.51790667029E+03  0.12699999809E+01 0.  1.
       -4   -1    0    0    0  501  0.00000000000E+00  0.00000000000E+00 -0.16122638398E+04  0.16122643400E+04  0.12699999809E+01 0. -1.
    10030    2    1    2    0    0  0.00000000000E+00  0.00000000000E+00 -0.10943587266E+04  0.21301710103E+04  0.18275687430E+04 0.  0.
        5    1    3    3  502    0 -0.96866734120E+02  0.50344304772E+02 -0.16046225506E+04  0.16083386873E+04  0.46999998093E+01 0. -1.
       -5    1    3    3    0  502  0.96866734120E+02 -0.50344304772E+02  0.51026382399E+03  0.52183232295E+03  0.46999998093E+01 0.  1.
</event>
<event>
 5   0  0.1214723E-04  0.1601579E+04  0.7818609E-02  0.8819579E-01
       -1   -1    0    0    0  501  0.00000000000E+00  0.00000000000E+00  0.16054598777E+04  0.16054598777E+04  0.50400001928E-02 0.  1.
        1   -1    0    0  501    0  0.00000000000E+00  0.00000000000E+00 -0.39942669254E+03  0.39942669257E+03  0.50400001928E-02 0. -1.
    10030    2    1    2    0    0  0.00000000000E+00  0.00000000000E+00  0.12060331852E+04  0.20048865703E+04  0.16015786325E+04 0.  0.
        1    1    3    3  502    0 -0.33525775972E+03  0.38449822574E+03  0.13757315996E+04  0.14672675575E+04  0.50400001928E-02 0.  1.
       -1    1    3    3    0  502  0.33525775972E+03 -0.38449822574E+03 -0.16969841443E+03  0.53761901281E+03  0.50400001928E-02 0. -1.
</event>
<event>
 5   0  0.1239119E-04  0.1820422E+04  0.7818609E-02  0.8695514E-01
        1   -1    0    0  501    0  0.00000000000E+00  0.00000000000E+00  0.49891516776E+03  0.49891516779E+03  0.50400001928E-02 0.  1.
       -1   -1    0    0    0  501  0.00000000000E+00  0.00000000000E+00 -0.16605701822E+04  0.16605701822E+04  0.50400001928E-02 0. -1.
    10030    2    1    2    0    0  0.00000000000E+00  0.00000000000E+00 -0.11616550144E+04  0.21594853499E+04  0.18204215457E+04 0.  0.
        5    1    3    3  502    0 -0.55054882954E+03  0.63747840602E+03 -0.17164869188E+03  0.85963253502E+03  0.46999998093E+01 0. -1.
       -5    1    3    3    0  502  0.55054882954E+03 -0.63747840602E+03 -0.99000632251E+03  0.12998528149E+04  0.46999998093E+01 0.  1.
</event>
<event>
 5   0  0.1253925E-04  0.1809802E+04  0.7818609E-02  0.8701104E-01
        1   -1    0    0  501    0  0.00000000000E+00  0.00000000000E+00  0.60240743605E+03  0.60240743607E+03  0.50400001928E-02 0. -1.
       -1   -1    0    0    0  501  0.00000000000E+00  0.00000000000E+00 -0.13592884581E+04  0.13592884581E+04  0.50400001928E-02 0.  1.
    10030    2    1    2    0    0  0.00000000000E+00  0.00000000000E+00 -0.75688102206E+03  0.19616958942E+04  0.18098016189E+04 0.  0.
        2    1    3    3  502    0 -0.23682567041E+03 -0.29644634281E+03 -0.12688987427E+04  0.13244133990E+04  0.25500000920E-02 0.  1.
       -2    1    3    3    0  502  0.23682567041E+03  0.29644634281E+03  0.51201772065E+03  0.63728249513E+03  0.25500000920E-02 0. -1.
</event>
<event>
 5   0  0.2550616E-04  0.1450769E+04  0.7818609E-02  0.8917868E-01
        2   -1    0    0  501    0  0.00000000000E+00  0.00000000000E+00  0.20424561792E+04  0.20424561792E+04  0.25500000920E-02 0. -1.
       -2   -1    0    0    0  501  0.00000000000E+00  0.00000000000E+00 -0.25762251994E+03  0.25762251995E+03  0.25500000920E-02 0.  1.
    10030    2    1    2    0    0  0.00000000000E+00  0.00000000000E+00  0.17848336593E+04  0.23000786992E+04  0.14507690481E+04 0.  0.
        1    1    3    3  502    0 -0.34629246464E+03  0.44214599952E+03  0.16455323323E+03  0.58522587311E+03  0.50400001928E-02 0.  1.
       -1    1    3    3    0  502  0.34629246464E+03 -0.44214599952E+03  0.16202804260E+04  0.17148528261E+04  0.50400001928E-02 0. -1.
</event>
<event>
 5   0  0.2431811E-04  0.1818844E+04  0.7818609E-02  0.8696342E-01
       -2   -1    0    0    0  501  0.00000000000E+00  0.00000000000E+00  0.52625004186E+03  0.52625004187E+03  0.25500000920E-02 0.  1.
        2   -1    0    0  501    0  0.00000000000E+00  0.00000000000E+00 -0.15715876700E+04  0.15715876700E+04  0.25500000920E-02 0. -1.
    10030    2    1    2    0    0  0.00000000000E+00  0.00000000000E+00 -0.10453376282E+04  0.20978377119E+04  0.18188436735E+04 0.  0.
        3    1    3    3  502    0  0.21220341187E+03 -0.39677068410E+03 -0.14342058253E+04  0.15031312728E+04  0.10100000352E+00 0. -1.
       -3    1    3    3    0  502 -0.21220341187E+03  0.39677068410E+03  0.38886819713E+03  0.59470643910E+03  0.10100000352E+00 0.  1.
</event>
<event>
 5   0  0.1214723E-04  0.1797203E+04  0.7818609E-02  0.8707788E-01
       -1   -1    0    0    0  501  0.00000000000E+00  0.00000000000E+00  0.65511069289E+03  0.65511069291E+03  0.50400001928E-02 0. -1.
        1   -1    0    0  501    0  0.00000000000E+00  0.00000000000E+00 -0.12325924404E+04  0.12325924404E+04  0.50400001928E-02 0.  1.
    10030    2    1    2    0    0  0.00000000000E+00  0.00000000000E+00 -0.57748174751E+03  0.18877031333E+04  0.17972028129E+04 0.  0.
        1    1    3    3  502    0 -0.40699942955E+03 -0.64940741554E+03  0.20403848597E+03  0.79310165224E+03  0.50400001928E-02 0.  1.
       -1    1    3    3    0  502  0.40699942955E+03  0.64940741554E+03 -0.78152023348E+03  0.10946014811E+04  0.50400001928E-02 0. -1.
</event>
<event>
 5   0  0.1253925E-04  0.1803760E+04  0.7818609E-02  0.8704302E-01
       -1   -1    0    0    0  501  0.00000000000E+00  0.00000000000E+00  0.13064286546E+04  0.13064286546E+04  0.50400001928E-02 0.  1.
        1   -1    0    0  501    0  0.00000000000E+00  0.00000000000E+00 -0.62260393830E+03  0.62260393832E+03  0.50400001928E-02 0. -1.
    10030    2    1    2    0    0  0.00000000000E+00  0.00000000000E+00  0.68382471629E+03  0.19290325929E+04  0.18037601010E+04 0.  0.
        2    1    3    3  502    0 -0.77493573093E+03  0.32187200915E+03  0.69541500963E+03  0.10898298092E+04  0.25500000920E-02 0.  1.
       -2    1    3    3    0  502  0.77493573093E+03 -0.32187200915E+03 -0.11590293345E+02  0.83920278375E+03  0.25500000920E-02 0. -1.
</event>
<event>
 5   0  0.9144875E-05  0.1818471E+04  0.7818609E-02  0.8696538E-01
        3   -1    0    0  501    0  0.00000000000E+00  0.00000000000E+00  0.65446514047E+03  0.65446514827E+03  0.10100000352E+00 0. -1.
       -3   -1    0    0    0  501  0.00000000000E+00  0.00000000000E+00 -0.12631833941E+04  0.12631833981E+04  0.10100000352E+00 0.  1.
    10030    2    1    2    0    0  0.00000000000E+00  0.00000000000E+00 -0.60871825359E+03  0.19176485464E+04  0.18184713457E+04 0.  0.
        3    1    3    3  502    0  0.87463503659E+03  0.24757947996E+03 -0.32616163500E+03  0.96574503285E+03  0.10100000352E+00 0. -1.
       -3    1    3    3    0  502 -0.87463503659E+03 -0.24757947996E+03 -0.28255661859E+03  0.95190351352E+03  0.10100000352E+00 0.  1.
</event>
<event>
 5   0  0.1308893E-04  0.1804644E+04  0.7818609E-02  0.8703834E-01
        1   -1    0    0  501    0  0.00000000000E+00  0.00000000000E+00  0.17179042994E+04  0.17179042994E+04  0.50400001928E-02 0.  1.
       -1   -1    0    0    0  501  0.00000000000E+00  0.00000000000E+00 -0.47394077770E+03  0.47394077773E+03  0.50400001928E-02 0. -1.
    10030    2    1    2    0    0  0.00000000000E+00  0.00000000000E+00  0.12439635217E+04  0.21918450771E+04  0.18046438981E+04 0.  0.
        4    1    3    3  502    0 -0.78940799769E+03 -0.37634902732E+03  0.89187537115E+03  0.12490984220E+04  0.12699999809E+01 0. -1.
       -4    1    3    3    0  502  0.78940799769E+03  0.37634902732E+03  0.35208815053E+03  0.94274665516E+03  0.12699999809E+01 0.  1.
</event>
<event>
 5   0  0.1253925E-04  0.1796869E+04  0.7818609E-02  0.8707966E-01
        1   -1    0    0  501    0  0.00000000000E+00  0.00000000000E+00  0.10205933093E+04  0.10205933093E+04  0.50400001928E-02 0. -1.
       -1   -1    0    0    0  501  0.00000000000E+00  0.00000000000E+00 -0.79089713955E+03  0.79089713956E+03  0.50400001928E-02 0.  1.
    10030    2    1    2    0    0  0.00000000000E+00  0.00000000000E+00  0.22969616972E+03  0.18114904488E+04  0.17968687531E+04 0.  0.
        2    1    3    3  502    0  0.64624549826E+02 -0.12283293908E+03 -0.78002361189E+03  0.79227589795E+03  0.25500000920E-02 0.  1.
       -2    1    3    3    0  502 -0.64624549826E+02  0.12283293908E+03  0.10097197816E+04  0.10192145509E+04  0.25500000920E-02 0. -1.
</event>
<event>
 5   0  0.1330225E-04  0.1795923E+04  0.7818609E-02  0.8708471E-01
       -1   -1    0    0    0  501  0.00000000000E+00  0.00000000000E+00  0.85668166725E+03  0.85668166726E+03  0.50400001928E-02 0.  1.
        1   -1    0    0  501    0  0.00000000000E+00  0.00000000000E+00 -0.94123054610E+03  0.94123054611E+03  0.50400001928E-02 0. -1.
    10030    2    1    2    0    0  0.00000000000E+00  0.00000000000E+00 -0.84548878850E+02  0.17979122134E+04  0.17959231092E+04 0.  0.
        3    1    3    3  502    0 -0.54518195408E+03 -0.34852809691E+03  0.58102235586E+03  0.86964486177E+03  0.10100000352E+00 0.  1.
       -3    1    3    3    0  502  0.54518195408E+03  0.34852809691E+03 -0.66557123471E+03  0.92826735161E+03  0.10100000352E+00 0. -1.
</event>
<event>
 5   0  0.2550616E-04  0.1768136E+04  0.7818609E-02  0.8723430E-01
        2   -1    0    0  501    0  0.00000000000E+00  0.00000000000E+00  0.83409269260E+03  0.83409269261E+03  0.25500000920E-02 0.  1.
       -2   -1    0    0    0  501  0.00000000000E+00  0.00000000000E+00 -0.93703730676E+03  0.93703730677E+03  0.25500000920E-02 0. -1.
    10030    2    1    2    0    0  0.00000000000E+00  0.00000000000E+00 -0.10294461416E+03  0.17711299994E+04  0.17681357078E+04 0.  0.
        1    1    3    3  502    0 -0.15160538087E+03  0.87096888166E+03 -0.49235608246E+02  0.88543499449E+03  0.50400001928E-02 0.  1.
       -1    1    3    3    0  502  0.15160538087E+03 -0.87096888166E+03 -0.53709005912E+02  0.88569500488E+03  0.50400001928E-02 0. -1.
</event>
<event>
 5   0  0.1239119E-04  0.1804801E+04  0.7818609E-02  0.8703751E-01
        1   -1    0    0  501    0  0.00000000000E+00  0.00000000000E+00  0.65887561648E+03  0.65887561650E+03  0.50400001928E-02 0.  1.
       -1   -1    0    0    0  501  0.00000000000E+00  0.00000000000E+00 -0.12359332428E+04  0.12359332429E+04  0.50400001928E-02 0. -1.
    10030    2    1    2    0    0  0.00000000000E+00  0.00000000000E+00 -0.57705762636E+03  0.18948088594E+04  0.18048005733E+04 0.  0.
        5    1    3    3  502    0 -0.35414190026E+03 -0.14256254750E+03 -0.11469640919E+04  0.12088379890E+04  0.46999998093E+01 0. -1.
       -5    1    3    3    0  502  0.35414190026E+03  0.14256254750E+03  0.56990646558E+03  0.68597087035E+03  0.46999998093E+01 0.  1.
</event>
<event>
 5   0  0.2569405E-04  0.1805984E+04  0.7818609E-02  0.8703124E-01
       -2   -1    0    0    0  501  0.00000000000E+00  0.00000000000E+00  0.80182843477E+03  0.80182843477E+03  0.25500000920E-02 0.  1.
        2   -1    0    0  501    0  0.00000000000E+00  0.00000000000E+00 -0.10169190830E+04  0.10169190830E+04  0.25500000920E-02 0. -1.
    10030    2    1    2    0    0  0.00000000000E+00  0.00000000000E+00 -0.21509064820E+03  0.18187475177E+04  0.18059840936E+04 0.  0.
        2    1    3    3  502    0  0.78401018349E+03 -0.20043765399E+02  0.34319004839E+03  0.85606841413E+03  0.25500000920E-02 0.  1.
       -2    1    3    3    0  502 -0.78401018349E+03  0.20043765399E+02 -0.55828069659E+03  0.96267910362E+03  0.25500000920E-02 0. -1.
</event>
<event>
 5   0  0.1253925E-04  0.1792209E+04  0.7818609E-02  0.8710454E-01
       -1   -1    0    0    0  501  0.00000000000E+00  0.00000000000E+00  0.59973349405E+03  0.59973349407E+03  0.50400001928E-02 0.  1.
        1   -1    0    0  501    0  0.00000000000E+00  0.00000000000E+00 -0.13389335816E+04  0.13389335816E+04  0.50400001928E-02 0. -1.
    10030    2    1    2    0    0  0.00000000000E+00  0.00000000000E+00 -0.73920008758E+03  0.19386670757E+04  0.17922090450E+04 0.  0.
        2    1    3    3  502    0 -0.81530327263E+03 -0.29943664619E+03 -0.60812241635E+03  0.10602804368E+04  0.25500000920E-02 0. -1.
       -2    1    3    3    0  502  0.81530327263E+03  0.29943664619E+03 -0.13107767123E+03  0.87838663887E+03  0.25500000920E-02 0.  1.
</event>
<event>
 5   0  0.2431811E-04  0.1810182E+04  0.7818609E-02  0.8700904E-01
       -2   -1    0    0    0  501  0.00000000000E+00  0.00000000000E+00  0.75607042713E+03  0.75607042714E+03  0.25500000920E-02 0.  1.
        2   -1    0    0  501    0  0.00000000000E+00  0.00000000000E+00 -0.10834830769E+04  0.10834830769E+04  0.25500000920E-02 0. -1.
    10030    2    1    2    0    0  0.00000000000E+00  0.00000000000E+00 -0.32741264972E+03  0.18395535040E+04  0.18101817729E+04 0.  0.
        3    1    3    3  502    0 -0.29206134474E+03  0.57785783755E+03  0.47898722541E+03  0.80538703852E+03  0.10100000352E+00 0.  1.
       -3    1    3    3    0  502  0.29206134474E+03 -0.57785783755E+03 -0.80639987513E+03  0.10341664655E+04  0.10100000352E+00 0. -1.
</event>
<event>
 5   0  0.1214723E-04  0.1785907E+04  0.7818609E-02  0.8713830E-01
        1   -1    0    0  501    0  0.00000000000E+00  0.00000000000E+00  0.10275829788E+04  0.10275829788E+04  0.50400001928E-02 0.  1.
       -1   -1    0    0    0  501  0.00000000000E+00  0.00000000000E+00 -0.77596274903E+03  0.77596274905E+03  0.50400001928E-02 0. -1.
    10030    2    1    2    0    0  0.00000000000E+00  0.00000000000E+00  0.25162022978E+03  0.18035457279E+04  0.17859071791E+04 0.  0.
        1    1    3    3  502    0  0.58948692967E+03  0.32897867284E+03 -0.46446621490E+03  0.81942093715E+03  0.50400001928E-02 0. -1.
       -1    1    3    3    0  502 -0.58948692967E+03 -0.32897867284E+03  0.71608644467E+03  0.98412479071E+03  0.50400001928E-02 0.  1.
</event>
<event>
 5   0  0.2431811E-04  0.1734889E+04  0.7818609E-02  0.8741712E-01
       -2   -1    0    0    0  501  0.00000000000E+00  0.00000000000E+00  0.50833984828E+03  0.50833984829E+03  0.25500000920E-02 0. -1.
        2   -1    0    0  501    0  0.00000000000E+00  0.00000000000E+00 -0.14802305725E+04  0.14802305725E+04  0.25500000920E-02 0.  1.
    10030    2    1    2    0    0  0.00000000000E+00  0.00000000000E+00 -0.97189072418E+03  0.19885704208E+04  0.17348892583E+04 0.  0.
        3    1    3    3  502    0  0.44790603851E+03  0.57815851261E+03 -0.10205981138E+04  0.12555905404E+04  0.10100000352E+00 0.  1.
       -3    1    3    3    0  502 -0.44790603851E+03 -0.57815851261E+03  0.48707389584E+02  0.73297988038E+03  0.10100000352E+00 0. -1.
</event>
<event>
 5   0  0.1330225E-04  0.1835953E+04  0.7818609E-02  0.8687410E-01
        1   -1    0    0  501    0  0.00000000000E+00  0.00000000000E+00  0.76223295583E+03  0.76223295584E+03  0.50400001928E-02 0. -1.
       -1   -1    0    0    0  501  0.00000000000E+00  0.00000000000E+00 -0.11055425790E+04  0.11055425790E+04  0.50400001928E-02 0.  1.
    10030    2    1    2    0    0  0.00000000000E+00  0.00000000000E+00 -0.34330962320E+03  0.18677755349E+04  0.18359531452E+04 0.  0.
        3    1    3    3  502    0  0.15604194889E+03 -0.89232818297E+03 -0.20477973223E+02  0.90610045443E+03  0.10100000352E+00 0.  1.
       -3    1    3    3    0  502 -0.15604194889E+03  0.89232818297E+03 -0.32283164998E+03  0.96167508045E+03  0.10100000352E+00 0. -1.
</event>
<event>
 5   0  0.1239119E-04  0.1789992E+04  0.7818609E-02  0.8711640E-01
       -1   -1    0    0    0  501  0.00000000000E+00  0.00000000000E+00  0.64367942598E+03  0.64367942600E+03  0.50400001928E-02 0.  1.
        1   -1    0    0  501    0  0.00000000000E+00  0.00000000000E+00 -0.12444357579E+04  0.12444357579E+04  0.50400001928E-02 0. -1.
    10030    2    1    2    0    0  0.00000000000E+00  0.00000000000E+00 -0.60075633191E+03  0.18881151839E+04  0.17899918372E+04 0.  0.
        5    1    3    3  502    0  0.55055631536E+03 -0.14259181046E+03 -0.10293106071E+04  0.11759877111E+04  0.46999998093E+01 0. -1.
       -5    1    3    3    0  502 -0.55055631536E+03  0.14259181046E+03  0.42855427517E+03  0.71212747282E+03  0.46999998093E+01 0.  1.
</event>
<event>
 5   0  0.1330225E-04  0.1795811E+04  0.7818609E-02  0.8708530E-01
        1   -1    0    0  501    0  0.00000000000E+00  0.00000000000E+00  0.13180563639E+04  0.13180563639E+04  0.50400001928E-02 0.  1.
       -1   -1    0    0    0  501  0.00000000000E+00  0.00000000000E+00 -0.61168417357E+03  0.61168417359E+03  0.50400001928E-02 0. -1.
    10030    2    1    2    0    0  0.00000000000E+00  0.00000000000E+00  0.70637219029E+03  0.19297405375E+04  0.17958109229E+04 0.  0.
        3    1    3    3  502    0  0.37889613435E+03  0.53522190640E+02 -0.51967848361E+03  0.64536241140E+03  0.10100000352E+00 0. -1.
       -3    1    3    3    0  502 -0.37889613435E+03 -0.53522190640E+02  0.12260506739E+04  0.12843781261E+04  0.10100000352E+00 0.  1.
</event>
<event>
 5   0  0.2393421E-04  0.1752521E+04  0.7818609E-02  0.8731964E-01
        2   -1    0    0  501    0  0.00000000000E+00  0.00000000000E+00  0.10736286725E+04  0.10736286725E+04  0.25500000920E-02 0. -1.
       -2   -1    0    0    0  501  0.00000000000E+00  0.00000000000E+00 -0.71517523333E+03  0.71517523333E+03  0.25500000920E-02 0.  1.
    10030    2    1    2    0    0  0.00000000000E+00  0.00000000000E+00  0.35845343918E+03  0.17888039058E+04  0.17525211969E+04 0.  0.
        5    1    3    3  502    0  0.29866835743E+02  0.10394802645E+03  0.10667768685E+04  0.10722556586E+04  0.46999998093E+01 0. -1.
       -5    1    3    3    0  502 -0.29866835743E+02 -0.10394802645E+03 -0.70832342937E+03  0.71654824727E+03  0.46999998093E+01 0.  1.
</event>
<event>
 5   0  0.2550616E-04  0.1785824E+04  0.7818609E-02  0.8713874E-01
        2   -1    0    0  501    0  0.00000000000E+00  0.00000000000E+00  0.13365724861E+04  0.13365724861E+04  0.25500000920E-02 0.  1.
       -2   -1    0    0    0  501  0.00000000000E+00  0.00000000000E+00 -0.59651993179E+03  0.59651993180E+03  0.25500000920E-02 0. -1.
    10030    2    1    2    0    0  0.00000000000E+00  0.00000000000E+00  0.74005255432E+03  0.19330924179E+04  0.17858243231E+04 0.  0.
        1    1    3    3  502    0 -0.87169035504E+03 -0.18167722907E+03  0.44216619881E+03  0.99416378833E+03  0.50400001928E-02 0.  1.
       -1    1    3    3    0  502  0.87169035504E+03  0.18167722907E+03  0.29788635551E+03  0.93892862958E+03  0.50400001928E-02 0. -1.
</event>
<event>
 5   0  0.2550616E-04  0.1793190E+04  0.7818609E-02  0.8709929E-01
        2   -1    0    0  501    0  0.00000000000E+00  0.00000000000E+00  0.10832600396E+04  0.10832600396E+04  0.25500000920E-02 0. -1.
       -2   -1    0    0    0  501  0.00000000000E+00  0.00000000000E+00 -0.74209597825E+03  0.74209597825E+03  0.25500000920E-02 0.  1.
    10030    2    1    2    0    0  0.00000000000E+00  0.00000000000E+00  0.34116406134E+03  0.18253560178E+04  0.17931903622E+04 0.  0.
        1    1    3    3  502    0 -0.47468698057E+03 -0.65549334113E+03 -0.22219376516E+03  0.83926713214E+03  0.50400001928E-02 0.  1.
       -1    1    3    3    0  502  0.47468698057E+03  0.65549334113E+03  0.56335782650E+03  0.98608888570E+03  0.50400001928E-02 0. -1.
</event>
<event>
 5   0  0.1253925E-04  0.1818988E+04  0.7818609E-02  0.8696267E-01
       -1   -1    0    0    0  501  0.00000000000E+00  0.00000000000E+00  0.11842175919E+04  0.11842175919E+04  0.50400001928E-02 0. -1.
        1   -1    0    0  501    0  0.00000000000E+00  0.00000000000E+00 -0.69850262501E+03  0.69850262503E+03  0.50400001928E-02 0.  1.
    10030    2    1    2    0    0  0.00000000000E+00  0.00000000000E+00  0.48571496690E+03  0.18827202169E+04  0.18189877367E+04 0.  0.
        2    1    3    3  502    0  0.65743523954E+03  0.54664281109E+03 -0.78070257844E+02  0.85856532790E+03  0.25500000920E-02 0. -1.
       -2    1    3    3    0  502 -0.65743523954E+03 -0.54664281109E+03  0.56378522475E+03  0.10241548890E+04  0.25500000920E-02 0.  1.
</event>
<event>
 5   0  0.2393421E-04  0.1810035E+04  0.7818609E-02  0.8700981E-01
        2   -1    0    0  501    0  0.00000000000E+00  0.00000000000E+00  0.14083348962E+04  0.14083348962E+04  0.25500000920E-02 0. -1.
       -2   -1    0    0    0  501  0.00000000000E+00  0.00000000000E+00 -0.58157836920E+03  0.58157836921E+03  0.25500000920E-02 0.  1.
    10030    2    1    2    0    0  0.00000000000E+00  0.00000000000E+00  0.82675652697E+03  0.19899132654E+04  0.18100354828E+04 0.  0.
        5    1    3    3  502    0  0.53692189323E+03  0.64175602390E+03  0.79246305201E+03  0.11524563733E+04  0.46999998093E+01 0. -1.
       -5    1    3    3    0  502 -0.53692189323E+03 -0.64175602390E+03  0.34293474966E+02  0.83745689206E+03  0.46999998093E+01 0.  1.
</event>
<event>
 5   0  0.2569405E-04  0.1808720E+04  0.7818609E-02  0.8701676E-01
        2   -1    0    0  501    0  0.00000000000E+00  0.00000000000E+00  0.19267641740E+04  0.19267641740E+04  0.25500000920E-02 0. -1.
       -2   -1    0    0    0  501  0.00000000000E+00  0.00000000000E+00 -0.42447692423E+03  0.42447692424E+03  0.25500000920E-02 0.  1.
    10030    2    1    2    0    0  0.00000000000E+00  0.00000000000E+00  0.15022872498E+04  0.23512410983E+04  0.18087199123E+04 0.  0.
        2    1    3    3  502    0  0.12875061950E+03  0.86009101383E+03  0.42867890606E+03  0.96958696288E+03  0.25500000920E-02 0. -1.
       -2    1    3    3    0  502 -0.12875061950E+03 -0.86009101383E+03  0.10736083438E+04  0.13816541354E+04  0.25500000920E-02 0.  1.
</event>
<event>
 5   0  0.1239119E-04  0.1769819E+04  0.7818609E-02  0.8722516E-01
        1   -1    0    0  501    0  0.00000000000E+00  0.00000000000E+00  0.61715339978E+03  0.61715339980E+03  0.50400001928E-02 0. -1.
       -1   -1    0    0    0  501  0.00000000000E+00  0.00000000000E+00 -0.12688338648E+04  0.12688338648E+04  0.50400001928E-02 0.  1.
    10030    2    1    2    0    0  0.00000000000E+00  0.00000000000E+00 -0.65168046498E+03  0.18859872646E+04  0.17698193506E+04 0.  0.
        5    1    3    3  502    0  0.80167555687E+03  0.31437127990E+02 -0.72366892785E+03  0.10804586057E+04  0.46999998093E+01 0.  1.
       -5    1    3    3    0  502 -0.80167555687E+03 -0.31437127990E+02  0.71988462868E+02  0.80552865888E+03  0.46999998093E+01 0. -1.
</event>
<event>
 5   0  0.1308893E-04  0.1805641E+04  0.7818609E-02  0.8703306E-01
       -1   -1    0    0    0  501  0.00000000000E+00  0.00000000000E+00  0.14557463667E+04  0.14557463667E+04  0.50400001928E-02 0.  1.
        1   -1    0    0  501    0  0.00000000000E+00  0.00000000000E+00 -0.55990832265E+03  0.55990832267E+03  0.50400001928E-02 0. -1.
    10030    2    1    2    0    0  0.00000000000E+00  0.00000000000E+00  0.89583804409E+03  0.20156546894E+04  0.18056406137E+04 0.  0.
        4    1    3    3  502    0  0.75864119029E+03  0.48650508775E+03  0.38822787347E+03  0.98129819660E+03  0.12699999809E+01 0. -1.
       -4    1    3    3    0  502 -0.75864119029E+03 -0.48650508775E+03  0.50761017062E+03  0.10343564928E+04  0.12699999809E+01 0.  1.
</event>
<event>
 5   0  0.1330225E-04  0.1809277E+04  0.7818609E-02  0.8701382E-01
        1   -1    0    0  501    0  0.00000000000E+00  0.00000000000E+00  0.80443380771E+03  0.80443380773E+03  0.50400001928E-02 0.  1.
       -1   -1    0    0    0  501  0.00000000000E+00  0.00000000000E+00 -0.10173248050E+04  0.10173248050E+04  0.50400001928E-02 0. -1.
    10030    2    1    2    0    0  0.00000000000E+00  0.00000000000E+00 -0.21289099728E+03  0.18217586127E+04  0.18092766141E+04 0.  0.
        3    1    3    3  502    0  0.80605347403E+03 -0.86501468397E+02  0.29777863379E+03  0.86364161084E+03  0.10100000352E+00 0.  1.
       -3    1    3    3    0  502 -0.80605347403E+03  0.86501468397E+02 -0.51066963108E+03  0.95811700190E+03  0.10100000352E+00 0. -1.
</event>
<event>
 5   0  0.1239119E-04  0.1797679E+04  0.7818609E-02  0.8707535E-01
       -1   -1    0    0    0  501  0.00000000000E+00  0.00000000000E+00  0.69910443180E+03  0.69910443182E+03  0.50400001928E-02 0.  1.
        1   -1    0    0  501    0  0.00000000000E+00  0.00000000000E+00 -0.11556391616E+04  0.11556391616E+04  0.50400001928E-02 0. -1.
    10030    2    1    2    0    0  0.00000000000E+00  0.00000000000E+00 -0.45653472983E+03  0.18547435935E+04  0.17976790142E+04 0.  0.
        5    1    3    3  502    0  0.67720622207E+03 -0.13192067480E+03 -0.82264388128E+03  0.10736742416E+04  0.46999998093E+01 0. -1.
       -5    1    3    3    0  502 -0.67720622207E+03  0.13192067480E+03  0.36610915145E+03  0.78106935186E+03  0.46999998093E+01 0.  1.
</event>
<event>
 5   0  0.2569405E-04  0.1827800E+04  0.7818609E-02  0.8691654E-01
       -2   -1    0    0    0  501  0.00000000000E+00  0.00000000000E+00  0.69994873118E+03  0.69994873119E+03  0.25500000920E-02 0.  1.
        2   -1    0    0  501    0  0.00000000000E+00  0.00000000000E+00 -0.11932494413E+04  0.11932494413E+04  0.25500000920E-02 0. -1.
    10030    2    1    2    0    0  0.00000000000E+00  0.00000000000E+00 -0.49330071011E+03  0.18931981725E+04  0.18278002434E+04 0.  0.
        2    1    3    3  502    0 -0.43605521338E+03  0.61637151026E+03  0.28670617955E+03  0.80762517369E+03  0.25500000920E-02 0.  1.
       -2    1    3    3    0  502  0.43605521338E+03 -0.61637151026E+03 -0.78000688966E+03  0.10855729988E+04  0.25500000920E-02 0. -1.
</event>
<event>
 5   0  0.2569405E-04  0.1785552E+04  0.7818609E-02  0.8714021E-01
        2   -1    0    0  501    0  0.00000000000E+00  0.00000000000E+00  0.11559964574E+04  0.11559964574E+04  0.25500000920E-02 0. -1.
       -2   -1    0    0    0  501  0.00000000000E+00  0.00000000000E+00 -0.68949091611E+03  0.68949091611E+03  0.25500000920E-02 0.  1.
    10030    2    1    2    0    0  0.00000000000E+00  0.00000000000E+00  0.46650554125E+03  0.18454873735E+04  0.17855520787E+04 0.  0.
        2    1    3    3  502    0  0.45564194998E+03  0.29247652851E+03  0.96693740108E+03  0.11082057769E+04  0.25500000920E-02 0. -1.
       -2    1    3    3    0  502 -0.45564194998E+03 -0.29247652851E+03 -0.50043185983E+03  0.73728159658E+03  0.25500000920E-02 0.  1.
</event>
<event>
 5   0  0.1308893E-04  0.1795277E+04  0.7818609E-02  0.8708815E-01
        1   -1    0    0  501    0  0.00000000000E+00  0.00000000000E+00  0.72814714504E+03  0.72814714506E+03  0.50400001928E-02 0.  1.
       -1   -1    0    0    0  501  0.00000000000E+00  0.00000000000E+00 -0.11065822436E+04  0.11065822436E+04  0.50400001928E-02 0. -1.
    10030    2    1    2    0    0  0.00000000000E+00  0.00000000000E+00 -0.37843509852E+03  0.18347293886E+04  0.17952768048E+04 0.  0.
        4    1    3    3  502    0  0.23351996296E+02  0.78698342313E+03  0.25137712928E+03  0.82648671982E+03  0.12699999809E+01 0.  1.
       -4    1    3    3    0  502 -0.23351996296E+02 -0.78698342313E+03 -0.62981222780E+03  0.10082426688E+04  0.12699999809E+01 0. -1.
</event>
<event>
 5   0  0.1214723E-04  0.1787726E+04  0.7818609E-02  0.8712854E-01
        1   -1    0    0  501    0  0.00000000000E+00  0.00000000000E+00  0.54904498921E+03  0.54904498923E+03  0.50400001928E-02 0.  1.
       -1   -1    0    0    0  501  0.00000000000E+00  0.00000000000E+00 -0.14552382387E+04  0.14552382387E+04  0.50400001928E-02 0. -1.
    10030    2    1    2    0    0  0.00000000000E+00  0.00000000000E+00 -0.90619324948E+03  0.20042832279E+04  0.17877262241E+04 0.  0.
        1    1    3    3  502    0 -0.23565017181E+03 -0.83393360197E+03 -0.20742976182E+03  0.89106866295E+03  0.50400001928E-02 0.  1.
       -1    1    3    3    0  502  0.23565017181E+03  0.83393360197E+03 -0.69876348766E+03  0.11132145650E+04  0.50400001928E-02 0. -1.
</event>
<event>
 5   0  0.1214723E-04  0.1815145E+04  0.7818609E-02  0.8698287E-01
       -1   -1    0    0    0  501  0.00000000000E+00  0.00000000000E+00  0.65050355040E+03  0.65050355042E+03  0.50400001928E-02 0.  1.
        1   -1    0    0  501    0  0.00000000000E+00  0.00000000000E+00 -0.12662308945E+04  0.12662308945E+04  0.50400001928E-02 0. -1.
    10030    2    1    2    0    0  0.00000000000E+00  0.00000000000E+00 -0.61572734413E+03  0.19167344450E+04  0.18151448345E+04 0.  0.
        1    1    3    3  502    0 -0.29344667940E+03  0.44641438758E+03 -0.10826094102E+04  0.12072447532E+04  0.50400001928E-02 0. -1.
       -1    1    3    3    0  502  0.29344667940E+03 -0.44641438758E+03  0.46688206606E+03  0.70948969176E+03  0.50400001928E-02 0.  1.
</event>
<event>
 5   0  0.9144875E-05  0.1779032E+04  0.7818609E-02  0.8717530E-01
       -3   -1    0    0    0  501  0.00000000000E+00  0.00000000000E+00  0.58022498898E+03  0.58022499777E+03  0.10100000352E+00 0. -1.
        3   -1    0    0  501    0  0.00000000000E+00  0.00000000000E+00 -0.13636750670E+04  0.13636750708E+04  0.10100000352E+00 0.  1.
    10030    2    1    2    0    0  0.00000000000E+00  0.00000000000E+00 -0.78345007807E+03  0.19439000685E+04  0.17790316050E+04 0.  0.
        5    1    3    3  502    0 -0.55743043198E+03  0.34188647581E+03 -0.10505999035E+04  0.12374963822E+04  0.46999998093E+01 0.  1.
       -5    1    3    3    0  502  0.55743043198E+03 -0.34188647581E+03  0.26714982541E+03  0.70640368633E+03  0.46999998093E+01 0. -1.
</event>
<event>
 5   0  0.1239119E-04  0.1608273E+04  0.7818609E-02  0.8815482E-01
       -1   -1    0    0    0  501  0.00000000000E+00  0.00000000000E+00  0.43648850061E+03  0.43648850064E+03  0.50400001928E-02 0. -1.
        1   -1    0    0  501    0  0.00000000000E+00  0.00000000000E+00 -0.14814488985E+04  0.14814488985E+04  0.50400001928E-02 0.  1.
    10030    2    1    2    0    0  0.00000000000E+00  0.00000000000E+00 -0.10449603979E+04  0.19179373991E+04  0.16082728730E+04 0.  0.
        5    1    3    3  502    0  0.49497502884E+03  0.51737148272E+03 -0.95892517133E+03  0.11967594180E+04  0.46999998093E+01 0. -1.
       -5    1    3    3    0  502 -0.49497502884E+03 -0.51737148272E+03 -0.86035226550E+02  0.72117798116E+03  0.46999998093E+01 0.  1.
</event>
<event>
 5   0  0.2417106E-04  0.1809793E+04  0.7818609E-02  0.8701109E-01
        2   -1    0    0  501    0  0.00000000000E+00  0.00000000000E+00  0.10325664934E+04  0.10325664934E+04  0.25500000920E-02 0.  1.
       -2   -1    0    0    0  501  0.00000000000E+00  0.00000000000E+00 -0.79301192593E+03  0.79301192594E+03  0.25500000920E-02 0. -1.
    10030    2    1    2    0    0  0.00000000000E+00  0.00000000000E+00  0.23955456745E+03  0.18255784193E+04  0.18097928540E+04 0.  0.
        4    1    3    3  502    0 -0.95096636286E+01  0.48640826686E+03 -0.64986692469E+03  0.81179558294E+03  0.12699999809E+01 0. -1.
       -4    1    3    3    0  502  0.95096636286E+01 -0.48640826686E+03  0.88942149214E+03  0.10137828364E+04  0.12699999809E+01 0.  1.
</event>
<event>
 5   0  0.2431811E-04  0.1799353E+04  0.7818609E-02  0.8706644E-01
        2   -1    0    0  501    0  0.00000000000E+00  0.00000000000E+00  0.15278222030E+04  0.15278222030E+04  0.25500000920E-02 0. -1.
       -2   -1    0    0    0  501  0.00000000000E+00  0.00000000000E+00 -0.52978542489E+03  0.52978542489E+03  0.25500000920E-02 0.  1.
    10030    2    1    2    0    0  0.00000000000E+00  0.00000000000E+00  0.99803677807E+03  0.20576076279E+04  0.17993531448E+04 0.  0.
        3    1    3    3  502    0  0.73439284315E+03  0.44598024679E+03  0.80412075305E+03  0.11767928553E+04  0.10100000352E+00 0.  1.
       -3    1    3    3    0  502 -0.73439284315E+03 -0.44598024679E+03  0.19391602502E+03  0.88081477256E+03  0.10100000352E+00 0. -1.
</event>
<event>
 5   0  0.2550616E-04  0.1798914E+04  0.7818609E-02  0.8706877E-01
       -2   -1    0    0    0  501  0.00000000000E+00  0.00000000000E+00  0.10863424025E+04  0.10863424025E+04  0.25500000920E-02 0. -1.
        2   -1    0    0  501    0  0.00000000000E+00  0.00000000000E+00 -0.74472160158E+03  0.74472160159E+03  0.25500000920E-02 0.  1.
    10030    2    1    2    0    0  0.00000000000E+00  0.00000000000E+00  0.34162080092E+03  0.18310640041E+04  0.17989137321E+04 0.  0.
        1    1    3    3  502    0  0.13120081514E+03  0.17346080058E+03 -0.71755363339E+03  0.74979031739E+03  0.50400001928E-02 0.  1.
       -1    1    3    3    0  502 -0.13120081514E+03 -0.17346080058E+03  0.10591744343E+04  0.10812736867E+04  0.50400001928E-02 0. -1.
</event>
<event>
 5   0  0.2431811E-04  0.1750874E+04  0.7818609E-02  0.8732869E-01
        2   -1    0    0  501    0  0.00000000000E+00  0.00000000000E+00  0.64726766201E+03  0.64726766202E+03  0.25500000920E-02 0. -1.
       -2   -1    0    0    0  501  0.00000000000E+00  0.00000000000E+00 -0.11840392445E+04  0.11840392445E+04  0.25500000920E-02 0.  1.
    10030    2    1    2    0    0  0.00000000000E+00  0.00000000000E+00 -0.53677158247E+03  0.18313069065E+04  0.17508744256E+04 0.  0.
        3    1    3    3  502    0  0.60627257279E+02  0.37264429861E+03  0.55774065498E+03  0.67350878690E+03  0.10100000352E+00 0. -1.
       -3    1    3    3    0  502 -0.60627257279E+02 -0.37264429861E+03 -0.10945122375E+04  0.11577981196E+04  0.10100000352E+00 0.  1.
</event>
<event>
 5   0  0.2393421E-04  0.1919444E+04  0.7818609E-02  0.8645238E-01
       -2   -1    0    0    0  501  0.00000000000E+00  0.00000000000E+00  0.44580528780E+03  0.44580528781E+03  0.25500000920E-02 0. -1.
        2   -1    0    0  501    0  0.00000000000E+00  0.00000000000E+00 -0.20660725863E+04  0.20660725863E+04  0.25500000920E-02 0.  1.
    10030    2    1    2    0    0  0.00000000000E+00  0.00000000000E+00 -0.16202672985E+04  0.25118778741E+04  0.19194437569E+04 0.  0.
        5    1    3    3  502    0 -0.86480807705E+03 -0.23717515855E+03 -0.12575670426E+04  0.15445523697E+04  0.46999998093E+01 0.  1.
       -5    1    3    3    0  502  0.86480807705E+03  0.23717515855E+03 -0.36270025590E+03  0.96732550446E+03  0.46999998093E+01 0. -1.
</event>
<event>
 5   0  0.2393421E-04  0.1871551E+04  0.7818609E-02  0.8669148E-01
        2   -1    0    0  501    0  0.00000000000E+00  0.00000000000E+00  0.59614612597E+03  0.59614612598E+03  0.25500000920E-02 0. -1.
       -2   -1    0    0    0  501  0.00000000000E+00  0.00000000000E+00 -0.14688950563E+04  0.14688950563E+04  0.25500000920E-02 0.  1.
    10030    2    1    2    0    0  0.00000000000E+00  0.00000000000E+00 -0.87274893032E+03  0.20650411823E+04  0.18715513322E+04 0.  0.
        5    1    3    3  502    0 -0.38394223862E+03  0.47417844662E+02  0.50376755334E+03  0.63518810787E+03  0.46999998093E+01 0. -1.
       -5    1    3    3    0  502  0.38394223862E+03 -0.47417844662E+02 -0.13765164837E+04  0.14298530744E+04  0.46999998093E+01 0.  1.
</event>
<event>
 5   0  0.1214723E-04  0.1810618E+04  0.7818609E-02  0.8700673E-01
        1   -1    0    0  501    0  0.00000000000E+00  0.00000000000E+00  0.47391680338E+03  0.47391680340E+03  0.50400001928E-02 0.  1.
       -1   -1    0    0    0  501  0.00000000000E+00  0.00000000000E+00 -0.17293843722E+04  0.17293843722E+04  0.50400001928E-02 0. -1.
    10030    2    1    2    0    0  0.00000000000E+00  0.00000000000E+00 -0.12554675688E+04  0.22033011756E+04  0.18106179205E+04 0.  0.
        1    1    3    3  502    0  0.51085622960E+03  0.73109926262E+03 -0.81666010269E+03  0.12093030813E+04  0.50400001928E-02 0.  1.
       -1    1    3    3    0  502 -0.51085622960E+03 -0.73109926262E+03 -0.43880746616E+03  0.99399809432E+03  0.50400001928E-02 0. -1.
</event>
<event>
 5   0  0.2550616E-04  0.1792717E+04  0.7818609E-02  0.8710182E-01
       -2   -1    0    0    0  501  0.00000000000E+00  0.00000000000E+00  0.60230264911E+03  0.60230264912E+03  0.25500000920E-02 0.  1.
        2   -1    0    0  501    0  0.00000000000E+00  0.00000000000E+00 -0.13339785002E+04  0.13339785002E+04  0.25500000920E-02 0. -1.
    10030    2    1    2    0    0  0.00000000000E+00  0.00000000000E+00 -0.73167585106E+03  0.19362811493E+04  0.17927172499E+04 0.  0.
        1    1    3    3  502    0  0.16069499111E+03  0.21002428286E+03  0.55921011753E+03  0.61858631987E+03  0.50400001928E-02 0.  1.
       -1    1    3    3    0  502 -0.16069499111E+03 -0.21002428286E+03 -0.12908859686E+04  0.13176948294E+04  0.50400001928E-02 0. -1.
</event>
<event>
 5   0  0.1330225E-04  0.1802827E+04  0.7818609E-02  0.8704798E-01
        1   -1    0    0  501    0  0.00000000000E+00  0.00000000000E+00  0.12295716065E+04  0.12295716065E+04  0.50400001928E-02 0.  1.
       -1   -1    0    0    0  501  0.00000000000E+00  0.00000000000E+00 -0.66083684011E+03  0.66083684013E+03  0.50400001928E-02 0. -1.
    10030    2    1    2    0    0  0.00000000000E+00  0.00000000000E+00  0.56873476641E+03  0.18904084467E+04  0.18028269081E+04 0.  0.
        3    1    3    3  502    0  0.68161751405E+03  0.46455075169E+03 -0.96797429002E+02  0.83052970375E+03  0.10100000352E+00 0. -1.
       -3    1    3    3    0  502 -0.68161751405E+03 -0.46455075169E+03  0.66553219541E+03  0.10598787429E+04  0.10100000352E+00 0.  1.
</event>
<event>
 5   0  0.1253925E-04  0.1789804E+04  0.7818609E-02  0.8711741E-01
       -1   -1    0    0    0  501  0.00000000000E+00  0.00000000000E+00  0.12544157480E+04  0.12544157480E+04  0.50400001928E-02 0. -1.
        1   -1    0    0  501    0  0.00000000000E+00  0.00000000000E+00 -0.63842405009E+03  0.63842405011E+03  0.50400001928E-02 0.  1.
    10030    2    1    2    0    0  0.00000000000E+00  0.00000000000E+00  0.61599169789E+03  0.18928397981E+04  0.17898035449E+04 0.  0.
        2    1    3    3  502    0  0.29163316927E+03  0.11785396020E+02  0.12026640107E+04  0.12375740477E+04  0.25500000920E-02 0. -1.
       -2    1    3    3    0  502 -0.29163316927E+03 -0.11785396020E+02 -0.58667231281E+03  0.65526575037E+03  0.25500000920E-02 0.  1.
</event>
<event>
 5   0  0.1308893E-04  0.1786074E+04  0.7818609E-02  0.8713740E-01
        1   -1    0    0  501    0  0.00000000000E+00  0.00000000000E+00  0.60596971230E+03  0.60596971232E+03  0.50400001928E-02 0. -1.
       -1   -1    0    0    0  501  0.00000000000E+00  0.00000000000E+00 -0.13160978165E+04  0.13160978165E+04  0.50400001928E-02 0.  1.
    10030    2    1    2    0    0  0.00000000000E+00  0.00000000000E+00 -0.71012810419E+03  0.19220675288E+04  0.17860743716E+04 0.  0.
        4    1    3    3  502    0 -0.48404333823E+03 -0.71680041814E+03 -0.11584830984E+03  0.87265298746E+03  0.12699999809E+01 0. -1.
       -4    1    3    3    0  502  0.48404333823E+03  0.71680041814E+03 -0.59427979435E+03  0.10494145414E+04  0.12699999809E+01 0.  1.
</event>
<event>
 5   0  0.2417106E-04  0.1827305E+04  0.7818609E-02  0.8691912E-01
        2   -1    0    0  501    0  0.00000000000E+00  0.00000000000E+00  0.97618294276E+03  0.97618294277E+03  0.25500000920E-02 0. -1.
       -2   -1    0    0    0  501  0.00000000000E+00  0.00000000000E+00 -0.85512768657E+03  0.85512768657E+03  0.25500000920E-02 0.  1.
    10030    2    1    2    0    0  0.00000000000E+00  0.00000000000E+00  0.12105525619E+03  0.18313106293E+04  0.18273051869E+04 0.  0.
        4    1    3    3  502    0  0.58775578818E+02 -0.77757158103E+03  0.53768818819E+03  0.94719709296E+03  0.12699999809E+01 0. -1.
       -4    1    3    3    0  502 -0.58775578818E+02  0.77757158103E+03 -0.41663293200E+03  0.88411353638E+03  0.12699999809E+01 0.  1.
</event>
<event>
 5   0  0.1239119E-04  0.1815202E+04  0.7818609E-02  0.8698257E-01
        1   -1    0    0  501    0  0.00000000000E+00  0.00000000000E+00  0.22952644353E+04  0.22952644353E+04  0.50400001928E-02 0. -1.
       -1   -1    0    0    0  501  0.00000000000E+00  0.00000000000E+00 -0.35888641269E+03  0.35888641272E+03  0.50400001928E-02 0.  1.
    10030    2    1    2    0    0  0.00000000000E+00  0.00000000000E+00  0.19363780226E+04  0.26541508480E+04  0.18152016080E+04 0.  0.
        5    1    3    3  502    0  0.86333146230E+03 -0.20554267107E+03  0.12461113476E+04  0.15298380908E+04  0.46999998093E+01 0.  1.
       -5    1    3    3    0  502 -0.86333146230E+03  0.20554267107E+03  0.69026667501E+03  0.11243127572E+04  0.46999998093E+01 0. -1.
</event>
<event>
 5   0  0.1239119E-04  0.1810427E+04  0.7818609E-02  0.8700774E-01
       -1   -1    0    0    0  501  0.00000000000E+00  0.00000000000E+00  0.44784706308E+03  0.44784706311E+03  0.50400001928E-02 0.  1.
        1   -1    0    0  501    0  0.00000000000E+00  0.00000000000E+00 -0.18296689311E+04  0.18296689311E+04  0.50400001928E-02 0. -1.
    10030    2    1    2    0    0  0.00000000000E+00  0.00000000000E+00 -0.13818218680E+04  0.22775159942E+04  0.18104274161E+04 0.  0.
        5    1    3    3  502    0 -0.69497302349E+03 -0.56141602733E+03 -0.50768170504E+03  0.10275885669E+04  0.46999998093E+01 0.  1.
       -5    1    3    3    0  502  0.69497302349E+03  0.56141602733E+03 -0.87414016300E+03  0.12499274274E+04  0.46999998093E+01 0. -1.
</event>
<event>
 5   0  0.1239119E-04  0.1777191E+04  0.7818609E-02  0.8718524E-01
        1   -1    0    0  501    0  0.00000000000E+00  0.00000000000E+00  0.15725696695E+04  0.15725696695E+04  0.50400001928E-02 0. -1.
       -1   -1    0    0    0  501  0.00000000000E+00  0.00000000000E+00 -0.50210908626E+03  0.50210908629E+03  0.50400001928E-02 0.  1.
    10030    2    1    2    0    0  0.00000000000E+00  0.00000000000E+00  0.10704605832E+04  0.20746787558E+04  0.17771905017E+04 0.  0.
        5    1    3    3  502    0 -0.55680450287E+03 -0.60774080165E+03  0.92276114211E+03  0.12372915387E+04  0.46999998093E+01 0. -1.
       -5    1    3    3    0  502  0.55680450287E+03  0.60774080165E+03  0.14769944113E+03  0.83738721707E+03  0.46999998093E+01 0.  1.
</event>
<event>
 5   0  0.2393421E-04  0.1804362E+04  0.7818609E-02  0.8703983E-01
       -2   -1    0    0    0  501  0.00000000000E+00  0.00000000000E+00  0.10290902273E+04  0.10290902273E+04  0.25500000920E-02 0.  1.
        2   -1    0    0  501    0  0.00000000000E+00  0.00000000000E+00 -0.79092254943E+03  0.79092254944E+03  0.25500000920E-02 0. -1.
    10030    2    1    2    0    0  0.00000000000E+00  0.00000000000E+00  0.23816767790E+03  0.18200127768E+04  0.18043621213E+04 0.  0.
        5    1    3    3  502    0  0.56259810692E+03  0.70454218837E+03  0.15117569712E+03  0.91420594315E+03  0.46999998093E+01 0. -1.
       -5    1    3    3    0  502 -0.56259810692E+03 -0.70454218837E+03  0.86991980775E+02  0.90580683361E+03  0.46999998093E+01 0.  1.
</event>
<event>
 5   0  0.2550616E-04  0.1789511E+04  0.7818609E-02  0.8711897E-01
        2   -1    0    0  501    0  0.00000000000E+00  0.00000000000E+00  0.53544123047E+03  0.53544123047E+03  0.25500000920E-02 0. -1.
       -2   -1    0    0    0  501  0.00000000000E+00  0.00000000000E+00 -0.14951922676E+04  0.14951922676E+04  0.25500000920E-02 0.  1.
    10030    2    1    2    0    0  0.00000000000E+00  0.00000000000E+00 -0.95975103717E+03  0.20306334981E+04  0.17895112043E+04 0.  0.
        1    1    3    3  502    0  0.18528097326E+03  0.72916084593E+03  0.69722806960E+02  0.75555664786E+03  0.50400001928E-02 0. -1.
       -1    1    3    3    0  502 -0.18528097326E+03 -0.72916084593E+03 -0.10294738441E+04  0.12750768503E+04  0.50400001928E-02 0.  1.
</event>
<event>
 5   0  0.1253925E-04  0.1762451E+04  0.7818609E-02  0.8726526E-01
        1   -1    0    0  501    0  0.00000000000E+00  0.00000000000E+00  0.68798041921E+03  0.68798041923E+03  0.50400001928E-02 0.  1.
       -1   -1    0    0    0  501  0.00000000000E+00  0.00000000000E+00 -0.11287505409E+04  0.11287505410E+04  0.50400001928E-02 0. -1.
    10030    2    1    2    0    0  0.00000000000E+00  0.00000000000E+00 -0.44077012173E+03  0.18167309602E+04  0.17624508735E+04 0.  0.
        2    1    3    3  502    0  0.29821770845E+03  0.14622144167E+03  0.62099104401E+03  0.70423319177E+03  0.25500000920E-02 0.  1.
       -2    1    3    3    0  502 -0.29821770845E+03 -0.14622144167E+03 -0.10617611657E+04  0.11124977684E+04  0.25500000920E-02 0. -1.
</event>
<event>
 5   0  0.2393421E-04  0.1782533E+04  0.7818609E-02  0.8715644E-01
       -2   -1    0    0    0  501  0.00000000000E+00  0.00000000000E+00  0.87667189907E+03  0.87667189908E+03  0.25500000920E-02 0.  1.
        2   -1    0    0  501    0  0.00000000000E+00  0.00000000000E+00 -0.90610404858E+03  0.90610404858E+03  0.25500000920E-02 0. -1.
    10030    2    1    2    0    0  0.00000000000E+00  0.00000000000E+00 -0.29432149510E+02  0.17827759477E+04  0.17825329809E+04 0.  0.
        5    1    3    3  502    0  0.32341666470E+03 -0.80597955253E+03 -0.21507432924E+03  0.89469572212E+03  0.46999998093E+01 0. -1.
       -5    1    3    3    0  502 -0.32341666470E+03  0.80597955253E+03  0.18564217973E+03  0.88808022553E+03  0.46999998093E+01 0.  1.
</event>
<event>
 5   0  0.2550616E-04  0.1808497E+04  0.7818609E-02  0.8701794E-01
       -2   -1    0    0    0  501  0.00000000000E+00  0.00000000000E+00  0.45813555025E+03  0.45813555026E+03  0.25500000920E-02 0. -1.
        2   -1    0    0  501    0  0.00000000000E+00  0.00000000000E+00 -0.17847674822E+04  0.17847674822E+04  0.25500000920E-02 0.  1.
    10030    2    1    2    0    0  0.00000000000E+00  0.00000000000E+00 -0.13266319320E+04  0.22429030325E+04  0.18084970916E+04 0.  0.
        1    1    3    3  502    0 -0.44776844889E+03  0.52300436945E+03 -0.13903279251E+04  0.15514644352E+04  0.50400001928E-02 0.  1.
       -1    1    3    3    0  502  0.44776844889E+03 -0.52300436945E+03  0.63695993122E+02  0.69143859731E+03  0.50400001928E-02 0. -1.
</event>
<event>
 5   0  0.9144875E-05  0.1999874E+04  0.7818609E-02  0.8606679E-01
        3   -1    0    0  501    0  0.00000000000E+00  0.00000000000E+00  0.10946216727E+04  0.10946216774E+04  0.10100000352E+00 0. -1.
       -3   -1    0    0    0  501  0.00000000000E+00  0.00000000000E+00 -0.91344275019E+03  0.91344275578E+03  0.10100000352E+00 0.  1.
    10030    2    1    2    0    0  0.00000000000E+00  0.00000000000E+00  0.18117892254E+03  0.20080644332E+04  0.19998742375E+04 0.  0.
        1    1    3    3  502    0 -0.19109716399E+03 -0.19692944620E+03 -0.87489660340E+03  0.91692060700E+03  0.50400001928E-02 0.  1.
       -1    1    3    3    0  502  0.19109716399E+03  0.19692944620E+03  0.10560755259E+04  0.10911438262E+04  0.50400001928E-02 0. -1.
</event>
<event>
 5   0  0.2550616E-04  0.1821464E+04  0.7818609E-02  0.8694968E-01
       -2   -1    0    0    0  501  0.00000000000E+00  0.00000000000E+00  0.13992924286E+04  0.13992924286E+04  0.25500000920E-02 0. -1.
        2   -1    0    0  501    0  0.00000000000E+00  0.00000000000E+00 -0.59275182985E+03  0.59275182985E+03  0.25500000920E-02 0.  1.
    10030    2    1    2    0    0  0.00000000000E+00  0.00000000000E+00  0.80654059875E+03  0.19920442585E+04  0.18214644082E+04 0.  0.
        1    1    3    3  502    0  0.78773906599E+03 -0.85378072686E+02 -0.87790530859E+02  0.79720099643E+03  0.50400001928E-02 0.  1.
       -1    1    3    3    0  502 -0.78773906599E+03  0.85378072686E+02  0.89433112961E+03  0.11948432620E+04  0.50400001928E-02 0. -1.
</event>
<event>
 5   0  0.2431811E-04  0.1839450E+04  0.7818609E-02  0.8685597E-01
        2   -1    0    0  501    0  0.00000000000E+00  0.00000000000E+00  0.14491427053E+04  0.14491427053E+04  0.25500000920E-02 0.  1.
       -2   -1    0    0    0  501  0.00000000000E+00  0.00000000000E+00 -0.58372007380E+03  0.58372007381E+03  0.25500000920E-02 0. -1.
    10030    2    1    2    0    0  0.00000000000E+00  0.00000000000E+00  0.86542263154E+03  0.20328627791E+04  0.18394495774E+04 0.  0.
        3    1    3    3  502    0  0.50409571494E+03  0.56012425586E+03 -0.15002942592E+03  0.76834921140E+03  0.10100000352E+00 0. -1.
       -3    1    3    3    0  502 -0.50409571494E+03 -0.56012425586E+03  0.10154520575E+04  0.12645135677E+04  0.10100000352E+00 0.  1.
</event>
<event>
 5   0  0.1308893E-04  0.1814459E+04  0.7818609E-02  0.8698648E-01
        1   -1    0    0  501    0  0.00000000000E+00  0.00000000000E+00  0.15248601157E+04  0.15248601157E+04  0.50400001928E-02 0. -1.
       -1   -1    0    0    0  501  0.00000000000E+00  0.00000000000E+00 -0.53976463196E+03  0.53976463198E+03  0.50400001928E-02 0.  1.
    10030    2    1    2    0    0  0.00000000000E+00  0.00000000000E+00  0.98509548375E+03  0.20646247477E+04  0.18144592133E+04 0.  0.
        4    1    3    3  502    0 -0.31136459008E+03  0.39113513186E+03  0.13539782370E+04  0.14433271557E+04  0.12699999809E+01 0. -1.
       -4    1    3    3    0  502  0.31136459008E+03 -0.39113513186E+03 -0.36888275320E+03  0.62129759201E+03  0.12699999809E+01 0.  1.
</event>
<event>
 5   0  0.1308893E-04  0.1794203E+04  0.7818609E-02  0.8709388E-01
        1   -1    0    0  501    0  0.00000000000E+00  0.00000000000E+00  0.30478273553E+03  0.30478273557E+03  0.50400001928E-02 0.  1.
       -1   -1    0    0    0  501  0.00000000000E+00  0.00000000000E+00 -0.26405411204E+04  0.26405411204E+04  0.50400001928E-02 0. -1.
    10030    2    1    2    0    0  0.00000000000E+00  0.00000000000E+00 -0.23357583848E+04  0.29453238559E+04  0.17942032728E+04 0.  0.
        4    1    3    3  502    0  0.55364616949E+03  0.24034004237E+03 -0.22573999494E+04  0.23366950082E+04  0.12699999809E+01 0. -1.
       -4    1    3    3    0  502 -0.55364616949E+03 -0.24034004237E+03 -0.78358435419E+02  0.60862884771E+03  0.12699999809E+01 0.  1.
</event>
<event>
 5   0  0.1214723E-04  0.1790849E+04  0.7818609E-02  0.8711181E-01
        1   -1    0    0  501    0  0.00000000000E+00  0.00000000000E+00  0.93902540920E+03  0.93902540922E+03  0.50400001928E-02 0.  1.
       -1   -1    0    0    0  501  0.00000000000E+00  0.00000000000E+00 -0.85384817241E+03  0.85384817243E+03  0.50400001928E-02 0. -1.
    10030    2    1    2    0    0  0.00000000000E+00  0.00000000000E+00  0.85177236788E+02  0.17928735816E+04  0.17908491053E+04 0.  0.
        1    1    3    3  502    0  0.27819960827E+03  0.52251496507E+03  0.71518753266E+03  0.92839114475E+03  0.50400001928E-02 0.  1.
       -1    1    3    3    0  502 -0.27819960827E+03 -0.52251496507E+03 -0.63001029587E+03  0.86448243689E+03  0.50400001928E-02 0. -1.
</event>
<event>
 5   0  0.2393421E-04  0.1808932E+04  0.7818609E-02  0.8701564E-01
       -2   -1    0    0    0  501  0.00000000000E+00  0.00000000000E+00  0.79297869278E+03  0.79297869279E+03  0.25500000920E-02 0.  1.
        2   -1    0    0  501    0  0.00000000000E+00  0.00000000000E+00 -0.10316271517E+04  0.10316271517E+04  0.25500000920E-02 0. -1.
    10030    2    1    2    0    0  0.00000000000E+00  0.00000000000E+00 -0.23864845893E+03  0.18246058445E+04  0.18089315633E+04 0.  0.
        5    1    3    3  502    0 -0.48260918206E+03 -0.38229986028E+03 -0.78761438683E+03  0.99971161748E+03  0.46999998093E+01 0. -1.
       -5    1    3    3    0  502  0.48260918206E+03  0.38229986028E+03  0.54896592790E+03  0.82489422702E+03  0.46999998093E+01 0.  1.
</event>
<event>
 5   0  0.1214723E-04  0.1815001E+04  0.7818609E-02  0.8698363E-01
       -1   -1    0    0    0  501  0.00000000000E+00  0.00000000000E+00  0.10325748026E+04  0.10325748026E+04  0.50400001928E-02 0.  1.
        1   -1    0    0  501    0  0.00000000000E+00  0.00000000000E+00 -0.79757608714E+03  0.79757608715E+03  0.50400001928E-02 0. -1.
    10030    2    1    2    0    0  0.00000000000E+00  0.00000000000E+00  0.23499871544E+03  0.18301508897E+04  0.18150007942E+04 0.  0.
        1    1    3    3  502    0 -0.20822164435E+03  0.23441245717E+03  0.97622493968E+03  0.10253392542E+04  0.50400001928E-02 0.  1.
       -1    1    3    3    0  502  0.20822164435E+03 -0.23441245717E+03 -0.74122622423E+03  0.80481163558E+03  0.50400001928E-02 0. -1.
</event>
<event>
 5   0  0.9144875E-05  0.1778807E+04  0.7818609E-02  0.8717651E-01
        3   -1    0    0  501    0  0.00000000000E+00  0.00000000000E+00  0.97836860937E+03  0.97836861458E+03  0.10100000352E+00 0. -1.
       -3   -1    0    0    0  501  0.00000000000E+00  0.00000000000E+00 -0.80852859320E+03  0.80852859951E+03  0.10100000352E+00 0.  1.
    10030    2    1    2    0    0  0.00000000000E+00  0.00000000000E+00  0.16984001617E+03  0.17868972141E+04  0.17788074720E+04 0.  0.
        5    1    3    3  502    0  0.86283298016E+03 -0.14012254132E+03  0.24968373176E+03  0.90910897814E+03  0.46999998093E+01 0.  1.
       -5    1    3    3    0  502 -0.86283298016E+03  0.14012254132E+03 -0.79843715590E+02  0.87778823594E+03  0.46999998093E+01 0. -1.
</event>
<event>
 5   0  0.2393421E-04  0.1796117E+04  0.7818609E-02  0.8708367E-01
        2   -1    0    0  501    0  0.00000000000E+00  0.00000000000E+00  0.10387042782E+04  0.10387042782E+04  0.25500000920E-02 0. -1.
       -2   -1    0    0    0  501  0.00000000000E+00  0.00000000000E+00 -0.77645727289E+03  0.77645727289E+03  0.25500000920E-02 0.  1.
    10030    2    1    2    0    0  0.00000000000E+00  0.00000000000E+00  0.26224700535E+03  0.18151615511E+04  0.17961174697E+04 0.  0.
        5    1    3    3  502    0  0.43331946425E+03 -0.64840504355E+02  0.92334682232E+03  0.10220379119E+04  0.46999998093E+01 0. -1.
       -5    1    3    3    0  502 -0.43331946425E+03  0.64840504355E+02 -0.66109981697E+03  0.79312363922E+03  0.46999998093E+01 0.  1.
</event>
<event>
 5   0  0.2550616E-04  0.1786809E+04  0.7818609E-02  0.8713346E-01
        2   -1    0    0  501    0  0.00000000000E+00  0.00000000000E+00  0.11857253867E+04  0.11857253867E+04  0.25500000920E-02 0.  1.
       -2   -1    0    0    0  501  0.00000000000E+00  0.00000000000E+00 -0.67315044240E+03  0.67315044240E+03  0.25500000920E-02 0. -1.
    10030    2    1    2    0    0  0.00000000000E+00  0.00000000000E+00  0.51257494432E+03  0.18588758291E+04  0.17868089642E+04 0.  0.
        1    1    3    3  502    0  0.54738148258E+03 -0.20020000505E+03 -0.44812229558E+03  0.73520073539E+03  0.50400001928E-02 0. -1.
       -1    1    3    3    0  502 -0.54738148258E+03  0.20020000505E+03  0.96069723990E+03  0.11236750937E+04  0.50400001928E-02 0.  1.
</event>
<event>
 5   0  0.2417106E-04  0.1825568E+04  0.7818609E-02  0.8692820E-01
       -2   -1    0    0    0  501  0.00000000000E+00  0.00000000000E+00  0.35329725605E+03  0.35329725606E+03  0.25500000920E-02 0.  1.
        2   -1    0    0  501    0  0.00000000000E+00  0.00000000000E+00 -0.23582828938E+04  0.23582828938E+04  0.25500000920E-02 0. -1.
    10030    2    1    2    0    0  0.00000000000E+00  0.00000000000E+00 -0.20049856378E+04  0.27115801499E+04  0.18255682681E+04 0.  0.
        4    1    3    3  502    0 -0.27968855118E+03  0.82696255697E+03 -0.60648877239E+03  0.10629783630E+04  0.12699999809E+01 0.  1.
       -4    1    3    3    0  502  0.27968855118E+03 -0.82696255697E+03 -0.13984968654E+04  0.16486017869E+04  0.12699999809E+01 0. -1.
</event>
<event>
 5   0  0.2393421E-04  0.1791016E+04  0.7818609E-02  0.8711092E-01
        2   -1    0    0  501    0  0.00000000000E+00  0.00000000000E+00  0.10508414466E+04  0.10508414466E+04  0.25500000920E-02 0.  1.
       -2   -1    0    0    0  501  0.00000000000E+00  0.00000000000E+00 -0.76313567759E+03  0.76313567759E+03  0.25500000920E-02 0. -1.
    10030    2    1    2    0    0  0.00000000000E+00  0.00000000000E+00  0.28770576905E+03  0.18139771242E+04  0.17910160238E+04 0.  0.
        5    1    3    3  502    0 -0.55052105793E+03  0.10948310120E+03  0.85054630480E+03  0.10190736437E+04  0.46999998093E+01 0.  1.
       -5    1    3    3    0  502  0.55052105793E+03 -0.10948310120E+03 -0.56284053575E+03  0.79490348053E+03  0.46999998093E+01 0. -1.
</event>
<event>
 5   0  0.1308893E-04  0.1763352E+04  0.7818609E-02  0.8726035E-01
       -1   -1    0    0    0  501  0.00000000000E+00  0.00000000000E+00  0.84317889543E+03  0.84317889544E+03  0.50400001928E-02 0.  1.
        1   -1    0    0  501    0  0.00000000000E+00  0.00000000000E+00 -0.92193046013E+03  0.92193046014E+03  0.50400001928E-02 0. -1.
    10030    2    1    2    0    0  0.00000000000E+00  0.00000000000E+00 -0.78751564699E+02  0.17651093556E+04  0.17633517029E+04 0.  0.
        4    1    3    3  502    0  0.26943406389E+02 -0.10582011928E+03 -0.91513460527E+03  0.92162725842E+03  0.12699999809E+01 0. -1.
       -4    1    3    3    0  502 -0.26943406389E+02  0.10582011928E+03  0.83638304057E+03  0.84348209717E+03  0.12699999809E+01 0.  1.
</event>
<event>
 5   0  0.2550616E-04  0.1764001E+04  0.7818609E-02  0.8725681E-01
       -2   -1    0    0    0  501  0.00000000000E+00  0.00000000000E+00  0.60504228041E+03  0.60504228041E+03  0.25500000920E-02 0. -1.
        2   -1    0    0  501    0  0.00000000000E+00  0.00000000000E+00 -0.12857367252E+04  0.12857367252E+04  0.25500000920E-02 0.  1.
    10030    2    1    2    0    0  0.00000000000E+00  0.00000000000E+00 -0.68069444479E+03  0.18907790056E+04  0.17640012247E+04 0.  0.
        1    1    3    3  502    0  0.11252239138E+03 -0.77935364224E+03 -0.76623386664E+03  0.10987118488E+04  0.50400001928E-02 0.  1.
       -1    1    3    3    0  502 -0.11252239138E+03  0.77935364224E+03  0.85539421846E+02  0.79206715684E+03  0.50400001928E-02 0. -1.
</event>
<event>
 5   0  0.1308893E-04  0.1794482E+04  0.7818609E-02  0.8709239E-01
       -1   -1    0    0    0  501  0.00000000000E+00  0.00000000000E+00  0.93616229399E+03  0.93616229400E+03  0.50400001928E-02 0. -1.
        1   -1    0    0  501    0  0.00000000000E+00  0.00000000000E+00 -0.85993796340E+03  0.85993796342E+03  0.50400001928E-02 0.  1.
    10030    2    1    2    0    0  0.00000000000E+00  0.00000000000E+00  0.76224330588E+02  0.17961002574E+04  0.17944820941E+04 0.  0.
        4    1    3    3  502    0  0.38670430608E+03  0.16214711279E+03 -0.75582943058E+03  0.86435620410E+03  0.12699999809E+01 0.  1.
       -4    1    3    3    0  502 -0.38670430608E+03 -0.16214711279E+03  0.83205376117E+03  0.93174405332E+03  0.12699999809E+01 0. -1.
</event>
<event>
 5   0  0.1253925E-04  0.1802265E+04  0.7818609E-02  0.8705096E-01
        1   -1    0    0  501    0  0.00000000000E+00  0.00000000000E+00  0.16410084778E+04  0.16410084778E+04  0.50400001928E-02 0.  1.
       -1   -1    0    0    0  501  0.00000000000E+00  0.00000000000E+00 -0.49484175849E+03  0.49484175851E+03  0.50400001928E-02 0. -1.
    10030    2    1    2    0    0  0.00000000000E+00  0.00000000000E+00  0.11461667193E+04  0.21358502363E+04  0.18022647096E+04 0.  0.
        2    1    3    3  502    0 -0.21094971620E+03  0.13712134122E+03 -0.45237257736E+03  0.51763210269E+03  0.25500000920E-02 0. -1.
       -2    1    3    3    0  502  0.21094971620E+03 -0.13712134122E+03  0.15985392967E+04  0.16182181336E+04  0.25500000920E-02 0.  1.
</event>
<event>
 5   0  0.9144875E-05  0.1807370E+04  0.7818609E-02  0.8702390E-01
       -4   -1    0    0    0  501  0.00000000000E+00  0.00000000000E+00  0.72174324793E+03  0.72174436529E+03  0.12699999809E+01 0.  1.
        4   -1    0    0  501    0  0.00000000000E+00  0.00000000000E+00 -0.11314896352E+04  0.11314903479E+04  0.12699999809E+01 0. -1.
    10030    2    1    2    0    0  0.00000000000E+00  0.00000000000E+00 -0.40974638728E+03  0.18532347132E+04  0.18073701338E+04 0.  0.
        1    1    3    3  502    0 -0.11755386091E+03 -0.71271007958E+03  0.35192804178E+03  0.80350974752E+03  0.50400001928E-02 0.  1.
       -1    1    3    3    0  502  0.11755386091E+03  0.71271007958E+03 -0.76167442906E+03  0.10497249657E+04  0.50400001928E-02 0. -1.
</event>
<event>
 5   0  0.1214723E-04  0.1802460E+04  0.7818609E-02  0.8704992E-01
       -1   -1    0    0    0  501  0.00000000000E+00  0.00000000000E+00  0.13551853383E+04  0.13551853383E+04  0.50400001928E-02 0. -1.
        1   -1    0    0  501    0  0.00000000000E+00  0.00000000000E+00 -0.59933899444E+03  0.59933899446E+03  0.50400001928E-02 0.  1.
    10030    2    1    2    0    0  0.00000000000E+00  0.00000000000E+00  0.75584634385E+03  0.19545243328E+04  0.18024598947E+04 0.  0.
        1    1    3    3  502    0 -0.45505342203E+03 -0.37187014413E+03  0.11188344369E+04  0.12637846012E+04  0.50400001928E-02 0. -1.
       -1    1    3    3    0  502  0.45505342203E+03  0.37187014413E+03 -0.36298809308E+03  0.69073973155E+03  0.50400001928E-02 0.  1.
</event>
<event>
 5   0  0.1308893E-04  0.1786884E+04  0.7818609E-02  0.8713306E-01
        1   -1    0    0  501    0  0.00000000000E+00  0.00000000000E+00  0.74238572139E+03  0.74238572141E+03  0.50400001928E-02 0.  1.
       -1   -1    0    0    0  501  0.00000000000E+00  0.00000000000E+00 -0.10752345150E+04  0.10752345150E+04  0.50400001928E-02 0. -1.
    10030    2    1    2    0    0  0.00000000000E+00  0.00000000000E+00 -0.33284879359E+03  0.18176202364E+04  0.17868841609E+04 0.  0.
        4    1    3    3  502    0 -0.23343127568E+03 -0.63310314430E+03 -0.76209728637E+03  0.10178917617E+04  0.12699999809E+01 0. -1.
       -4    1    3    3    0  502  0.23343127568E+03  0.63310314430E+03  0.42924849277E+03  0.79972847469E+03  0.12699999809E+01 0.  1.
</event>
<event>
 5   0  0.2417106E-04  0.1794539E+04  0.7818609E-02  0.8709209E-01
       -2   -1    0    0    0  501  0.00000000000E+00  0.00000000000E+00  0.55777456612E+03  0.55777456613E+03  0.25500000920E-02 0.  1.
        2   -1    0    0  501    0  0.00000000000E+00  0.00000000000E+00 -0.14434005643E+04  0.14434005643E+04  0.25500000920E-02 0. -1.
    10030    2    1    2    0    0  0.00000000000E+00  0.00000000000E+00 -0.88562599813E+03  0.20011751304E+04  0.17945385184E+04 0.  0.
        4    1    3    3  502    0  0.49276030041E+03  0.56369402446E+03  0.10862359558E+03  0.75654766227E+03  0.12699999809E+01 0.  1.
       -4    1    3    3    0  502 -0.49276030041E+03 -0.56369402446E+03 -0.99424959372E+03  0.12446274681E+04  0.12699999809E+01 0. -1.
</event>
<event>
 5   0  0.2417106E-04  0.1791697E+04  0.7818609E-02  0.8710727E-01
       -2   -1    0    0    0  501  0.00000000000E+00  0.00000000000E+00  0.71264189770E+03  0.71264189770E+03  0.25500000920E-02 0. -1.
        2   -1    0    0  501    0  0.00000000000E+00  0.00000000000E+00 -0.11261544709E+04  0.11261544709E+04  0.25500000920E-02 0.  1.
    10030    2    1    2    0    0  0.00000000000E+00  0.00000000000E+00 -0.41351257325E+03  0.18387963687E+04  0.17916973620E+04 0.  0.
        4    1    3    3  502    0 -0.11647886690E+03 -0.15061055812E+03 -0.11051490325E+04  0.11214307217E+04  0.12699999809E+01 0.  1.
       -4    1    3    3    0  502  0.11647886690E+03  0.15061055812E+03  0.69163645929E+03  0.71736564691E+03  0.12699999809E+01 0. -1.
</event>
<event>
 5   0  0.1239119E-04  0.1789580E+04  0.7818609E-02  0.8711861E-01
       -1   -1    0    0    0  501  0.00000000000E+00  0.00000000000E+00  0.35987281861E+03  0.35987281864E+03  0.50400001928E-02 0. -1.
        1   -1    0    0  501    0  0.00000000000E+00  0.00000000000E+00 -0.22248107963E+04  0.22248107963E+04  0.50400001928E-02 0.  1.
    10030    2    1    2    0    0  0.00000000000E+00  0.00000000000E+00 -0.18649379777E+04  0.25846836149E+04  0.17895797632E+04 0.  0.
        5    1    3    3  502    0  0.66422694209E+03  0.45008615337E+03 -0.15044757664E+04  0.17050643383E+04  0.46999998093E+01 0.  1.
       -5    1    3    3    0  502 -0.66422694209E+03 -0.45008615337E+03 -0.36046221127E+03  0.87961927663E+03  0.46999998093E+01 0. -1.
</event>
<event>
 5   0  0.2569405E-04  0.1801910E+04  0.7818609E-02  0.8705285E-01
       -2   -1    0    0    0  501  0.00000000000E+00  0.00000000000E+00  0.11459970092E+04  0.11459970092E+04  0.25500000920E-02 0. -1.
        2   -1    0    0  501    0  0.00000000000E+00  0.00000000000E+00 -0.70830853430E+03  0.70830853431E+03  0.25500000920E-02 0.  1.
    10030    2    1    2    0    0  0.00000000000E+00  0.00000000000E+00  0.43768847488E+03  0.18543055435E+04  0.18019095004E+04 0.  0.
        2    1    3    3  502    0  0.12158709823E+03  0.33007122354E+03  0.10724141088E+04  0.11286285730E+04  0.25500000920E-02 0. -1.
       -2    1    3    3    0  502 -0.12158709823E+03 -0.33007122354E+03 -0.63472563394E+03  0.72567697046E+03  0.25500000920E-02 0.  1.
</event>
<event>
 5   0  0.1239119E-04  0.1824623E+04  0.7818609E-02  0.8693314E-01
       -1   -1    0    0    0  501  0.00000000000E+00  0.00000000000E+00  0.37162007799E+03  0.37162007803E+03  0.50400001928E-02 0. -1.
        1   -1    0    0  501    0  0.00000000000E+00  0.00000000000E+00 -0.22396869426E+04  0.22396869426E+04  0.50400001928E-02 0.  1.
    10030    2    1    2    0    0  0.00000000000E+00  0.00000000000E+00 -0.18680668646E+04  0.26113070206E+04  0.18246233982E+04 0.  0.
        5    1    3    3  502    0  0.78776030875E+03 -0.44925390402E+03 -0.10763961829E+04  0.14074964323E+04  0.46999998093E+01 0.  1.
       -5    1    3    3    0  502 -0.78776030875E+03  0.44925390402E+03 -0.79167068169E+03  0.12038105883E+04  0.46999998093E+01 0. -1.
</event>
<event>
 5   0  0.2550616E-04  0.1837527E+04  0.7818609E-02  0.8686594E-01
       -2   -1    0    0    0  501  0.00000000000E+00  0.00000000000E+00  0.98866677041E+03  0.98866677041E+03  0.25500000920E-02 0. -1.
        2   -1    0    0  501    0  0.00000000000E+00  0.00000000000E+00 -0.85380302266E+03  0.85380302266E+03  0.25500000920E-02 0.  1.
    10030    2    1    2    0    0  0.00000000000E+00  0.00000000000E+00  0.13486374775E+03  0.18424697931E+04  0.18375273353E+04 0.  0.
        1    1    3    3  502    0  0.26304302620E+02  0.52915277019E+03 -0.68520824361E+03  0.86614369920E+03  0.50400001928E-02 0.  1.
       -1    1    3    3    0  502 -0.26304302620E+02 -0.52915277019E+03  0.82007199135E+03  0.97632609387E+03  0.50400001928E-02 0. -1.
</event>
<event>
 5   0  0.2417106E-04  0.1795268E+04  0.7818609E-02  0.8708820E-01
       -2   -1    0    0    0  501  0.00000000000E+00  0.00000000000E+00  0.13902797679E+04  0.13902797679E+04  0.25500000920E-02 0. -1.
        2   -1    0    0  501    0  0.00000000000E+00  0.00000000000E+00 -0.57955705410E+03  0.57955705410E+03  0.25500000920E-02 0.  1.
    10030    2    1    2    0    0  0.00000000000E+00  0.00000000000E+00  0.81072271382E+03  0.19698368220E+04  0.17952676087E+04 0.  0.
        4    1    3    3  502    0  0.43316174301E+03 -0.63680658043E+03 -0.10055143002E+03  0.77670066272E+03  0.12699999809E+01 0.  1.
       -4    1    3    3    0  502 -0.43316174301E+03  0.63680658043E+03  0.91127414385E+03  0.11931361593E+04  0.12699999809E+01 0. -1.
</event>
<event>
 5   0  0.1330225E-04  0.1787162E+04  0.7818609E-02  0.8713157E-01
        1   -1    0    0  501    0  0.00000000000E+00  0.00000000000E+00  0.17237749543E+04  0.17237749543E+04  0.50400001928E-02 0.  1.
       -1   -1    0    0    0  501  0.00000000000E+00  0.00000000000E+00 -0.46321993890E+03  0.46321993892E+03  0.50400001928E-02 0. -1.
    10030    2    1    2    0    0  0.00000000000E+00  0.00000000000E+00  0.12605550154E+04  0.21869948932E+04  0.17871619166E+04 0.  0.
        3    1    3    3  502    0  0.15492754632E+03 -0.10170752513E+03 -0.43944299920E+03  0.47692465340E+03  0.10100000352E+00 0. -1.
       -3    1    3    3    0  502 -0.15492754632E+03  0.10170752513E+03  0.16999980146E+04  0.17100702398E+04  0.10100000352E+00 0.  1.
</event>
<event>
 5   0  0.2417106E-04  0.1799925E+04  0.7818609E-02  0.8706339E-01
        2   -1    0    0  501    0  0.00000000000E+00  0.00000000000E+00  0.13145726727E+04  0.13145726727E+04  0.25500000920E-02 0.  1.
       -2   -1    0    0    0  501  0.00000000000E+00  0.00000000000E+00 -0.61611876263E+03  0.61611876264E+03  0.25500000920E-02 0. -1.
    10030    2    1    2    0    0  0.00000000000E+00  0.00000000000E+00  0.69845391002E+03  0.19306914353E+04  0.17999254301E+04 0.  0.
        4    1    3    3  502    0  0.27877168827E+02 -0.32996715746E+03  0.12468477818E+04  0.12900722714E+04  0.12699999809E+01 0.  1.
       -4    1    3    3    0  502 -0.27877168827E+02  0.32996715746E+03 -0.54839387182E+03  0.64061916385E+03  0.12699999809E+01 0. -1.
</event>
<event>
 5   0  0.2393421E-04  0.1864711E+04  0.7818609E-02  0.8672624E-01
       -2   -1    0    0    0  501  0.00000000000E+00  0.00000000000E+00  0.69542086517E+03  0.69542086517E+03  0.25500000920E-02 0. -1.
        2   -1    0    0  501    0  0.00000000000E+00  0.00000000000E+00 -0.12500148174E+04  0.12500148174E+04  0.25500000920E-02 0.  1.
    10030    2    1    2    0    0  0.00000000000E+00  0.00000000000E+00 -0.55459395221E+03  0.19454356826E+04  0.18647105789E+04 0.  0.
        5    1    3    3  502    0  0.12420990282E+03  0.57438151066E+03  0.47786270045E+03  0.75744113317E+03  0.46999998093E+01 0. -1.
       -5    1    3    3    0  502 -0.12420990282E+03 -0.57438151066E+03 -0.10324566527E+04  0.11879945494E+04  0.46999998093E+01 0.  1.
</event>
<event>
 5   0  0.2550616E-04  0.1813251E+04  0.7818609E-02  0.8699285E-01
       -2   -1    0    0    0  501  0.00000000000E+00  0.00000000000E+00  0.60294942034E+03  0.60294942034E+03  0.25500000920E-02 0. -1.
        2   -1    0    0  501    0  0.00000000000E+00  0.00000000000E+00 -0.13632477290E+04  0.13632477290E+04  0.25500000920E-02 0.  1.
    10030    2    1    2    0    0  0.00000000000E+00  0.00000000000E+00 -0.76029830870E+03  0.19661971494E+04  0.18132505927E+04 0.  0.
        1    1    3    3  502    0 -0.20805718944E+02  0.59766899955E+03  0.35874429946E+03  0.69737979852E+03  0.50400001928E-02 0. -1.
       -1    1    3    3    0  502  0.20805718944E+02 -0.59766899955E+03 -0.11190426082E+04  0.12688173509E+04  0.50400001928E-02 0.  1.
</event>
<event>
 5   0  0.1308893E-04  0.1805809E+04  0.7818609E-02  0.8703216E-01
        1   -1    0    0  501    0  0.00000000000E+00  0.00000000000E+00  0.22827673422E+04  0.22827673422E+04  0.50400001928E-02 0.  1.
       -1   -1    0    0    0  501  0.00000000000E+00  0.00000000000E+00 -0.35712639507E+03  0.35712639510E+03  0.50400001928E-02 0. -1.
    10030    2    1    2    0    0  0.00000000000E+00  0.00000000000E+00  0.19256409471E+04  0.26398937373E+04  0.18058089287E+04 0.  0.
        4    1    3    3  502    0 -0.10001981683E+03  0.56121378120E+03  0.19864252494E+04  0.20666039186E+04  0.12699999809E+01 0.  1.
       -4    1    3    3    0  502  0.10001981683E+03 -0.56121378120E+03 -0.60784302257E+02  0.57328981874E+03  0.12699999809E+01 0. -1.
</event>
<event>
 5   0  0.2550616E-04  0.1806191E+04  0.7818609E-02  0.8703014E-01
       -2   -1    0    0    0  501  0.00000000000E+00  0.00000000000E+00  0.27907707276E+03  0.27907707277E+03  0.25500000920E-02 0. -1.
        2   -1    0    0  501    0  0.00000000000E+00  0.00000000000E+00 -0.29224249209E+04  0.29224249209E+04  0.25500000920E-02 0.  1.
    10030    2    1    2    0    0  0.00000000000E+00  0.00000000000E+00 -0.26433478482E+04  0.32015019937E+04  0.18061913435E+04 0.  0.
        1    1    3    3  502    0 -0.82551838795E+03  0.18155973832E+03 -0.18853707371E+04  0.20661721525E+04  0.50400001928E-02 0.  1.
       -1    1    3    3    0  502  0.82551838795E+03 -0.18155973832E+03 -0.75797711109E+03  0.11353298412E+04  0.50400001928E-02 0. -1.
</event>
<event>
 5   0  0.1253925E-04  0.1707154E+04  0.7818609E-02  0.8757295E-01
        1   -1    0    0  501    0  0.00000000000E+00  0.00000000000E+00  0.78059879120E+03  0.78059879122E+03  0.50400001928E-02 0.  1.
       -1   -1    0    0    0  501  0.00000000000E+00  0.00000000000E+00 -0.93337756943E+03  0.93337756944E+03  0.50400001928E-02 0. -1.
    10030    2    1    2    0    0  0.00000000000E+00  0.00000000000E+00 -0.15277877823E+03  0.17139763607E+04  0.17071536574E+04 0.  0.
        2    1    3    3  502    0  0.28604973621E+03  0.50519640347E+03  0.55184739064E+03  0.80098901380E+03  0.25500000920E-02 0.  1.
       -2    1    3    3    0  502 -0.28604973621E+03 -0.50519640347E+03 -0.70462616886E+03  0.91298734686E+03  0.25500000920E-02 0. -1.
</event>
<event>
 5   0  0.2431811E-04  0.1815965E+04  0.7818609E-02  0.8697855E-01
       -2   -1    0    0    0  501  0.00000000000E+00  0.00000000000E+00  0.49602154259E+03  0.49602154259E+03  0.25500000920E-02 0.  1.
        2   -1    0    0  501    0  0.00000000000E+00  0.00000000000E+00 -0.16620893985E+04  0.16620893985E+04  0.25500000920E-02 0. -1.
    10030    2    1    2    0    0  0.00000000000E+00  0.00000000000E+00 -0.11660678559E+04  0.21581109411E+04  0.18159649197E+04 0.  0.
        3    1    3    3  502    0  0.61626403216E+03  0.38089860160E+03  0.67415179975E+02  0.72760560658E+03  0.10100000352E+00 0.  1.
       -3    1    3    3    0  502 -0.61626403216E+03 -0.38089860160E+03 -0.12334830359E+04  0.14305053345E+04  0.10100000352E+00 0. -1.
</event>
<event>
 5   0  0.1308893E-04  0.1868504E+04  0.7818609E-02  0.8670695E-01
        1   -1    0    0  501    0  0.00000000000E+00  0.00000000000E+00  0.10612885105E+04  0.10612885105E+04  0.50400001928E-02 0.  1.
       -1   -1    0    0    0  501  0.00000000000E+00  0.00000000000E+00 -0.82242139779E+03  0.82242139781E+03  0.50400001928E-02 0. -1.
    10030    2    1    2    0    0  0.00000000000E+00  0.00000000000E+00  0.23886711270E+03  0.18837099083E+04  0.18685035513E+04 0.  0.
        4    1    3    3  502    0  0.45835187858E+03 -0.39329589509E+03 -0.59914817143E+03  0.85073394779E+03  0.12699999809E+01 0. -1.
       -4    1    3    3    0  502 -0.45835187858E+03  0.39329589509E+03  0.83801528413E+03  0.10329759605E+04  0.12699999809E+01 0.  1.
</event>
<event>
 5   0  0.1308893E-04  0.1798594E+04  0.7818609E-02  0.8707048E-01
        1   -1    0    0  501    0  0.00000000000E+00  0.00000000000E+00  0.58147070294E+03  0.58147070296E+03  0.50400001928E-02 0. -1.
       -1   -1    0    0    0  501  0.00000000000E+00  0.00000000000E+00 -0.13908436902E+04  0.13908436902E+04  0.50400001928E-02 0.  1.
    10030    2    1    2    0    0  0.00000000000E+00  0.00000000000E+00 -0.80937298724E+03  0.19723143932E+04  0.17985937376E+04 0.  0.
        4    1    3    3  502    0  0.43525257557E+03 -0.66899455569E+03  0.49748876918E+02  0.79967186004E+03  0.12699999809E+01 0. -1.
       -4    1    3    3    0  502 -0.43525257557E+03  0.66899455569E+03 -0.85912186416E+03  0.11726425331E+04  0.12699999809E+01 0.  1.
</event>
<event>
 5   0  0.2550616E-04  0.1801080E+04  0.7818609E-02  0.8705725E-01
        2   -1    0    0  501    0  0.00000000000E+00  0.00000000000E+00  0.81317934839E+03  0.81317934840E+03  0.25500000920E-02 0. -1.
       -2   -1    0    0    0  501  0.00000000000E+00  0.00000000000E+00 -0.99728621101E+03  0.99728621101E+03  0.25500000920E-02 0.  1.
    10030    2    1    2    0    0  0.00000000000E+00  0.00000000000E+00 -0.18410686262E+03  0.18104655594E+04  0.18010802883E+04 0.  0.
        1    1    3    3  502    0  0.32092067133E+03  0.49434641525E+01  0.75373346497E+03  0.81922442064E+03  0.50400001928E-02 0. -1.
       -1    1    3    3    0  502 -0.32092067133E+03 -0.49434641525E+01 -0.93784032758E+03  0.99124113877E+03  0.50400001928E-02 0.  1.
</event>
<event>
 5   0  0.2417106E-04  0.1804477E+04  0.7818609E-02  0.8703922E-01
        2   -1    0    0  501    0  0.00000000000E+00  0.00000000000E+00  0.29918753360E+04  0.29918753360E+04  0.25500000920E-02 0. -1.
       -2   -1    0    0    0  501  0.00000000000E+00  0.00000000000E+00 -0.27208168664E+03  0.27208168665E+03  0.25500000920E-02 0.  1.
    10030    2    1    2    0    0  0.00000000000E+00  0.00000000000E+00  0.27197936494E+04  0.32639570227E+04  0.18044771959E+04 0.  0.
        4    1    3    3  502    0  0.12247908718E+03 -0.21204207498E+03 -0.21082340886E+03  0.32312705083E+03  0.12699999809E+01 0.  1.
       -4    1    3    3    0  502 -0.12247908718E+03  0.21204207498E+03  0.29306170583E+04  0.29408299719E+04  0.12699999809E+01 0. -1.
</event>
<event>
 5   0  0.1239119E-04  0.1797075E+04  0.7818609E-02  0.8707856E-01
        1   -1    0    0  501    0  0.00000000000E+00  0.00000000000E+00  0.14653359228E+04  0.14653359228E+04  0.50400001928E-02 0. -1.
       -1   -1    0    0    0  501  0.00000000000E+00  0.00000000000E+00 -0.55097948088E+03  0.55097948090E+03  0.50400001928E-02 0.  1.
    10030    2    1    2    0    0  0.00000000000E+00  0.00000000000E+00  0.91435644195E+03  0.20163154037E+04  0.17970754309E+04 0.  0.
        5    1    3    3  502    0  0.19780596603E+02  0.40147286902E+03  0.13588182383E+04  0.14170324030E+04  0.46999998093E+01 0. -1.
       -5    1    3    3    0  502 -0.19780596603E+02 -0.40147286902E+03 -0.44446179633E+03  0.59928300072E+03  0.46999998093E+01 0.  1.
</event>
<event>
 5   0  0.2550616E-04  0.1799840E+04  0.7818609E-02  0.8706384E-01
       -2   -1    0    0    0  501  0.00000000000E+00  0.00000000000E+00  0.69860379844E+03  0.69860379845E+03  0.25500000920E-02 0. -1.
        2   -1    0    0  501    0  0.00000000000E+00  0.00000000000E+00 -0.11592497693E+04  0.11592497693E+04  0.25500000920E-02 0.  1.
    10030    2    1    2    0    0  0.00000000000E+00  0.00000000000E+00 -0.46064597087E+03  0.18578535678E+04  0.17998403176E+04 0.  0.
        1    1    3    3  502    0  0.72967706716E+03 -0.46334989916E+03 -0.48886484395E+03  0.99303101012E+03  0.50400001928E-02 0.  1.
       -1    1    3    3    0  502 -0.72967706716E+03  0.46334989916E+03  0.28218873080E+02  0.86482255764E+03  0.50400001928E-02 0. -1.
</event>
<event>
 5   0  0.2431811E-04  0.1825965E+04  0.7818609E-02  0.8692612E-01
       -2   -1    0    0    0  501  0.00000000000E+00  0.00000000000E+00  0.31062429739E+03  0.31062429740E+03  0.25500000920E-02 0. -1.
        2   -1    0    0  501    0  0.00000000000E+00  0.00000000000E+00 -0.26834246579E+04  0.26834246579E+04  0.25500000920E-02 0.  1.
    10030    2    1    2    0    0  0.00000000000E+00  0.00000000000E+00 -0.23728003605E+04  0.29940489553E+04  0.18259648397E+04 0.  0.
        3    1    3    3  502    0 -0.80298520945E+03  0.18800579945E+03 -0.18286247217E+04  0.20059909796E+04  0.10100000352E+00 0.  1.
       -3    1    3    3    0  502  0.80298520945E+03 -0.18800579945E+03 -0.54417563874E+03  0.98805797564E+03  0.10100000352E+00 0. -1.
</event>
<event>
 5   0  0.1214723E-04  0.1768090E+04  0.7818609E-02  0.8723456E-01
       -1   -1    0    0    0  501  0.00000000000E+00  0.00000000000E+00  0.71719759193E+03  0.71719759195E+03  0.50400001928E-02 0. -1.
        1   -1    0    0  501    0  0.00000000000E+00  0.00000000000E+00 -0.10897069481E+04  0.10897069481E+04  0.50400001928E-02 0.  1.
    10030    2    1    2    0    0  0.00000000000E+00  0.00000000000E+00 -0.37250935616E+03  0.18069045401E+04  0.17680895895E+04 0.  0.
        1    1    3    3  502    0  0.58755361698E+03  0.50649433678E+03  0.24705755034E+03  0.81412112073E+03  0.50400001928E-02 0. -1.
       -1    1    3    3    0  502 -0.58755361698E+03 -0.50649433678E+03 -0.61956690650E+03  0.99278341932E+03  0.50400001928E-02 0.  1.
</event>
<event>
 5   0  0.1308893E-04  0.1828242E+04  0.7818609E-02  0.8691423E-01
        1   -1    0    0  501    0  0.00000000000E+00  0.00000000000E+00  0.15305970319E+04  0.15305970319E+04  0.50400001928E-02 0.  1.
       -1   -1    0    0    0  501  0.00000000000E+00  0.00000000000E+00 -0.54594191509E+03  0.54594191511E+03  0.50400001928E-02 0. -1.
    10030    2    1    2    0    0  0.00000000000E+00  0.00000000000E+00  0.98465511685E+03  0.20765389471E+04  0.18282418602E+04 0.  0.
        4    1    3    3  502    0 -0.64132840455E+03 -0.13635905125E+03 -0.23114056306E+03  0.69521470506E+03  0.12699999809E+01 0. -1.
       -4    1    3    3    0  502  0.64132840455E+03  0.13635905125E+03  0.12157956799E+04  0.13813242420E+04  0.12699999809E+01 0.  1.
</event>
<event>
 5   0  0.1330225E-04  0.1749610E+04  0.7818609E-02  0.8733565E-01
        1   -1    0    0  501    0  0.00000000000E+00  0.00000000000E+00  0.11901097032E+04  0.11901097033E+04  0.50400001928E-02 0. -1.
       -1   -1    0    0    0  501  0.00000000000E+00  0.00000000000E+00 -0.64303662255E+03  0.64303662257E+03  0.50400001928E-02 0.  1.
    10030    2    1    2    0    0  0.00000000000E+00  0.00000000000E+00  0.54707308069E+03  0.18331463258E+04  0.17496103841E+04 0.  0.
        3    1    3    3  502    0  0.77243589382E+03  0.40849313942E+03  0.31749516075E+03  0.92969190720E+03  0.10100000352E+00 0. -1.
       -3    1    3    3    0  502 -0.77243589382E+03 -0.40849313942E+03  0.22957791995E+03  0.90345441863E+03  0.10100000352E+00 0.  1.
</event>
<event>
 5   0  0.1239119E-04  0.1770895E+04  0.7818609E-02  0.8721932E-01
        1   -1    0    0  501    0  0.00000000000E+00  0.00000000000E+00  0.14729639614E+04  0.14729639614E+04  0.50400001928E-02 0.  1.
       -1   -1    0    0    0  501  0.00000000000E+00  0.00000000000E+00 -0.53227213895E+03  0.53227213898E+03  0.50400001928E-02 0. -1.
    10030    2    1    2    0    0  0.00000000000E+00  0.00000000000E+00  0.94069182241E+03  0.20052361003E+04  0.17708954552E+04 0.  0.
        5    1    3    3  502    0 -0.77079461627E+03 -0.32400426975E+03  0.80026481794E+03  0.11573888612E+04  0.46999998093E+01 0.  1.
       -5    1    3    3    0  502  0.77079461627E+03  0.32400426975E+03  0.14042700447E+03  0.84784723911E+03  0.46999998093E+01 0. -1.
</event>
<event>
 5   0  0.1330225E-04  0.1791799E+04  0.7818609E-02  0.8710673E-01
       -1   -1    0    0    0  501  0.00000000000E+00  0.00000000000E+00  0.42387803295E+03  0.42387803298E+03  0.50400001928E-02 0. -1.
        1   -1    0    0  501    0  0.00000000000E+00  0.00000000000E+00 -0.18935537077E+04  0.18935537077E+04  0.50400001928E-02 0.  1.
    10030    2    1    2    0    0  0.00000000000E+00  0.00000000000E+00 -0.14696756748E+04  0.23174317407E+04  0.17917988960E+04 0.  0.
        3    1    3    3  502    0 -0.46721147655E+03  0.76374578315E+03 -0.77657986326E+03  0.11851879511E+04  0.10100000352E+00 0.  1.
       -3    1    3    3    0  502  0.46721147655E+03 -0.76374578315E+03 -0.69309581153E+03  0.11322437897E+04  0.10100000352E+00 0. -1.
</event>
<event>
 5   0  0.2417106E-04  0.1555280E+04  0.7818609E-02  0.8848502E-01
        2   -1    0    0  501    0  0.00000000000E+00  0.00000000000E+00  0.13310835221E+04  0.13310835221E+04  0.25500000920E-02 0. -1.
       -2   -1    0    0    0  501  0.00000000000E+00  0.00000000000E+00 -0.45430985117E+03  0.45430985118E+03  0.25500000920E-02 0.  1.
    10030    2    1    2    0    0  0.00000000000E+00  0.00000000000E+00  0.87677367091E+03  0.17853933733E+04  0.15552804979E+04 0.  0.
        4    1    3    3  502    0  0.67395626057E+03  0.34593976825E+03  0.63995487445E+03  0.99168302327E+03  0.12699999809E+01 0. -1.
       -4    1    3    3    0  502 -0.67395626057E+03 -0.34593976825E+03  0.23681879646E+03  0.79371034999E+03  0.12699999809E+01 0.  1.
</event>
<event>
 5   0  0.2550616E-04  0.1799258E+04  0.7818609E-02  0.8706694E-01
       -2   -1    0    0    0  501  0.00000000000E+00  0.00000000000E+00  0.15990395241E+04  0.15990395242E+04  0.25500000920E-02 0.  1.
        2   -1    0    0  501    0  0.00000000000E+00  0.00000000000E+00 -0.50613660033E+03  0.50613660034E+03  0.25500000920E-02 0. -1.
    10030    2    1    2    0    0  0.00000000000E+00  0.00000000000E+00  0.10929029238E+04  0.21051761245E+04  0.17992581011E+04 0.  0.
        1    1    3    3  502    0 -0.55774340405E+02 -0.70127406021E+03  0.12025383193E+04  0.13931957845E+04  0.50400001928E-02 0.  1.
       -1    1    3    3    0  502  0.55774340405E+02  0.70127406021E+03 -0.10963539547E+03  0.71198033999E+03  0.50400001928E-02 0. -1.
</event>
<event>
 5   0  0.1253925E-04  0.1787682E+04  0.7818609E-02  0.8712878E-01
        1   -1    0    0  501    0  0.00000000000E+00  0.00000000000E+00  0.84403996136E+03  0.84403996137E+03  0.50400001928E-02 0. -1.
       -1   -1    0    0    0  501  0.00000000000E+00  0.00000000000E+00 -0.94657995864E+03  0.94657995866E+03  0.50400001928E-02 0.  1.
    10030    2    1    2    0    0  0.00000000000E+00  0.00000000000E+00 -0.10253999729E+03  0.17906199200E+04  0.17876815284E+04 0.  0.
        2    1    3    3  502    0  0.73914514482E+03  0.19706262312E+02  0.45177798909E+03  0.86650287554E+03  0.25500000920E-02 0. -1.
       -2    1    3    3    0  502 -0.73914514482E+03 -0.19706262312E+02 -0.55431798637E+03  0.92411704449E+03  0.25500000920E-02 0.  1.
</event>
<event>
 5   0  0.2393421E-04  0.1803791E+04  0.7818609E-02  0.8704286E-01
       -2   -1    0    0    0  501  0.00000000000E+00  0.00000000000E+00  0.39149377747E+03  0.39149377748E+03  0.25500000920E-02 0. -1.
        2   -1    0    0  501    0  0.00000000000E+00  0.00000000000E+00 -0.20777215669E+04  0.20777215669E+04  0.25500000920E-02 0.  1.
    10030    2    1    2    0    0  0.00000000000E+00  0.00000000000E+00 -0.16862277894E+04  0.24692153444E+04  0.18037905253E+04 0.  0.
        5    1    3    3  502    0  0.71557716909E+03 -0.52158874844E+03 -0.60884546071E+03  0.10746256988E+04  0.46999998093E+01 0.  1.
       -5    1    3    3    0  502 -0.71557716909E+03  0.52158874844E+03 -0.10773823287E+04  0.13945896456E+04  0.46999998093E+01 0. -1.
</event>
<event>
 5   0  0.1253925E-04  0.1819583E+04  0.7818609E-02  0.8695955E-01
       -1   -1    0    0    0  501  0.00000000000E+00  0.00000000000E+00  0.77480728990E+03  0.77480728992E+03  0.50400001928E-02 0.  1.
        1   -1    0    0  501    0  0.00000000000E+00  0.00000000000E+00 -0.10682915999E+04  0.10682915999E+04  0.50400001928E-02 0. -1.
    10030    2    1    2    0    0  0.00000000000E+00  0.00000000000E+00 -0.29348430995E+03  0.18430988898E+04  0.18195825008E+04 0.  0.
        2    1    3    3  502    0 -0.59795925134E+03 -0.52643673719E+02  0.54575535903E+03  0.81128018253E+03  0.25500000920E-02 0.  1.
       -2    1    3    3    0  502  0.59795925134E+03  0.52643673719E+02 -0.83923966898E+03  0.10318187073E+04  0.25500000920E-02 0. -1.
</event>
<event>
 5   0  0.2569405E-04  0.1781204E+04  0.7818609E-02  0.8716359E-01
       -2   -1    0    0    0  501  0.00000000000E+00  0.00000000000E+00  0.52491644526E+03  0.52491644526E+03  0.25500000920E-02 0.  1.
        2   -1    0    0  501    0  0.00000000000E+00  0.00000000000E+00 -0.15110445549E+04  0.15110445549E+04  0.25500000920E-02 0. -1.
    10030    2    1    2    0    0  0.00000000000E+00  0.00000000000E+00 -0.98612810967E+03  0.20359610002E+04  0.17812042403E+04 0.  0.
        2    1    3    3  502    0  0.11334451662E+03 -0.83223284561E+03 -0.15454016680E+03  0.85401472583E+03  0.25500000920E-02 0.  1.
       -2    1    3    3    0  502 -0.11334451662E+03  0.83223284561E+03 -0.83158794287E+03  0.11819462744E+04  0.25500000920E-02 0. -1.
</event>
<event>
 5   0  0.2431811E-04  0.1798451E+04  0.7818609E-02  0.8707124E-01
       -2   -1    0    0    0  501  0.00000000000E+00  0.00000000000E+00  0.16835834533E+04  0.16835834534E+04  0.25500000920E-02 0. -1.
        2   -1    0    0  501    0  0.00000000000E+00  0.00000000000E+00 -0.48028895797E+03  0.48028895798E+03  0.25500000920E-02 0.  1.
    10030    2    1    2    0    0  0.00000000000E+00  0.00000000000E+00  0.12032944954E+04  0.21638724113E+04  0.17984510474E+04 0.  0.
        3    1    3    3  502    0 -0.62991430857E+03 -0.25242364129E+03  0.13115241493E+04  0.14766872842E+04  0.10100000352E+00 0. -1.
       -3    1    3    3    0  502  0.62991430857E+03  0.25242364129E+03 -0.10822965391E+03  0.68718512717E+03  0.10100000352E+00 0.  1.
</event>
<event>
 5   0  0.9144875E-05  0.1828006E+04  0.7818609E-02  0.8691547E-01
       -3   -1    0    0    0  501  0.00000000000E+00  0.00000000000E+00  0.70203322952E+03  0.70203323678E+03  0.10100000352E+00 0. -1.
        3   -1    0    0  501    0  0.00000000000E+00  0.00000000000E+00 -0.11899738294E+04  0.11899738337E+04  0.10100000352E+00 0.  1.
    10030    2    1    2    0    0  0.00000000000E+00  0.00000000000E+00 -0.48794059991E+03  0.18920070705E+04  0.18280056690E+04 0.  0.
        3    1    3    3  502    0 -0.90419740833E+03  0.12806457441E+02 -0.10641023916E+03  0.91052737893E+03  0.10100000352E+00 0. -1.
       -3    1    3    3    0  502  0.90419740833E+03 -0.12806457441E+02 -0.38153036076E+03  0.98147969157E+03  0.10100000352E+00 0.  1.
</event>
<event>
 5   0  0.2550616E-04  0.1799378E+04  0.7818609E-02  0.8706630E-01
       -2   -1    0    0    0  501  0.00000000000E+00  0.00000000000E+00  0.75660785692E+03  0.75660785692E+03  0.25500000920E-02 0. -1.
        2   -1    0    0  501    0  0.00000000000E+00  0.00000000000E+00 -0.10698279200E+04  0.10698279200E+04  0.25500000920E-02 0.  1.
    10030    2    1    2    0    0  0.00000000000E+00  0.00000000000E+00 -0.31322006309E+03  0.18264357769E+04  0.17993779034E+04 0.  0.
        1    1    3    3  502    0 -0.87485942565E+03  0.19201747939E+03 -0.70538199342E+02  0.89845721358E+03  0.50400001928E-02 0.  1.
       -1    1    3    3    0  502  0.87485942565E+03 -0.19201747939E+03 -0.24268186375E+03  0.92797856336E+03  0.50400001928E-02 0. -1.
</event>
<event>
 5   0  0.2417106E-04  0.1813035E+04  0.7818609E-02  0.8699398E-01
       -2   -1    0    0    0  501  0.00000000000E+00  0.00000000000E+00  0.87631847505E+03  0.87631847505E+03  0.25500000920E-02 0. -1.
        2   -1    0    0  501    0  0.00000000000E+00  0.00000000000E+00 -0.93775767095E+03  0.93775767095E+03  0.25500000920E-02 0.  1.
    10030    2    1    2    0    0  0.00000000000E+00  0.00000000000E+00 -0.61439195898E+02  0.18140761460E+04  0.18130354350E+04 0.  0.
        4    1    3    3  502    0  0.48134767439E+03  0.76255549257E+03 -0.12343505811E+03  0.91017816353E+03  0.12699999809E+01 0.  1.
       -4    1    3    3    0  502 -0.48134767439E+03 -0.76255549257E+03  0.61995862208E+02  0.90389798247E+03  0.12699999809E+01 0. -1.
</event>
<event>
 5   0  0.1239119E-04  0.1750084E+04  0.7818609E-02  0.8733304E-01
        1   -1    0    0  501    0  0.00000000000E+00  0.00000000000E+00  0.19071811568E+04  0.19071811568E+04  0.50400001928E-02 0. -1.
       -1   -1    0    0    0  501  0.00000000000E+00  0.00000000000E+00 -0.40148177590E+03  0.40148177593E+03  0.50400001928E-02 0.  1.
    10030    2    1    2    0    0  0.00000000000E+00  0.00000000000E+00  0.15056993809E+04  0.23086629327E+04  0.17500839726E+04 0.  0.
        5    1    3    3  502    0 -0.32150152936E+03 -0.15818284578E+03 -0.30025282868E+03  0.46750283123E+03  0.46999998093E+01 0.  1.
       -5    1    3    3    0  502  0.32150152936E+03  0.15818284578E+03  0.18059522096E+04  0.18411601015E+04  0.46999998093E+01 0. -1.
</event>
<event>
 5   0  0.1253925E-04  0.1674600E+04  0.7818609E-02  0.8775985E-01
        1   -1    0    0  501    0  0.00000000000E+00  0.00000000000E+00  0.10899246683E+04  0.10899246683E+04  0.50400001928E-02 0. -1.
       -1   -1    0    0    0  501  0.00000000000E+00  0.00000000000E+00 -0.64322914828E+03  0.64322914830E+03  0.50400001928E-02 0.  1.
    10030    2    1    2    0    0  0.00000000000E+00  0.00000000000E+00  0.44669552002E+03  0.17331538166E+04  0.16746000312E+04 0.  0.
        2    1    3    3  502    0  0.79337795440E+03 -0.26129577689E+03  0.16346933291E+03  0.85114410317E+03  0.25500000920E-02 0.  1.
       -2    1    3    3    0  502 -0.79337795440E+03  0.26129577689E+03  0.28322618711E+03  0.88200971345E+03  0.25500000920E-02 0. -1.
</event>
<event>
 5   0  0.1239119E-04  0.1777288E+04  0.7818609E-02  0.8718471E-01
       -1   -1    0    0    0  501  0.00000000000E+00  0.00000000000E+00  0.49023771885E+03  0.49023771888E+03  0.50400001928E-02 0. -1.
        1   -1    0    0  501    0  0.00000000000E+00  0.00000000000E+00 -0.16108273411E+04  0.16108273411E+04  0.50400001928E-02 0.  1.
    10030    2    1    2    0    0  0.00000000000E+00  0.00000000000E+00 -0.11205896222E+04  0.21010650600E+04  0.17772881828E+04 0.  0.
        5    1    3    3  502    0 -0.26703361057E+03 -0.10751508287E+03 -0.15541654321E+04  0.15806070740E+04  0.46999998093E+01 0.  1.
       -5    1    3    3    0  502  0.26703361057E+03  0.10751508287E+03  0.43357580986E+03  0.52045798593E+03  0.46999998093E+01 0. -1.
</event>
<event>
 5   0  0.2431811E-04  0.1803174E+04  0.7818609E-02  0.8704614E-01
       -2   -1    0    0    0  501  0.00000000000E+00  0.00000000000E+00  0.65324412919E+03  0.65324412920E+03  0.25500000920E-02 0.  1.
        2   -1    0    0  501    0  0.00000000000E+00  0.00000000000E+00 -0.12443416002E+04  0.12443416002E+04  0.25500000920E-02 0. -1.
    10030    2    1    2    0    0  0.00000000000E+00  0.00000000000E+00 -0.59109747096E+03  0.18975857294E+04  0.18031736966E+04 0.  0.
        3    1    3    3  502    0 -0.51870850775E+03 -0.62919736515E+03  0.10918002839E+03  0.82271995790E+03  0.10100000352E+00 0. -1.
       -3    1    3    3    0  502  0.51870850775E+03  0.62919736515E+03 -0.70027749935E+03  0.10748657714E+04  0.10100000352E+00 0.  1.
</event>
<event>
 5   0  0.2569405E-04  0.1798314E+04  0.7818609E-02  0.8707197E-01
        2   -1    0    0  501    0  0.00000000000E+00  0.00000000000E+00  0.10244961771E+04  0.10244961771E+04  0.25500000920E-02 0.  1.
       -2   -1    0    0    0  501  0.00000000000E+00  0.00000000000E+00 -0.78915173749E+03  0.78915173749E+03  0.25500000920E-02 0. -1.
    10030    2    1    2    0    0  0.00000000000E+00  0.00000000000E+00  0.23534443959E+03  0.18136479146E+04  0.17983135858E+04 0.  0.
        2    1    3    3  502    0 -0.45156591444E+03  0.76919202859E+03  0.30599358509E+01  0.89195152062E+03  0.25500000920E-02 0. -1.
       -2    1    3    3    0  502  0.45156591444E+03 -0.76919202859E+03  0.23228450374E+03  0.92169639395E+03  0.25500000920E-02 0.  1.
</event>
<event>
 5   0  0.2393421E-04  0.1789015E+04  0.7818609E-02  0.8712163E-01
        2   -1    0    0  501    0  0.00000000000E+00  0.00000000000E+00  0.18233758224E+04  0.18233758224E+04  0.25500000920E-02 0.  1.
       -2   -1    0    0    0  501  0.00000000000E+00  0.00000000000E+00 -0.43882538284E+03  0.43882538285E+03  0.25500000920E-02 0. -1.
    10030    2    1    2    0    0  0.00000000000E+00  0.00000000000E+00  0.13845504395E+04  0.22622012052E+04  0.17890149170E+04 0.  0.
        5    1    3    3  502    0 -0.20774223068E+03  0.85651020455E+03  0.49903094727E+03  0.10128279919E+04  0.46999998093E+01 0. -1.
       -5    1    3    3    0  502  0.20774223068E+03 -0.85651020455E+03  0.88551949226E+03  0.12493732133E+04  0.46999998093E+01 0.  1.
</event>
<event>
 5   0  0.1308893E-04  0.1793031E+04  0.7818609E-02  0.8710014E-01
        1   -1    0    0  501    0  0.00000000000E+00  0.00000000000E+00  0.10162714076E+04  0.10162714076E+04  0.50400001928E-02 0.  1.
       -1   -1    0    0    0  501  0.00000000000E+00  0.00000000000E+00 -0.79087115595E+03  0.79087115597E+03  0.50400001928E-02 0. -1.
    10030    2    1    2    0    0  0.00000000000E+00  0.00000000000E+00  0.22540025163E+03  0.18071425636E+04  0.17930306667E+04 0.  0.
        4    1    3    3  502    0 -0.42852052559E+03 -0.68586384338E+03 -0.27725466430E+03  0.85493322213E+03  0.12699999809E+01 0. -1.
       -4    1    3    3    0  502  0.42852052559E+03  0.68586384338E+03  0.50265491592E+03  0.95220934144E+03  0.12699999809E+01 0.  1.
</event>
<event>
 5   0  0.1214723E-04  0.1808089E+04  0.7818609E-02  0.8702010E-01
        1   -1    0    0  501    0  0.00000000000E+00  0.00000000000E+00  0.76644822324E+03  0.76644822326E+03  0.50400001928E-02 0. -1.
       -1   -1    0    0    0  501  0.00000000000E+00  0.00000000000E+00 -0.10663424424E+04  0.10663424424E+04  0.50400001928E-02 0.  1.
    10030    2    1    2    0    0  0.00000000000E+00  0.00000000000E+00 -0.29989421919E+03  0.18327906657E+04  0.18080887925E+04 0.  0.
        1    1    3    3  502    0 -0.81708070123E+03 -0.38683450532E+03 -0.14399634104E+03  0.91542162586E+03  0.50400001928E-02 0.  1.
       -1    1    3    3    0  502  0.81708070123E+03  0.38683450532E+03 -0.15589787815E+03  0.91736903985E+03  0.50400001928E-02 0. -1.
</event>
<event>
 5   0  0.2569405E-04  0.1814681E+04  0.7818609E-02  0.8698531E-01
        2   -1    0    0  501    0  0.00000000000E+00  0.00000000000E+00  0.13627348663E+04  0.13627348663E+04  0.25500000920E-02 0. -1.
       -2   -1    0    0    0  501  0.00000000000E+00  0.00000000000E+00 -0.60412835351E+03  0.60412835352E+03  0.25500000920E-02 0.  1.
    10030    2    1    2    0    0  0.00000000000E+00  0.00000000000E+00  0.75860651276E+03  0.19668632198E+04  0.18146809869E+04 0.  0.
        2    1    3    3  502    0 -0.63573653538E+03  0.22296219555E+03  0.10380501879E+04  0.12375060709E+04  0.25500000920E-02 0. -1.
       -2    1    3    3    0  502  0.63573653538E+03 -0.22296219555E+03 -0.27944367509E+03  0.72935714887E+03  0.25500000920E-02 0.  1.
</event>
<event>
 5   0  0.9144875E-05  0.1801708E+04  0.7818609E-02  0.8705392E-01
        3   -1    0    0  501    0  0.00000000000E+00  0.00000000000E+00  0.12183757763E+04  0.12183757805E+04  0.10100000352E+00 0.  1.
       -3   -1    0    0    0  501  0.00000000000E+00  0.00000000000E+00 -0.66608155866E+03  0.66608156632E+03  0.10100000352E+00 0. -1.
    10030    2    1    2    0    0  0.00000000000E+00  0.00000000000E+00  0.55229421768E+03  0.18844573468E+04  0.18017076869E+04 0.  0.
        4    1    3    3  502    0 -0.51491967688E+03 -0.78133288100E+02 -0.49265580958E+03  0.71690895096E+03  0.12699999809E+01 0. -1.
       -4    1    3    3    0  502  0.51491967688E+03  0.78133288100E+02  0.10449500273E+04  0.11675483959E+04  0.12699999809E+01 0.  1.
</event>
<event>
 5   0  0.1308893E-04  0.1809230E+04  0.7818609E-02  0.8701406E-01
        1   -1    0    0  501    0  0.00000000000E+00  0.00000000000E+00  0.11777050261E+04  0.11777050261E+04  0.50400001928E-02 0. -1.
       -1   -1    0    0    0  501  0.00000000000E+00  0.00000000000E+00 -0.69485008334E+03  0.69485008336E+03  0.50400001928E-02 0.  1.
    10030    2    1    2    0    0  0.00000000000E+00  0.00000000000E+00  0.48285494278E+03  0.18725551095E+04  0.18092301518E+04 0.  0.
        4    1    3    3  502    0  0.62219041888E+03 -0.45859884889E+03 -0.24501531652E+03  0.81084396759E+03  0.12699999809E+01 0.  1.
       -4    1    3    3    0  502 -0.62219041888E+03  0.45859884889E+03  0.72787025930E+03  0.10617111419E+04  0.12699999809E+01 0. -1.
</event>
<event>
 5   0  0.2417106E-04  0.1835873E+04  0.7818609E-02  0.8687452E-01
       -2   -1    0    0    0  501  0.00000000000E+00  0.00000000000E+00  0.95019304487E+03  0.95019304488E+03  0.25500000920E-02 0.  1.
        2   -1    0    0  501    0  0.00000000000E+00  0.00000000000E+00 -0.88677506789E+03  0.88677506789E+03  0.25500000920E-02 0. -1.
    10030    2    1    2    0    0  0.00000000000E+00  0.00000000000E+00  0.63417976985E+02  0.18369681128E+04  0.18358730913E+04 0.  0.
        4    1    3    3  502    0 -0.63722348759E+02 -0.87851570074E+03 -0.22681600507E+03  0.90955895203E+03  0.12699999809E+01 0. -1.
       -4    1    3    3    0  502  0.63722348759E+02  0.87851570074E+03  0.29023398206E+03  0.92740916073E+03  0.12699999809E+01 0.  1.
</event>
<event>
 5   0  0.1239119E-04  0.1848263E+04  0.7818609E-02  0.8681047E-01
        1   -1    0    0  501    0  0.00000000000E+00  0.00000000000E+00  0.99027974594E+03  0.99027974595E+03  0.50400001928E-02 0.  1.
       -1   -1    0    0    0  501  0.00000000000E+00  0.00000000000E+00 -0.86240170672E+03  0.86240170673E+03  0.50400001928E-02 0. -1.
    10030    2    1    2    0    0  0.00000000000E+00  0.00000000000E+00  0.12787803922E+03  0.18526814527E+04  0.18482629067E+04 0.  0.
        5    1    3    3  502    0 -0.83861842934E+03 -0.48031371241E+02 -0.32222079938E+03  0.89968673226E+03  0.46999998093E+01 0. -1.
       -5    1    3    3    0  502  0.83861842934E+03  0.48031371241E+02  0.45009883860E+03  0.95299472042E+03  0.46999998093E+01 0.  1.
</event>
<event>
 5   0  0.2431811E-04  0.1794904E+04  0.7818609E-02  0.8709014E-01
        2   -1    0    0  501    0  0.00000000000E+00  0.00000000000E+00  0.25270193170E+04  0.25270193170E+04  0.25500000920E-02 0.  1.
       -2   -1    0    0    0  501  0.00000000000E+00  0.00000000000E+00 -0.31872329570E+03  0.31872329571E+03  0.25500000920E-02 0. -1.
    10030    2    1    2    0    0  0.00000000000E+00  0.00000000000E+00  0.22082960213E+04  0.28457426128E+04  0.17949038136E+04 0.  0.
        3    1    3    3  502    0  0.35005487710E+03  0.17007510026E+03 -0.17797202606E+03  0.42794626879E+03  0.10100000352E+00 0. -1.
       -3    1    3    3    0  502 -0.35005487710E+03 -0.17007510026E+03  0.23862680474E+04  0.24177963440E+04  0.10100000352E+00 0.  1.
</event>
<event>
 5   0  0.2550616E-04  0.1774517E+04  0.7818609E-02  0.8719970E-01
       -2   -1    0    0    0  501  0.00000000000E+00  0.00000000000E+00  0.67587670944E+03  0.67587670944E+03  0.25500000920E-02 0.  1.
        2   -1    0    0  501    0  0.00000000000E+00  0.00000000000E+00 -0.11647504154E+04  0.11647504154E+04  0.25500000920E-02 0. -1.
    10030    2    1    2    0    0  0.00000000000E+00  0.00000000000E+00 -0.48887370593E+03  0.18406271248E+04  0.17745170363E+04 0.  0.
        1    1    3    3  502    0 -0.23045767980E+03  0.27149845071E+03  0.59849214475E+03  0.69643018191E+03  0.50400001928E-02 0.  1.
       -1    1    3    3    0  502  0.23045767980E+03 -0.27149845071E+03 -0.10873658507E+04  0.11441969429E+04  0.50400001928E-02 0. -1.
</event>
<event>
 5   0  0.1214723E-04  0.1809777E+04  0.7818609E-02  0.8701117E-01
       -1   -1    0    0    0  501  0.00000000000E+00  0.00000000000E+00  0.73826572075E+03  0.73826572076E+03  0.50400001928E-02 0.  1.
        1   -1    0    0  501    0  0.00000000000E+00  0.00000000000E+00 -0.11091172077E+04  0.11091172077E+04  0.50400001928E-02 0. -1.
    10030    2    1    2    0    0  0.00000000000E+00  0.00000000000E+00 -0.37085148699E+03  0.18473829285E+04  0.18097770192E+04 0.  0.
        1    1    3    3  502    0 -0.35915598759E+03 -0.30383294883E+03  0.60362789807E+03  0.76529348852E+03  0.50400001928E-02 0.  1.
       -1    1    3    3    0  502  0.35915598759E+03  0.30383294883E+03 -0.97447938506E+03  0.10820894400E+04  0.50400001928E-02 0. -1.
</event>
<event>
 5   0  0.1253925E-04  0.1750535E+04  0.7818609E-02  0.8733056E-01
        1   -1    0    0  501    0  0.00000000000E+00  0.00000000000E+00  0.83628015890E+03  0.83628015892E+03  0.50400001928E-02 0. -1.
       -1   -1    0    0    0  501  0.00000000000E+00  0.00000000000E+00 -0.91607228674E+03  0.91607228675E+03  0.50400001928E-02 0.  1.
    10030    2    1    2    0    0  0.00000000000E+00  0.00000000000E+00 -0.79792127837E+02  0.17523524457E+04  0.17505348640E+04 0.  0.
        2    1    3    3  502    0 -0.45071117610E+03  0.63360480717E+03 -0.44218079092E+03  0.89449397304E+03  0.25500000920E-02 0. -1.
       -2    1    3    3    0  502  0.45071117610E+03 -0.63360480717E+03  0.36238866309E+03  0.85785847264E+03  0.25500000920E-02 0.  1.
</event>
<event>
 5   0  0.1308893E-04  0.1802028E+04  0.7818609E-02  0.8705222E-01
       -1   -1    0    0    0  501  0.00000000000E+00  0.00000000000E+00  0.44094589008E+03  0.44094589011E+03  0.50400001928E-02 0.  1.
        1   -1    0    0  501    0  0.00000000000E+00  0.00000000000E+00 -0.18411024768E+04  0.18411024768E+04  0.50400001928E-02 0. -1.
    10030    2    1    2    0    0  0.00000000000E+00  0.00000000000E+00 -0.14001565867E+04  0.22820483669E+04  0.18020283798E+04 0.  0.
        4    1    3    3  502    0 -0.22564194228E+03 -0.11169954758E+03  0.39549122030E+03  0.46883471851E+03  0.12699999809E+01 0.  1.
       -4    1    3    3    0  502  0.22564194228E+03  0.11169954758E+03 -0.17956478070E+04  0.18132136484E+04  0.12699999809E+01 0. -1.
</event>
<event>
 5   0  0.1308893E-04  0.1778497E+04  0.7818609E-02  0.8717819E-01
       -1   -1    0    0    0  501  0.00000000000E+00  0.00000000000E+00  0.56831673828E+03  0.56831673830E+03  0.50400001928E-02 0. -1.
        1   -1    0    0  501    0  0.00000000000E+00  0.00000000000E+00 -0.13914125379E+04  0.13914125379E+04  0.50400001928E-02 0.  1.
    10030    2    1    2    0    0  0.00000000000E+00  0.00000000000E+00 -0.82309579959E+03  0.19597292762E+04  0.17784971579E+04 0.  0.
        4    1    3    3  502    0  0.61221838447E+03 -0.57836229171E+03 -0.97076754957E+02  0.84778523225E+03  0.12699999809E+01 0. -1.
       -4    1    3    3    0  502 -0.61221838447E+03  0.57836229171E+03 -0.72601904463E+03  0.11119440439E+04  0.12699999809E+01 0.  1.
</event>
<event>
 5   0  0.1214723E-04  0.1801753E+04  0.7818609E-02  0.8705368E-01
       -1   -1    0    0    0  501  0.00000000000E+00  0.00000000000E+00  0.12974129152E+04  0.12974129152E+04  0.50400001928E-02 0. -1.
        1   -1    0    0  501    0  0.00000000000E+00  0.00000000000E+00 -0.62553619467E+03  0.62553619469E+03  0.50400001928E-02 0.  1.
    10030    2    1    2    0    0  0.00000000000E+00  0.00000000000E+00  0.67187672056E+03  0.19229491099E+04  0.18017532994E+04 0.  0.
        1    1    3    3  502    0 -0.50052004050E+03  0.55286879220E+03  0.87529776627E+03  0.11499262550E+04  0.50400001928E-02 0. -1.
       -1    1    3    3    0  502  0.50052004050E+03 -0.55286879220E+03 -0.20342104571E+03  0.77302285490E+03  0.50400001928E-02 0.  1.
</event>
<event>
 5   0  0.2393421E-04  0.1793363E+04  0.7818609E-02  0.8709837E-01
       -2   -1    0    0    0  501  0.00000000000E+00  0.00000000000E+00  0.51897933537E+03  0.51897933538E+03  0.25500000920E-02 0.  1.
        2   -1    0    0  501    0  0.00000000000E+00  0.00000000000E+00 -0.15492668427E+04  0.15492668427E+04  0.25500000920E-02 0. -1.
    10030    2    1    2    0    0  0.00000000000E+00  0.00000000000E+00 -0.10302875074E+04  0.20682461781E+04  0.17933627367E+04 0.  0.
        5    1    3    3  502    0 -0.39523835416E+03 -0.32986946834E+03 -0.13618323353E+04  0.14558971880E+04  0.46999998093E+01 0. -1.
       -5    1    3    3    0  502  0.39523835416E+03  0.32986946834E+03  0.33154482791E+03  0.61234899008E+03  0.46999998093E+01 0.  1.
</event>
<event>
 5   0  0.2569405E-04  0.1783687E+04  0.7818609E-02  0.8715023E-01
        2   -1    0    0  501    0  0.00000000000E+00  0.00000000000E+00  0.22896295703E+04  0.22896295703E+04  0.25500000920E-02 0. -1.
       -2   -1    0    0    0  501  0.00000000000E+00  0.00000000000E+00 -0.34738579082E+03  0.34738579083E+03  0.25500000920E-02 0.  1.
    10030    2    1    2    0    0  0.00000000000E+00  0.00000000000E+00  0.19422437795E+04  0.26370153612E+04  0.17836869445E+04 0.  0.
        2    1    3    3  502    0 -0.59132239147E+03 -0.27370101862E+03  0.70857739710E+02  0.65543515128E+03  0.25500000920E-02 0.  1.
       -2    1    3    3    0  502  0.59132239147E+03  0.27370101862E+03  0.18713860398E+04  0.19815802099E+04  0.25500000920E-02 0. -1.
</event>
<event>
 5   0  0.1253925E-04  0.1809132E+04  0.7818609E-02  0.8701458E-01
       -1   -1    0    0    0  501  0.00000000000E+00  0.00000000000E+00  0.63598035902E+03  0.63598035904E+03  0.50400001928E-02 0. -1.
        1   -1    0    0  501    0  0.00000000000E+00  0.00000000000E+00 -0.12865803025E+04  0.12865803025E+04  0.50400001928E-02 0.  1.
    10030    2    1    2    0    0  0.00000000000E+00  0.00000000000E+00 -0.65059994348E+03  0.19225606615E+04  0.18091321706E+04 0.  0.
        2    1    3    3  502    0 -0.46406141279E+03 -0.16715499453E+03 -0.11310925994E+04  0.12339628258E+04  0.25500000920E-02 0.  1.
       -2    1    3    3    0  502  0.46406141279E+03  0.16715499453E+03  0.48049265590E+03  0.68859783576E+03  0.25500000920E-02 0. -1.
</event>
<event>
 5   0  0.1214723E-04  0.1794613E+04  0.7818609E-02  0.8709170E-01
        1   -1    0    0  501    0  0.00000000000E+00  0.00000000000E+00  0.93302806515E+03  0.93302806516E+03  0.50400001928E-02 0.  1.
       -1   -1    0    0    0  501  0.00000000000E+00  0.00000000000E+00 -0.86295217301E+03  0.86295217302E+03  0.50400001928E-02 0. -1.
    10030    2    1    2    0    0  0.00000000000E+00  0.00000000000E+00  0.70075892140E+02  0.17959802382E+04  0.17946126003E+04 0.  0.
        1    1    3    3  502    0 -0.60023602104E+03  0.34417864157E+03 -0.53672605961E+03  0.87568092440E+03  0.50400001928E-02 0. -1.
       -1    1    3    3    0  502  0.60023602104E+03 -0.34417864157E+03  0.60680195175E+03  0.92029931378E+03  0.50400001928E-02 0.  1.
</event>
<event>
 5   0  0.1330225E-04  0.1795169E+04  0.7818609E-02  0.8708873E-01
       -1   -1    0    0    0  501  0.00000000000E+00  0.00000000000E+00  0.38580131158E+03  0.38580131161E+03  0.50400001928E-02 0.  1.
        1   -1    0    0  501    0  0.00000000000E+00  0.00000000000E+00 -0.20882710307E+04  0.20882710307E+04  0.50400001928E-02 0. -1.
    10030    2    1    2    0    0  0.00000000000E+00  0.00000000000E+00 -0.17024697191E+04  0.24740723423E+04  0.17951687415E+04 0.  0.
        3    1    3    3  502    0  0.44125502224E+03  0.10172191843E+03 -0.19193088841E+04  0.19720040432E+04  0.10100000352E+00 0. -1.
       -3    1    3    3    0  502 -0.44125502224E+03 -0.10172191843E+03  0.21683916501E+03  0.50206829916E+03  0.10100000352E+00 0.  1.
</event>
<event>
 5   0  0.1214723E-04  0.1737757E+04  0.7818609E-02  0.8740118E-01
        1   -1    0    0  501    0  0.00000000000E+00  0.00000000000E+00  0.14730553316E+04  0.14730553316E+04  0.50400001928E-02 0.  1.
       -1   -1    0    0    0  501  0.00000000000E+00  0.00000000000E+00 -0.51250622447E+03  0.51250622449E+03  0.50400001928E-02 0. -1.
    10030    2    1    2    0    0  0.00000000000E+00  0.00000000000E+00  0.96054910711E+03  0.19855615561E+04  0.17377572057E+04 0.  0.
        1    1    3    3  502    0  0.21600057277E+03 -0.40830968910E+03 -0.36058672604E+03  0.58599986065E+03  0.50400001928E-02 0. -1.
       -1    1    3    3    0  502 -0.21600057277E+03  0.40830968910E+03  0.13211358332E+04  0.13995616954E+04  0.50400001928E-02 0.  1.
</event>
<event>
 5   0  0.1308893E-04  0.1993380E+04  0.7818609E-02  0.8609722E-01
        1   -1    0    0  501    0  0.00000000000E+00  0.00000000000E+00  0.19887770756E+04  0.19887770757E+04  0.50400001928E-02 0.  1.
       -1   -1    0    0    0  501  0.00000000000E+00  0.00000000000E+00 -0.49949863615E+03  0.49949863618E+03  0.50400001928E-02 0. -1.
    10030    2    1    2    0    0  0.00000000000E+00  0.00000000000E+00  0.14892784395E+04  0.24882757118E+04  0.19933804824E+04 0.  0.
        4    1    3    3  502    0 -0.13254994972E+03 -0.94892491833E+03  0.10873154880E+04  0.14492358584E+04  0.12699999809E+01 0.  1.
       -4    1    3    3    0  502  0.13254994972E+03  0.94892491833E+03  0.40196295145E+03  0.10390398534E+04  0.12699999809E+01 0. -1.
</event>
<event>
 5   0  0.1308893E-04  0.1824411E+04  0.7818609E-02  0.8693425E-01
        1   -1    0    0  501    0  0.00000000000E+00  0.00000000000E+00  0.67963259922E+03  0.67963259924E+03  0.50400001928E-02 0.  1.
       -1   -1    0    0    0  501  0.00000000000E+00  0.00000000000E+00 -0.12243654832E+04  0.12243654832E+04  0.50400001928E-02 0. -1.
    10030    2    1    2    0    0  0.00000000000E+00  0.00000000000E+00 -0.54473288399E+03  0.19039980825E+04  0.18244108044E+04 0.  0.
        4    1    3    3  502    0 -0.41038304390E+03 -0.62261291337E+02  0.57536580920E+03  0.70946327489E+03  0.12699999809E+01 0.  1.
       -4    1    3    3    0  502  0.41038304390E+03  0.62261291337E+02 -0.11200986932E+04  0.11945348076E+04  0.12699999809E+01 0. -1.
</event>
<event>
 5   0  0.1330225E-04  0.1770209E+04  0.7818609E-02  0.8722304E-01
       -1   -1    0    0    0  501  0.00000000000E+00  0.00000000000E+00  0.13161615382E+04  0.13161615383E+04  0.50400001928E-02 0.  1.
        1   -1    0    0  501    0  0.00000000000E+00  0.00000000000E+00 -0.59522347934E+03  0.59522347936E+03  0.50400001928E-02 0. -1.
    10030    2    1    2    0    0  0.00000000000E+00  0.00000000000E+00  0.72093805890E+03  0.19113850176E+04  0.17702093099E+04 0.  0.
        3    1    3    3  502    0  0.40534260683E+03 -0.52728951899E+03  0.99105959066E+03  0.11935392696E+04  0.10100000352E+00 0.  1.
       -3    1    3    3    0  502 -0.40534260683E+03  0.52728951899E+03 -0.27012153176E+03  0.71784574797E+03  0.10100000352E+00 0. -1.
</event>
<event>
 5   0  0.2569405E-04  0.1793802E+04  0.7818609E-02  0.8709602E-01
        2   -1    0    0  501    0  0.00000000000E+00  0.00000000000E+00  0.10407130282E+04  0.10407130282E+04  0.25500000920E-02 0. -1.
       -2   -1    0    0    0  501  0.00000000000E+00  0.00000000000E+00 -0.77296171936E+03  0.77296171937E+03  0.25500000920E-02 0.  1.
    10030    2    1    2    0    0  0.00000000000E+00  0.00000000000E+00  0.26775130880E+03  0.18136747475E+04  0.17938019195E+04 0.  0.
        2    1    3    3  502    0 -0.76501304055E+03  0.46706458577E+03  0.16643571579E+03  0.91164418880E+03  0.25500000920E-02 0.  1.
       -2    1    3    3    0  502  0.76501304055E+03 -0.46706458577E+03  0.10131559301E+03  0.90203055873E+03  0.25500000920E-02 0. -1.
</event>
<event>
 5   0  0.1239119E-04  0.1811835E+04  0.7818609E-02  0.8700031E-01
       -1   -1    0    0    0  501  0.00000000000E+00  0.00000000000E+00  0.55059352143E+03  0.55059352145E+03  0.50400001928E-02 0. -1.
        1   -1    0    0  501    0  0.00000000000E+00  0.00000000000E+00 -0.14905482839E+04  0.14905482839E+04  0.50400001928E-02 0.  1.
    10030    2    1    2    0    0  0.00000000000E+00  0.00000000000E+00 -0.93995476250E+03  0.20411418054E+04  0.18118346818E+04 0.  0.
        5    1    3    3  502    0 -0.34978397592E+03 -0.52688687752E+03 -0.12006851387E+04  0.13570650330E+04  0.46999998093E+01 0.  1.
       -5    1    3    3    0  502  0.34978397592E+03  0.52688687752E+03  0.26073037616E+03  0.68407677242E+03  0.46999998093E+01 0. -1.
</event>
<event>
 5   0  0.2550616E-04  0.1829461E+04  0.7818609E-02  0.8690787E-01
       -2   -1    0    0    0  501  0.00000000000E+00  0.00000000000E+00  0.33286416833E+03  0.33286416834E+03  0.25500000920E-02 0. -1.
        2   -1    0    0  501    0  0.00000000000E+00  0.00000000000E+00 -0.25137349171E+04  0.25137349171E+04  0.25500000920E-02 0.  1.
    10030    2    1    2    0    0  0.00000000000E+00  0.00000000000E+00 -0.21808707488E+04  0.28465990855E+04  0.18294614318E+04 0.  0.
        1    1    3    3  502    0 -0.45317307959E+03 -0.36231194206E+03 -0.21907831109E+04  0.22663111928E+04  0.50400001928E-02 0.  1.
       -1    1    3    3    0  502  0.45317307959E+03  0.36231194206E+03  0.99123621488E+01  0.58028789267E+03  0.50400001928E-02 0. -1.
</event>
<event>
 5   0  0.1330225E-04  0.1768870E+04  0.7818609E-02  0.8723031E-01
       -1   -1    0    0    0  501  0.00000000000E+00  0.00000000000E+00  0.10701407483E+04  0.10701407483E+04  0.50400001928E-02 0.  1.
        1   -1    0    0  501    0  0.00000000000E+00  0.00000000000E+00 -0.73095567744E+03  0.73095567746E+03  0.50400001928E-02 0. -1.
    10030    2    1    2    0    0  0.00000000000E+00  0.00000000000E+00  0.33918507081E+03  0.18010964257E+04  0.17688702108E+04 0.  0.
        3    1    3    3  502    0 -0.20825859478E+03  0.17274940297E+03  0.10269612256E+04  0.10620091184E+04  0.10100000352E+00 0.  1.
       -3    1    3    3    0  502  0.20825859478E+03 -0.17274940297E+03 -0.68777615478E+03  0.73908730730E+03  0.10100000352E+00 0. -1.
</event>
<event>
 5   0  0.2550616E-04  0.1783353E+04  0.7818609E-02  0.8715203E-01
        2   -1    0    0  501    0  0.00000000000E+00  0.00000000000E+00  0.84390579564E+03  0.84390579565E+03  0.25500000920E-02 0. -1.
       -2   -1    0    0    0  501  0.00000000000E+00  0.00000000000E+00 -0.94215141312E+03  0.94215141312E+03  0.25500000920E-02 0.  1.
    10030    2    1    2    0    0  0.00000000000E+00  0.00000000000E+00 -0.98245617478E+02  0.17860572088E+04  0.17833530642E+04 0.  0.
        1    1    3    3  502    0 -0.61009006500E+03  0.61955197201E+03  0.14874322221E+03  0.88214459110E+03  0.50400001928E-02 0. -1.
       -1    1    3    3    0  502  0.61009006500E+03 -0.61955197201E+03 -0.24698883969E+03  0.90391261767E+03  0.50400001928E-02 0.  1.
</event>
<event>
 5   0  0.1214723E-04  0.1799627E+04  0.7818609E-02  0.8706498E-01
        1   -1    0    0  501    0  0.00000000000E+00  0.00000000000E+00  0.11638308335E+04  0.11638308335E+04  0.50400001928E-02 0.  1.
       -1   -1    0    0    0  501  0.00000000000E+00  0.00000000000E+00 -0.69568922951E+03  0.69568922953E+03  0.50400001928E-02 0. -1.
    10030    2    1    2    0    0  0.00000000000E+00  0.00000000000E+00  0.46814160396E+03  0.18595200630E+04  0.17996272679E+04 0.  0.
        1    1    3    3  502    0  0.69350976767E+03 -0.57113995199E+03  0.18232486119E+03  0.91673278420E+03  0.50400001928E-02 0. -1.
       -1    1    3    3    0  502 -0.69350976767E+03  0.57113995199E+03  0.28581674278E+03  0.94278727881E+03  0.50400001928E-02 0.  1.
</event>
<event>
 5   0  0.2393421E-04  0.1759263E+04  0.7818609E-02  0.8728268E-01
        2   -1    0    0  501    0  0.00000000000E+00  0.00000000000E+00  0.16359175411E+04  0.16359175411E+04  0.25500000920E-02 0.  1.
       -2   -1    0    0    0  501  0.00000000000E+00  0.00000000000E+00 -0.47297688777E+03  0.47297688778E+03  0.25500000920E-02 0. -1.
    10030    2    1    2    0    0  0.00000000000E+00  0.00000000000E+00  0.11629406534E+04  0.21088944289E+04  0.17592625583E+04 0.  0.
        5    1    3    3  502    0 -0.59694414287E+03  0.47074459627E+03  0.11118847721E+04  0.13469419516E+04  0.46999998093E+01 0. -1.
       -5    1    3    3    0  502  0.59694414287E+03 -0.47074459627E+03  0.51055881250E+02  0.76195247727E+03  0.46999998093E+01 0.  1.
</event>
<event>
 5   0  0.1253925E-04  0.1781024E+04  0.7818609E-02  0.8716456E-01
       -1   -1    0    0    0  501  0.00000000000E+00  0.00000000000E+00  0.41623527540E+03  0.41623527543E+03  0.50400001928E-02 0. -1.
        1   -1    0    0  501    0  0.00000000000E+00  0.00000000000E+00 -0.19052003282E+04  0.19052003282E+04  0.50400001928E-02 0.  1.
    10030    2    1    2    0    0  0.00000000000E+00  0.00000000000E+00 -0.14889650528E+04  0.23214356037E+04  0.17810239564E+04 0.  0.
        2    1    3    3  502    0  0.10926695644E+03 -0.11617128224E+03  0.39746915552E+03  0.42827183445E+03  0.25500000920E-02 0. -1.
       -2    1    3    3    0  502 -0.10926695644E+03  0.11617128224E+03 -0.18864342084E+04  0.18931637692E+04  0.25500000920E-02 0.  1.
</event>
<event>
 5   0  0.2431811E-04  0.1793179E+04  0.7818609E-02  0.8709935E-01
        2   -1    0    0  501    0  0.00000000000E+00  0.00000000000E+00  0.17692732755E+04  0.17692732755E+04  0.25500000920E-02 0. -1.
       -2   -1    0    0    0  501  0.00000000000E+00  0.00000000000E+00 -0.45435197629E+03  0.45435197630E+03  0.25500000920E-02 0.  1.
    10030    2    1    2    0    0  0.00000000000E+00  0.00000000000E+00  0.13149212992E+04  0.22236252518E+04  0.17931790868E+04 0.  0.
        3    1    3    3  502    0 -0.87787318880E+03 -0.13970468248E+03  0.80257291695E+03  0.11976234931E+04  0.10100000352E+00 0. -1.
       -3    1    3    3    0  502  0.87787318880E+03  0.13970468248E+03  0.51234838225E+03  0.10260017587E+04  0.10100000352E+00 0.  1.
</event>
<event>
 5   0  0.2569405E-04  0.2006659E+04  0.7818609E-02  0.8603513E-01
       -2   -1    0    0    0  501  0.00000000000E+00  0.00000000000E+00  0.12150519479E+04  0.12150519479E+04  0.25500000920E-02 0. -1.
        2   -1    0    0  501    0  0.00000000000E+00  0.00000000000E+00 -0.82850003809E+03  0.82850003809E+03  0.25500000920E-02 0.  1.
    10030    2    1    2    0    0  0.00000000000E+00  0.00000000000E+00  0.38655190983E+03  0.20435519860E+04  0.20066594979E+04 0.  0.
        2    1    3    3  502    0 -0.86182123363E+03  0.40776581001E+03 -0.12497839366E+03  0.96157599463E+03  0.25500000920E-02 0.  1.
       -2    1    3    3    0  502  0.86182123363E+03 -0.40776581001E+03  0.51153030349E+03  0.10819759914E+04  0.25500000920E-02 0. -1.
</event>
<event>
 5   0  0.9144875E-05  0.1584995E+04  0.7818609E-02  0.8829819E-01
       -4   -1    0    0    0  501  0.00000000000E+00  0.00000000000E+00  0.83871705939E+03  0.83871802092E+03  0.12699999809E+01 0.  1.
        4   -1    0    0  501    0  0.00000000000E+00  0.00000000000E+00 -0.74882351690E+03  0.74882459385E+03  0.12699999809E+01 0. -1.
    10030    2    1    2    0    0  0.00000000000E+00  0.00000000000E+00  0.89893542489E+02  0.15875426148E+04  0.15849954904E+04 0.  0.
        5    1    3    3  502    0  0.28958214365E+03  0.20850345478E+03 -0.66379129082E+03  0.75363948698E+03  0.46999998093E+01 0. -1.
       -5    1    3    3    0  502 -0.28958214365E+03 -0.20850345478E+03  0.75368483331E+03  0.83390312779E+03  0.46999998093E+01 0.  1.
</event>
<event>
 5   0  0.2393421E-04  0.1783971E+04  0.7818609E-02  0.8714870E-01
        2   -1    0    0  501    0  0.00000000000E+00  0.00000000000E+00  0.93010211439E+03  0.93010211439E+03  0.25500000920E-02 0. -1.
       -2   -1    0    0    0  501  0.00000000000E+00  0.00000000000E+00 -0.85543102558E+03  0.85543102558E+03  0.25500000920E-02 0.  1.
    10030    2    1    2    0    0  0.00000000000E+00  0.00000000000E+00  0.74671088807E+02  0.17855331400E+04  0.17839710823E+04 0.  0.
        5    1    3    3  502    0 -0.50506127457E+03 -0.69247735822E+03 -0.20987127453E+03  0.88242836796E+03  0.46999998093E+01 0. -1.
       -5    1    3    3    0  502  0.50506127457E+03  0.69247735822E+03  0.28454236334E+03  0.90310477202E+03  0.46999998093E+01 0.  1.
</event>
<event>
 5   0  0.2393421E-04  0.1780907E+04  0.7818609E-02  0.8716519E-01
       -2   -1    0    0    0  501  0.00000000000E+00  0.00000000000E+00  0.83074710769E+03  0.83074710769E+03  0.25500000920E-02 0.  1.
        2   -1    0    0  501    0  0.00000000000E+00  0.00000000000E+00 -0.95445075504E+03  0.95445075505E+03  0.25500000920E-02 0. -1.
    10030    2    1    2    0    0  0.00000000000E+00  0.00000000000E+00 -0.12370364736E+03  0.17851978627E+04  0.17809067401E+04 0.  0.
        5    1    3    3  502    0 -0.23065776576E+03 -0.58731477797E+03  0.56794817137E+03  0.84895751877E+03  0.46999998093E+01 0.  1.
       -5    1    3    3    0  502  0.23065776576E+03  0.58731477797E+03 -0.69165181873E+03  0.93624034397E+03  0.46999998093E+01 0. -1.
</event>
<event>
 5   0  0.2431811E-04  0.1822733E+04  0.7818609E-02  0.8694303E-01
       -2   -1    0    0    0  501  0.00000000000E+00  0.00000000000E+00  0.12292007253E+04  0.12292007253E+04  0.25500000920E-02 0.  1.
        2   -1    0    0  501    0  0.00000000000E+00  0.00000000000E+00 -0.67571445599E+03  0.67571445600E+03  0.25500000920E-02 0. -1.
    10030    2    1    2    0    0  0.00000000000E+00  0.00000000000E+00  0.55348626935E+03  0.19049151813E+04  0.18227327829E+04 0.  0.
        3    1    3    3  502    0  0.27970962393E+03 -0.85548016932E+03  0.42639475297E+03  0.99593990249E+03  0.10100000352E+00 0.  1.
       -3    1    3    3    0  502 -0.27970962393E+03  0.85548016932E+03  0.12709151638E+03  0.90897527885E+03  0.10100000352E+00 0. -1.
</event>
<event>
 5   0  0.2550616E-04  0.1870657E+04  0.7818609E-02  0.8669602E-01
        2   -1    0    0  501    0  0.00000000000E+00  0.00000000000E+00  0.98630181935E+03  0.98630181936E+03  0.25500000920E-02 0.  1.
       -2   -1    0    0    0  501  0.00000000000E+00  0.00000000000E+00 -0.88698969199E+03  0.88698969200E+03  0.25500000920E-02 0. -1.
    10030    2    1    2    0    0  0.00000000000E+00  0.00000000000E+00  0.99312127361E+02  0.18732915114E+04  0.18706571540E+04 0.  0.
        1    1    3    3  502    0 -0.91162758100E+03  0.20884697992E+03  0.37082926370E+02  0.93597919364E+03  0.50400001928E-02 0. -1.
       -1    1    3    3    0  502  0.91162758100E+03 -0.20884697992E+03  0.62229200991E+02  0.93731231772E+03  0.50400001928E-02 0.  1.
</event>
<event>
 5   0  0.1239119E-04  0.1809272E+04  0.7818609E-02  0.8701384E-01
       -1   -1    0    0    0  501  0.00000000000E+00  0.00000000000E+00  0.74155790689E+03  0.74155790691E+03  0.50400001928E-02 0. -1.
        1   -1    0    0  501    0  0.00000000000E+00  0.00000000000E+00 -0.11035766299E+04  0.11035766299E+04  0.50400001928E-02 0.  1.
    10030    2    1    2    0    0  0.00000000000E+00  0.00000000000E+00 -0.36201872302E+03  0.18451345368E+04  0.18092716499E+04 0.  0.
        5    1    3    3  502    0 -0.32660072745E+03 -0.58043594047E+03 -0.80532850456E+03  0.10450598100E+04  0.46999998093E+01 0.  1.
       -5    1    3    3    0  502  0.32660072745E+03  0.58043594047E+03  0.44330978154E+03  0.80007472686E+03  0.46999998093E+01 0. -1.
</event>
<event>
 5   0  0.1214723E-04  0.1812305E+04  0.7818609E-02  0.8699783E-01
       -1   -1    0    0    0  501  0.00000000000E+00  0.00000000000E+00  0.10230985870E+04  0.10230985870E+04  0.50400001928E-02 0.  1.
        1   -1    0    0  501    0  0.00000000000E+00  0.00000000000E+00 -0.80257444462E+03  0.80257444464E+03  0.50400001928E-02 0. -1.
    10030    2    1    2    0    0  0.00000000000E+00  0.00000000000E+00  0.22052414234E+03  0.18256730316E+04  0.18123054712E+04 0.  0.
        1    1    3    3  502    0 -0.52918324679E+03 -0.73553863344E+03  0.11811639125E+03  0.91378524385E+03  0.50400001928E-02 0.  1.
       -1    1    3    3    0  502  0.52918324679E+03  0.73553863344E+03  0.10240775110E+03  0.91188778777E+03  0.50400001928E-02 0. -1.
</event>
<event>
 5   0  0.9144875E-05  0.2067385E+04  0.7818609E-02  0.8575748E-01
       -3   -1    0    0    0  501  0.00000000000E+00  0.00000000000E+00  0.18968182089E+04  0.18968182116E+04  0.10100000352E+00 0.  1.
        3   -1    0    0  501    0  0.00000000000E+00  0.00000000000E+00 -0.56332265842E+03  0.56332266748E+03  0.10100000352E+00 0. -1.
    10030    2    1    2    0    0  0.00000000000E+00  0.00000000000E+00  0.13334955505E+04  0.24601408791E+04  0.20673854894E+04 0.  0.
        5    1    3    3  502    0  0.82381043251E+03 -0.45363600378E+03  0.11772594229E+04  0.15067883366E+04  0.46999998093E+01 0. -1.
       -5    1    3    3    0  502 -0.82381043251E+03  0.45363600378E+03  0.15623612762E+03  0.95335254246E+03  0.46999998093E+01 0.  1.
</event>
<event>
 5   0  0.2569405E-04  0.1717770E+04  0.7818609E-02  0.8751294E-01
       -2   -1    0    0    0  501  0.00000000000E+00  0.00000000000E+00  0.53064978314E+03  0.53064978315E+03  0.25500000920E-02 0.  1.
        2   -1    0    0  501    0  0.00000000000E+00  0.00000000000E+00 -0.13901513205E+04  0.13901513205E+04  0.25500000920E-02 0. -1.
    10030    2    1    2    0    0  0.00000000000E+00  0.00000000000E+00 -0.85950153740E+03  0.19208011037E+04  0.17177700624E+04 0.  0.
        2    1    3    3  502    0  0.51485556001E+01  0.83744650186E+03 -0.21658773412E+03  0.86501641469E+03  0.25500000920E-02 0.  1.
       -2    1    3    3    0  502 -0.51485556001E+01 -0.83744650186E+03 -0.64291380327E+03  0.10557846890E+04  0.25500000920E-02 0. -1.
</event>
<event>
 5   0  0.1253925E-04  0.1810104E+04  0.7818609E-02  0.8700945E-01
       -1   -1    0    0    0  501  0.00000000000E+00  0.00000000000E+00  0.27511950407E+03  0.27511950412E+03  0.50400001928E-02 0. -1.
        1   -1    0    0  501    0  0.00000000000E+00  0.00000000000E+00 -0.29773215958E+04  0.29773215958E+04  0.50400001928E-02 0.  1.
    10030    2    1    2    0    0  0.00000000000E+00  0.00000000000E+00 -0.27022020917E+04  0.32524410999E+04  0.18101041307E+04 0.  0.
        2    1    3    3  502    0  0.23473852962E+03  0.86391928519E+03 -0.11123156419E+04  0.14278322016E+04  0.25500000920E-02 0. -1.
       -2    1    3    3    0  502 -0.23473852962E+03 -0.86391928519E+03 -0.15898864498E+04  0.18246088983E+04  0.25500000920E-02 0.  1.
</event>
<event>
 5   0  0.2550616E-04  0.1792727E+04  0.7818609E-02  0.8710177E-01
        2   -1    0    0  501    0  0.00000000000E+00  0.00000000000E+00  0.21256935275E+04  0.21256935275E+04  0.25500000920E-02 0. -1.
       -2   -1    0    0    0  501  0.00000000000E+00  0.00000000000E+00 -0.37797907961E+03  0.37797907962E+03  0.25500000920E-02 0.  1.
    10030    2    1    2    0    0  0.00000000000E+00  0.00000000000E+00  0.17477144479E+04  0.25036726071E+04  0.17927271773E+04 0.  0.
        1    1    3    3  502    0  0.28763153421E+03 -0.76912674377E+03  0.13758075020E+04  0.16022278645E+04  0.50400001928E-02 0. -1.
       -1    1    3    3    0  502 -0.28763153421E+03  0.76912674377E+03  0.37190694593E+03  0.90144474257E+03  0.50400001928E-02 0.  1.
</event>
<event>
 5   0  0.2393421E-04  0.1842834E+04  0.7818609E-02  0.8683847E-01
        2   -1    0    0  501    0  0.00000000000E+00  0.00000000000E+00  0.92096211998E+03  0.92096211998E+03  0.25500000920E-02 0. -1.
       -2   -1    0    0    0  501  0.00000000000E+00  0.00000000000E+00 -0.92187250072E+03  0.92187250072E+03  0.25500000920E-02 0.  1.
    10030    2    1    2    0    0  0.00000000000E+00  0.00000000000E+00 -0.91038074328E+00  0.18428346207E+04  0.18428343958E+04 0.  0.
        5    1    3    3  502    0  0.38119369695E+03 -0.20327478938E+03  0.81339888111E+03  0.92101525741E+03  0.46999998093E+01 0. -1.
       -5    1    3    3    0  502 -0.38119369695E+03  0.20327478938E+03 -0.81430926186E+03  0.92181936329E+03  0.46999998093E+01 0.  1.
</event>
<event>
 5   0  0.1330225E-04  0.1827686E+04  0.7818609E-02  0.8691713E-01
       -1   -1    0    0    0  501  0.00000000000E+00  0.00000000000E+00  0.10831651091E+04  0.10831651091E+04  0.50400001928E-02 0. -1.
        1   -1    0    0  501    0  0.00000000000E+00  0.00000000000E+00 -0.77098998232E+03  0.77098998234E+03  0.50400001928E-02 0.  1.
    10030    2    1    2    0    0  0.00000000000E+00  0.00000000000E+00  0.31217512678E+03  0.18541550915E+04  0.18276864593E+04 0.  0.
        3    1    3    3  502    0 -0.40672770791E+02  0.15704435237E+03 -0.75626532296E+03  0.77346910204E+03  0.10100000352E+00 0.  1.
       -3    1    3    3    0  502  0.40672770791E+02 -0.15704435237E+03  0.10684404497E+04  0.10806859894E+04  0.10100000352E+00 0. -1.
</event>
<event>
 5   0  0.1239119E-04  0.1797577E+04  0.7818609E-02  0.8707589E-01
        1   -1    0    0  501    0  0.00000000000E+00  0.00000000000E+00  0.12567232638E+04  0.12567232638E+04  0.50400001928E-02 0. -1.
       -1   -1    0    0    0  501  0.00000000000E+00  0.00000000000E+00 -0.64279924695E+03  0.64279924697E+03  0.50400001928E-02 0.  1.
    10030    2    1    2    0    0  0.00000000000E+00  0.00000000000E+00  0.61392401682E+03  0.18995225108E+04  0.17975769999E+04 0.  0.
        5    1    3    3  502    0 -0.13578561211E+02  0.68271904423E+03 -0.31056793810E+03  0.75017611589E+03  0.46999998093E+01 0.  1.
       -5    1    3    3    0  502  0.13578561211E+02 -0.68271904423E+03  0.92449195492E+03  0.11493463949E+04  0.46999998093E+01 0. -1.
</event>
<event>
 5   0  0.2550616E-04  0.1795136E+04  0.7818609E-02  0.8708890E-01
        2   -1    0    0  501    0  0.00000000000E+00  0.00000000000E+00  0.88426514570E+03  0.88426514570E+03  0.25500000920E-02 0. -1.
       -2   -1    0    0    0  501  0.00000000000E+00  0.00000000000E+00 -0.91107107161E+03  0.91107107161E+03  0.25500000920E-02 0.  1.
    10030    2    1    2    0    0  0.00000000000E+00  0.00000000000E+00 -0.26805925908E+02  0.17953362173E+04  0.17951360883E+04 0.  0.
        1    1    3    3  502    0  0.42853427261E+03 -0.11097920195E+03 -0.79430393772E+03  0.90932763709E+03  0.50400001928E-02 0.  1.
       -1    1    3    3    0  502 -0.42853427261E+03  0.11097920195E+03  0.76749801181E+03  0.88600858022E+03  0.50400001928E-02 0. -1.
</event>
<event>
 5   0  0.2417106E-04  0.1815549E+04  0.7818609E-02  0.8698074E-01
       -2   -1    0    0    0  501  0.00000000000E+00  0.00000000000E+00  0.41550860190E+03  0.41550860191E+03  0.25500000920E-02 0.  1.
        2   -1    0    0  501    0  0.00000000000E+00  0.00000000000E+00 -0.19832434852E+04  0.19832434852E+04  0.25500000920E-02 0. -1.
    10030    2    1    2    0    0  0.00000000000E+00  0.00000000000E+00 -0.15677348833E+04  0.23987520871E+04  0.18155492037E+04 0.  0.
        4    1    3    3  502    0 -0.27267607931E+03 -0.23673566683E+03 -0.18842653559E+04  0.19185550721E+04  0.12699999809E+01 0. -1.
       -4    1    3    3    0  502  0.27267607931E+03  0.23673566683E+03  0.31653047267E+03  0.48019701499E+03  0.12699999809E+01 0.  1.
</event>
<event>
 5   0  0.9144875E-05  0.1826742E+04  0.7818609E-02  0.8692207E-01
       -4   -1    0    0    0  501  0.00000000000E+00  0.00000000000E+00  0.18892819279E+04  0.18892823547E+04  0.12699999809E+01 0.  1.
        4   -1    0    0  501    0  0.00000000000E+00  0.00000000000E+00 -0.44156645369E+03  0.44156828002E+03  0.12699999809E+01 0. -1.
    10030    2    1    2    0    0  0.00000000000E+00  0.00000000000E+00  0.14477154742E+04  0.23308506347E+04  0.18267415218E+04 0.  0.
        4    1    3    3  502    0  0.64765705095E+02  0.37116321907E+01  0.18863387019E+04  0.18874542866E+04  0.12699999809E+01 0.  1.
       -4    1    3    3    0  502 -0.64765705095E+02 -0.37116321907E+01 -0.43862322772E+03  0.44339634816E+03  0.12699999809E+01 0. -1.
</event>
<event>
 5   0  0.1308893E-04  0.1798466E+04  0.7818609E-02  0.8707116E-01
        1   -1    0    0  501    0  0.00000000000E+00  0.00000000000E+00  0.80531382174E+03  0.80531382176E+03  0.50400001928E-02 0. -1.
       -1   -1    0    0    0  501  0.00000000000E+00  0.00000000000E+00 -0.10041053592E+04  0.10041053592E+04  0.50400001928E-02 0.  1.
    10030    2    1    2    0    0  0.00000000000E+00  0.00000000000E+00 -0.19879153744E+03  0.18094191810E+04  0.17984659288E+04 0.  0.
        4    1    3    3  502    0  0.12466092252E+03 -0.78330998275E+03 -0.52565456969E+03  0.95154044276E+03  0.12699999809E+01 0.  1.
       -4    1    3    3    0  502 -0.12466092252E+03  0.78330998275E+03  0.32686303225E+03  0.85787873819E+03  0.12699999809E+01 0. -1.
</event>
<event>
 5   0  0.2431811E-04  0.1818630E+04  0.7818609E-02  0.8696455E-01
        2   -1    0    0  501    0  0.00000000000E+00  0.00000000000E+00  0.22245172484E+04  0.22245172484E+04  0.25500000920E-02 0.  1.
       -2   -1    0    0    0  501  0.00000000000E+00  0.00000000000E+00 -0.37170012438E+03  0.37170012439E+03  0.25500000920E-02 0. -1.
    10030    2    1    2    0    0  0.00000000000E+00  0.00000000000E+00  0.18528171240E+04  0.25962173728E+04  0.18186295257E+04 0.  0.
        3    1    3    3  502    0  0.56074023972E+03  0.69832711358E+03  0.70176289970E+03  0.11377880082E+04  0.10100000352E+00 0. -1.
       -3    1    3    3    0  502 -0.56074023972E+03 -0.69832711358E+03  0.11510542243E+04  0.14584293646E+04  0.10100000352E+00 0.  1.
</event>
<event>
 5   0  0.1214723E-04  0.1795513E+04  0.7818609E-02  0.8708689E-01
        1   -1    0    0  501    0  0.00000000000E+00  0.00000000000E+00  0.56877691760E+03  0.56877691762E+03  0.50400001928E-02 0.  1.
       -1   -1    0    0    0  501  0.00000000000E+00  0.00000000000E+00 -0.14170179262E+04  0.14170179262E+04  0.50400001928E-02 0. -1.
    10030    2    1    2    0    0  0.00000000000E+00  0.00000000000E+00 -0.84824100863E+03  0.19857948439E+04  0.17955133954E+04 0.  0.
        1    1    3    3  502    0 -0.19025358920E+03  0.68111941986E+03 -0.10357632635E+04  0.12541633188E+04  0.50400001928E-02 0. -1.
       -1    1    3    3    0  502  0.19025358920E+03 -0.68111941986E+03  0.18752225485E+03  0.73163152502E+03  0.50400001928E-02 0.  1.
</event>
<event>
 5   0  0.2393421E-04  0.1792808E+04  0.7818609E-02  0.8710133E-01
        2   -1    0    0  501    0  0.00000000000E+00  0.00000000000E+00  0.15567733432E+04  0.15567733432E+04  0.25500000920E-02 0.  1.
       -2   -1    0    0    0  501  0.00000000000E+00  0.00000000000E+00 -0.51615755804E+03  0.51615755805E+03  0.25500000920E-02 0. -1.
    10030    2    1    2    0    0  0.00000000000E+00  0.00000000000E+00  0.10406157851E+04  0.20729309012E+04  0.17928082187E+04 0.  0.
        5    1    3    3  502    0  0.68518247083E+03 -0.71131573984E+02  0.11834980337E+04  0.13693883324E+04  0.46999998093E+01 0.  1.
       -5    1    3    3    0  502 -0.68518247083E+03  0.71131573984E+02 -0.14288224859E+03  0.70354256880E+03  0.46999998093E+01 0. -1.
</event>
<event>
 5   0  0.1253925E-04  0.1817964E+04  0.7818609E-02  0.8696805E-01
       -1   -1    0    0    0  501  0.00000000000E+00  0.00000000000E+00  0.93811698287E+03  0.93811698288E+03  0.50400001928E-02 0.  1.
        1   -1    0    0  501    0  0.00000000000E+00  0.00000000000E+00 -0.88075143643E+03  0.88075143645E+03  0.50400001928E-02 0. -1.
    10030    2    1    2    0    0  0.00000000000E+00  0.00000000000E+00  0.57365546439E+02  0.18188684193E+04  0.18179635642E+04 0.  0.
        2    1    3    3  502    0  0.34143288294E+03  0.61724448829E+03 -0.54490939749E+03  0.89134360566E+03  0.25500000920E-02 0. -1.
       -2    1    3    3    0  502 -0.34143288294E+03 -0.61724448829E+03  0.60227494393E+03  0.92752481367E+03  0.25500000920E-02 0.  1.
</event>
<event>
 5   0  0.2550616E-04  0.1786424E+04  0.7818609E-02  0.8713553E-01
        2   -1    0    0  501    0  0.00000000000E+00  0.00000000000E+00  0.17932309607E+04  0.17932309607E+04  0.25500000920E-02 0. -1.
       -2   -1    0    0    0  501  0.00000000000E+00  0.00000000000E+00 -0.44491070096E+03  0.44491070097E+03  0.25500000920E-02 0.  1.
    10030    2    1    2    0    0  0.00000000000E+00  0.00000000000E+00  0.13483202597E+04  0.22381416617E+04  0.17864239628E+04 0.  0.
        1    1    3    3  502    0  0.68047996696E+03  0.30929748980E+03  0.12867949150E+04  0.14881394679E+04  0.50400001928E-02 0. -1.
       -1    1    3    3    0  502 -0.68047996696E+03 -0.30929748980E+03  0.61525344774E+02  0.75000219380E+03  0.50400001928E-02 0.  1.
</event>
<event>
 5   0  0.2569405E-04  0.1711081E+04  0.7818609E-02  0.8755070E-01
        2   -1    0    0  501    0  0.00000000000E+00  0.00000000000E+00  0.12462135265E+04  0.12462135265E+04  0.25500000920E-02 0.  1.
       -2   -1    0    0    0  501  0.00000000000E+00  0.00000000000E+00 -0.58733883040E+03  0.58733883041E+03  0.25500000920E-02 0. -1.
    10030    2    1    2    0    0  0.00000000000E+00  0.00000000000E+00  0.65887469606E+03  0.18335523569E+04  0.17110810560E+04 0.  0.
        2    1    3    3  502    0  0.29863529409E+03  0.23497486998E+03  0.11508216380E+04  0.12119350935E+04  0.25500000920E-02 0.  1.
       -2    1    3    3    0  502 -0.29863529409E+03 -0.23497486998E+03 -0.49194694195E+03  0.62161726335E+03  0.25500000920E-02 0. -1.
</event>
<event>
 5   0  0.9144875E-05  0.1807552E+04  0.7818609E-02  0.8702293E-01
       -3   -1    0    0    0  501  0.00000000000E+00  0.00000000000E+00  0.66114588723E+03  0.66114589494E+03  0.10100000352E+00 0. -1.
        3   -1    0    0  501    0  0.00000000000E+00  0.00000000000E+00 -0.12354481474E+04  0.12354481516E+04  0.10100000352E+00 0.  1.
    10030    2    1    2    0    0  0.00000000000E+00  0.00000000000E+00 -0.57430226021E+03  0.18965940465E+04  0.18075524588E+04 0.  0.
        2    1    3    3  502    0 -0.24065006634E+03  0.24633253296E+02  0.62654497405E+03  0.67162329926E+03  0.25500000920E-02 0. -1.
       -2    1    3    3    0  502  0.24065006634E+03 -0.24633253296E+02 -0.12008472343E+04  0.12249707473E+04  0.25500000920E-02 0.  1.
</event>
<event>
 5   0  0.1308893E-04  0.1808330E+04  0.7818609E-02  0.8701882E-01
       -1   -1    0    0    0  501  0.00000000000E+00  0.00000000000E+00  0.84662810040E+03  0.84662810042E+03  0.50400001928E-02 0. -1.
        1   -1    0    0  501    0  0.00000000000E+00  0.00000000000E+00 -0.96561222881E+03  0.96561222882E+03  0.50400001928E-02 0.  1.
    10030    2    1    2    0    0  0.00000000000E+00  0.00000000000E+00 -0.11898412840E+03  0.18122403292E+04  0.18083301104E+04 0.  0.
        4    1    3    3  502    0  0.10705136451E+02 -0.75936658238E+03  0.43224258440E+03  0.87383492208E+03  0.12699999809E+01 0. -1.
       -4    1    3    3    0  502 -0.10705136451E+02  0.75936658238E+03 -0.55122671280E+03  0.93840540716E+03  0.12699999809E+01 0.  1.
</event>
<event>
 5   0  0.9144875E-05  0.1839209E+04  0.7818609E-02  0.8685722E-01
       -3   -1    0    0    0  501  0.00000000000E+00  0.00000000000E+00  0.86959146466E+03  0.86959147052E+03  0.10100000352E+00 0. -1.
        3   -1    0    0  501    0  0.00000000000E+00  0.00000000000E+00 -0.97249385648E+03  0.97249386172E+03  0.10100000352E+00 0.  1.
    10030    2    1    2    0    0  0.00000000000E+00  0.00000000000E+00 -0.10290239182E+03  0.18420853322E+04  0.18392089248E+04 0.  0.
        3    1    3    3  502    0  0.93670227902E+02 -0.24008942485E+03 -0.93558615870E+03  0.97043212750E+03  0.10100000352E+00 0.  1.
       -3    1    3    3    0  502 -0.93670227902E+02  0.24008942485E+03  0.83268376688E+03  0.87165320475E+03  0.10100000352E+00 0. -1.
</event>
<event>
 5   0  0.2417106E-04  0.1684801E+04  0.7818609E-02  0.8770081E-01
       -2   -1    0    0    0  501  0.00000000000E+00  0.00000000000E+00  0.45089147468E+03  0.45089147468E+03  0.25500000920E-02 0. -1.
        2   -1    0    0  501    0  0.00000000000E+00  0.00000000000E+00 -0.15738573396E+04  0.15738573396E+04  0.25500000920E-02 0.  1.
    10030    2    1    2    0    0  0.00000000000E+00  0.00000000000E+00 -0.11229658649E+04  0.20247488143E+04  0.16848013020E+04 0.  0.
        4    1    3    3  502    0  0.53174417796E+03  0.21748078132E+02  0.22327799830E+03  0.57713042470E+03  0.12699999809E+01 0. -1.
       -4    1    3    3    0  502 -0.53174417796E+03 -0.21748078132E+02 -0.13462438632E+04  0.14476183896E+04  0.12699999809E+01 0.  1.
</event>
<event>
 5   0  0.2393421E-04  0.1786090E+04  0.7818609E-02  0.8713732E-01
        2   -1    0    0  501    0  0.00000000000E+00  0.00000000000E+00  0.13111057060E+04  0.13111057060E+04  0.25500000920E-02 0.  1.
       -2   -1    0    0    0  501  0.00000000000E+00  0.00000000000E+00 -0.60828771760E+03  0.60828771761E+03  0.25500000920E-02 0. -1.
    10030    2    1    2    0    0  0.00000000000E+00  0.00000000000E+00  0.70281798841E+03  0.19193934236E+04  0.17860901405E+04 0.  0.
        5    1    3    3  502    0 -0.53972005692E+02  0.67579835955E+03 -0.27325855602E+03  0.73096424578E+03  0.46999998093E+01 0. -1.
       -5    1    3    3    0  502  0.53972005692E+02 -0.67579835955E+03  0.97607654443E+03  0.11884291778E+04  0.46999998093E+01 0.  1.
</event>
<event>
 5   0  0.1214723E-04  0.1810120E+04  0.7818609E-02  0.8700936E-01
       -1   -1    0    0    0  501  0.00000000000E+00  0.00000000000E+00  0.72172245451E+03  0.72172245453E+03  0.50400001928E-02 0.  1.
        1   -1    0    0  501    0  0.00000000000E+00  0.00000000000E+00 -0.11349699441E+04  0.11349699442E+04  0.50400001928E-02 0. -1.
    10030    2    1    2    0    0  0.00000000000E+00  0.00000000000E+00 -0.41324748964E+03  0.18566923987E+04  0.18101196578E+04 0.  0.
        1    1    3    3  502    0  0.62226830021E+03  0.14597961164E+02  0.46732191990E+03  0.77834485594E+03  0.50400001928E-02 0.  1.
       -1    1    3    3    0  502 -0.62226830021E+03 -0.14597961164E+02 -0.88056940954E+03  0.10783475428E+04  0.50400001928E-02 0. -1.
</event>
<event>
 5   0  0.2417106E-04  0.1798770E+04  0.7818609E-02  0.8706954E-01
        2   -1    0    0  501    0  0.00000000000E+00  0.00000000000E+00  0.18330934886E+04  0.18330934886E+04  0.25500000920E-02 0. -1.
       -2   -1    0    0    0  501  0.00000000000E+00  0.00000000000E+00 -0.44127225490E+03  0.44127225490E+03  0.25500000920E-02 0.  1.
    10030    2    1    2    0    0  0.00000000000E+00  0.00000000000E+00  0.13918212337E+04  0.22743657435E+04  0.17987699098E+04 0.  0.
        4    1    3    3  502    0 -0.55719725953E+03  0.37602194846E+03 -0.59594282572E+02  0.67484396949E+03  0.12699999809E+01 0.  1.
       -4    1    3    3    0  502  0.55719725953E+03 -0.37602194846E+03  0.14514155162E+04  0.15995217740E+04  0.12699999809E+01 0. -1.
</event>
<event>
 5   0  0.9144875E-05  0.1809751E+04  0.7818609E-02  0.8701131E-01
        3   -1    0    0  501    0  0.00000000000E+00  0.00000000000E+00  0.71476805524E+03  0.71476806237E+03  0.10100000352E+00 0.  1.
       -3   -1    0    0    0  501  0.00000000000E+00  0.00000000000E+00 -0.11455460536E+04  0.11455460581E+04  0.10100000352E+00 0. -1.
    10030    2    1    2    0    0  0.00000000000E+00  0.00000000000E+00 -0.43077799841E+03  0.18603141205E+04  0.18097510721E+04 0.  0.
        3    1    3    3  502    0  0.86559407958E+03  0.22764579726E+03 -0.78537870732E+02  0.89846754363E+03  0.10100000352E+00 0.  1.
       -3    1    3    3    0  502 -0.86559407958E+03 -0.22764579726E+03 -0.35224012767E+03  0.96184657683E+03  0.10100000352E+00 0. -1.
</event>
<event>
 5   0  0.1330225E-04  0.1798814E+04  0.7818609E-02  0.8706930E-01
        1   -1    0    0  501    0  0.00000000000E+00  0.00000000000E+00  0.54338782093E+03  0.54338782095E+03  0.50400001928E-02 0. -1.
       -1   -1    0    0    0  501  0.00000000000E+00  0.00000000000E+00 -0.14886842445E+04  0.14886842445E+04  0.50400001928E-02 0.  1.
    10030    2    1    2    0    0  0.00000000000E+00  0.00000000000E+00 -0.94529642357E+03  0.20320720655E+04  0.17988139289E+04 0.  0.
        3    1    3    3  502    0 -0.68261036687E+02  0.88133551672E+03 -0.28524152185E+03  0.92885660796E+03  0.10100000352E+00 0. -1.
       -3    1    3    3    0  502  0.68261036687E+02 -0.88133551672E+03 -0.66005490172E+03  0.11032154575E+04  0.10100000352E+00 0.  1.
</event>
<event>
 5   0  0.1253925E-04  0.1806411E+04  0.7818609E-02  0.8702897E-01
        1   -1    0    0  501    0  0.00000000000E+00  0.00000000000E+00  0.92256356755E+03  0.92256356756E+03  0.50400001928E-02 0.  1.
       -1   -1    0    0    0  501  0.00000000000E+00  0.00000000000E+00 -0.88425399858E+03  0.88425399859E+03  0.50400001928E-02 0. -1.
    10030    2    1    2    0    0  0.00000000000E+00  0.00000000000E+00  0.38309568971E+02  0.18068175662E+04  0.18064113857E+04 0.  0.
        2    1    3    3  502    0 -0.71726063484E+03  0.46413727869E+03 -0.27398839496E+03  0.89719333053E+03  0.25500000920E-02 0. -1.
       -2    1    3    3    0  502  0.71726063484E+03 -0.46413727869E+03  0.31229796393E+03  0.90962423563E+03  0.25500000920E-02 0.  1.
</event>
<event>
 5   0  0.1253925E-04  0.1803013E+04  0.7818609E-02  0.8704699E-01
        1   -1    0    0  501    0  0.00000000000E+00  0.00000000000E+00  0.12065497483E+04  0.12065497483E+04  0.50400001928E-02 0. -1.
       -1   -1    0    0    0  501  0.00000000000E+00  0.00000000000E+00 -0.67358522577E+03  0.67358522579E+03  0.50400001928E-02 0.  1.
    10030    2    1    2    0    0  0.00000000000E+00  0.00000000000E+00  0.53296452255E+03  0.18801349741E+04  0.18030131277E+04 0.  0.
        2    1    3    3  502    0 -0.15369448096E+03  0.81411895063E+03  0.63707421405E+03  0.10451197125E+04  0.25500000920E-02 0. -1.
       -2    1    3    3    0  502  0.15369448096E+03 -0.81411895063E+03 -0.10410969150E+03  0.83501526161E+03  0.25500000920E-02 0.  1.
</event>
<event>
 5   0  0.1214723E-04  0.1806107E+04  0.7818609E-02  0.8703059E-01
        1   -1    0    0  501    0  0.00000000000E+00  0.00000000000E+00  0.86218726947E+03  0.86218726948E+03  0.50400001928E-02 0.  1.
       -1   -1    0    0    0  501  0.00000000000E+00  0.00000000000E+00 -0.94585654835E+03  0.94585654837E+03  0.50400001928E-02 0. -1.
    10030    2    1    2    0    0  0.00000000000E+00  0.00000000000E+00 -0.83669278888E+02  0.18080438178E+04  0.18061068349E+04 0.  0.
        1    1    3    3  502    0 -0.67913161182E+03  0.55487239933E+03 -0.25747770565E+03  0.91400103646E+03  0.50400001928E-02 0.  1.
       -1    1    3    3    0  502  0.67913161182E+03 -0.55487239933E+03  0.17380842676E+03  0.89404278139E+03  0.50400001928E-02 0. -1.
</event>
<event>
 5   0  0.1239119E-04  0.1799835E+04  0.7818609E-02  0.8706387E-01
        1   -1    0    0  501    0  0.00000000000E+00  0.00000000000E+00  0.90963725464E+03  0.90963725465E+03  0.50400001928E-02 0. -1.
       -1   -1    0    0    0  501  0.00000000000E+00  0.00000000000E+00 -0.89030182629E+03  0.89030182630E+03  0.50400001928E-02 0.  1.
    10030    2    1    2    0    0  0.00000000000E+00  0.00000000000E+00  0.19335428353E+02  0.17999390810E+04  0.17998352248E+04 0.  0.
        5    1    3    3  502    0 -0.72341325140E+03  0.52619212639E+03  0.10777909838E+03  0.90102347928E+03  0.46999998093E+01 0. -1.
       -5    1    3    3    0  502  0.72341325140E+03 -0.52619212639E+03 -0.88443670029E+02  0.89891560167E+03  0.46999998093E+01 0.  1.
</event>
<event>
 5   0  0.1253925E-04  0.1807260E+04  0.7818609E-02  0.8702448E-01
       -1   -1    0    0    0  501  0.00000000000E+00  0.00000000000E+00  0.90517603501E+03  0.90517603503E+03  0.50400001928E-02 0. -1.
        1   -1    0    0  501    0  0.00000000000E+00  0.00000000000E+00 -0.90208703858E+03  0.90208703860E+03  0.50400001928E-02 0.  1.
    10030    2    1    2    0    0  0.00000000000E+00  0.00000000000E+00  0.30889964292E+01  0.18072630736E+04  0.18072604337E+04 0.  0.
        2    1    3    3  502    0  0.29809687893E+03  0.10326082034E+03  0.84831785473E+03  0.90507885232E+03  0.25500000920E-02 0. -1.
       -2    1    3    3    0  502 -0.29809687893E+03 -0.10326082034E+03 -0.84522885831E+03  0.90218422130E+03  0.25500000920E-02 0.  1.
</event>
<event>
 5   0  0.2417106E-04  0.1798874E+04  0.7818609E-02  0.8706898E-01
       -2   -1    0    0    0  501  0.00000000000E+00  0.00000000000E+00  0.87794694961E+03  0.87794694961E+03  0.25500000920E-02 0. -1.
        2   -1    0    0  501    0  0.00000000000E+00  0.00000000000E+00 -0.92145320819E+03  0.92145320819E+03  0.25500000920E-02 0.  1.
    10030    2    1    2    0    0  0.00000000000E+00  0.00000000000E+00 -0.43506258576E+02  0.17994001578E+04  0.17988741294E+04 0.  0.
        4    1    3    3  502    0  0.73939974985E+03 -0.29898746806E+03 -0.43766303119E+03  0.90975603208E+03  0.12699999809E+01 0.  1.
       -4    1    3    3    0  502 -0.73939974985E+03  0.29898746806E+03  0.39415677261E+03  0.88964412572E+03  0.12699999809E+01 0. -1.
</event>
<event>
 5   0  0.2417106E-04  0.1804603E+04  0.7818609E-02  0.8703855E-01
       -2   -1    0    0    0  501  0.00000000000E+00  0.00000000000E+00  0.13040681652E+04  0.13040681652E+04  0.25500000920E-02 0.  1.
        2   -1    0    0  501    0  0.00000000000E+00  0.00000000000E+00 -0.62431415866E+03  0.62431415866E+03  0.25500000920E-02 0. -1.
    10030    2    1    2    0    0  0.00000000000E+00  0.00000000000E+00  0.67975400651E+03  0.19283823238E+04  0.18046032466E+04 0.  0.
        4    1    3    3  502    0  0.27606552000E+03 -0.78660482363E+03 -0.29038047769E+02  0.83414875233E+03  0.12699999809E+01 0. -1.
       -4    1    3    3    0  502 -0.27606552000E+03  0.78660482363E+03  0.70879205428E+03  0.10942335715E+04  0.12699999809E+01 0.  1.
</event>
<event>
 5   0  0.2550616E-04  0.1821076E+04  0.7818609E-02  0.8695171E-01
        2   -1    0    0  501    0  0.00000000000E+00  0.00000000000E+00  0.17951373981E+04  0.17951373981E+04  0.25500000920E-02 0.  1.
       -2   -1    0    0    0  501  0.00000000000E+00  0.00000000000E+00 -0.46184752296E+03  0.46184752296E+03  0.25500000920E-02 0. -1.
    10030    2    1    2    0    0  0.00000000000E+00  0.00000000000E+00  0.13332898751E+04  0.22569849211E+04  0.18210763418E+04 0.  0.
        1    1    3    3  502    0 -0.63963408609E+03  0.46815525292E+03  0.11130452791E+03  0.80043101069E+03  0.50400001928E-02 0. -1.
       -1    1    3    3    0  502  0.63963408609E+03 -0.46815525292E+03  0.12219853472E+04  0.14565539104E+04  0.50400001928E-02 0.  1.
</event>
<event>
 5   0  0.1308893E-04  0.1572734E+04  0.7818609E-02  0.8837476E-01
       -1   -1    0    0    0  501  0.00000000000E+00  0.00000000000E+00  0.47723442346E+03  0.47723442349E+03  0.50400001928E-02 0.  1.
        1   -1    0    0  501    0  0.00000000000E+00  0.00000000000E+00 -0.12957426433E+04  0.12957426433E+04  0.50400001928E-02 0. -1.
    10030    2    1    2    0    0  0.00000000000E+00  0.00000000000E+00 -0.81850821985E+03  0.17729770668E+04  0.15727339169E+04 0.  0.
        4    1    3    3  502    0 -0.46006903008E+03  0.20735535745E+03  0.27061679477E+03  0.57262100836E+03  0.12699999809E+01 0.  1.
       -4    1    3    3    0  502  0.46006903008E+03 -0.20735535745E+03 -0.10891250146E+04  0.12003560585E+04  0.12699999809E+01 0. -1.
</event>
<event>
 5   0  0.1308893E-04  0.1768187E+04  0.7818609E-02  0.8723402E-01
        1   -1    0    0  501    0  0.00000000000E+00  0.00000000000E+00  0.11042853789E+04  0.11042853789E+04  0.50400001928E-02 0. -1.
       -1   -1    0    0    0  501  0.00000000000E+00  0.00000000000E+00 -0.70780757160E+03  0.70780757162E+03  0.50400001928E-02 0.  1.
    10030    2    1    2    0    0  0.00000000000E+00  0.00000000000E+00  0.39647780732E+03  0.18120929505E+04  0.17681872666E+04 0.  0.
        4    1    3    3  502    0 -0.23227273657E+03  0.29368486084E+03 -0.62253390280E+03  0.72646506776E+03  0.12699999809E+01 0.  1.
       -4    1    3    3    0  502  0.23227273657E+03 -0.29368486084E+03  0.10190117101E+04  0.10856278828E+04  0.12699999809E+01 0. -1.
</event>
<event>
 5   0  0.2393421E-04  0.1808683E+04  0.7818609E-02  0.8701696E-01
       -2   -1    0    0    0  501  0.00000000000E+00  0.00000000000E+00  0.30009827690E+03  0.30009827691E+03  0.25500000920E-02 0. -1.
        2   -1    0    0  501    0  0.00000000000E+00  0.00000000000E+00 -0.27252191633E+04  0.27252191633E+04  0.25500000920E-02 0.  1.
    10030    2    1    2    0    0  0.00000000000E+00  0.00000000000E+00 -0.24251208864E+04  0.30253174403E+04  0.18086830293E+04 0.  0.
        5    1    3    3  502    0  0.19365516139E+03 -0.62568562271E+03 -0.22555657247E+04  0.23487408645E+04  0.46999998093E+01 0.  1.
       -5    1    3    3    0  502 -0.19365516139E+03  0.62568562271E+03 -0.16955516170E+03  0.67657657575E+03  0.46999998093E+01 0. -1.
</event>
<event>
 5   0  0.1239119E-04  0.1801129E+04  0.7818609E-02  0.8705699E-01
       -1   -1    0    0    0  501  0.00000000000E+00  0.00000000000E+00  0.11832151024E+04  0.11832151024E+04  0.50400001928E-02 0.  1.
        1   -1    0    0  501    0  0.00000000000E+00  0.00000000000E+00 -0.68543433546E+03  0.68543433548E+03  0.50400001928E-02 0. -1.
    10030    2    1    2    0    0  0.00000000000E+00  0.00000000000E+00  0.49778076693E+03  0.18686494379E+04  0.18011288210E+04 0.  0.
        5    1    3    3  502    0 -0.12325710949E+03 -0.22559948593E+03  0.11443252608E+04  0.11728554197E+04  0.46999998093E+01 0.  1.
       -5    1    3    3    0  502  0.12325710949E+03  0.22559948593E+03 -0.64654449389E+03  0.69579401813E+03  0.46999998093E+01 0. -1.
</event>
<event>
 5   0  0.1239119E-04  0.1953549E+04  0.7818609E-02  0.8628651E-01
        1   -1    0    0  501    0  0.00000000000E+00  0.00000000000E+00  0.11125930436E+04  0.11125930436E+04  0.50400001928E-02 0.  1.
       -1   -1    0    0    0  501  0.00000000000E+00  0.00000000000E+00 -0.85753607040E+03  0.85753607041E+03  0.50400001928E-02 0. -1.
    10030    2    1    2    0    0  0.00000000000E+00  0.00000000000E+00  0.25505697319E+03  0.19701291140E+04  0.19535492485E+04 0.  0.
        5    1    3    3  502    0  0.24491353765E+03 -0.22121396578E+03  0.10546502807E+04  0.11050916542E+04  0.46999998093E+01 0.  1.
       -5    1    3    3    0  502 -0.24491353765E+03  0.22121396578E+03 -0.79959330748E+03  0.86503745985E+03  0.46999998093E+01 0. -1.
</event>
<event>
 5   0  0.2569405E-04  0.1791922E+04  0.7818609E-02  0.8710607E-01
        2   -1    0    0  501    0  0.00000000000E+00  0.00000000000E+00  0.24311757899E+04  0.24311757899E+04  0.25500000920E-02 0.  1.
       -2   -1    0    0    0  501  0.00000000000E+00  0.00000000000E+00 -0.33018824492E+03  0.33018824493E+03  0.25500000920E-02 0. -1.
    10030    2    1    2    0    0  0.00000000000E+00  0.00000000000E+00  0.21009875450E+04  0.27613640349E+04  0.17919215018E+04 0.  0.
        2    1    3    3  502    0 -0.61594737410E+03  0.65065262788E+03  0.10541590891E+04  0.13834707785E+04  0.25500000920E-02 0. -1.
       -2    1    3    3    0  502  0.61594737410E+03 -0.65065262788E+03  0.10468284559E+04  0.13778932563E+04  0.25500000920E-02 0.  1.
</event>
<event>
 5   0  0.1330225E-04  0.1801665E+04  0.7818609E-02  0.8705415E-01
        1   -1    0    0  501    0  0.00000000000E+00  0.00000000000E+00  0.74853563844E+03  0.74853563846E+03  0.50400001928E-02 0. -1.
       -1   -1    0    0    0  501  0.00000000000E+00  0.00000000000E+00 -0.10841153427E+04  0.10841153427E+04  0.50400001928E-02 0.  1.
    10030    2    1    2    0    0  0.00000000000E+00  0.00000000000E+00 -0.33557970427E+03  0.18326509812E+04  0.18016647526E+04 0.  0.
        3    1    3    3  502    0 -0.89673128401E+02 -0.47562156333E+03  0.60504139762E+03  0.77481110246E+03  0.10100000352E+00 0. -1.
       -3    1    3    3    0  502  0.89673128401E+02  0.47562156333E+03 -0.94062110189E+03  0.10578398787E+04  0.10100000352E+00 0.  1.
</event>
<event>
 5   0  0.2431811E-04  0.1808394E+04  0.7818609E-02  0.8701848E-01
        2   -1    0    0  501    0  0.00000000000E+00  0.00000000000E+00  0.27130868882E+04  0.27130868882E+04  0.25500000920E-02 0. -1.
       -2   -1    0    0    0  501  0.00000000000E+00  0.00000000000E+00 -0.30134384704E+03  0.30134384705E+03  0.25500000920E-02 0.  1.
    10030    2    1    2    0    0  0.00000000000E+00  0.00000000000E+00  0.24117430412E+04  0.30144307353E+04  0.18083938070E+04 0.  0.
        3    1    3    3  502    0  0.23510696928E+03  0.24612927252E+03  0.26022184541E+04  0.26243848420E+04  0.10100000352E+00 0. -1.
       -3    1    3    3    0  502 -0.23510696928E+03 -0.24612927252E+03 -0.19047541287E+03  0.39004589333E+03  0.10100000352E+00 0.  1.
</event>
<event>
 5   0  0.9144875E-05  0.1799119E+04  0.7818609E-02  0.8706768E-01
        3   -1    0    0  501    0  0.00000000000E+00  0.00000000000E+00  0.20482131738E+04  0.20482131763E+04  0.10100000352E+00 0.  1.
       -3   -1    0    0    0  501  0.00000000000E+00  0.00000000000E+00 -0.39507983533E+03  0.39507984824E+03  0.10100000352E+00 0. -1.
    10030    2    1    2    0    0  0.00000000000E+00  0.00000000000E+00  0.16531333385E+04  0.24432930246E+04  0.17991194983E+04 0.  0.
        3    1    3    3  502    0 -0.33405152674E+03  0.33035193604E+03  0.18683639261E+04  0.19265270812E+04  0.10100000352E+00 0.  1.
       -3    1    3    3    0  502  0.33405152674E+03 -0.33035193604E+03 -0.21523058758E+03  0.51676594334E+03  0.10100000352E+00 0. -1.
</event>
<event>
 5   0  0.2417106E-04  0.1816640E+04  0.7818609E-02  0.8697500E-01
       -2   -1    0    0    0  501  0.00000000000E+00  0.00000000000E+00  0.59577727029E+03  0.59577727030E+03  0.25500000920E-02 0. -1.
        2   -1    0    0  501    0  0.00000000000E+00  0.00000000000E+00 -0.13848208446E+04  0.13848208446E+04  0.25500000920E-02 0.  1.
    10030    2    1    2    0    0  0.00000000000E+00  0.00000000000E+00 -0.78904357427E+03  0.19805981149E+04  0.18166395158E+04 0.  0.
        4    1    3    3  502    0 -0.27172680941E+03  0.27185760883E+03 -0.12917822090E+04  0.13477555071E+04  0.12699999809E+01 0.  1.
       -4    1    3    3    0  502  0.27172680941E+03 -0.27185760883E+03  0.50273863476E+03  0.63284260777E+03  0.12699999809E+01 0. -1.
</event>
<event>
 5   0  0.2417106E-04  0.1788713E+04  0.7818609E-02  0.8712325E-01
       -2   -1    0    0    0  501  0.00000000000E+00  0.00000000000E+00  0.98169203942E+03  0.98169203942E+03  0.25500000920E-02 0. -1.
        2   -1    0    0  501    0  0.00000000000E+00  0.00000000000E+00 -0.81479064205E+03  0.81479064205E+03  0.25500000920E-02 0.  1.
    10030    2    1    2    0    0  0.00000000000E+00  0.00000000000E+00  0.16690139737E+03  0.17964826815E+04  0.17887129307E+04 0.  0.
        4    1    3    3  502    0  0.12208070542E+03  0.88521831647E+03  0.46457188674E+02  0.89480447570E+03  0.12699999809E+01 0.  1.
       -4    1    3    3    0  502 -0.12208070542E+03 -0.88521831647E+03  0.12044420870E+03  0.90167820577E+03  0.12699999809E+01 0. -1.
</event>
<event>
 5   0  0.1253925E-04  0.1801040E+04  0.7818609E-02  0.8705747E-01
        1   -1    0    0  501    0  0.00000000000E+00  0.00000000000E+00  0.15088027942E+04  0.15088027942E+04  0.50400001928E-02 0.  1.
       -1   -1    0    0    0  501  0.00000000000E+00  0.00000000000E+00 -0.53746989922E+03  0.53746989924E+03  0.50400001928E-02 0. -1.
    10030    2    1    2    0    0  0.00000000000E+00  0.00000000000E+00  0.97133289500E+03  0.20462726935E+04  0.18010397950E+04 0.  0.
        2    1    3    3  502    0  0.82259639683E+02 -0.13948298652E+03 -0.52079207581E+03  0.54538659507E+03  0.25500000920E-02 0. -1.
       -2    1    3    3    0  502 -0.82259639683E+02  0.13948298652E+03  0.14921249708E+04  0.15008860984E+04  0.25500000920E-02 0.  1.
</event>
<event>
 5   0  0.2550616E-04  0.1802328E+04  0.7818609E-02  0.8705062E-01
       -2   -1    0    0    0  501  0.00000000000E+00  0.00000000000E+00  0.10503472886E+04  0.10503472886E+04  0.25500000920E-02 0.  1.
        2   -1    0    0  501    0  0.00000000000E+00  0.00000000000E+00 -0.77316976875E+03  0.77316976875E+03  0.25500000920E-02 0. -1.
    10030    2    1    2    0    0  0.00000000000E+00  0.00000000000E+00  0.27717751990E+03  0.18235170574E+04  0.18023282390E+04 0.  0.
        1    1    3    3  502    0  0.47406389009E+03 -0.88834595948E+02 -0.63158887209E+03  0.79469029232E+03  0.50400001928E-02 0. -1.
       -1    1    3    3    0  502 -0.47406389009E+03  0.88834595948E+02  0.90876639199E+03  0.10288267651E+04  0.50400001928E-02 0.  1.
</event>
<event>
 5   0  0.1214723E-04  0.1794280E+04  0.7818609E-02  0.8709347E-01
       -1   -1    0    0    0  501  0.00000000000E+00  0.00000000000E+00  0.52817652509E+03  0.52817652511E+03  0.50400001928E-02 0.  1.
        1   -1    0    0  501    0  0.00000000000E+00  0.00000000000E+00 -0.15238472047E+04  0.15238472047E+04  0.50400001928E-02 0. -1.
    10030    2    1    2    0    0  0.00000000000E+00  0.00000000000E+00 -0.99567067961E+03  0.20520237298E+04  0.17942801580E+04 0.  0.
        1    1    3    3  502    0 -0.26921185149E+03  0.57360351341E+03  0.22850616002E+03  0.67358078712E+03  0.50400001928E-02 0.  1.
       -1    1    3    3    0  502  0.26921185149E+03 -0.57360351341E+03 -0.12241768396E+04  0.13784429427E+04  0.50400001928E-02 0. -1.
</event>
<event>
 5   0  0.1239119E-04  0.1729878E+04  0.7818609E-02  0.8744505E-01
        1   -1    0    0  501    0  0.00000000000E+00  0.00000000000E+00  0.26057327085E+04  0.26057327085E+04  0.50400001928E-02 0.  1.
       -1   -1    0    0    0  501  0.00000000000E+00  0.00000000000E+00 -0.28710506150E+03  0.28710506155E+03  0.50400001928E-02 0. -1.
    10030    2    1    2    0    0  0.00000000000E+00  0.00000000000E+00  0.23186276470E+04  0.28928377701E+04  0.17298775097E+04 0.  0.
        5    1    3    3  502    0 -0.67860517960E+03 -0.52327325005E+03  0.96302876227E+03  0.12890951753E+04  0.46999998093E+01 0. -1.
       -5    1    3    3    0  502  0.67860517960E+03  0.52327325005E+03  0.13555988848E+04  0.16037425948E+04  0.46999998093E+01 0.  1.
</event>
<event>
 5   0  0.2550616E-04  0.1812419E+04  0.7818609E-02  0.8699723E-01
        2   -1    0    0  501    0  0.00000000000E+00  0.00000000000E+00  0.60069486197E+03  0.60069486197E+03  0.25500000920E-02 0.  1.
       -2   -1    0    0    0  501  0.00000000000E+00  0.00000000000E+00 -0.13671100463E+04  0.13671100463E+04  0.25500000920E-02 0. -1.
    10030    2    1    2    0    0  0.00000000000E+00  0.00000000000E+00 -0.76641518430E+03  0.19678049082E+04  0.18124193560E+04 0.  0.
        1    1    3    3  502    0  0.57958678613E+03  0.39465538565E+03 -0.10064814458E+04  0.12266534217E+04  0.50400001928E-02 0. -1.
       -1    1    3    3    0  502 -0.57958678613E+03 -0.39465538565E+03  0.24006626153E+03  0.74115148656E+03  0.50400001928E-02 0.  1.
</event>
<event>
 5   0  0.1239119E-04  0.1798388E+04  0.7818609E-02  0.8707157E-01
        1   -1    0    0  501    0  0.00000000000E+00  0.00000000000E+00  0.14201892176E+04  0.14201892176E+04  0.50400001928E-02 0.  1.
       -1   -1    0    0    0  501  0.00000000000E+00  0.00000000000E+00 -0.56932558277E+03  0.56932558279E+03  0.50400001928E-02 0. -1.
    10030    2    1    2    0    0  0.00000000000E+00  0.00000000000E+00  0.85086363485E+03  0.19895148004E+04  0.17983882273E+04 0.  0.
        5    1    3    3  502    0 -0.59607215944E+03  0.46907196893E+03  0.95965853726E+03  0.12232322467E+04  0.46999998093E+01 0.  1.
       -5    1    3    3    0  502  0.59607215944E+03 -0.46907196893E+03 -0.10879490241E+03  0.76628255369E+03  0.46999998093E+01 0. -1.
</event>
<event>
 5   0  0.1330225E-04  0.1753417E+04  0.7818609E-02  0.8731472E-01
       -1   -1    0    0    0  501  0.00000000000E+00  0.00000000000E+00  0.81756073249E+03  0.81756073251E+03  0.50400001928E-02 0. -1.
        1   -1    0    0  501    0  0.00000000000E+00  0.00000000000E+00 -0.94013547641E+03  0.94013547642E+03  0.50400001928E-02 0.  1.
    10030    2    1    2    0    0  0.00000000000E+00  0.00000000000E+00 -0.12257474391E+03  0.17576962089E+04  0.17534170625E+04 0.  0.
        3    1    3    3  502    0 -0.51802783084E+03  0.11674017759E+03 -0.76058335401E+03  0.92761422541E+03  0.10100000352E+00 0.  1.
       -3    1    3    3    0  502  0.51802783084E+03 -0.11674017759E+03  0.63800861010E+03  0.83008198351E+03  0.10100000352E+00 0. -1.
</event>
<event>
 5   0  0.1308893E-04  0.1789420E+04  0.7818609E-02  0.8711946E-01
       -1   -1    0    0    0  501  0.00000000000E+00  0.00000000000E+00  0.10463270954E+04  0.10463270954E+04  0.50400001928E-02 0.  1.
        1   -1    0    0  501    0  0.00000000000E+00  0.00000000000E+00 -0.76506253146E+03  0.76506253147E+03  0.50400001928E-02 0. -1.
    10030    2    1    2    0    0  0.00000000000E+00  0.00000000000E+00  0.28126456394E+03  0.18113896269E+04  0.17894196337E+04 0.  0.
        4    1    3    3  502    0 -0.10430947084E+02 -0.28552669613E+03 -0.71763939507E+03  0.77242618619E+03  0.12699999809E+01 0. -1.
       -4    1    3    3    0  502  0.10430947084E+02  0.28552669613E+03  0.99890395902E+03  0.10389634407E+04  0.12699999809E+01 0.  1.
</event>
<event>
 5   0  0.2393421E-04  0.1864357E+04  0.7818609E-02  0.8672804E-01
        2   -1    0    0  501    0  0.00000000000E+00  0.00000000000E+00  0.18081759806E+04  0.18081759806E+04  0.25500000920E-02 0. -1.
       -2   -1    0    0    0  501  0.00000000000E+00  0.00000000000E+00 -0.48057107181E+03  0.48057107182E+03  0.25500000920E-02 0.  1.
    10030    2    1    2    0    0  0.00000000000E+00  0.00000000000E+00  0.13276049088E+04  0.22887470524E+04  0.18643573359E+04 0.  0.
        5    1    3    3  502    0 -0.92576539037E+03  0.51201107654E+02  0.78201191953E+03  0.12129418138E+04  0.46999998093E+01 0.  1.
       -5    1    3    3    0  502  0.92576539037E+03 -0.51201107654E+02  0.54559298923E+03  0.10758052386E+04  0.46999998093E+01 0. -1.
</event>
<event>
 5   0  0.2550616E-04  0.1798978E+04  0.7818609E-02  0.8706843E-01
        2   -1    0    0  501    0  0.00000000000E+00  0.00000000000E+00  0.13521712637E+04  0.13521712637E+04  0.25500000920E-02 0. -1.
       -2   -1    0    0    0  501  0.00000000000E+00  0.00000000000E+00 -0.59835626940E+03  0.59835626940E+03  0.25500000920E-02 0.  1.
    10030    2    1    2    0    0  0.00000000000E+00  0.00000000000E+00  0.75381499433E+03  0.19505275331E+04  0.17989776574E+04 0.  0.
        1    1    3    3  502    0 -0.13321939460E+02 -0.34999396256E+03 -0.52138368658E+03  0.62810365112E+03  0.50400001928E-02 0.  1.
       -1    1    3    3    0  502  0.13321939460E+02  0.34999396256E+03  0.12751986809E+04  0.13224238820E+04  0.50400001928E-02 0. -1.
</event>
<event>
 5   0  0.1253925E-04  0.1816782E+04  0.7818609E-02  0.8697426E-01
        1   -1    0    0  501    0  0.00000000000E+00  0.00000000000E+00  0.19166815900E+04  0.19166815900E+04  0.50400001928E-02 0. -1.
       -1   -1    0    0    0  501  0.00000000000E+00  0.00000000000E+00 -0.43052226964E+03  0.43052226966E+03  0.50400001928E-02 0.  1.
    10030    2    1    2    0    0  0.00000000000E+00  0.00000000000E+00  0.14861593204E+04  0.23472038597E+04  0.18167818893E+04 0.  0.
        2    1    3    3  502    0  0.60089918373E+02 -0.29650695136E+03  0.18496819723E+04  0.18742600058E+04  0.25500000920E-02 0. -1.
       -2    1    3    3    0  502 -0.60089918373E+02  0.29650695136E+03 -0.36352265193E+03  0.47294385393E+03  0.25500000920E-02 0.  1.
</event>
<event>
 5   0  0.1239119E-04  0.1679858E+04  0.7818609E-02  0.8772936E-01
        1   -1    0    0  501    0  0.00000000000E+00  0.00000000000E+00  0.10770376406E+04  0.10770376406E+04  0.50400001928E-02 0.  1.
       -1   -1    0    0    0  501  0.00000000000E+00  0.00000000000E+00 -0.65501929241E+03  0.65501929243E+03  0.50400001928E-02 0. -1.
    10030    2    1    2    0    0  0.00000000000E+00  0.00000000000E+00  0.42201834823E+03  0.17320569331E+04  0.16798576527E+04 0.  0.
        5    1    3    3  502    0  0.12813497754E+03  0.73776277916E+03 -0.18126773560E+03  0.77044959131E+03  0.46999998093E+01 0. -1.
       -5    1    3    3    0  502 -0.12813497754E+03 -0.73776277916E+03  0.60328608383E+03  0.96160734176E+03  0.46999998093E+01 0.  1.
</event>
<event>
 5   0  0.2431811E-04  0.1819889E+04  0.7818609E-02  0.8695794E-01
       -2   -1    0    0    0  501  0.00000000000E+00  0.00000000000E+00  0.55453986618E+03  0.55453986619E+03  0.25500000920E-02 0.  1.
        2   -1    0    0  501    0  0.00000000000E+00  0.00000000000E+00 -0.14931277264E+04  0.14931277264E+04  0.25500000920E-02 0. -1.
    10030    2    1    2    0    0  0.00000000000E+00  0.00000000000E+00 -0.93858786018E+03  0.20476675926E+04  0.18198888423E+04 0.  0.
        3    1    3    3  502    0 -0.51135132122E+03 -0.24360389224E+03  0.33200370333E+03  0.65654360042E+03  0.10100000352E+00 0.  1.
       -3    1    3    3    0  502  0.51135132122E+03  0.24360389224E+03 -0.12705915635E+04  0.13911239921E+04  0.10100000352E+00 0. -1.
</event>
<event>
 5   0  0.2550616E-04  0.1770247E+04  0.7818609E-02  0.8722283E-01
        2   -1    0    0  501    0  0.00000000000E+00  0.00000000000E+00  0.15441556783E+04  0.15441556783E+04  0.25500000920E-02 0. -1.
       -2   -1    0    0    0  501  0.00000000000E+00  0.00000000000E+00 -0.50736077525E+03  0.50736077526E+03  0.25500000920E-02 0.  1.
    10030    2    1    2    0    0  0.00000000000E+00  0.00000000000E+00  0.10367949031E+04  0.20515164536E+04  0.17702474653E+04 0.  0.
        1    1    3    3  502    0 -0.10124535970E+03  0.46507135194E+03 -0.34643191115E+03  0.58869096677E+03  0.50400001928E-02 0.  1.
       -1    1    3    3    0  502  0.10124535970E+03 -0.46507135194E+03  0.13832268142E+04  0.14628254868E+04  0.50400001928E-02 0. -1.
</event>
<event>
 5   0  0.1239119E-04  0.1818699E+04  0.7818609E-02  0.8696418E-01
        1   -1    0    0  501    0  0.00000000000E+00  0.00000000000E+00  0.25139721653E+04  0.25139721653E+04  0.50400001928E-02 0. -1.
       -1   -1    0    0    0  501  0.00000000000E+00  0.00000000000E+00 -0.32892820331E+03  0.32892820335E+03  0.50400001928E-02 0.  1.
    10030    2    1    2    0    0  0.00000000000E+00  0.00000000000E+00  0.21850439620E+04  0.28429003687E+04  0.18186988179E+04 0.  0.
        5    1    3    3  502    0  0.63449918292E+03  0.61320630409E+03  0.74904446995E+03  0.11574544883E+04  0.46999998093E+01 0. -1.
       -5    1    3    3    0  502 -0.63449918292E+03 -0.61320630409E+03  0.14359994920E+04  0.16854458804E+04  0.46999998093E+01 0.  1.
</event>
<event>
 5   0  0.1253925E-04  0.1782160E+04  0.7818609E-02  0.8715845E-01
        1   -1    0    0  501    0  0.00000000000E+00  0.00000000000E+00  0.44454452524E+03  0.44454452527E+03  0.50400001928E-02 0. -1.
       -1   -1    0    0    0  501  0.00000000000E+00  0.00000000000E+00 -0.17861498413E+04  0.17861498414E+04  0.50400001928E-02 0.  1.
    10030    2    1    2    0    0  0.00000000000E+00  0.00000000000E+00 -0.13416053161E+04  0.22306943666E+04  0.17821595139E+04 0.  0.
        2    1    3    3  502    0 -0.61264513270E+03 -0.81861969403E+02 -0.14742096710E+04  0.15985398320E+04  0.25500000920E-02 0.  1.
       -2    1    3    3    0  502  0.61264513270E+03  0.81861969403E+02  0.13260435486E+03  0.63215453458E+03  0.25500000920E-02 0. -1.
</event>
<event>
 5   0  0.1239119E-04  0.1832167E+04  0.7818609E-02  0.8689378E-01
       -1   -1    0    0    0  501  0.00000000000E+00  0.00000000000E+00  0.46302013427E+03  0.46302013430E+03  0.50400001928E-02 0. -1.
        1   -1    0    0  501    0  0.00000000000E+00  0.00000000000E+00 -0.18124673965E+04  0.18124673965E+04  0.50400001928E-02 0.  1.
    10030    2    1    2    0    0  0.00000000000E+00  0.00000000000E+00 -0.13494472622E+04  0.22754875308E+04  0.18321669109E+04 0.  0.
        5    1    3    3  502    0  0.24883750870E+03 -0.80052943976E+03 -0.11334432988E+04  0.14097812920E+04  0.46999998093E+01 0.  1.
       -5    1    3    3    0  502 -0.24883750870E+03  0.80052943976E+03 -0.21600396340E+03  0.86570623878E+03  0.46999998093E+01 0. -1.
</event>
<event>
 5   0  0.1253925E-04  0.1795445E+04  0.7818609E-02  0.8708726E-01
        1   -1    0    0  501    0  0.00000000000E+00  0.00000000000E+00  0.73959332330E+03  0.73959332332E+03  0.50400001928E-02 0.  1.
       -1   -1    0    0    0  501  0.00000000000E+00  0.00000000000E+00 -0.10896601958E+04  0.10896601958E+04  0.50400001928E-02 0. -1.
    10030    2    1    2    0    0  0.00000000000E+00  0.00000000000E+00 -0.35006687248E+03  0.18292535191E+04  0.17954446864E+04 0.  0.
        2    1    3    3  502    0  0.34671151502E+03  0.82514990896E+03 -0.24579748237E+03  0.92816897667E+03  0.25500000920E-02 0. -1.
       -2    1    3    3    0  502 -0.34671151502E+03 -0.82514990896E+03 -0.10426939012E+03  0.90108454244E+03  0.25500000920E-02 0.  1.
</event>
<event>
 5   0  0.1239119E-04  0.1799096E+04  0.7818609E-02  0.8706780E-01
       -1   -1    0    0    0  501  0.00000000000E+00  0.00000000000E+00  0.84496235847E+03  0.84496235848E+03  0.50400001928E-02 0.  1.
        1   -1    0    0  501    0  0.00000000000E+00  0.00000000000E+00 -0.95766024707E+03  0.95766024708E+03  0.50400001928E-02 0. -1.
    10030    2    1    2    0    0  0.00000000000E+00  0.00000000000E+00 -0.11269788861E+03  0.18026226056E+04  0.17990962854E+04 0.  0.
        5    1    3    3  502    0 -0.83803452524E+03  0.10737281201E+03  0.25301826456E+03  0.88197002129E+03  0.46999998093E+01 0.  1.
       -5    1    3    3    0  502  0.83803452524E+03 -0.10737281201E+03 -0.36571615316E+03  0.92065258428E+03  0.46999998093E+01 0. -1.
</event>
<event>
 5   0  0.9144875E-05  0.1785295E+04  0.7818609E-02  0.8714159E-01
        4   -1    0    0  501    0  0.00000000000E+00  0.00000000000E+00  0.49668711016E+03  0.49668873382E+03  0.12699999809E+01 0.  1.
       -4   -1    0    0    0  501  0.00000000000E+00  0.00000000000E+00 -0.16042645909E+04  0.16042650936E+04  0.12699999809E+01 0. -1.
    10030    2    1    2    0    0  0.00000000000E+00  0.00000000000E+00 -0.11075774807E+04  0.21009538274E+04  0.17852952442E+04 0.  0.
        5    1    3    3  502    0 -0.23186666383E+03  0.62908655103E+03  0.13971670967E+03  0.68487581899E+03  0.46999998093E+01 0.  1.
       -5    1    3    3    0  502  0.23186666383E+03 -0.62908655103E+03 -0.12472941904E+04  0.14160780084E+04  0.46999998093E+01 0. -1.
</event>
<event>
 5   0  0.2431811E-04  0.1787110E+04  0.7818609E-02  0.8713184E-01
        2   -1    0    0  501    0  0.00000000000E+00  0.00000000000E+00  0.12869902475E+04  0.12869902475E+04  0.25500000920E-02 0.  1.
       -2   -1    0    0    0  501  0.00000000000E+00  0.00000000000E+00 -0.62039384819E+03  0.62039384820E+03  0.25500000920E-02 0. -1.
    10030    2    1    2    0    0  0.00000000000E+00  0.00000000000E+00  0.66659639930E+03  0.19073840957E+04  0.17871103293E+04 0.  0.
        3    1    3    3  502    0  0.11737655430E+03  0.79750036881E+03 -0.78210553285E+02  0.80987714784E+03  0.10100000352E+00 0. -1.
       -3    1    3    3    0  502 -0.11737655430E+03 -0.79750036881E+03  0.74480695258E+03  0.10975069478E+04  0.10100000352E+00 0.  1.
</event>
<event>
 5   0  0.2569405E-04  0.1786306E+04  0.7818609E-02  0.8713616E-01
       -2   -1    0    0    0  501  0.00000000000E+00  0.00000000000E+00  0.46835795005E+03  0.46835795005E+03  0.25500000920E-02 0.  1.
        2   -1    0    0  501    0  0.00000000000E+00  0.00000000000E+00 -0.17032322450E+04  0.17032322450E+04  0.25500000920E-02 0. -1.
    10030    2    1    2    0    0  0.00000000000E+00  0.00000000000E+00 -0.12348742950E+04  0.21715901951E+04  0.17863060911E+04 0.  0.
        2    1    3    3  502    0  0.75830633904E+03  0.40197861725E+03 -0.91795318435E+03  0.12566834769E+04  0.25500000920E-02 0.  1.
       -2    1    3    3    0  502 -0.75830633904E+03 -0.40197861725E+03 -0.31692111064E+03  0.91490671816E+03  0.25500000920E-02 0. -1.
</event>
<event>
 5   0  0.2550616E-04  0.1792717E+04  0.7818609E-02  0.8710182E-01
       -2   -1    0    0    0  501  0.00000000000E+00  0.00000000000E+00  0.64291869435E+03  0.64291869435E+03  0.25500000920E-02 0.  1.
        2   -1    0    0  501    0  0.00000000000E+00  0.00000000000E+00 -0.12497041715E+04  0.12497041715E+04  0.25500000920E-02 0. -1.
    10030    2    1    2    0    0  0.00000000000E+00  0.00000000000E+00 -0.60678547714E+03  0.18926228658E+04  0.17927165691E+04 0.  0.
        1    1    3    3  502    0  0.41397335687E+03  0.42897034853E+03  0.40329041978E+03  0.71974485954E+03  0.50400001928E-02 0.  1.
       -1    1    3    3    0  502 -0.41397335687E+03 -0.42897034853E+03 -0.10100758969E+04  0.11728780063E+04  0.50400001928E-02 0. -1.
</event>
<event>
 5   0  0.1253925E-04  0.1784699E+04  0.7818609E-02  0.8714479E-01
        1   -1    0    0  501    0  0.00000000000E+00  0.00000000000E+00  0.13605736868E+04  0.13605736868E+04  0.50400001928E-02 0. -1.
       -1   -1    0    0    0  501  0.00000000000E+00  0.00000000000E+00 -0.58525901674E+03  0.58525901676E+03  0.50400001928E-02 0.  1.
    10030    2    1    2    0    0  0.00000000000E+00  0.00000000000E+00  0.77531467009E+03  0.19458327036E+04  0.17846994349E+04 0.  0.
        2    1    3    3  502    0 -0.29118626097E+03 -0.83245530808E+03  0.23929533735E+03  0.91380169457E+03  0.25500000920E-02 0.  1.
       -2    1    3    3    0  502  0.29118626097E+03  0.83245530808E+03  0.53601933274E+03  0.10320310090E+04  0.25500000920E-02 0. -1.
</event>
<event>
 5   0  0.2417106E-04  0.1857576E+04  0.7818609E-02  0.8676267E-01
        2   -1    0    0  501    0  0.00000000000E+00  0.00000000000E+00  0.20378820377E+04  0.20378820377E+04  0.25500000920E-02 0. -1.
       -2   -1    0    0    0  501  0.00000000000E+00  0.00000000000E+00 -0.42330573481E+03  0.42330573482E+03  0.25500000920E-02 0.  1.
    10030    2    1    2    0    0  0.00000000000E+00  0.00000000000E+00  0.16145763029E+04  0.24611877725E+04  0.18575760048E+04 0.  0.
        4    1    3    3  502    0 -0.19786263084E+03  0.82498133015E+03  0.13081487771E+04  0.15591660116E+04  0.12699999809E+01 0. -1.
       -4    1    3    3    0  502  0.19786263084E+03 -0.82498133015E+03  0.30642752585E+03  0.90202176098E+03  0.12699999809E+01 0.  1.
</event>
<event>
 5   0  0.1214723E-04  0.1803756E+04  0.7818609E-02  0.8704305E-01
        1   -1    0    0  501    0  0.00000000000E+00  0.00000000000E+00  0.24850147628E+04  0.24850147628E+04  0.50400001928E-02 0. -1.
       -1   -1    0    0    0  501  0.00000000000E+00  0.00000000000E+00 -0.32731549190E+03  0.32731549194E+03  0.50400001928E-02 0.  1.
    10030    2    1    2    0    0  0.00000000000E+00  0.00000000000E+00  0.21576992709E+04  0.28123302548E+04  0.18037558921E+04 0.  0.
        1    1    3    3  502    0 -0.77268117028E+03 -0.34711516815E+03  0.59611960093E+03  0.10358009990E+04  0.50400001928E-02 0.  1.
       -1    1    3    3    0  502  0.77268117028E+03  0.34711516815E+03  0.15615796700E+04  0.17765292558E+04  0.50400001928E-02 0. -1.
</event>
<event>
 5   0  0.1253925E-04  0.1634499E+04  0.7818609E-02  0.8799630E-01
       -1   -1    0    0    0  501  0.00000000000E+00  0.00000000000E+00  0.58798273970E+03  0.58798273973E+03  0.50400001928E-02 0. -1.
        1   -1    0    0  501    0  0.00000000000E+00  0.00000000000E+00 -0.11359128503E+04  0.11359128503E+04  0.50400001928E-02 0.  1.
    10030    2    1    2    0    0  0.00000000000E+00  0.00000000000E+00 -0.54793011055E+03  0.17238955900E+04  0.16344994950E+04 0.  0.
        2    1    3    3  502    0 -0.39733120118E+02  0.75570337098E+03 -0.59943806854E+03  0.96539748486E+03  0.25500000920E-02 0.  1.
       -2    1    3    3    0  502  0.39733120118E+02 -0.75570337098E+03  0.51507957991E+02  0.75849810513E+03  0.25500000920E-02 0. -1.
</event>
<event>
 5   0  0.2431811E-04  0.1784506E+04  0.7818609E-02  0.8714583E-01
       -2   -1    0    0    0  501  0.00000000000E+00  0.00000000000E+00  0.73110875955E+03  0.73110875955E+03  0.25500000920E-02 0.  1.
        2   -1    0    0  501    0  0.00000000000E+00  0.00000000000E+00 -0.10889146248E+04  0.10889146248E+04  0.25500000920E-02 0. -1.
    10030    2    1    2    0    0  0.00000000000E+00  0.00000000000E+00 -0.35780586522E+03  0.18200233843E+04  0.17845055568E+04 0.  0.
        3    1    3    3  502    0  0.36295501957E+03 -0.43998240845E+03  0.52089811715E+03  0.77243493230E+03  0.10100000352E+00 0.  1.
       -3    1    3    3    0  502 -0.36295501957E+03  0.43998240845E+03 -0.87870398237E+03  0.10475884520E+04  0.10100000352E+00 0. -1.
</event>
<event>
 5   0  0.1239119E-04  0.1793959E+04  0.7818609E-02  0.8709519E-01
       -1   -1    0    0    0  501  0.00000000000E+00  0.00000000000E+00  0.54706636199E+03  0.54706636201E+03  0.50400001928E-02 0. -1.
        1   -1    0    0  501    0  0.00000000000E+00  0.00000000000E+00 -0.14707028745E+04  0.14707028745E+04  0.50400001928E-02 0.  1.
    10030    2    1    2    0    0  0.00000000000E+00  0.00000000000E+00 -0.92363651254E+03  0.20177692365E+04  0.17939588303E+04 0.  0.
        5    1    3    3  502    0 -0.49862708420E+03  0.74027067411E+03 -0.36171897303E+03  0.96306404018E+03  0.46999998093E+01 0.  1.
       -5    1    3    3    0  502  0.49862708420E+03 -0.74027067411E+03 -0.56191753951E+03  0.10547051964E+04  0.46999998093E+01 0. -1.
</event>
<event>
 5   0  0.2431811E-04  0.1809955E+04  0.7818609E-02  0.8701023E-01
       -2   -1    0    0    0  501  0.00000000000E+00  0.00000000000E+00  0.46098375357E+03  0.46098375358E+03  0.25500000920E-02 0.  1.
        2   -1    0    0  501    0  0.00000000000E+00  0.00000000000E+00 -0.17766010954E+04  0.17766010954E+04  0.25500000920E-02 0. -1.
    10030    2    1    2    0    0  0.00000000000E+00  0.00000000000E+00 -0.13156173418E+04  0.22375848490E+04  0.18099549625E+04 0.  0.
        3    1    3    3  502    0 -0.13610667695E+03 -0.79847439328E+03 -0.11567729054E+04  0.14121649865E+04  0.10100000352E+00 0. -1.
       -3    1    3    3    0  502  0.13610667695E+03  0.79847439328E+03 -0.15884443648E+03  0.82541986252E+03  0.10100000352E+00 0.  1.
</event>
<event>
 5   0  0.1308893E-04  0.1803163E+04  0.7818609E-02  0.8704619E-01
        1   -1    0    0  501    0  0.00000000000E+00  0.00000000000E+00  0.12087941504E+04  0.12087941504E+04  0.50400001928E-02 0.  1.
       -1   -1    0    0    0  501  0.00000000000E+00  0.00000000000E+00 -0.67244618648E+03  0.67244618650E+03  0.50400001928E-02 0. -1.
    10030    2    1    2    0    0  0.00000000000E+00  0.00000000000E+00  0.53634796392E+03  0.18812403369E+04  0.18031627954E+04 0.  0.
        4    1    3    3  502    0  0.52162538792E+03  0.38577271040E+03 -0.38498016574E+03  0.75440371839E+03  0.12699999809E+01 0. -1.
       -4    1    3    3    0  502 -0.52162538792E+03 -0.38577271040E+03  0.92132812965E+03  0.11268366185E+04  0.12699999809E+01 0.  1.
</event>
<event>
 5   0  0.1239119E-04  0.1789799E+04  0.7818609E-02  0.8711743E-01
       -1   -1    0    0    0  501  0.00000000000E+00  0.00000000000E+00  0.56101655077E+03  0.56101655079E+03  0.50400001928E-02 0.  1.
        1   -1    0    0  501    0  0.00000000000E+00  0.00000000000E+00 -0.14274892858E+04  0.14274892858E+04  0.50400001928E-02 0. -1.
    10030    2    1    2    0    0  0.00000000000E+00  0.00000000000E+00 -0.86647273504E+03  0.19885058366E+04  0.17897990004E+04 0.  0.
        5    1    3    3  502    0  0.72941876423E+03 -0.51292316839E+03 -0.51697761075E+03  0.10307423782E+04  0.46999998093E+01 0. -1.
       -5    1    3    3    0  502 -0.72941876423E+03  0.51292316839E+03 -0.34949512429E+03  0.95776345837E+03  0.46999998093E+01 0.  1.
</event>
<event>
 5   0  0.2393421E-04  0.1830367E+04  0.7818609E-02  0.8690315E-01
       -2   -1    0    0    0  501  0.00000000000E+00  0.00000000000E+00  0.74709177212E+03  0.74709177213E+03  0.25500000920E-02 0.  1.
        2   -1    0    0  501    0  0.00000000000E+00  0.00000000000E+00 -0.11210950180E+04  0.11210950180E+04  0.25500000920E-02 0. -1.
    10030    2    1    2    0    0  0.00000000000E+00  0.00000000000E+00 -0.37400324590E+03  0.18681867901E+04  0.18303670274E+04 0.  0.
        5    1    3    3  502    0 -0.81003156719E+03  0.42580502013E+03 -0.17800364442E+03  0.93229203710E+03  0.46999998093E+01 0.  1.
       -5    1    3    3    0  502  0.81003156719E+03 -0.42580502013E+03 -0.19599960147E+03  0.93589475305E+03  0.46999998093E+01 0. -1.
</event>
<event>
 5   0  0.1214723E-04  0.1821627E+04  0.7818609E-02  0.8694882E-01
       -1   -1    0    0    0  501  0.00000000000E+00  0.00000000000E+00  0.76336079715E+03  0.76336079717E+03  0.50400001928E-02 0. -1.
        1   -1    0    0  501    0  0.00000000000E+00  0.00000000000E+00 -0.10867484798E+04  0.10867484798E+04  0.50400001928E-02 0.  1.
    10030    2    1    2    0    0  0.00000000000E+00  0.00000000000E+00 -0.32338768266E+03  0.18501092770E+04  0.18216269496E+04 0.  0.
        1    1    3    3  502    0  0.22653529724E+03 -0.52175190229E+03  0.56079219768E+03  0.79876853809E+03  0.50400001928E-02 0. -1.
       -1    1    3    3    0  502 -0.22653529724E+03  0.52175190229E+03 -0.88417988034E+03  0.10513407389E+04  0.50400001928E-02 0.  1.
</event>
<event>
 5   0  0.2393421E-04  0.1848385E+04  0.7818609E-02  0.8680984E-01
       -2   -1    0    0    0  501  0.00000000000E+00  0.00000000000E+00  0.66443946927E+03  0.66443946928E+03  0.25500000920E-02 0.  1.
        2   -1    0    0  501    0  0.00000000000E+00  0.00000000000E+00 -0.12854924953E+04  0.12854924953E+04  0.25500000920E-02 0. -1.
    10030    2    1    2    0    0  0.00000000000E+00  0.00000000000E+00 -0.62105302599E+03  0.19499319645E+04  0.18483851886E+04 0.  0.
        5    1    3    3  502    0 -0.32155028461E+03  0.86196052308E+03 -0.40333308462E+03  0.10045248608E+04  0.46999998093E+01 0. -1.
       -5    1    3    3    0  502  0.32155028461E+03 -0.86196052308E+03 -0.21771994137E+03  0.94540710371E+03  0.46999998093E+01 0.  1.
</event>
<event>
 5   0  0.1253925E-04  0.1858970E+04  0.7818609E-02  0.8675554E-01
        1   -1    0    0  501    0  0.00000000000E+00  0.00000000000E+00  0.12193198229E+04  0.12193198229E+04  0.50400001928E-02 0.  1.
       -1   -1    0    0    0  501  0.00000000000E+00  0.00000000000E+00 -0.70854422133E+03  0.70854422135E+03  0.50400001928E-02 0. -1.
    10030    2    1    2    0    0  0.00000000000E+00  0.00000000000E+00  0.51077560155E+03  0.19278640442E+04  0.18589696226E+04 0.  0.
        2    1    3    3  502    0 -0.91200991912E+03 -0.17335612560E+03  0.30322289274E+03  0.97660563256E+03  0.25500000920E-02 0. -1.
       -2    1    3    3    0  502  0.91200991912E+03  0.17335612560E+03  0.20755270881E+03  0.95125841168E+03  0.25500000920E-02 0.  1.
</event>
<event>
 5   0  0.1330225E-04  0.1808173E+04  0.7818609E-02  0.8701965E-01
       -1   -1    0    0    0  501  0.00000000000E+00  0.00000000000E+00  0.34040751280E+03  0.34040751284E+03  0.50400001928E-02 0. -1.
        1   -1    0    0  501    0  0.00000000000E+00  0.00000000000E+00 -0.24011577848E+04  0.24011577848E+04  0.50400001928E-02 0.  1.
    10030    2    1    2    0    0  0.00000000000E+00  0.00000000000E+00 -0.20607502720E+04  0.27415652977E+04  0.18081727234E+04 0.  0.
        3    1    3    3  502    0 -0.13206115473E+03 -0.61243379341E+03 -0.20186550929E+04  0.21136422815E+04  0.10100000352E+00 0.  1.
       -3    1    3    3    0  502  0.13206115473E+03  0.61243379341E+03 -0.42095179110E+02  0.62792301614E+03  0.10100000352E+00 0. -1.
</event>
<event>
 5   0  0.1239119E-04  0.1660907E+04  0.7818609E-02  0.8783980E-01
       -1   -1    0    0    0  501  0.00000000000E+00  0.00000000000E+00  0.68521018261E+03  0.68521018263E+03  0.50400001928E-02 0. -1.
        1   -1    0    0  501    0  0.00000000000E+00  0.00000000000E+00 -0.10064835897E+04  0.10064835897E+04  0.50400001928E-02 0.  1.
    10030    2    1    2    0    0  0.00000000000E+00  0.00000000000E+00 -0.32127340711E+03  0.16916937724E+04  0.16609067455E+04 0.  0.
        5    1    3    3  502    0  0.62894258737E+03 -0.35730678001E+03  0.25483846533E+03  0.76694305307E+03  0.46999998093E+01 0. -1.
       -5    1    3    3    0  502 -0.62894258737E+03  0.35730678001E+03 -0.57611187244E+03  0.92475071928E+03  0.46999998093E+01 0.  1.
</event>
<event>
 5   0  0.2569405E-04  0.1820494E+04  0.7818609E-02  0.8695476E-01
       -2   -1    0    0    0  501  0.00000000000E+00  0.00000000000E+00  0.58588704504E+03  0.58588704505E+03  0.25500000920E-02 0. -1.
        2   -1    0    0  501    0  0.00000000000E+00  0.00000000000E+00 -0.14141800215E+04  0.14141800216E+04  0.25500000920E-02 0.  1.
    10030    2    1    2    0    0  0.00000000000E+00  0.00000000000E+00 -0.82829297651E+03  0.20000670666E+04  0.18204941681E+04 0.  0.
        2    1    3    3  502    0 -0.27591740682E+03  0.22168917409E+03  0.50718797306E+03  0.61847889642E+03  0.25500000920E-02 0. -1.
       -2    1    3    3    0  502  0.27591740682E+03 -0.22168917409E+03 -0.13354809496E+04  0.13815881702E+04  0.25500000920E-02 0.  1.
</event>
<event>
 5   0  0.2550616E-04  0.1908906E+04  0.7818609E-02  0.8650436E-01
       -2   -1    0    0    0  501  0.00000000000E+00  0.00000000000E+00  0.11012994522E+04  0.11012994522E+04  0.25500000920E-02 0.  1.
        2   -1    0    0  501    0  0.00000000000E+00  0.00000000000E+00 -0.82718675499E+03  0.82718675499E+03  0.25500000920E-02 0. -1.
    10030    2    1    2    0    0  0.00000000000E+00  0.00000000000E+00  0.27411269721E+03  0.19284862072E+04  0.19089057809E+04 0.  0.
        1    1    3    3  502    0  0.89476906189E+03  0.14135385713E+03  0.44078571984E+03  0.10074148291E+04  0.50400001928E-02 0.  1.
       -1    1    3    3    0  502 -0.89476906189E+03 -0.14135385713E+03 -0.16667302263E+03  0.92107137809E+03  0.50400001928E-02 0. -1.
</event>
<event>
 5   0  0.1214723E-04  0.1773282E+04  0.7818609E-02  0.8720638E-01
       -1   -1    0    0    0  501  0.00000000000E+00  0.00000000000E+00  0.62692160087E+03  0.62692160089E+03  0.50400001928E-02 0.  1.
        1   -1    0    0  501    0  0.00000000000E+00  0.00000000000E+00 -0.12539555666E+04  0.12539555666E+04  0.50400001928E-02 0. -1.
    10030    2    1    2    0    0  0.00000000000E+00  0.00000000000E+00 -0.62703396570E+03  0.18808771675E+04  0.17732815132E+04 0.  0.
        1    1    3    3  502    0  0.16034620220E+03  0.40995564656E+03 -0.11298636395E+04  0.12125866487E+04  0.50400001928E-02 0. -1.
       -1    1    3    3    0  502 -0.16034620220E+03 -0.40995564656E+03  0.50282967376E+03  0.66829051882E+03  0.50400001928E-02 0.  1.
</event>
<event>
 5   0  0.1330225E-04  0.1803164E+04  0.7818609E-02  0.8704619E-01
       -1   -1    0    0    0  501  0.00000000000E+00  0.00000000000E+00  0.93151937462E+03  0.93151937463E+03  0.50400001928E-02 0. -1.
        1   -1    0    0  501    0  0.00000000000E+00  0.00000000000E+00 -0.87260677456E+03  0.87260677457E+03  0.50400001928E-02 0.  1.
    10030    2    1    2    0    0  0.00000000000E+00  0.00000000000E+00  0.58912600062E+02  0.18041261492E+04  0.18031640158E+04 0.  0.
        3    1    3    3  502    0 -0.38862385626E+02  0.32264583557E+03  0.87088034680E+03  0.92953924548E+03  0.10100000352E+00 0. -1.
       -3    1    3    3    0  502  0.38862385626E+02 -0.32264583557E+03 -0.81196774674E+03  0.87458690373E+03  0.10100000352E+00 0.  1.
</event>
<event>
 5   0  0.1330225E-04  0.1794817E+04  0.7818609E-02  0.8709061E-01
       -1   -1    0    0    0  501  0.00000000000E+00  0.00000000000E+00  0.88433058498E+03  0.88433058499E+03  0.50400001928E-02 0.  1.
        1   -1    0    0  501    0  0.00000000000E+00  0.00000000000E+00 -0.91067962111E+03  0.91067962112E+03  0.50400001928E-02 0. -1.
    10030    2    1    2    0    0  0.00000000000E+00  0.00000000000E+00 -0.26349036127E+02  0.17950102061E+04  0.17948168063E+04 0.  0.
        3    1    3    3  502    0 -0.57966572564E+03 -0.68186996900E+03  0.53035514157E+02  0.89653320299E+03  0.10100000352E+00 0.  1.
       -3    1    3    3    0  502  0.57966572564E+03  0.68186996900E+03 -0.79384550284E+02  0.89847700312E+03  0.10100000352E+00 0. -1.
</event>
<event>
 5   0  0.1253925E-04  0.1785608E+04  0.7818609E-02  0.8713991E-01
        1   -1    0    0  501    0  0.00000000000E+00  0.00000000000E+00  0.90946799768E+03  0.90946799769E+03  0.50400001928E-02 0.  1.
       -1   -1    0    0    0  501  0.00000000000E+00  0.00000000000E+00 -0.87644494153E+03  0.87644494155E+03  0.50400001928E-02 0. -1.
    10030    2    1    2    0    0  0.00000000000E+00  0.00000000000E+00  0.33023056146E+02  0.17859129392E+04  0.17856076009E+04 0.  0.
        2    1    3    3  502    0 -0.77996403967E+02 -0.66774453175E+03  0.60409171198E+03  0.90382132925E+03  0.25500000920E-02 0.  1.
       -2    1    3    3    0  502  0.77996403967E+02  0.66774453175E+03 -0.57106865584E+03  0.88209160998E+03  0.25500000920E-02 0. -1.
</event>
<event>
 5   0  0.2550616E-04  0.1792173E+04  0.7818609E-02  0.8710473E-01
       -2   -1    0    0    0  501  0.00000000000E+00  0.00000000000E+00  0.50070865370E+03  0.50070865371E+03  0.25500000920E-02 0. -1.
        2   -1    0    0  501    0  0.00000000000E+00  0.00000000000E+00 -0.16036696041E+04  0.16036696041E+04  0.25500000920E-02 0.  1.
    10030    2    1    2    0    0  0.00000000000E+00  0.00000000000E+00 -0.11029609504E+04  0.21043782579E+04  0.17921732600E+04 0.  0.
        1    1    3    3  502    0  0.14428620926E+03 -0.43796132180E+02  0.48570499925E+03  0.50857247045E+03  0.50400001928E-02 0. -1.
       -1    1    3    3    0  502 -0.14428620926E+03  0.43796132180E+02 -0.15886659497E+04  0.15958057874E+04  0.50400001928E-02 0.  1.
</event>
<event>
 5   0  0.2431811E-04  0.1456759E+04  0.7818609E-02  0.8913728E-01
        2   -1    0    0  501    0  0.00000000000E+00  0.00000000000E+00  0.75904984965E+03  0.75904984965E+03  0.25500000920E-02 0. -1.
       -2   -1    0    0    0  501  0.00000000000E+00  0.00000000000E+00 -0.69894844404E+03  0.69894844404E+03  0.25500000920E-02 0.  1.
    10030    2    1    2    0    0  0.00000000000E+00  0.00000000000E+00  0.60101405611E+02  0.14579982937E+04  0.14567590211E+04 0.  0.
        3    1    3    3  502    0  0.47754684345E+02 -0.72425306689E+03 -0.30941162033E+02  0.72648494857E+03  0.10100000352E+00 0.  1.
       -3    1    3    3    0  502 -0.47754684345E+02  0.72425306689E+03  0.91042567645E+02  0.73151334513E+03  0.10100000352E+00 0. -1.
</event>
<event>
 5   0  0.1330225E-04  0.1647297E+04  0.7818609E-02  0.8792007E-01
        1   -1    0    0  501    0  0.00000000000E+00  0.00000000000E+00  0.17467503156E+04  0.17467503156E+04  0.50400001928E-02 0.  1.
       -1   -1    0    0    0  501  0.00000000000E+00  0.00000000000E+00 -0.38837664203E+03  0.38837664207E+03  0.50400001928E-02 0. -1.
    10030    2    1    2    0    0  0.00000000000E+00  0.00000000000E+00  0.13583736736E+04  0.21351269577E+04  0.16472972071E+04 0.  0.
        3    1    3    3  502    0 -0.18456222484E+03  0.35122920295E+03 -0.25634563894E+03  0.47237513127E+03  0.10100000352E+00 0. -1.
       -3    1    3    3    0  502  0.18456222484E+03 -0.35122920295E+03  0.16147193125E+04  0.16627518264E+04  0.10100000352E+00 0.  1.
</event>
<event>
 5   0  0.2417106E-04  0.1794352E+04  0.7818609E-02  0.8709309E-01
       -2   -1    0    0    0  501  0.00000000000E+00  0.00000000000E+00  0.80569649304E+03  0.80569649304E+03  0.25500000920E-02 0.  1.
        2   -1    0    0  501    0  0.00000000000E+00  0.00000000000E+00 -0.99904200010E+03  0.99904200010E+03  0.25500000920E-02 0. -1.
    10030    2    1    2    0    0  0.00000000000E+00  0.00000000000E+00 -0.19334550706E+03  0.18047384931E+04  0.17943518450E+04 0.  0.
        4    1    3    3  502    0 -0.34172493420E+03  0.37930853312E+03  0.64534573020E+03  0.82287521432E+03  0.12699999809E+01 0.  1.
       -4    1    3    3    0  502  0.34172493420E+03 -0.37930853312E+03 -0.83869123726E+03  0.98186327882E+03  0.12699999809E+01 0. -1.
</event>
<event>
 5   0  0.1330225E-04  0.1777207E+04  0.7818609E-02  0.8718515E-01
        1   -1    0    0  501    0  0.00000000000E+00  0.00000000000E+00  0.14126142446E+04  0.14126142447E+04  0.50400001928E-02 0. -1.
       -1   -1    0    0    0  501  0.00000000000E+00  0.00000000000E+00 -0.55897531200E+03  0.55897531202E+03  0.50400001928E-02 0.  1.
    10030    2    1    2    0    0  0.00000000000E+00  0.00000000000E+00  0.85363893265E+03  0.19715895567E+04  0.17772073466E+04 0.  0.
        3    1    3    3  502    0 -0.14856697330E+03 -0.37602249827E+03 -0.45102604294E+03  0.60571409623E+03  0.10100000352E+00 0.  1.
       -3    1    3    3    0  502  0.14856697330E+03  0.37602249827E+03  0.13046649756E+04  0.13658754605E+04  0.10100000352E+00 0. -1.
</event>
<event>
 5   0  0.1330225E-04  0.1807151E+04  0.7818609E-02  0.8702506E-01
        1   -1    0    0  501    0  0.00000000000E+00  0.00000000000E+00  0.17642402513E+04  0.17642402513E+04  0.50400001928E-02 0. -1.
       -1   -1    0    0    0  501  0.00000000000E+00  0.00000000000E+00 -0.46277641668E+03  0.46277641671E+03  0.50400001928E-02 0.  1.
    10030    2    1    2    0    0  0.00000000000E+00  0.00000000000E+00  0.13014638346E+04  0.22270166680E+04  0.18071511079E+04 0.  0.
        3    1    3    3  502    0 -0.32784024717E+03 -0.35055276291E+02  0.16874628962E+04  0.17193717272E+04  0.10100000352E+00 0. -1.
       -3    1    3    3    0  502  0.32784024717E+03  0.35055276291E+02 -0.38599906165E+03  0.50764494074E+03  0.10100000352E+00 0.  1.
</event>
<event>
 5   0  0.2431811E-04  0.1812602E+04  0.7818609E-02  0.8699626E-01
        2   -1    0    0  501    0  0.00000000000E+00  0.00000000000E+00  0.18393447084E+04  0.18393447084E+04  0.25500000920E-02 0. -1.
       -2   -1    0    0    0  501  0.00000000000E+00  0.00000000000E+00 -0.44656226408E+03  0.44656226408E+03  0.25500000920E-02 0.  1.
    10030    2    1    2    0    0  0.00000000000E+00  0.00000000000E+00  0.13927824444E+04  0.22859069725E+04  0.18126024798E+04 0.  0.
        3    1    3    3  502    0 -0.17046526698E+03 -0.37522116497E+03 -0.32155317676E+03  0.52272917039E+03  0.10100000352E+00 0.  1.
       -3    1    3    3    0  502  0.17046526698E+03  0.37522116497E+03  0.17143356211E+04  0.17631778021E+04  0.10100000352E+00 0. -1.
</event>
<event>
 5   0  0.1308893E-04  0.1708511E+04  0.7818609E-02  0.8756525E-01
       -1   -1    0    0    0  501  0.00000000000E+00  0.00000000000E+00  0.59873579807E+03  0.59873579809E+03  0.50400001928E-02 0. -1.
        1   -1    0    0  501    0  0.00000000000E+00  0.00000000000E+00 -0.12188223904E+04  0.12188223904E+04  0.50400001928E-02 0.  1.
    10030    2    1    2    0    0  0.00000000000E+00  0.00000000000E+00 -0.62008659230E+03  0.18175581885E+04  0.17085111608E+04 0.  0.
        4    1    3    3  502    0 -0.46168948643E+02  0.27591304529E+03 -0.11687104455E+04  0.12017259665E+04  0.12699999809E+01 0.  1.
       -4    1    3    3    0  502  0.46168948643E+02 -0.27591304529E+03  0.54862385319E+03  0.61583222193E+03  0.12699999809E+01 0. -1.
</event>
<event>
 5   0  0.1330225E-04  0.1788400E+04  0.7818609E-02  0.8712493E-01
       -1   -1    0    0    0  501  0.00000000000E+00  0.00000000000E+00  0.67174827312E+03  0.67174827313E+03  0.50400001928E-02 0.  1.
        1   -1    0    0  501    0  0.00000000000E+00  0.00000000000E+00 -0.11903173577E+04  0.11903173577E+04  0.50400001928E-02 0. -1.
    10030    2    1    2    0    0  0.00000000000E+00  0.00000000000E+00 -0.51856908459E+03  0.18620656309E+04  0.17883999883E+04 0.  0.
        3    1    3    3  502    0 -0.36039702266E+02 -0.50610728521E+03  0.50735307787E+03  0.71753090533E+03  0.10100000352E+00 0.  1.
       -3    1    3    3    0  502  0.36039702266E+02  0.50610728521E+03 -0.10259221625E+04  0.11445347255E+04  0.10100000352E+00 0. -1.
</event>
<event>
 5   0  0.2569405E-04  0.1803556E+04  0.7818609E-02  0.8704411E-01
        2   -1    0    0  501    0  0.00000000000E+00  0.00000000000E+00  0.14359413609E+04  0.14359413609E+04  0.25500000920E-02 0. -1.
       -2   -1    0    0    0  501  0.00000000000E+00  0.00000000000E+00 -0.56632073645E+03  0.56632073645E+03  0.25500000920E-02 0.  1.
    10030    2    1    2    0    0  0.00000000000E+00  0.00000000000E+00  0.86962062449E+03  0.20022620974E+04  0.18035557868E+04 0.  0.
        2    1    3    3  502    0 -0.38551713566E+03 -0.43023926895E+03  0.12035404587E+04  0.13350052158E+04  0.25500000920E-02 0. -1.
       -2    1    3    3    0  502  0.38551713566E+03  0.43023926895E+03 -0.33391983418E+03  0.66725688164E+03  0.25500000920E-02 0.  1.
</event>
<event>
 5   0  0.1308893E-04  0.1801659E+04  0.7818609E-02  0.8705418E-01
        1   -1    0    0  501    0  0.00000000000E+00  0.00000000000E+00  0.10440264722E+04  0.10440264722E+04  0.50400001928E-02 0.  1.
       -1   -1    0    0    0  501  0.00000000000E+00  0.00000000000E+00 -0.77727298604E+03  0.77727298606E+03  0.50400001928E-02 0. -1.
    10030    2    1    2    0    0  0.00000000000E+00  0.00000000000E+00  0.26675348614E+03  0.18212994583E+04  0.18016587619E+04 0.  0.
        4    1    3    3  502    0  0.80871011678E+03  0.36241106384E+03  0.29681211834E+03  0.93458700969E+03  0.12699999809E+01 0. -1.
       -4    1    3    3    0  502 -0.80871011678E+03 -0.36241106384E+03 -0.30058632202E+02  0.88671244857E+03  0.12699999809E+01 0.  1.
</event>
<event>
 5   0  0.2550616E-04  0.1732903E+04  0.7818609E-02  0.8742818E-01
       -2   -1    0    0    0  501  0.00000000000E+00  0.00000000000E+00  0.78170007827E+03  0.78170007828E+03  0.25500000920E-02 0. -1.
        2   -1    0    0  501    0  0.00000000000E+00  0.00000000000E+00 -0.96039175797E+03  0.96039175797E+03  0.25500000920E-02 0.  1.
    10030    2    1    2    0    0  0.00000000000E+00  0.00000000000E+00 -0.17869167969E+03  0.17420918363E+04  0.17329031276E+04 0.  0.
        1    1    3    3  502    0 -0.57230766505E+03  0.13759357743E+03 -0.72853978874E+03  0.93660999345E+03  0.50400001928E-02 0.  1.
       -1    1    3    3    0  502  0.57230766505E+03 -0.13759357743E+03  0.54984810905E+03  0.80548184280E+03  0.50400001928E-02 0. -1.
</event>
<event>
 5   0  0.9144875E-05  0.1787763E+04  0.7818609E-02  0.8712834E-01
        4   -1    0    0  501    0  0.00000000000E+00  0.00000000000E+00  0.92260234555E+03  0.92260321966E+03  0.12699999809E+01 0. -1.
       -4   -1    0    0    0  501  0.00000000000E+00  0.00000000000E+00 -0.86605322347E+03  0.86605415465E+03  0.12699999809E+01 0.  1.
    10030    2    1    2    0    0  0.00000000000E+00  0.00000000000E+00  0.56549122085E+02  0.17886573743E+04  0.17877632392E+04 0.  0.
        5    1    3    3  502    0 -0.26787324965E+03 -0.27145261855E+03 -0.78056013551E+03  0.86875705300E+03  0.46999998093E+01 0.  1.
       -5    1    3    3    0  502  0.26787324965E+03  0.27145261855E+03  0.83710925759E+03  0.91990032131E+03  0.46999998093E+01 0. -1.
</event>
<event>
 5   0  0.1308893E-04  0.1799318E+04  0.7818609E-02  0.8706662E-01
        1   -1    0    0  501    0  0.00000000000E+00  0.00000000000E+00  0.10156386657E+04  0.10156386657E+04  0.50400001928E-02 0.  1.
       -1   -1    0    0    0  501  0.00000000000E+00  0.00000000000E+00 -0.79692383382E+03  0.79692383384E+03  0.50400001928E-02 0. -1.
    10030    2    1    2    0    0  0.00000000000E+00  0.00000000000E+00  0.21871483185E+03  0.18125624995E+04  0.17993183812E+04 0.  0.
        4    1    3    3  502    0  0.64431792138E+03  0.51884045579E+03  0.46557592303E+03  0.94926474462E+03  0.12699999809E+01 0.  1.
       -4    1    3    3    0  502 -0.64431792138E+03 -0.51884045579E+03 -0.24686109118E+03  0.86329775490E+03  0.12699999809E+01 0. -1.
</event>
<event>
 5   0  0.2431811E-04  0.1800660E+04  0.7818609E-02  0.8705949E-01
        2   -1    0    0  501    0  0.00000000000E+00  0.00000000000E+00  0.99807331291E+03  0.99807331291E+03  0.25500000920E-02 0.  1.
       -2   -1    0    0    0  501  0.00000000000E+00  0.00000000000E+00 -0.81215861068E+03  0.81215861069E+03  0.25500000920E-02 0. -1.
    10030    2    1    2    0    0  0.00000000000E+00  0.00000000000E+00  0.18591470222E+03  0.18102319236E+04  0.18006596960E+04 0.  0.
        3    1    3    3  502    0 -0.11603259752E+03  0.18577339584E+03  0.97087998471E+03  0.99528049976E+03  0.10100000352E+00 0.  1.
       -3    1    3    3    0  502  0.11603259752E+03 -0.18577339584E+03 -0.78496528249E+03  0.81495142383E+03  0.10100000352E+00 0. -1.
</event>
<event>
 5   0  0.1330225E-04  0.1854791E+04  0.7818609E-02  0.8677693E-01
       -1   -1    0    0    0  501  0.00000000000E+00  0.00000000000E+00  0.55699348023E+03  0.55699348025E+03  0.50400001928E-02 0. -1.
        1   -1    0    0  501    0  0.00000000000E+00  0.00000000000E+00 -0.15441158600E+04  0.15441158600E+04  0.50400001928E-02 0.  1.
    10030    2    1    2    0    0  0.00000000000E+00  0.00000000000E+00 -0.98712237979E+03  0.21011093403E+04  0.18547910575E+04 0.  0.
        3    1    3    3  502    0  0.75678148540E+03  0.37947416660E+03 -0.64674262652E+02  0.84905926190E+03  0.10100000352E+00 0. -1.
       -3    1    3    3    0  502 -0.75678148540E+03 -0.37947416660E+03 -0.92244811714E+03  0.12520500784E+04  0.10100000352E+00 0.  1.
</event>
<event>
 5   0  0.2569405E-04  0.1837382E+04  0.7818609E-02  0.8686669E-01
       -2   -1    0    0    0  501  0.00000000000E+00  0.00000000000E+00  0.49075821870E+03  0.49075821871E+03  0.25500000920E-02 0. -1.
        2   -1    0    0  501    0  0.00000000000E+00  0.00000000000E+00 -0.17197735016E+04  0.17197735016E+04  0.25500000920E-02 0.  1.
    10030    2    1    2    0    0  0.00000000000E+00  0.00000000000E+00 -0.12290152829E+04  0.22105317203E+04  0.18373818114E+04 0.  0.
        2    1    3    3  502    0  0.90759602520E+03  0.96707354133E+01 -0.78536692277E+03  0.12002605015E+04  0.25500000920E-02 0.  1.
       -2    1    3    3    0  502 -0.90759602520E+03 -0.96707354133E+01 -0.44364836013E+03  0.10102712188E+04  0.25500000920E-02 0. -1.
</event>
<event>
 5   0  0.2431811E-04  0.1788883E+04  0.7818609E-02  0.8712234E-01
       -2   -1    0    0    0  501  0.00000000000E+00  0.00000000000E+00  0.65708615835E+03  0.65708615835E+03  0.25500000920E-02 0. -1.
        2   -1    0    0  501    0  0.00000000000E+00  0.00000000000E+00 -0.12175350847E+04  0.12175350847E+04  0.25500000920E-02 0.  1.
    10030    2    1    2    0    0  0.00000000000E+00  0.00000000000E+00 -0.56044892631E+03  0.18746212430E+04  0.17888828374E+04 0.  0.
        3    1    3    3  502    0  0.93112877446E+02 -0.60309115404E+01 -0.12124209251E+04  0.12160061223E+04  0.10100000352E+00 0.  1.
       -3    1    3    3    0  502 -0.93112877446E+02  0.60309115404E+01  0.65197199875E+03  0.65861512068E+03  0.10100000352E+00 0. -1.
</event>
<event>
 5   0  0.2569405E-04  0.1817985E+04  0.7818609E-02  0.8696793E-01
       -2   -1    0    0    0  501  0.00000000000E+00  0.00000000000E+00  0.46746308910E+03  0.46746308910E+03  0.25500000920E-02 0. -1.
        2   -1    0    0  501    0  0.00000000000E+00  0.00000000000E+00 -0.17675566864E+04  0.17675566864E+04  0.25500000920E-02 0.  1.
    10030    2    1    2    0    0  0.00000000000E+00  0.00000000000E+00 -0.13000935973E+04  0.22350197755E+04  0.18179851581E+04 0.  0.
        2    1    3    3  502    0  0.67892799665E+03 -0.58990426304E+03 -0.48817131657E+03  0.10233481805E+04  0.25500000920E-02 0. -1.
       -2    1    3    3    0  502 -0.67892799665E+03  0.58990426304E+03 -0.81192228071E+03  0.12116715950E+04  0.25500000920E-02 0.  1.
</event>
<event>
 5   0  0.2569405E-04  0.1795746E+04  0.7818609E-02  0.8708565E-01
       -2   -1    0    0    0  501  0.00000000000E+00  0.00000000000E+00  0.11952838266E+04  0.11952838266E+04  0.25500000920E-02 0.  1.
        2   -1    0    0  501    0  0.00000000000E+00  0.00000000000E+00 -0.67446402304E+03  0.67446402304E+03  0.25500000920E-02 0. -1.
    10030    2    1    2    0    0  0.00000000000E+00  0.00000000000E+00  0.52081980352E+03  0.18697478496E+04  0.17957460158E+04 0.  0.
        2    1    3    3  502    0 -0.37870774957E+03 -0.31723903709E+03 -0.52023048585E+03  0.71742590186E+03  0.25500000920E-02 0. -1.
       -2    1    3    3    0  502  0.37870774957E+03  0.31723903709E+03  0.10410502894E+04  0.11523219477E+04  0.25500000920E-02 0.  1.
</event>
<event>
 5   0  0.1239119E-04  0.1796528E+04  0.7818609E-02  0.8708148E-01
        1   -1    0    0  501    0  0.00000000000E+00  0.00000000000E+00  0.96155216510E+03  0.96155216511E+03  0.50400001928E-02 0. -1.
       -1   -1    0    0    0  501  0.00000000000E+00  0.00000000000E+00 -0.83914171067E+03  0.83914171068E+03  0.50400001928E-02 0.  1.
    10030    2    1    2    0    0  0.00000000000E+00  0.00000000000E+00  0.12241045443E+03  0.18006938758E+04  0.17965283507E+04 0.  0.
        5    1    3    3  502    0 -0.25394629325E+03 -0.50749639857E+03 -0.63669588787E+03  0.85290389730E+03  0.46999998093E+01 0.  1.
       -5    1    3    3    0  502  0.25394629325E+03  0.50749639857E+03  0.75910634230E+03  0.94778997849E+03  0.46999998093E+01 0. -1.
</event>
<event>
 5   0  0.1308893E-04  0.1831483E+04  0.7818609E-02  0.8689734E-01
        1   -1    0    0  501    0  0.00000000000E+00  0.00000000000E+00  0.24180803082E+04  0.24180803082E+04  0.50400001928E-02 0. -1.
       -1   -1    0    0    0  501  0.00000000000E+00  0.00000000000E+00 -0.34679673674E+03  0.34679673677E+03  0.50400001928E-02 0.  1.
    10030    2    1    2    0    0  0.00000000000E+00  0.00000000000E+00  0.20712835715E+04  0.27648770450E+04  0.18314828529E+04 0.  0.
        4    1    3    3  502    0 -0.30526441953E+02 -0.17565033481E+03  0.23916264940E+04  0.23982626636E+04  0.12699999809E+01 0. -1.
       -4    1    3    3    0  502  0.30526441953E+02  0.17565033481E+03 -0.32034292251E+03  0.36661438144E+03  0.12699999809E+01 0.  1.
</event>
<event>
 5   0  0.2569405E-04  0.1806788E+04  0.7818609E-02  0.8702698E-01
        2   -1    0    0  501    0  0.00000000000E+00  0.00000000000E+00  0.51665848344E+03  0.51665848345E+03  0.25500000920E-02 0. -1.
       -2   -1    0    0    0  501  0.00000000000E+00  0.00000000000E+00 -0.15796138282E+04  0.15796138282E+04  0.25500000920E-02 0.  1.
    10030    2    1    2    0    0  0.00000000000E+00  0.00000000000E+00 -0.10629553448E+04  0.20962723116E+04  0.18067881834E+04 0.  0.
        2    1    3    3  502    0  0.75414090713E+02  0.63313048735E+03  0.21104462837E+03  0.67162588862E+03  0.25500000920E-02 0. -1.
       -2    1    3    3    0  502 -0.75414090713E+02 -0.63313048735E+03 -0.12739999731E+04  0.14246464230E+04  0.25500000920E-02 0.  1.
</event>
<event>
 5   0  0.2569405E-04  0.1803952E+04  0.7818609E-02  0.8704200E-01
       -2   -1    0    0    0  501  0.00000000000E+00  0.00000000000E+00  0.85291732542E+03  0.85291732542E+03  0.25500000920E-02 0. -1.
        2   -1    0    0  501    0  0.00000000000E+00  0.00000000000E+00 -0.95385693587E+03  0.95385693588E+03  0.25500000920E-02 0.  1.
    10030    2    1    2    0    0  0.00000000000E+00  0.00000000000E+00 -0.10093961046E+03  0.18067742613E+04  0.18039524457E+04 0.  0.
        2    1    3    3  502    0  0.40049750836E+03 -0.88314612601E+02  0.75413193964E+03  0.85843619879E+03  0.25500000920E-02 0. -1.
       -2    1    3    3    0  502 -0.40049750836E+03  0.88314612601E+02 -0.85507155010E+03  0.94833806251E+03  0.25500000920E-02 0.  1.
</event>
<event>
 5   0  0.9144875E-05  0.1816265E+04  0.7818609E-02  0.8697698E-01
        3   -1    0    0  501    0  0.00000000000E+00  0.00000000000E+00  0.14450850268E+04  0.14450850303E+04  0.10100000352E+00 0.  1.
       -3   -1    0    0    0  501  0.00000000000E+00  0.00000000000E+00 -0.57069617196E+03  0.57069618090E+03  0.10100000352E+00 0. -1.
    10030    2    1    2    0    0  0.00000000000E+00  0.00000000000E+00  0.87438885481E+03  0.20157812112E+04  0.18162648546E+04 0.  0.
        1    1    3    3  502    0 -0.40627703663E+03 -0.52503778671E+03  0.11249242157E+04  0.13062083291E+04  0.50400001928E-02 0.  1.
       -1    1    3    3    0  502  0.40627703663E+03  0.52503778671E+03 -0.25053536086E+03  0.70957288211E+03  0.50400001928E-02 0. -1.
</event>
<event>
 5   0  0.2431811E-04  0.1814305E+04  0.7818609E-02  0.8698729E-01
        2   -1    0    0  501    0  0.00000000000E+00  0.00000000000E+00  0.14366550502E+04  0.14366550502E+04  0.25500000920E-02 0. -1.
       -2   -1    0    0    0  501  0.00000000000E+00  0.00000000000E+00 -0.57280670593E+03  0.57280670594E+03  0.25500000920E-02 0.  1.
    10030    2    1    2    0    0  0.00000000000E+00  0.00000000000E+00  0.86384834424E+03  0.20094617561E+04  0.18143049874E+04 0.  0.
        3    1    3    3  502    0 -0.66508119613E+03  0.59863074050E+03  0.26677475780E+03  0.93373472813E+03  0.10100000352E+00 0.  1.
       -3    1    3    3    0  502  0.66508119613E+03 -0.59863074050E+03  0.59707358645E+03  0.10757270280E+04  0.10100000352E+00 0. -1.
</event>
<event>
 5   0  0.9144875E-05  0.1791501E+04  0.7818609E-02  0.8710832E-01
       -4   -1    0    0    0  501  0.00000000000E+00  0.00000000000E+00  0.61653804748E+03  0.61653935551E+03  0.12699999809E+01 0.  1.
        4   -1    0    0  501    0  0.00000000000E+00  0.00000000000E+00 -0.13014068294E+04  0.13014074491E+04  0.12699999809E+01 0. -1.
    10030    2    1    2    0    0  0.00000000000E+00  0.00000000000E+00 -0.68486878194E+03  0.19179468046E+04  0.17915006829E+04 0.  0.
        4    1    3    3  502    0 -0.16038512129E+02  0.68783413047E+03  0.27162954554E+03  0.73970078263E+03  0.12699999809E+01 0.  1.
       -4    1    3    3    0  502  0.16038512129E+02 -0.68783413047E+03 -0.95649832749E+03  0.11782460220E+04  0.12699999809E+01 0. -1.
</event>
<event>
 5   0  0.1214723E-04  0.1792554E+04  0.7818609E-02  0.8710269E-01
        1   -1    0    0  501    0  0.00000000000E+00  0.00000000000E+00  0.59441441008E+03  0.59441441010E+03  0.50400001928E-02 0. -1.
       -1   -1    0    0    0  501  0.00000000000E+00  0.00000000000E+00 -0.13514350630E+04  0.13514350630E+04  0.50400001928E-02 0.  1.
    10030    2    1    2    0    0  0.00000000000E+00  0.00000000000E+00 -0.75702065295E+03  0.19458494731E+04  0.17925540168E+04 0.  0.
        1    1    3    3  502    0 -0.79543730119E+02  0.75228761588E+03  0.14327116898E+03  0.76992888625E+03  0.50400001928E-02 0.  1.
       -1    1    3    3    0  502  0.79543730119E+02 -0.75228761588E+03 -0.90029182194E+03  0.11759205869E+04  0.50400001928E-02 0. -1.
</event>
<event>
 5   0  0.2569405E-04  0.1803054E+04  0.7818609E-02  0.8704677E-01
       -2   -1    0    0    0  501  0.00000000000E+00  0.00000000000E+00  0.58482889155E+03  0.58482889156E+03  0.25500000920E-02 0. -1.
        2   -1    0    0  501    0  0.00000000000E+00  0.00000000000E+00 -0.13897241774E+04  0.13897241774E+04  0.25500000920E-02 0.  1.
    10030    2    1    2    0    0  0.00000000000E+00  0.00000000000E+00 -0.80489528587E+03  0.19745530690E+04  0.18030539096E+04 0.  0.
        2    1    3    3  502    0 -0.39905124877E+03 -0.55459377003E+03 -0.10465533736E+04  0.12498360343E+04  0.25500000920E-02 0.  1.
       -2    1    3    3    0  502  0.39905124877E+03  0.55459377003E+03  0.24165808776E+03  0.72471703463E+03  0.25500000920E-02 0. -1.
</event>
<event>
 5   0  0.2393421E-04  0.1806721E+04  0.7818609E-02  0.8702734E-01
       -2   -1    0    0    0  501  0.00000000000E+00  0.00000000000E+00  0.62727881587E+03  0.62727881587E+03  0.25500000920E-02 0.  1.
        2   -1    0    0  501    0  0.00000000000E+00  0.00000000000E+00 -0.13009527741E+04  0.13009527741E+04  0.25500000920E-02 0. -1.
    10030    2    1    2    0    0  0.00000000000E+00  0.00000000000E+00 -0.67367395821E+03  0.19282315900E+04  0.18067209144E+04 0.  0.
        5    1    3    3  502    0  0.65652111082E+03  0.53894395521E+03 -0.86540075502E+01  0.84945720178E+03  0.46999998093E+01 0.  1.
       -5    1    3    3    0  502 -0.65652111082E+03 -0.53894395521E+03 -0.66501995066E+03  0.10787743882E+04  0.46999998093E+01 0. -1.
</event>
<event>
 5   0  0.9144875E-05  0.1785596E+04  0.7818609E-02  0.8713997E-01
        4   -1    0    0  501    0  0.00000000000E+00  0.00000000000E+00  0.55172550035E+03  0.55172696204E+03  0.12699999809E+01 0. -1.
       -4   -1    0    0    0  501  0.00000000000E+00  0.00000000000E+00 -0.14447148861E+04  0.14447154443E+04  0.12699999809E+01 0.  1.
    10030    2    1    2    0    0  0.00000000000E+00  0.00000000000E+00 -0.89298938571E+03  0.19964424063E+04  0.17855957658E+04 0.  0.
        4    1    3    3  502    0 -0.50746093828E+03  0.79470977253E+02 -0.12629657305E+04  0.13634208042E+04  0.12699999809E+01 0.  1.
       -4    1    3    3    0  502  0.50746093828E+03 -0.79470977253E+02  0.36997634478E+03  0.63302160208E+03  0.12699999809E+01 0. -1.
</event>
<event>
 5   0  0.1239119E-04  0.1795202E+04  0.7818609E-02  0.8708855E-01
       -1   -1    0    0    0  501  0.00000000000E+00  0.00000000000E+00  0.78583681412E+03  0.78583681413E+03  0.50400001928E-02 0.  1.
        1   -1    0    0  501    0  0.00000000000E+00  0.00000000000E+00 -0.10252607625E+04  0.10252607626E+04  0.50400001928E-02 0. -1.
    10030    2    1    2    0    0  0.00000000000E+00  0.00000000000E+00 -0.23942394842E+03  0.18110975767E+04  0.17952021071E+04 0.  0.
        5    1    3    3  502    0 -0.21221557988E+03 -0.74603516318E+03  0.33601967596E+03  0.84530185714E+03  0.46999998093E+01 0.  1.
       -5    1    3    3    0  502  0.21221557988E+03  0.74603516318E+03 -0.57544362439E+03  0.96579571955E+03  0.46999998093E+01 0. -1.
</event>
<event>
 5   0  0.2417106E-04  0.1763290E+04  0.7818609E-02  0.8726068E-01
       -2   -1    0    0    0  501  0.00000000000E+00  0.00000000000E+00  0.58115664628E+03  0.58115664629E+03  0.25500000920E-02 0.  1.
        2   -1    0    0  501    0  0.00000000000E+00  0.00000000000E+00 -0.13375022500E+04  0.13375022500E+04  0.25500000920E-02 0. -1.
    10030    2    1    2    0    0  0.00000000000E+00  0.00000000000E+00 -0.75634560370E+03  0.19186588963E+04  0.17632904718E+04 0.  0.
        4    1    3    3  502    0 -0.35397716269E+02 -0.36375021060E+03  0.49485005697E+03  0.61517916562E+03  0.12699999809E+01 0.  1.
       -4    1    3    3    0  502  0.35397716269E+02  0.36375021060E+03 -0.12511956607E+04  0.13034797307E+04  0.12699999809E+01 0. -1.
</event>
<event>
 5   0  0.1330225E-04  0.1813276E+04  0.7818609E-02  0.8699271E-01
        1   -1    0    0  501    0  0.00000000000E+00  0.00000000000E+00  0.82930147220E+03  0.82930147221E+03  0.50400001928E-02 0. -1.
       -1   -1    0    0    0  501  0.00000000000E+00  0.00000000000E+00 -0.99118608509E+03  0.99118608510E+03  0.50400001928E-02 0.  1.
    10030    2    1    2    0    0  0.00000000000E+00  0.00000000000E+00 -0.16188461289E+03  0.18204875573E+04  0.18132755771E+04 0.  0.
        3    1    3    3  502    0 -0.21888993179E+03 -0.87816912114E+03 -0.26892678042E+02  0.90543748205E+03  0.10100000352E+00 0. -1.
       -3    1    3    3    0  502  0.21888993179E+03  0.87816912114E+03 -0.13499193485E+03  0.91505007526E+03  0.10100000352E+00 0.  1.
</event>
<event>
 5   0  0.1253925E-04  0.1791709E+04  0.7818609E-02  0.8710721E-01
       -1   -1    0    0    0  501  0.00000000000E+00  0.00000000000E+00  0.11227295852E+04  0.11227295852E+04  0.50400001928E-02 0. -1.
        1   -1    0    0  501    0  0.00000000000E+00  0.00000000000E+00 -0.71482488653E+03  0.71482488654E+03  0.50400001928E-02 0.  1.
    10030    2    1    2    0    0  0.00000000000E+00  0.00000000000E+00  0.40790469864E+03  0.18375544717E+04  0.17917087356E+04 0.  0.
        2    1    3    3  502    0 -0.78414206204E+02 -0.15944097027E+02  0.11190571185E+04  0.11219143623E+04  0.25500000920E-02 0. -1.
       -2    1    3    3    0  502  0.78414206204E+02  0.15944097027E+02 -0.71115241983E+03  0.71564010941E+03  0.25500000920E-02 0.  1.
</event>
<event>
 5   0  0.2569405E-04  0.1797192E+04  0.7818609E-02  0.8707794E-01
       -2   -1    0    0    0  501  0.00000000000E+00  0.00000000000E+00  0.86921754282E+03  0.86921754283E+03  0.25500000920E-02 0. -1.
        2   -1    0    0  501    0  0.00000000000E+00  0.00000000000E+00 -0.92896700809E+03  0.92896700809E+03  0.25500000920E-02 0.  1.
    10030    2    1    2    0    0  0.00000000000E+00  0.00000000000E+00 -0.59749465267E+02  0.17981845509E+04  0.17971916093E+04 0.  0.
        2    1    3    3  502    0  0.88571843257E+03  0.10862791787E+03  0.75906210845E+02  0.89557742221E+03  0.25500000920E-02 0.  1.
       -2    1    3    3    0  502 -0.88571843257E+03 -0.10862791787E+03 -0.13565567611E+03  0.90260712871E+03  0.25500000920E-02 0. -1.
</event>
<event>
 5   0  0.2431811E-04  0.1715215E+04  0.7818609E-02  0.8752734E-01
       -2   -1    0    0    0  501  0.00000000000E+00  0.00000000000E+00  0.61131802840E+03  0.61131802841E+03  0.25500000920E-02 0. -1.
        2   -1    0    0  501    0  0.00000000000E+00  0.00000000000E+00 -0.12031228464E+04  0.12031228464E+04  0.25500000920E-02 0.  1.
    10030    2    1    2    0    0  0.00000000000E+00  0.00000000000E+00 -0.59180481802E+03  0.18144408748E+04  0.17152150727E+04 0.  0.
        3    1    3    3  502    0 -0.37268689832E+03  0.16048302934E+03  0.50334560915E+03  0.64653471627E+03  0.10100000352E+00 0. -1.
       -3    1    3    3    0  502  0.37268689832E+03 -0.16048302934E+03 -0.10951504272E+04  0.11679061586E+04  0.10100000352E+00 0.  1.
</event>
<event>
 5   0  0.1308893E-04  0.1897602E+04  0.7818609E-02  0.8656051E-01
        1   -1    0    0  501    0  0.00000000000E+00  0.00000000000E+00  0.12051241491E+04  0.12051241491E+04  0.50400001928E-02 0. -1.
       -1   -1    0    0    0  501  0.00000000000E+00  0.00000000000E+00 -0.74699640994E+03  0.74699640996E+03  0.50400001928E-02 0.  1.
    10030    2    1    2    0    0  0.00000000000E+00  0.00000000000E+00  0.45812773912E+03  0.19521205590E+04  0.18976020794E+04 0.  0.
        4    1    3    3  502    0  0.42803778341E+03  0.42087530095E+03 -0.52680395471E+03  0.79867163627E+03  0.12699999809E+01 0.  1.
       -4    1    3    3    0  502 -0.42803778341E+03 -0.42087530095E+03  0.98493169383E+03  0.11534489228E+04  0.12699999809E+01 0. -1.
</event>
<event>
 5   0  0.2431811E-04  0.1798955E+04  0.7818609E-02  0.8706856E-01
       -2   -1    0    0    0  501  0.00000000000E+00  0.00000000000E+00  0.59947529401E+03  0.59947529401E+03  0.25500000920E-02 0. -1.
        2   -1    0    0  501    0  0.00000000000E+00  0.00000000000E+00 -0.13496124645E+04  0.13496124645E+04  0.25500000920E-02 0.  1.
    10030    2    1    2    0    0  0.00000000000E+00  0.00000000000E+00 -0.75013717048E+03  0.19490877585E+04  0.17989545063E+04 0.  0.
        3    1    3    3  502    0 -0.79145793396E+03 -0.11072679498E+03 -0.82230523610E+03  0.11466699594E+04  0.10100000352E+00 0.  1.
       -3    1    3    3    0  502  0.79145793396E+03  0.11072679498E+03  0.72168065621E+02  0.80241779906E+03  0.10100000352E+00 0. -1.
</event>
<event>
 5   0  0.1330225E-04  0.1844136E+04  0.7818609E-02  0.8683174E-01
        1   -1    0    0  501    0  0.00000000000E+00  0.00000000000E+00  0.63394544660E+03  0.63394544662E+03  0.50400001928E-02 0.  1.
       -1   -1    0    0    0  501  0.00000000000E+00  0.00000000000E+00 -0.13411403452E+04  0.13411403452E+04  0.50400001928E-02 0. -1.
    10030    2    1    2    0    0  0.00000000000E+00  0.00000000000E+00 -0.70719489862E+03  0.19750857918E+04  0.18441364539E+04 0.  0.
        3    1    3    3  502    0  0.23913683633E+03  0.50856831952E+03  0.42932487615E+03  0.70721144051E+03  0.10100000352E+00 0.  1.
       -3    1    3    3    0  502 -0.23913683633E+03 -0.50856831952E+03 -0.11365197748E+04  0.12678743513E+04  0.10100000352E+00 0. -1.
</event>
<event>
 5   0  0.2569405E-04  0.1852774E+04  0.7818609E-02  0.8678728E-01
       -2   -1    0    0    0  501  0.00000000000E+00  0.00000000000E+00  0.65797092716E+03  0.65797092717E+03  0.25500000920E-02 0. -1.
        2   -1    0    0  501    0  0.00000000000E+00  0.00000000000E+00 -0.13043018909E+04  0.13043018909E+04  0.25500000920E-02 0.  1.
    10030    2    1    2    0    0  0.00000000000E+00  0.00000000000E+00 -0.64633096376E+03  0.19622728181E+04  0.18527738388E+04 0.  0.
        2    1    3    3  502    0 -0.30467315372E+03  0.58138353842E+03  0.36919775941E+03  0.75308667158E+03  0.25500000920E-02 0. -1.
       -2    1    3    3    0  502  0.30467315372E+03 -0.58138353842E+03 -0.10155287232E+04  0.12091861465E+04  0.25500000920E-02 0.  1.
</event>
<event>
 5   0  0.2431811E-04  0.1789890E+04  0.7818609E-02  0.8711695E-01
       -2   -1    0    0    0  501  0.00000000000E+00  0.00000000000E+00  0.10089012592E+04  0.10089012592E+04  0.25500000920E-02 0. -1.
        2   -1    0    0  501    0  0.00000000000E+00  0.00000000000E+00 -0.79385982562E+03  0.79385982562E+03  0.25500000920E-02 0.  1.
    10030    2    1    2    0    0  0.00000000000E+00  0.00000000000E+00  0.21504143358E+03  0.18027610848E+04  0.17898895806E+04 0.  0.
        3    1    3    3  502    0  0.11582388774E+03  0.33419257101E+03  0.93551909357E+03  0.10001479051E+04  0.10100000352E+00 0. -1.
       -3    1    3    3    0  502 -0.11582388774E+03 -0.33419257101E+03 -0.72047765998E+03  0.80261317970E+03  0.10100000352E+00 0.  1.
</event>
<event>
 5   0  0.2550616E-04  0.1809798E+04  0.7818609E-02  0.8701107E-01
        2   -1    0    0  501    0  0.00000000000E+00  0.00000000000E+00  0.11480935072E+04  0.11480935072E+04  0.25500000920E-02 0.  1.
       -2   -1    0    0    0  501  0.00000000000E+00  0.00000000000E+00 -0.71321872877E+03  0.71321872878E+03  0.25500000920E-02 0. -1.
    10030    2    1    2    0    0  0.00000000000E+00  0.00000000000E+00  0.43487477845E+03  0.18613122360E+04  0.18097975486E+04 0.  0.
        1    1    3    3  502    0 -0.87074568995E+03  0.18121310202E+03  0.38893376905E+03  0.97072432834E+03  0.50400001928E-02 0.  1.
       -1    1    3    3    0  502  0.87074568995E+03 -0.18121310202E+03  0.45941009407E+02  0.89058790766E+03  0.50400001928E-02 0. -1.
</event>
<event>
 5   0  0.1214723E-04  0.1727745E+04  0.7818609E-02  0.8745697E-01
        1   -1    0    0  501    0  0.00000000000E+00  0.00000000000E+00  0.18214078332E+04  0.18214078332E+04  0.50400001928E-02 0.  1.
       -1   -1    0    0    0  501  0.00000000000E+00  0.00000000000E+00 -0.40972448855E+03  0.40972448859E+03  0.50400001928E-02 0. -1.
    10030    2    1    2    0    0  0.00000000000E+00  0.00000000000E+00  0.14116833446E+04  0.22311323218E+04  0.17277446489E+04 0.  0.
        1    1    3    3  502    0 -0.32350992516E+03 -0.77136715739E+03  0.42704815830E+03  0.93916776600E+03  0.50400001928E-02 0. -1.
       -1    1    3    3    0  502  0.32350992516E+03  0.77136715739E+03  0.98463518632E+03  0.12919645558E+04  0.50400001928E-02 0.  1.
</event>
<event>
 5   0  0.2431811E-04  0.1821884E+04  0.7818609E-02  0.8694748E-01
       -2   -1    0    0    0  501  0.00000000000E+00  0.00000000000E+00  0.66481779046E+03  0.66481779046E+03  0.25500000920E-02 0. -1.
        2   -1    0    0  501    0  0.00000000000E+00  0.00000000000E+00 -0.12481839653E+04  0.12481839653E+04  0.25500000920E-02 0.  1.
    10030    2    1    2    0    0  0.00000000000E+00  0.00000000000E+00 -0.58336617485E+03  0.19130017558E+04  0.18218835373E+04 0.  0.
        3    1    3    3  502    0  0.80593233214E+03 -0.37196977503E+03 -0.76682896718E+02  0.89093698676E+03  0.10100000352E+00 0. -1.
       -3    1    3    3    0  502 -0.80593233214E+03  0.37196977503E+03 -0.50668327813E+03  0.10220647690E+04  0.10100000352E+00 0.  1.
</event>
<event>
 5   0  0.1308893E-04  0.1786511E+04  0.7818609E-02  0.8713506E-01
       -1   -1    0    0    0  501  0.00000000000E+00  0.00000000000E+00  0.51030509403E+03  0.51030509406E+03  0.50400001928E-02 0. -1.
        1   -1    0    0  501    0  0.00000000000E+00  0.00000000000E+00 -0.15635858199E+04  0.15635858199E+04  0.50400001928E-02 0.  1.
    10030    2    1    2    0    0  0.00000000000E+00  0.00000000000E+00 -0.10532807259E+04  0.20738909140E+04  0.17865114709E+04 0.  0.
        4    1    3    3  502    0 -0.47049126568E+03  0.59089610837E+03  0.26913654395E+02  0.75580830881E+03  0.12699999809E+01 0. -1.
       -4    1    3    3    0  502  0.47049126568E+03 -0.59089610837E+03 -0.10801943803E+04  0.13180826052E+04  0.12699999809E+01 0.  1.
</event>
<event>
 5   0  0.2393421E-04  0.1780291E+04  0.7818609E-02  0.8716851E-01
        2   -1    0    0  501    0  0.00000000000E+00  0.00000000000E+00  0.21608719253E+04  0.21608719253E+04  0.25500000920E-02 0.  1.
       -2   -1    0    0    0  501  0.00000000000E+00  0.00000000000E+00 -0.36668490394E+03  0.36668490395E+03  0.25500000920E-02 0. -1.
    10030    2    1    2    0    0  0.00000000000E+00  0.00000000000E+00  0.17941870214E+04  0.25275568293E+04  0.17802911159E+04 0.  0.
        5    1    3    3  502    0  0.37694890727E+03  0.35971265851E+03 -0.12753782815E+03  0.53644353197E+03  0.46999998093E+01 0. -1.
       -5    1    3    3    0  502 -0.37694890727E+03 -0.35971265851E+03  0.19217248495E+04  0.19911132973E+04  0.46999998093E+01 0.  1.
</event>
<event>
 5   0  0.1308893E-04  0.1766610E+04  0.7818609E-02  0.8724260E-01
       -1   -1    0    0    0  501  0.00000000000E+00  0.00000000000E+00  0.12225994036E+04  0.12225994036E+04  0.50400001928E-02 0.  1.
        1   -1    0    0  501    0  0.00000000000E+00  0.00000000000E+00 -0.63817140382E+03  0.63817140384E+03  0.50400001928E-02 0. -1.
    10030    2    1    2    0    0  0.00000000000E+00  0.00000000000E+00  0.58442799974E+03  0.18607708074E+04  0.17666102883E+04 0.  0.
        4    1    3    3  502    0  0.32226614848E+03 -0.30704466361E+03 -0.51140253681E+03  0.67798677233E+03  0.12699999809E+01 0. -1.
       -4    1    3    3    0  502 -0.32226614848E+03  0.30704466361E+03  0.10958305365E+04  0.11827840351E+04  0.12699999809E+01 0.  1.
</event>
<event>
 5   0  0.1330225E-04  0.1816102E+04  0.7818609E-02  0.8697783E-01
        1   -1    0    0  501    0  0.00000000000E+00  0.00000000000E+00  0.12006942659E+04  0.12006942659E+04  0.50400001928E-02 0. -1.
       -1   -1    0    0    0  501  0.00000000000E+00  0.00000000000E+00 -0.68673304397E+03  0.68673304399E+03  0.50400001928E-02 0.  1.
    10030    2    1    2    0    0  0.00000000000E+00  0.00000000000E+00  0.51396122192E+03  0.18874273099E+04  0.18161017902E+04 0.  0.
        3    1    3    3  502    0 -0.50880967733E+03 -0.60409096654E+03 -0.20865963155E+03  0.81691617418E+03  0.10100000352E+00 0.  1.
       -3    1    3    3    0  502  0.50880967733E+03  0.60409096654E+03  0.72262085347E+03  0.10705111357E+04  0.10100000352E+00 0. -1.
</event>
<event>
 5   0  0.2550616E-04  0.1750617E+04  0.7818609E-02  0.8733011E-01
       -2   -1    0    0    0  501  0.00000000000E+00  0.00000000000E+00  0.41424480642E+03  0.41424480643E+03  0.25500000920E-02 0. -1.
        2   -1    0    0  501    0  0.00000000000E+00  0.00000000000E+00 -0.18495454153E+04  0.18495454153E+04  0.25500000920E-02 0.  1.
    10030    2    1    2    0    0  0.00000000000E+00  0.00000000000E+00 -0.14353006089E+04  0.22637902218E+04  0.17506165572E+04 0.  0.
        1    1    3    3  502    0 -0.27143188609E+03 -0.11584413993E+03  0.34796940406E+03  0.45626509809E+03  0.50400001928E-02 0. -1.
       -1    1    3    3    0  502  0.27143188609E+03  0.11584413993E+03 -0.17832700130E+04  0.18075251237E+04  0.50400001928E-02 0.  1.
</event>
<event>
 5   0  0.2417106E-04  0.1795069E+04  0.7818609E-02  0.8708926E-01
        2   -1    0    0  501    0  0.00000000000E+00  0.00000000000E+00  0.12956401029E+04  0.12956401029E+04  0.25500000920E-02 0. -1.
       -2   -1    0    0    0  501  0.00000000000E+00  0.00000000000E+00 -0.62175317251E+03  0.62175317251E+03  0.25500000920E-02 0.  1.
    10030    2    1    2    0    0  0.00000000000E+00  0.00000000000E+00  0.67388693042E+03  0.19173932754E+04  0.17950691847E+04 0.  0.
        4    1    3    3  502    0 -0.18178428552E+03 -0.88594172091E+02  0.12709882096E+04  0.12869759499E+04  0.12699999809E+01 0. -1.
       -4    1    3    3    0  502  0.18178428552E+03  0.88594172091E+02 -0.59710127920E+03  0.63041732552E+03  0.12699999809E+01 0.  1.
</event>
<event>
 5   0  0.2431811E-04  0.1805099E+04  0.7818609E-02  0.8703592E-01
       -2   -1    0    0    0  501  0.00000000000E+00  0.00000000000E+00  0.44673277743E+03  0.44673277744E+03  0.25500000920E-02 0. -1.
        2   -1    0    0  501    0  0.00000000000E+00  0.00000000000E+00 -0.18234520491E+04  0.18234520491E+04  0.25500000920E-02 0.  1.
    10030    2    1    2    0    0  0.00000000000E+00  0.00000000000E+00 -0.13767192717E+04  0.22701848265E+04  0.18050992199E+04 0.  0.
        3    1    3    3  502    0  0.65514568233E+03  0.24791830480E+03  0.27415538813E+02  0.70102137835E+03  0.10100000352E+00 0.  1.
       -3    1    3    3    0  502 -0.65514568233E+03 -0.24791830480E+03 -0.14041348105E+04  0.15691634482E+04  0.10100000352E+00 0. -1.
</event>
<event>
 5   0  0.1253925E-04  0.1808840E+04  0.7818609E-02  0.8701613E-01
       -1   -1    0    0    0  501  0.00000000000E+00  0.00000000000E+00  0.38625309963E+03  0.38625309966E+03  0.50400001928E-02 0. -1.
        1   -1    0    0  501    0  0.00000000000E+00  0.00000000000E+00 -0.21177183531E+04  0.21177183531E+04  0.50400001928E-02 0.  1.
    10030    2    1    2    0    0  0.00000000000E+00  0.00000000000E+00 -0.17314652535E+04  0.25039714528E+04  0.18088397144E+04 0.  0.
        2    1    3    3  502    0  0.93835849359E+02 -0.80959498507E+03 -0.14084866521E+04  0.16272934142E+04  0.25500000920E-02 0.  1.
       -2    1    3    3    0  502 -0.93835849359E+02  0.80959498507E+03 -0.32297860135E+03  0.87667803863E+03  0.25500000920E-02 0. -1.
</event>
<event>
 5   0  0.1253925E-04  0.1787143E+04  0.7818609E-02  0.8713167E-01
       -1   -1    0    0    0  501  0.00000000000E+00  0.00000000000E+00  0.53587250747E+03  0.53587250749E+03  0.50400001928E-02 0. -1.
        1   -1    0    0  501    0  0.00000000000E+00  0.00000000000E+00 -0.14900377247E+04  0.14900377247E+04  0.50400001928E-02 0.  1.
    10030    2    1    2    0    0  0.00000000000E+00  0.00000000000E+00 -0.95416521727E+03  0.20259102322E+04  0.17871432531E+04 0.  0.
        2    1    3    3  502    0  0.59009960881E+03 -0.62743624654E+03 -0.74671913096E+03  0.11399487937E+04  0.25500000920E-02 0.  1.
       -2    1    3    3    0  502 -0.59009960881E+03  0.62743624654E+03 -0.20744608631E+03  0.88596143851E+03  0.25500000920E-02 0. -1.
</event>
<event>
 5   0  0.2393421E-04  0.1786664E+04  0.7818609E-02  0.8713424E-01
       -2   -1    0    0    0  501  0.00000000000E+00  0.00000000000E+00  0.48703937659E+03  0.48703937660E+03  0.25500000920E-02 0. -1.
        2   -1    0    0  501    0  0.00000000000E+00  0.00000000000E+00 -0.16385572161E+04  0.16385572161E+04  0.25500000920E-02 0.  1.
    10030    2    1    2    0    0  0.00000000000E+00  0.00000000000E+00 -0.11515178395E+04  0.21255965927E+04  0.17866638016E+04 0.  0.
        5    1    3    3  502    0  0.59649873961E+03  0.63090203743E+03 -0.82579915884E+03  0.11982547592E+04  0.46999998093E+01 0.  1.
       -5    1    3    3    0  502 -0.59649873961E+03 -0.63090203743E+03 -0.32571868062E+03  0.92734183346E+03  0.46999998093E+01 0. -1.
</event>
<event>
 5   0  0.1214723E-04  0.1798934E+04  0.7818609E-02  0.8706867E-01
       -1   -1    0    0    0  501  0.00000000000E+00  0.00000000000E+00  0.47992271063E+03  0.47992271065E+03  0.50400001928E-02 0. -1.
        1   -1    0    0  501    0  0.00000000000E+00  0.00000000000E+00 -0.16857732649E+04  0.16857732649E+04  0.50400001928E-02 0.  1.
    10030    2    1    2    0    0  0.00000000000E+00  0.00000000000E+00 -0.12058505543E+04  0.21656959756E+04  0.17989339897E+04 0.  0.
        1    1    3    3  502    0  0.62249827851E+03 -0.56505140653E+03 -0.21795985121E+03  0.86850083220E+03  0.50400001928E-02 0. -1.
       -1    1    3    3    0  502 -0.62249827851E+03  0.56505140653E+03 -0.98789070310E+03  0.12971951434E+04  0.50400001928E-02 0.  1.
</event>
<event>
 5   0  0.2431811E-04  0.1785838E+04  0.7818609E-02  0.8713867E-01
       -2   -1    0    0    0  501  0.00000000000E+00  0.00000000000E+00  0.48221935405E+03  0.48221935406E+03  0.25500000920E-02 0.  1.
        2   -1    0    0  501    0  0.00000000000E+00  0.00000000000E+00 -0.16534057806E+04  0.16534057806E+04  0.25500000920E-02 0. -1.
    10030    2    1    2    0    0  0.00000000000E+00  0.00000000000E+00 -0.11711864265E+04  0.21356251346E+04  0.17858379182E+04 0.  0.
        3    1    3    3  502    0 -0.18603291813E+03 -0.87331658095E+03 -0.58109317477E+03  0.10653447260E+04  0.10100000352E+00 0.  1.
       -3    1    3    3    0  502  0.18603291813E+03  0.87331658095E+03 -0.59009325174E+03  0.10702804087E+04  0.10100000352E+00 0. -1.
</event>
<event>
 5   0  0.1253925E-04  0.1788253E+04  0.7818609E-02  0.8712572E-01
       -1   -1    0    0    0  501  0.00000000000E+00  0.00000000000E+00  0.60389987554E+03  0.60389987556E+03  0.50400001928E-02 0. -1.
        1   -1    0    0  501    0  0.00000000000E+00  0.00000000000E+00 -0.13238321539E+04  0.13238321539E+04  0.50400001928E-02 0.  1.
    10030    2    1    2    0    0  0.00000000000E+00  0.00000000000E+00 -0.71993227831E+03  0.19277320294E+04  0.17882528602E+04 0.  0.
        2    1    3    3  502    0 -0.35206547101E+03  0.20925307374E+03 -0.12167707817E+04  0.12838489319E+04  0.25500000920E-02 0.  1.
       -2    1    3    3    0  502  0.35206547101E+03 -0.20925307374E+03  0.49683850342E+03  0.64388309749E+03  0.25500000920E-02 0. -1.
</event>
<event>
 5   0  0.1308893E-04  0.1742700E+04  0.7818609E-02  0.8737379E-01
       -1   -1    0    0    0  501  0.00000000000E+00  0.00000000000E+00  0.19851680875E+04  0.19851680875E+04  0.50400001928E-02 0. -1.
        1   -1    0    0  501    0  0.00000000000E+00  0.00000000000E+00 -0.38246156177E+03  0.38246156180E+03  0.50400001928E-02 0.  1.
    10030    2    1    2    0    0  0.00000000000E+00  0.00000000000E+00  0.16027065257E+04  0.23676296493E+04  0.17426996152E+04 0.  0.
        4    1    3    3  502    0  0.69044915756E+03 -0.24859450691E+03  0.16305813585E+03  0.75173721247E+03  0.12699999809E+01 0.  1.
       -4    1    3    3    0  502 -0.69044915756E+03  0.24859450691E+03  0.14396483899E+04  0.16158924368E+04  0.12699999809E+01 0. -1.
</event>
<event>
 5   0  0.1239119E-04  0.1776920E+04  0.7818609E-02  0.8718670E-01
       -1   -1    0    0    0  501  0.00000000000E+00  0.00000000000E+00  0.52108704965E+03  0.52108704968E+03  0.50400001928E-02 0. -1.
        1   -1    0    0  501    0  0.00000000000E+00  0.00000000000E+00 -0.15148352852E+04  0.15148352852E+04  0.50400001928E-02 0.  1.
    10030    2    1    2    0    0  0.00000000000E+00  0.00000000000E+00 -0.99374823552E+03  0.20359223349E+04  0.17769198626E+04 0.  0.
        5    1    3    3  502    0 -0.27120625117E+02  0.29298047208E+03  0.46362881875E+03  0.54913282264E+03  0.46999998093E+01 0. -1.
       -5    1    3    3    0  502  0.27120625117E+02 -0.29298047208E+03 -0.14573770543E+04  0.14867895122E+04  0.46999998093E+01 0.  1.
</event>
<event>
 5   0  0.2417106E-04  0.1801083E+04  0.7818609E-02  0.8705724E-01
       -2   -1    0    0    0  501  0.00000000000E+00  0.00000000000E+00  0.59976415725E+03  0.59976415726E+03  0.25500000920E-02 0.  1.
        2   -1    0    0  501    0  0.00000000000E+00  0.00000000000E+00 -0.13521569109E+04  0.13521569109E+04  0.25500000920E-02 0. -1.
    10030    2    1    2    0    0  0.00000000000E+00  0.00000000000E+00 -0.75239275363E+03  0.19519210681E+04  0.18010832853E+04 0.  0.
        4    1    3    3  502    0  0.78138298295E+03 -0.87699252893E+02  0.99571763223E+02  0.79256966504E+03  0.12699999809E+01 0.  1.
       -4    1    3    3    0  502 -0.78138298295E+03  0.87699252893E+02 -0.85196451685E+03  0.11593514031E+04  0.12699999809E+01 0. -1.
</event>
<event>
 5   0  0.1239119E-04  0.1821658E+04  0.7818609E-02  0.8694866E-01
       -1   -1    0    0    0  501  0.00000000000E+00  0.00000000000E+00  0.10527201579E+04  0.10527201579E+04  0.50400001928E-02 0.  1.
        1   -1    0    0  501    0  0.00000000000E+00  0.00000000000E+00 -0.78806308882E+03  0.78806308884E+03  0.50400001928E-02 0. -1.
    10030    2    1    2    0    0  0.00000000000E+00  0.00000000000E+00  0.26465706909E+03  0.18407832468E+04  0.18216584744E+04 0.  0.
        5    1    3    3  502    0  0.13046082637E+03  0.71258268419E+03  0.69020583133E+03  0.10005999643E+04  0.46999998093E+01 0.  1.
       -5    1    3    3    0  502 -0.13046082637E+03 -0.71258268419E+03 -0.42554876224E+03  0.84018328243E+03  0.46999998093E+01 0. -1.
</event>
<event>
 5   0  0.2569405E-04  0.1800405E+04  0.7818609E-02  0.8706084E-01
       -2   -1    0    0    0  501  0.00000000000E+00  0.00000000000E+00  0.51389546277E+03  0.51389546277E+03  0.25500000920E-02 0.  1.
        2   -1    0    0  501    0  0.00000000000E+00  0.00000000000E+00 -0.15769059370E+04  0.15769059370E+04  0.25500000920E-02 0. -1.
    10030    2    1    2    0    0  0.00000000000E+00  0.00000000000E+00 -0.10630104742E+04  0.20908013997E+04  0.18004052946E+04 0.  0.
        2    1    3    3  502    0  0.20890116739E+02  0.71553022170E+03 -0.11653902544E+04  0.13676821049E+04  0.25500000920E-02 0. -1.
       -2    1    3    3    0  502 -0.20890116739E+02 -0.71553022170E+03  0.10237978017E+03  0.72311929482E+03  0.25500000920E-02 0.  1.
</event>
<event>
 5   0  0.1253925E-04  0.1806325E+04  0.7818609E-02  0.8702943E-01
       -1   -1    0    0    0  501  0.00000000000E+00  0.00000000000E+00  0.16126128685E+04  0.16126128685E+04  0.50400001928E-02 0.  1.
        1   -1    0    0  501    0  0.00000000000E+00  0.00000000000E+00 -0.50582652968E+03  0.50582652971E+03  0.50400001928E-02 0. -1.
    10030    2    1    2    0    0  0.00000000000E+00  0.00000000000E+00  0.11067863388E+04  0.21184393982E+04  0.18063248557E+04 0.  0.
        2    1    3    3  502    0 -0.76475337462E+03  0.35169961015E+03  0.93731309723E+03  0.12598000564E+04  0.25500000920E-02 0.  1.
       -2    1    3    3    0  502  0.76475337462E+03 -0.35169961015E+03  0.16947324161E+03  0.85863934187E+03  0.25500000920E-02 0. -1.
</event>
<event>
 5   0  0.1214723E-04  0.1814351E+04  0.7818609E-02  0.8698705E-01
        1   -1    0    0  501    0  0.00000000000E+00  0.00000000000E+00  0.11173361065E+04  0.11173361065E+04  0.50400001928E-02 0.  1.
       -1   -1    0    0    0  501  0.00000000000E+00  0.00000000000E+00 -0.73654428795E+03  0.73654428797E+03  0.50400001928E-02 0. -1.
    10030    2    1    2    0    0  0.00000000000E+00  0.00000000000E+00  0.38079181858E+03  0.18538803945E+04  0.18143511534E+04 0.  0.
        1    1    3    3  502    0  0.31804033369E+03 -0.23704597805E+03 -0.64323893073E+03  0.75570944919E+03  0.50400001928E-02 0. -1.
       -1    1    3    3    0  502 -0.31804033369E+03  0.23704597805E+03  0.10240307493E+04  0.10981709453E+04  0.50400001928E-02 0.  1.
</event>
<event>
 5   0  0.2569405E-04  0.1805587E+04  0.7818609E-02  0.8703334E-01
        2   -1    0    0  501    0  0.00000000000E+00  0.00000000000E+00  0.15354609522E+04  0.15354609522E+04  0.25500000920E-02 0. -1.
       -2   -1    0    0    0  501  0.00000000000E+00  0.00000000000E+00 -0.53080875332E+03  0.53080875333E+03  0.25500000920E-02 0.  1.
    10030    2    1    2    0    0  0.00000000000E+00  0.00000000000E+00  0.10046521988E+04  0.20662697055E+04  0.18055870112E+04 0.  0.
        2    1    3    3  502    0  0.75970463605E+03 -0.47709323718E+03  0.61828146503E+03  0.10895141399E+04  0.25500000920E-02 0.  1.
       -2    1    3    3    0  502 -0.75970463605E+03  0.47709323718E+03  0.38637073381E+03  0.97675556561E+03  0.25500000920E-02 0. -1.
</event>
<event>
 5   0  0.2417106E-04  0.1807490E+04  0.7818609E-02  0.8702326E-01
       -2   -1    0    0    0  501  0.00000000000E+00  0.00000000000E+00  0.17035505865E+04  0.17035505865E+04  0.25500000920E-02 0. -1.
        2   -1    0    0  501    0  0.00000000000E+00  0.00000000000E+00 -0.47944288404E+03  0.47944288404E+03  0.25500000920E-02 0.  1.
    10030    2    1    2    0    0  0.00000000000E+00  0.00000000000E+00  0.12241077024E+04  0.21829934705E+04  0.18074902006E+04 0.  0.
        4    1    3    3  502    0  0.56654212209E+03  0.59807829028E+03  0.16325547988E+03  0.83983425866E+03  0.12699999809E+01 0.  1.
       -4    1    3    3    0  502 -0.56654212209E+03 -0.59807829028E+03  0.10608522225E+04  0.13431592119E+04  0.12699999809E+01 0. -1.
</event>
<event>
 5   0  0.1253925E-04  0.1801253E+04  0.7818609E-02  0.8705634E-01
       -1   -1    0    0    0  501  0.00000000000E+00  0.00000000000E+00  0.52581126833E+03  0.52581126836E+03  0.50400001928E-02 0. -1.
        1   -1    0    0  501    0  0.00000000000E+00  0.00000000000E+00 -0.15426214973E+04  0.15426214973E+04  0.50400001928E-02 0.  1.
    10030    2    1    2    0    0  0.00000000000E+00  0.00000000000E+00 -0.10168102289E+04  0.20684327656E+04  0.18012526375E+04 0.  0.
        2    1    3    3  502    0 -0.28942357415E+03  0.64831413194E+03 -0.11447194635E+04  0.13470188822E+04  0.25500000920E-02 0.  1.
       -2    1    3    3    0  502  0.28942357415E+03 -0.64831413194E+03  0.12790923452E+03  0.72141388345E+03  0.25500000920E-02 0. -1.
</event>
<event>
 5   0  0.1214723E-04  0.1776092E+04  0.7818609E-02  0.8719118E-01
        1   -1    0    0  501    0  0.00000000000E+00  0.00000000000E+00  0.63732008331E+03  0.63732008333E+03  0.50400001928E-02 0.  1.
       -1   -1    0    0    0  501  0.00000000000E+00  0.00000000000E+00 -0.12374086354E+04  0.12374086354E+04  0.50400001928E-02 0. -1.
    10030    2    1    2    0    0  0.00000000000E+00  0.00000000000E+00 -0.60008855205E+03  0.18747287187E+04  0.17760916357E+04 0.  0.
        1    1    3    3  502    0  0.76287769898E+03 -0.33607798859E+03 -0.62313931511E+03  0.10407849942E+04  0.50400001928E-02 0. -1.
       -1    1    3    3    0  502 -0.76287769898E+03  0.33607798859E+03  0.23050763059E+02  0.83394372455E+03  0.50400001928E-02 0.  1.
</event>
<event>
 5   0  0.1308893E-04  0.1782988E+04  0.7818609E-02  0.8715399E-01
        1   -1    0    0  501    0  0.00000000000E+00  0.00000000000E+00  0.89828812563E+03  0.89828812564E+03  0.50400001928E-02 0. -1.
       -1   -1    0    0    0  501  0.00000000000E+00  0.00000000000E+00 -0.88475112807E+03  0.88475112809E+03  0.50400001928E-02 0.  1.
    10030    2    1    2    0    0  0.00000000000E+00  0.00000000000E+00  0.13536997557E+02  0.17830392537E+04  0.17829878659E+04 0.  0.
        4    1    3    3  502    0 -0.19547285386E+02  0.52111106147E+03 -0.71631595128E+03  0.88602990340E+03  0.12699999809E+01 0.  1.
       -4    1    3    3    0  502  0.19547285386E+02 -0.52111106147E+03  0.72985294884E+03  0.89700935033E+03  0.12699999809E+01 0. -1.
</event>
<event>
 5   0  0.2417106E-04  0.1729301E+04  0.7818609E-02  0.8744827E-01
       -2   -1    0    0    0  501  0.00000000000E+00  0.00000000000E+00  0.12384935222E+04  0.12384935222E+04  0.25500000920E-02 0.  1.
        2   -1    0    0  501    0  0.00000000000E+00  0.00000000000E+00 -0.60365335505E+03  0.60365335506E+03  0.25500000920E-02 0. -1.
    10030    2    1    2    0    0  0.00000000000E+00  0.00000000000E+00  0.63484016717E+03  0.18421468773E+04  0.17293013270E+04 0.  0.
        4    1    3    3  502    0  0.72943602800E+03 -0.74062024646E+02 -0.17080739089E+03  0.75282061617E+03  0.12699999809E+01 0. -1.
       -4    1    3    3    0  502 -0.72943602800E+03  0.74062024646E+02  0.80564755806E+03  0.10893262611E+04  0.12699999809E+01 0.  1.
</event>
<event>
 5   0  0.1330225E-04  0.1804398E+04  0.7818609E-02  0.8703964E-01
        1   -1    0    0  501    0  0.00000000000E+00  0.00000000000E+00  0.10293618146E+04  0.10293618147E+04  0.50400001928E-02 0.  1.
       -1   -1    0    0    0  501  0.00000000000E+00  0.00000000000E+00 -0.79074498707E+03  0.79074498709E+03  0.50400001928E-02 0. -1.
    10030    2    1    2    0    0  0.00000000000E+00  0.00000000000E+00  0.23861682757E+03  0.18201068017E+04  0.18043976223E+04 0.  0.
        3    1    3    3  502    0  0.31897828720E+03  0.84308279113E+03  0.81204628076E+02  0.90505797728E+03  0.10100000352E+00 0.  1.
       -3    1    3    3    0  502 -0.31897828720E+03 -0.84308279113E+03  0.15741219949E+03  0.91504882447E+03  0.10100000352E+00 0. -1.
</event>
<event>
 5   0  0.1214723E-04  0.1787913E+04  0.7818609E-02  0.8712754E-01
        1   -1    0    0  501    0  0.00000000000E+00  0.00000000000E+00  0.18362826947E+04  0.18362826947E+04  0.50400001928E-02 0.  1.
       -1   -1    0    0    0  501  0.00000000000E+00  0.00000000000E+00 -0.43520420545E+03  0.43520420547E+03  0.50400001928E-02 0. -1.
    10030    2    1    2    0    0  0.00000000000E+00  0.00000000000E+00  0.14010784893E+04  0.22714869002E+04  0.17879126949E+04 0.  0.
        1    1    3    3  502    0  0.66512653074E+03 -0.52749697747E+03  0.34455497361E+03  0.91616837590E+03  0.50400001928E-02 0.  1.
       -1    1    3    3    0  502 -0.66512653074E+03  0.52749697747E+03  0.10565235157E+04  0.13553185243E+04  0.50400001928E-02 0. -1.
</event>
<event>
 5   0  0.1214723E-04  0.1806006E+04  0.7818609E-02  0.8703112E-01
       -1   -1    0    0    0  501  0.00000000000E+00  0.00000000000E+00  0.15743206080E+04  0.15743206080E+04  0.50400001928E-02 0.  1.
        1   -1    0    0  501    0  0.00000000000E+00  0.00000000000E+00 -0.51794697198E+03  0.51794697201E+03  0.50400001928E-02 0. -1.
    10030    2    1    2    0    0  0.00000000000E+00  0.00000000000E+00  0.10563736360E+04  0.20922675800E+04  0.18060061925E+04 0.  0.
        1    1    3    3  502    0 -0.52912769391E+03  0.35894437585E+03 -0.21053392616E+03  0.67315801675E+03  0.50400001928E-02 0. -1.
       -1    1    3    3    0  502  0.52912769391E+03 -0.35894437585E+03  0.12669075621E+04  0.14191095632E+04  0.50400001928E-02 0.  1.
</event>
<event>
 5   0  0.2417106E-04  0.1801093E+04  0.7818609E-02  0.8705718E-01
        2   -1    0    0  501    0  0.00000000000E+00  0.00000000000E+00  0.90996624608E+03  0.90996624608E+03  0.25500000920E-02 0. -1.
       -2   -1    0    0    0  501  0.00000000000E+00  0.00000000000E+00 -0.89122433747E+03  0.89122433747E+03  0.25500000920E-02 0.  1.
    10030    2    1    2    0    0  0.00000000000E+00  0.00000000000E+00  0.18741908610E+02  0.18011905835E+04  0.18010930734E+04 0.  0.
        4    1    3    3  502    0 -0.27198884302E+03 -0.59983575966E+03 -0.60482968608E+03  0.89420435659E+03  0.12699999809E+01 0.  1.
       -4    1    3    3    0  502  0.27198884302E+03  0.59983575966E+03  0.62357159469E+03  0.90698622696E+03  0.12699999809E+01 0. -1.
</event>
<event>
 5   0  0.2431811E-04  0.1794467E+04  0.7818609E-02  0.8709247E-01
       -2   -1    0    0    0  501  0.00000000000E+00  0.00000000000E+00  0.10683291466E+04  0.10683291466E+04  0.25500000920E-02 0.  1.
        2   -1    0    0  501    0  0.00000000000E+00  0.00000000000E+00 -0.75353941299E+03  0.75353941299E+03  0.25500000920E-02 0. -1.
    10030    2    1    2    0    0  0.00000000000E+00  0.00000000000E+00  0.31478973357E+03  0.18218685596E+04  0.17944671833E+04 0.  0.
        3    1    3    3  502    0 -0.56404011817E+03 -0.41145235295E+03  0.72955492657E+03  0.10097943824E+04  0.10100000352E+00 0.  1.
       -3    1    3    3    0  502  0.56404011817E+03  0.41145235295E+03 -0.41476519300E+03  0.81207417715E+03  0.10100000352E+00 0. -1.
</event>
<event>
 5   0  0.2393421E-04  0.1794545E+04  0.7818609E-02  0.8709206E-01
       -2   -1    0    0    0  501  0.00000000000E+00  0.00000000000E+00  0.56279619212E+03  0.56279619212E+03  0.25500000920E-02 0. -1.
        2   -1    0    0  501    0  0.00000000000E+00  0.00000000000E+00 -0.14305323543E+04  0.14305323543E+04  0.25500000920E-02 0.  1.
    10030    2    1    2    0    0  0.00000000000E+00  0.00000000000E+00 -0.86773616216E+03  0.19933285464E+04  0.17945452479E+04 0.  0.
        5    1    3    3  502    0 -0.44774748101E+03  0.30986635259E+02 -0.12968720490E+04  0.13723473247E+04  0.46999998093E+01 0.  1.
       -5    1    3    3    0  502  0.44774748101E+03 -0.30986635259E+02  0.42913588681E+03  0.62098122167E+03  0.46999998093E+01 0. -1.
</event>
<event>
 5   0  0.2431811E-04  0.1784149E+04  0.7818609E-02  0.8714775E-01
        2   -1    0    0  501    0  0.00000000000E+00  0.00000000000E+00  0.91089518793E+03  0.91089518793E+03  0.25500000920E-02 0. -1.
       -2   -1    0    0    0  501  0.00000000000E+00  0.00000000000E+00 -0.87364241106E+03  0.87364241106E+03  0.25500000920E-02 0.  1.
    10030    2    1    2    0    0  0.00000000000E+00  0.00000000000E+00  0.37252776869E+02  0.17845375990E+04  0.17841487250E+04 0.  0.
        3    1    3    3  502    0 -0.69472312721E+02  0.78430044667E+03  0.43805424538E+03  0.90102448634E+03  0.10100000352E+00 0. -1.
       -3    1    3    3    0  502  0.69472312721E+02 -0.78430044667E+03 -0.40080146851E+03  0.88351311266E+03  0.10100000352E+00 0.  1.
</event>
<event>
 5   0  0.1239119E-04  0.1812505E+04  0.7818609E-02  0.8699678E-01
        1   -1    0    0  501    0  0.00000000000E+00  0.00000000000E+00  0.13247508308E+04  0.13247508308E+04  0.50400001928E-02 0. -1.
       -1   -1    0    0    0  501  0.00000000000E+00  0.00000000000E+00 -0.61996080027E+03  0.61996080029E+03  0.50400001928E-02 0.  1.
    10030    2    1    2    0    0  0.00000000000E+00  0.00000000000E+00  0.70479003054E+03  0.19447116311E+04  0.18125049906E+04 0.  0.
        5    1    3    3  502    0 -0.68906836764E+03 -0.39951672307E+02 -0.27768760879E+03  0.74400527517E+03  0.46999998093E+01 0.  1.
       -5    1    3    3    0  502  0.68906836764E+03  0.39951672307E+02  0.98247763933E+03  0.12007063559E+04  0.46999998093E+01 0. -1.
</event>
<event>
 5   0  0.2393421E-04  0.1710765E+04  0.7818609E-02  0.8755248E-01
        2   -1    0    0  501    0  0.00000000000E+00  0.00000000000E+00  0.11718098765E+04  0.11718098765E+04  0.25500000920E-02 0. -1.
       -2   -1    0    0    0  501  0.00000000000E+00  0.00000000000E+00 -0.62440086409E+03  0.62440086410E+03  0.25500000920E-02 0.  1.
    10030    2    1    2    0    0  0.00000000000E+00  0.00000000000E+00  0.54740901237E+03  0.17962107406E+04  0.17107648575E+04 0.  0.
        5    1    3    3  502    0 -0.18627213951E+03 -0.34331321666E+03 -0.52528698003E+03  0.65460658114E+03  0.46999998093E+01 0.  1.
       -5    1    3    3    0  502  0.18627213951E+03  0.34331321666E+03  0.10726959924E+04  0.11416041594E+04  0.46999998093E+01 0. -1.
</event>
<event>
 5   0  0.2569405E-04  0.1800532E+04  0.7818609E-02  0.8706017E-01
       -2   -1    0    0    0  501  0.00000000000E+00  0.00000000000E+00  0.88854595883E+03  0.88854595884E+03  0.25500000920E-02 0.  1.
        2   -1    0    0  501    0  0.00000000000E+00  0.00000000000E+00 -0.91214024608E+03  0.91214024608E+03  0.25500000920E-02 0. -1.
    10030    2    1    2    0    0  0.00000000000E+00  0.00000000000E+00 -0.23594287244E+02  0.18006862049E+04  0.18005316210E+04 0.  0.
        2    1    3    3  502    0 -0.32283386293E+03  0.63638392186E+03 -0.56072706987E+03  0.90753569955E+03  0.25500000920E-02 0.  1.
       -2    1    3    3    0  502  0.32283386293E+03 -0.63638392186E+03  0.53713278263E+03  0.89315050537E+03  0.25500000920E-02 0. -1.
</event>
<event>
 5   0  0.2393421E-04  0.1849931E+04  0.7818609E-02  0.8680188E-01
       -2   -1    0    0    0  501  0.00000000000E+00  0.00000000000E+00  0.11769315312E+04  0.11769315312E+04  0.25500000920E-02 0. -1.
        2   -1    0    0  501    0  0.00000000000E+00  0.00000000000E+00 -0.72694214934E+03  0.72694214934E+03  0.25500000920E-02 0.  1.
    10030    2    1    2    0    0  0.00000000000E+00  0.00000000000E+00  0.44998938183E+03  0.19038736805E+04  0.18499309575E+04 0.  0.
        5    1    3    3  502    0 -0.74899212665E+03  0.54235785595E+03  0.20446825854E+03  0.94708532269E+03  0.46999998093E+01 0. -1.
       -5    1    3    3    0  502  0.74899212665E+03 -0.54235785595E+03  0.24552112329E+03  0.95678835783E+03  0.46999998093E+01 0.  1.
</event>
<event>
 5   0  0.1214723E-04  0.1909940E+04  0.7818609E-02  0.8649924E-01
        1   -1    0    0  501    0  0.00000000000E+00  0.00000000000E+00  0.10468877507E+04  0.10468877507E+04  0.50400001928E-02 0. -1.
       -1   -1    0    0    0  501  0.00000000000E+00  0.00000000000E+00 -0.87112305701E+03  0.87112305703E+03  0.50400001928E-02 0.  1.
    10030    2    1    2    0    0  0.00000000000E+00  0.00000000000E+00  0.17576469373E+03  0.19180108078E+04  0.19099403737E+04 0.  0.
        1    1    3    3  502    0  0.77587101445E+03 -0.19085484765E+03  0.61312842696E+03  0.10071384572E+04  0.50400001928E-02 0. -1.
       -1    1    3    3    0  502 -0.77587101445E+03  0.19085484765E+03 -0.43736373323E+03  0.91087235061E+03  0.50400001928E-02 0.  1.
</event>
<event>
 5   0  0.2569405E-04  0.1790771E+04  0.7818609E-02  0.8711223E-01
       -2   -1    0    0    0  501  0.00000000000E+00  0.00000000000E+00  0.78610230817E+03  0.78610230817E+03  0.25500000920E-02 0. -1.
        2   -1    0    0  501    0  0.00000000000E+00  0.00000000000E+00 -0.10198616061E+04  0.10198616061E+04  0.25500000920E-02 0.  1.
    10030    2    1    2    0    0  0.00000000000E+00  0.00000000000E+00 -0.23375929795E+03  0.18059639143E+04  0.17907714121E+04 0.  0.
        2    1    3    3  502    0 -0.46232171630E+03 -0.66033358916E+03 -0.50997330586E+03  0.95386298336E+03  0.25500000920E-02 0.  1.
       -2    1    3    3    0  502  0.46232171630E+03  0.66033358916E+03  0.27621400791E+03  0.85210093094E+03  0.25500000920E-02 0. -1.
</event>
<event>
 5   0  0.1239119E-04  0.1787683E+04  0.7818609E-02  0.8712877E-01
        1   -1    0    0  501    0  0.00000000000E+00  0.00000000000E+00  0.72703369162E+03  0.72703369163E+03  0.50400001928E-02 0.  1.
       -1   -1    0    0    0  501  0.00000000000E+00  0.00000000000E+00 -0.10989207306E+04  0.10989207306E+04  0.50400001928E-02 0. -1.
    10030    2    1    2    0    0  0.00000000000E+00  0.00000000000E+00 -0.37188703902E+03  0.18259544223E+04  0.17876827410E+04 0.  0.
        5    1    3    3  502    0  0.51373781349E+03 -0.28808320813E+03  0.50076808447E+03  0.77311657610E+03  0.46999998093E+01 0.  1.
       -5    1    3    3    0  502 -0.51373781349E+03  0.28808320813E+03 -0.87265512348E+03  0.10528378462E+04  0.46999998093E+01 0. -1.
</event>
<event>
 5   0  0.1330225E-04  0.1818590E+04  0.7818609E-02  0.8696476E-01
        1   -1    0    0  501    0  0.00000000000E+00  0.00000000000E+00  0.17063828537E+04  0.17063828538E+04  0.50400001928E-02 0.  1.
       -1   -1    0    0    0  501  0.00000000000E+00  0.00000000000E+00 -0.48454378202E+03  0.48454378204E+03  0.50400001928E-02 0. -1.
    10030    2    1    2    0    0  0.00000000000E+00  0.00000000000E+00  0.12218390717E+04  0.21909266358E+04  0.18185897850E+04 0.  0.
        3    1    3    3  502    0  0.44812675819E+03 -0.32450284353E+03  0.14802518758E+04  0.15802738094E+04  0.10100000352E+00 0.  1.
       -3    1    3    3    0  502 -0.44812675819E+03  0.32450284353E+03 -0.25841280403E+03  0.61065282637E+03  0.10100000352E+00 0. -1.
</event>
<event>
 5   0  0.2417106E-04  0.1786879E+04  0.7818609E-02  0.8713308E-01
       -2   -1    0    0    0  501  0.00000000000E+00  0.00000000000E+00  0.11158146330E+04  0.11158146330E+04  0.25500000920E-02 0.  1.
        2   -1    0    0  501    0  0.00000000000E+00  0.00000000000E+00 -0.71538242617E+03  0.71538242618E+03  0.25500000920E-02 0. -1.
    10030    2    1    2    0    0  0.00000000000E+00  0.00000000000E+00  0.40043220685E+03  0.18311970592E+04  0.17868790439E+04 0.  0.
        4    1    3    3  502    0  0.49624291801E+02  0.45216682996E+03 -0.58782601752E+03  0.74327548878E+03  0.12699999809E+01 0. -1.
       -4    1    3    3    0  502 -0.49624291801E+02 -0.45216682996E+03  0.98825822437E+03  0.10879215704E+04  0.12699999809E+01 0.  1.
</event>
<event>
 5   0  0.1330225E-04  0.1807447E+04  0.7818609E-02  0.8702349E-01
       -1   -1    0    0    0  501  0.00000000000E+00  0.00000000000E+00  0.97720206822E+03  0.97720206824E+03  0.50400001928E-02 0. -1.
        1   -1    0    0  501    0  0.00000000000E+00  0.00000000000E+00 -0.83577000551E+03  0.83577000552E+03  0.50400001928E-02 0.  1.
    10030    2    1    2    0    0  0.00000000000E+00  0.00000000000E+00  0.14143206272E+03  0.18129720738E+04  0.18074470150E+04 0.  0.
        3    1    3    3  502    0 -0.59820354024E+03 -0.42769849177E+01 -0.60873959105E+03  0.85348091253E+03  0.10100000352E+00 0.  1.
       -3    1    3    3    0  502  0.59820354024E+03  0.42769849177E+01  0.75017165376E+03  0.95949116122E+03  0.10100000352E+00 0. -1.
</event>
<event>
 5   0  0.1308893E-04  0.1815840E+04  0.7818609E-02  0.8697921E-01
       -1   -1    0    0    0  501  0.00000000000E+00  0.00000000000E+00  0.39021670521E+03  0.39021670525E+03  0.50400001928E-02 0. -1.
        1   -1    0    0  501    0  0.00000000000E+00  0.00000000000E+00 -0.21124638491E+04  0.21124638491E+04  0.50400001928E-02 0.  1.
    10030    2    1    2    0    0  0.00000000000E+00  0.00000000000E+00 -0.17222471439E+04  0.25026805543E+04  0.18158399523E+04 0.  0.
        4    1    3    3  502    0  0.32487142233E+03 -0.48720262489E+03 -0.18174035412E+04  0.19094148536E+04  0.12699999809E+01 0.  1.
       -4    1    3    3    0  502 -0.32487142233E+03  0.48720262489E+03  0.95156397368E+02  0.59326570068E+03  0.12699999809E+01 0. -1.
</event>
<event>
 5   0  0.1330225E-04  0.1743654E+04  0.7818609E-02  0.8736851E-01
       -1   -1    0    0    0  501  0.00000000000E+00  0.00000000000E+00  0.67293094316E+03  0.67293094318E+03  0.50400001928E-02 0.  1.
        1   -1    0    0  501    0  0.00000000000E+00  0.00000000000E+00 -0.11295100223E+04  0.11295100223E+04  0.50400001928E-02 0. -1.
    10030    2    1    2    0    0  0.00000000000E+00  0.00000000000E+00 -0.45657907918E+03  0.18024409655E+04  0.17436539160E+04 0.  0.
        3    1    3    3  502    0  0.40527147664E+03 -0.67695049042E+03 -0.61170620989E+03  0.99834434624E+03  0.10100000352E+00 0. -1.
       -3    1    3    3    0  502 -0.40527147664E+03  0.67695049042E+03  0.15512713071E+03  0.80409661929E+03  0.10100000352E+00 0.  1.
</event>
<event>
 5   0  0.2393421E-04  0.1800360E+04  0.7818609E-02  0.8706108E-01
        2   -1    0    0  501    0  0.00000000000E+00  0.00000000000E+00  0.13660400726E+04  0.13660400726E+04  0.25500000920E-02 0.  1.
       -2   -1    0    0    0  501  0.00000000000E+00  0.00000000000E+00 -0.59319208715E+03  0.59319208715E+03  0.25500000920E-02 0. -1.
    10030    2    1    2    0    0  0.00000000000E+00  0.00000000000E+00  0.77284798547E+03  0.19592321598E+04  0.18003601438E+04 0.  0.
        5    1    3    3  502    0 -0.15516274777E+03 -0.25493911638E+03  0.13106202331E+04  0.13441789006E+04  0.46999998093E+01 0.  1.
       -5    1    3    3    0  502  0.15516274777E+03  0.25493911638E+03 -0.53777224762E+03  0.61505325921E+03  0.46999998093E+01 0. -1.
</event>
<event>
 5   0  0.1308893E-04  0.1794039E+04  0.7818609E-02  0.8709476E-01
       -1   -1    0    0    0  501  0.00000000000E+00  0.00000000000E+00  0.46256302752E+03  0.46256302755E+03  0.50400001928E-02 0.  1.
        1   -1    0    0  501    0  0.00000000000E+00  0.00000000000E+00 -0.17395335460E+04  0.17395335460E+04  0.50400001928E-02 0. -1.
    10030    2    1    2    0    0  0.00000000000E+00  0.00000000000E+00 -0.12769705185E+04  0.22020965735E+04  0.17940389110E+04 0.  0.
        4    1    3    3  502    0  0.79929790683E+03  0.30185166081E+03 -0.97385317211E+03  0.12955242887E+04  0.12699999809E+01 0. -1.
       -4    1    3    3    0  502 -0.79929790683E+03 -0.30185166081E+03 -0.30311734635E+03  0.90657228479E+03  0.12699999809E+01 0.  1.
</event>
<event>
 5   0  0.1239119E-04  0.1802834E+04  0.7818609E-02  0.8704794E-01
        1   -1    0    0  501    0  0.00000000000E+00  0.00000000000E+00  0.10796245164E+04  0.10796245164E+04  0.50400001928E-02 0.  1.
       -1   -1    0    0    0  501  0.00000000000E+00  0.00000000000E+00 -0.75262519418E+03  0.75262519419E+03  0.50400001928E-02 0. -1.
    10030    2    1    2    0    0  0.00000000000E+00  0.00000000000E+00  0.32699932219E+03  0.18322497106E+04  0.18028340038E+04 0.  0.
        5    1    3    3  502    0  0.66444741470E+03  0.53059380761E+03  0.46756406879E+03  0.97039085115E+03  0.46999998093E+01 0.  1.
       -5    1    3    3    0  502 -0.66444741470E+03 -0.53059380761E+03 -0.14056474660E+03  0.86185885942E+03  0.46999998093E+01 0. -1.
</event>
<event>
 5   0  0.2393421E-04  0.1889334E+04  0.7818609E-02  0.8660184E-01
        2   -1    0    0  501    0  0.00000000000E+00  0.00000000000E+00  0.94773073771E+03  0.94773073771E+03  0.25500000920E-02 0.  1.
       -2   -1    0    0    0  501  0.00000000000E+00  0.00000000000E+00 -0.94161350480E+03  0.94161350481E+03  0.25500000920E-02 0. -1.
    10030    2    1    2    0    0  0.00000000000E+00  0.00000000000E+00  0.61172329062E+01  0.18893442425E+04  0.18893343394E+04 0.  0.
        5    1    3    3  502    0  0.62741549557E+03 -0.31326244283E+03  0.63598405348E+03  0.94672137847E+03  0.46999998093E+01 0.  1.
       -5    1    3    3    0  502 -0.62741549557E+03  0.31326244283E+03 -0.62986682057E+03  0.94262286405E+03  0.46999998093E+01 0. -1.
</event>
<event>
 5   0  0.1239119E-04  0.1791595E+04  0.7818609E-02  0.8710782E-01
        1   -1    0    0  501    0  0.00000000000E+00  0.00000000000E+00  0.10664442931E+04  0.10664442931E+04  0.50400001928E-02 0. -1.
       -1   -1    0    0    0  501  0.00000000000E+00  0.00000000000E+00 -0.75245691560E+03  0.75245691562E+03  0.50400001928E-02 0.  1.
    10030    2    1    2    0    0  0.00000000000E+00  0.00000000000E+00  0.31398737750E+03  0.18189012087E+04  0.17915952483E+04 0.  0.
        5    1    3    3  502    0  0.26278911738E+03 -0.83192968684E+03 -0.49243171355E+02  0.87384901670E+03  0.46999998093E+01 0.  1.
       -5    1    3    3    0  502 -0.26278911738E+03  0.83192968684E+03  0.36323054885E+03  0.94505219204E+03  0.46999998093E+01 0. -1.
</event>
<event>
 5   0  0.2417106E-04  0.1802711E+04  0.7818609E-02  0.8704859E-01
        2   -1    0    0  501    0  0.00000000000E+00  0.00000000000E+00  0.12295798326E+04  0.12295798326E+04  0.25500000920E-02 0.  1.
       -2   -1    0    0    0  501  0.00000000000E+00  0.00000000000E+00 -0.66074772539E+03  0.66074772539E+03  0.25500000920E-02 0. -1.
    10030    2    1    2    0    0  0.00000000000E+00  0.00000000000E+00  0.56883210724E+03  0.18903275580E+04  0.18027113774E+04 0.  0.
        4    1    3    3  502    0  0.23909903319E+03 -0.79288472253E+03  0.65752691907E+03  0.10574392621E+04  0.12699999809E+01 0.  1.
       -4    1    3    3    0  502 -0.23909903319E+03  0.79288472253E+03 -0.88694811835E+02  0.83288829589E+03  0.12699999809E+01 0. -1.
</event>
<event>
 5   0  0.1253925E-04  0.1802985E+04  0.7818609E-02  0.8704714E-01
       -1   -1    0    0    0  501  0.00000000000E+00  0.00000000000E+00  0.80216354335E+03  0.80216354336E+03  0.50400001928E-02 0.  1.
        1   -1    0    0  501    0  0.00000000000E+00  0.00000000000E+00 -0.10131207008E+04  0.10131207008E+04  0.50400001928E-02 0. -1.
    10030    2    1    2    0    0  0.00000000000E+00  0.00000000000E+00 -0.21095715746E+03  0.18152842442E+04  0.18029847378E+04 0.  0.
        2    1    3    3  502    0  0.31506640032E+03 -0.20493420728E+03 -0.93047278203E+03  0.10035160507E+04  0.25500000920E-02 0. -1.
       -2    1    3    3    0  502 -0.31506640032E+03  0.20493420728E+03  0.71951562457E+03  0.81176819347E+03  0.25500000920E-02 0.  1.
</event>
<event>
 5   0  0.1253925E-04  0.1801273E+04  0.7818609E-02  0.8705623E-01
        1   -1    0    0  501    0  0.00000000000E+00  0.00000000000E+00  0.15642373349E+04  0.15642373349E+04  0.50400001928E-02 0.  1.
       -1   -1    0    0    0  501  0.00000000000E+00  0.00000000000E+00 -0.51855668789E+03  0.51855668792E+03  0.50400001928E-02 0. -1.
    10030    2    1    2    0    0  0.00000000000E+00  0.00000000000E+00  0.10456806470E+04  0.20827940228E+04  0.18012725851E+04 0.  0.
        2    1    3    3  502    0  0.70957633195E+01  0.89176598984E+03  0.37727260027E+03  0.96831376393E+03  0.25500000920E-02 0. -1.
       -2    1    3    3    0  502 -0.70957633195E+01 -0.89176598984E+03  0.66840804672E+03  0.11144802589E+04  0.25500000920E-02 0.  1.
</event>
<event>
 5   0  0.1214723E-04  0.1809801E+04  0.7818609E-02  0.8701105E-01
       -1   -1    0    0    0  501  0.00000000000E+00  0.00000000000E+00  0.97185178262E+03  0.97185178263E+03  0.50400001928E-02 0. -1.
        1   -1    0    0  501    0  0.00000000000E+00  0.00000000000E+00 -0.84256140073E+03  0.84256140074E+03  0.50400001928E-02 0.  1.
    10030    2    1    2    0    0  0.00000000000E+00  0.00000000000E+00  0.12929038189E+03  0.18144131834E+04  0.18098008722E+04 0.  0.
        1    1    3    3  502    0 -0.69499257719E+02  0.58640220069E+03 -0.62277500248E+03  0.85822280996E+03  0.50400001928E-02 0.  1.
       -1    1    3    3    0  502  0.69499257719E+02 -0.58640220069E+03  0.75206538438E+03  0.95619037341E+03  0.50400001928E-02 0. -1.
</event>
<event>
 5   0  0.2431811E-04  0.1761800E+04  0.7818609E-02  0.8726882E-01
        2   -1    0    0  501    0  0.00000000000E+00  0.00000000000E+00  0.83448881749E+03  0.83448881750E+03  0.25500000920E-02 0. -1.
       -2   -1    0    0    0  501  0.00000000000E+00  0.00000000000E+00 -0.92989210796E+03  0.92989210796E+03  0.25500000920E-02 0.  1.
    10030    2    1    2    0    0  0.00000000000E+00  0.00000000000E+00 -0.95403290467E+02  0.17643809255E+04  0.17617997225E+04 0.  0.
        3    1    3    3  502    0  0.56545725807E+03  0.30044977353E+03  0.55814134810E+03  0.84943142853E+03  0.10100000352E+00 0. -1.
       -3    1    3    3    0  502 -0.56545725807E+03 -0.30044977353E+03 -0.65354463857E+03  0.91494949692E+03  0.10100000352E+00 0.  1.
</event>
<event>
 5   0  0.1253925E-04  0.1661519E+04  0.7818609E-02  0.8783621E-01
        1   -1    0    0  501    0  0.00000000000E+00  0.00000000000E+00  0.12947970369E+04  0.12947970370E+04  0.50400001928E-02 0.  1.
       -1   -1    0    0    0  501  0.00000000000E+00  0.00000000000E+00 -0.53302660437E+03  0.53302660440E+03  0.50400001928E-02 0. -1.
    10030    2    1    2    0    0  0.00000000000E+00  0.00000000000E+00  0.76177043257E+03  0.18278236413E+04  0.16615189051E+04 0.  0.
        2    1    3    3  502    0 -0.18680360965E+03 -0.67273501365E+03  0.87616280800E+03  0.11203255122E+04  0.25500000920E-02 0.  1.
       -2    1    3    3    0  502  0.18680360965E+03  0.67273501365E+03 -0.11439237543E+03  0.70749812914E+03  0.25500000920E-02 0. -1.
</event>
<event>
 5   0  0.1253925E-04  0.1821565E+04  0.7818609E-02  0.8694915E-01
       -1   -1    0    0    0  501  0.00000000000E+00  0.00000000000E+00  0.72191942472E+03  0.72191942474E+03  0.50400001928E-02 0. -1.
        1   -1    0    0  501    0  0.00000000000E+00  0.00000000000E+00 -0.11490551125E+04  0.11490551125E+04  0.50400001928E-02 0.  1.
    10030    2    1    2    0    0  0.00000000000E+00  0.00000000000E+00 -0.42713568778E+03  0.18709745373E+04  0.18215654870E+04 0.  0.
        2    1    3    3  502    0  0.51864536705E+03 -0.74731377713E+03 -0.26012171722E+03  0.94611532385E+03  0.25500000920E-02 0. -1.
       -2    1    3    3    0  502 -0.51864536705E+03  0.74731377713E+03 -0.16701397056E+03  0.92485921340E+03  0.25500000920E-02 0.  1.
</event>
<event>
 5   0  0.2393421E-04  0.1798645E+04  0.7818609E-02  0.8707021E-01
        2   -1    0    0  501    0  0.00000000000E+00  0.00000000000E+00  0.76370468300E+03  0.76370468300E+03  0.25500000920E-02 0. -1.
       -2   -1    0    0    0  501  0.00000000000E+00  0.00000000000E+00 -0.10590226884E+04  0.10590226884E+04  0.25500000920E-02 0.  1.
    10030    2    1    2    0    0  0.00000000000E+00  0.00000000000E+00 -0.29531800538E+03  0.18227273714E+04  0.17986445858E+04 0.  0.
        5    1    3    3  502    0  0.26261207055E+03 -0.44916344428E+03 -0.89099626107E+03  0.10317990727E+04  0.46999998093E+01 0.  1.
       -5    1    3    3    0  502 -0.26261207055E+03  0.44916344428E+03  0.59567825569E+03  0.79092829863E+03  0.46999998093E+01 0. -1.
</event>
<event>
 5   0  0.2417106E-04  0.1869691E+04  0.7818609E-02  0.8670092E-01
       -2   -1    0    0    0  501  0.00000000000E+00  0.00000000000E+00  0.49845597076E+03  0.49845597076E+03  0.25500000920E-02 0.  1.
        2   -1    0    0  501    0  0.00000000000E+00  0.00000000000E+00 -0.17532873576E+04  0.17532873576E+04  0.25500000920E-02 0. -1.
    10030    2    1    2    0    0  0.00000000000E+00  0.00000000000E+00 -0.12548313869E+04  0.22517433284E+04  0.18696914739E+04 0.  0.
        4    1    3    3  502    0 -0.24224924953E+03  0.86658861112E+03 -0.32208672010E+03  0.95572066420E+03  0.12699999809E+01 0.  1.
       -4    1    3    3    0  502  0.24224924953E+03 -0.86658861112E+03 -0.93274466676E+03  0.12960226642E+04  0.12699999809E+01 0. -1.
</event>
<event>
 5   0  0.1253925E-04  0.1821009E+04  0.7818609E-02  0.8695206E-01
        1   -1    0    0  501    0  0.00000000000E+00  0.00000000000E+00  0.11984178814E+04  0.11984178814E+04  0.50400001928E-02 0. -1.
       -1   -1    0    0    0  501  0.00000000000E+00  0.00000000000E+00 -0.69176092823E+03  0.69176092825E+03  0.50400001928E-02 0.  1.
    10030    2    1    2    0    0  0.00000000000E+00  0.00000000000E+00  0.50665695320E+03  0.18901788097E+04  0.18210092434E+04 0.  0.
        2    1    3    3  502    0  0.56956334369E+03  0.59337252652E+03 -0.15205094220E+03  0.83642862621E+03  0.25500000920E-02 0.  1.
       -2    1    3    3    0  502 -0.56956334369E+03 -0.59337252652E+03  0.65870789541E+03  0.10537501835E+04  0.25500000920E-02 0. -1.
</event>
<event>
 5   0  0.1214723E-04  0.1860374E+04  0.7818609E-02  0.8674836E-01
       -1   -1    0    0    0  501  0.00000000000E+00  0.00000000000E+00  0.10179860546E+04  0.10179860546E+04  0.50400001928E-02 0.  1.
        1   -1    0    0  501    0  0.00000000000E+00  0.00000000000E+00 -0.84996049099E+03  0.84996049100E+03  0.50400001928E-02 0. -1.
    10030    2    1    2    0    0  0.00000000000E+00  0.00000000000E+00  0.16802556357E+03  0.18679465456E+04  0.18603740772E+04 0.  0.
        1    1    3    3  502    0 -0.88825606905E+03  0.68786599460E+02  0.35252885370E+03  0.95812683565E+03  0.50400001928E-02 0.  1.
       -1    1    3    3    0  502  0.88825606905E+03 -0.68786599460E+02 -0.18450329014E+03  0.90981970992E+03  0.50400001928E-02 0. -1.
</event>
<event>
 5   0  0.1330225E-04  0.1803684E+04  0.7818609E-02  0.8704343E-01
       -1   -1    0    0    0  501  0.00000000000E+00  0.00000000000E+00  0.11343241142E+04  0.11343241142E+04  0.50400001928E-02 0.  1.
        1   -1    0    0  501    0  0.00000000000E+00  0.00000000000E+00 -0.71700731412E+03  0.71700731414E+03  0.50400001928E-02 0. -1.
    10030    2    1    2    0    0  0.00000000000E+00  0.00000000000E+00  0.41731680005E+03  0.18513314283E+04  0.18036836601E+04 0.  0.
        3    1    3    3  502    0 -0.25646200008E+03 -0.75318348272E+03  0.64444529000E+03  0.10238983632E+04  0.10100000352E+00 0.  1.
       -3    1    3    3    0  502  0.25646200008E+03  0.75318348272E+03 -0.22712848995E+03  0.82743306513E+03  0.10100000352E+00 0. -1.
</event>
<event>
 5   0  0.2569405E-04  0.1752675E+04  0.7818609E-02  0.8731879E-01
       -2   -1    0    0    0  501  0.00000000000E+00  0.00000000000E+00  0.65885392616E+03  0.65885392616E+03  0.25500000920E-02 0.  1.
        2   -1    0    0  501    0  0.00000000000E+00  0.00000000000E+00 -0.11656115789E+04  0.11656115789E+04  0.25500000920E-02 0. -1.
    10030    2    1    2    0    0  0.00000000000E+00  0.00000000000E+00 -0.50675765272E+03  0.18244655050E+04  0.17526754008E+04 0.  0.
        2    1    3    3  502    0 -0.74665680705E+03 -0.28505002721E+03  0.12081398228E+03  0.80829816519E+03  0.25500000920E-02 0.  1.
       -2    1    3    3    0  502  0.74665680705E+03  0.28505002721E+03 -0.62757163499E+03  0.10161673399E+04  0.25500000920E-02 0. -1.
</event>
<event>
 5   0  0.1214723E-04  0.1885201E+04  0.7818609E-02  0.8662258E-01
       -1   -1    0    0    0  501  0.00000000000E+00  0.00000000000E+00  0.15462869482E+04  0.15462869482E+04  0.50400001928E-02 0.  1.
        1   -1    0    0  501    0  0.00000000000E+00  0.00000000000E+00 -0.57459948014E+03  0.57459948016E+03  0.50400001928E-02 0. -1.
    10030    2    1    2    0    0  0.00000000000E+00  0.00000000000E+00  0.97168746807E+03  0.21208864284E+04  0.18852009724E+04 0.  0.
        1    1    3    3  502    0  0.27121588904E+03  0.89518575592E+03  0.35474124698E+03  0.10003784026E+04  0.50400001928E-02 0. -1.
       -1    1    3    3    0  502 -0.27121588904E+03 -0.89518575592E+03  0.61694622110E+03  0.11205080258E+04  0.50400001928E-02 0.  1.
</event>
<event>
 5   0  0.2393421E-04  0.1801554E+04  0.7818609E-02  0.8705473E-01
       -2   -1    0    0    0  501  0.00000000000E+00  0.00000000000E+00  0.45702389087E+03  0.45702389088E+03  0.25500000920E-02 0. -1.
        2   -1    0    0  501    0  0.00000000000E+00  0.00000000000E+00 -0.17753978805E+04  0.17753978805E+04  0.25500000920E-02 0.  1.
    10030    2    1    2    0    0  0.00000000000E+00  0.00000000000E+00 -0.13183739896E+04  0.22324217714E+04  0.18015540483E+04 0.  0.
        5    1    3    3  502    0 -0.24711212341E+03  0.85430857588E+03 -0.83647680204E+03  0.12209107562E+04  0.46999998093E+01 0.  1.
       -5    1    3    3    0  502  0.24711212341E+03 -0.85430857588E+03 -0.48189718760E+03  0.10115110152E+04  0.46999998093E+01 0. -1.
</event>
<event>
 5   0  0.1330225E-04  0.1863903E+04  0.7818609E-02  0.8673036E-01
        1   -1    0    0  501    0  0.00000000000E+00  0.00000000000E+00  0.71805406789E+03  0.71805406791E+03  0.50400001928E-02 0. -1.
       -1   -1    0    0    0  501  0.00000000000E+00  0.00000000000E+00 -0.12095654145E+04  0.12095654145E+04  0.50400001928E-02 0.  1.
    10030    2    1    2    0    0  0.00000000000E+00  0.00000000000E+00 -0.49151134661E+03  0.19276194824E+04  0.18639027510E+04 0.  0.
        3    1    3    3  502    0  0.62453278919E+03  0.68473749944E+03 -0.14428583673E+03  0.93793659743E+03  0.10100000352E+00 0. -1.
       -3    1    3    3    0  502 -0.62453278919E+03 -0.68473749944E+03 -0.34722550989E+03  0.98968288499E+03  0.10100000352E+00 0.  1.
</event>
<event>
 5   0  0.2569405E-04  0.1891792E+04  0.7818609E-02  0.8658953E-01
        2   -1    0    0  501    0  0.00000000000E+00  0.00000000000E+00  0.65986574562E+03  0.65986574563E+03  0.25500000920E-02 0. -1.
       -2   -1    0    0    0  501  0.00000000000E+00  0.00000000000E+00 -0.13559114598E+04  0.13559114598E+04  0.25500000920E-02 0.  1.
    10030    2    1    2    0    0  0.00000000000E+00  0.00000000000E+00 -0.69604571417E+03  0.20157772054E+04  0.18917922998E+04 0.  0.
        2    1    3    3  502    0  0.84983204972E+03 -0.11143789469E+03 -0.77435352989E+03  0.11551001283E+04  0.25500000920E-02 0. -1.
       -2    1    3    3    0  502 -0.84983204972E+03  0.11143789469E+03  0.78307815724E+02  0.86067707714E+03  0.25500000920E-02 0.  1.
</event>
<event>
 5   0  0.9144875E-05  0.1801862E+04  0.7818609E-02  0.8705310E-01
       -3   -1    0    0    0  501  0.00000000000E+00  0.00000000000E+00  0.80708401574E+03  0.80708402206E+03  0.10100000352E+00 0.  1.
        3   -1    0    0  501    0  0.00000000000E+00  0.00000000000E+00 -0.10056907501E+04  0.10056907552E+04  0.10100000352E+00 0. -1.
    10030    2    1    2    0    0  0.00000000000E+00  0.00000000000E+00 -0.19860673436E+03  0.18127747772E+04  0.18018623027E+04 0.  0.
        4    1    3    3  502    0 -0.16568914233E+03  0.88536396707E+03 -0.80399130727E+02  0.90431624955E+03  0.12699999809E+01 0. -1.
       -4    1    3    3    0  502  0.16568914233E+03 -0.88536396707E+03 -0.11820760363E+03  0.90845852769E+03  0.12699999809E+01 0.  1.
</event>
<event>
 5   0  0.2393421E-04  0.1790415E+04  0.7818609E-02  0.8711413E-01
       -2   -1    0    0    0  501  0.00000000000E+00  0.00000000000E+00  0.88966330435E+03  0.88966330436E+03  0.25500000920E-02 0. -1.
        2   -1    0    0  501    0  0.00000000000E+00  0.00000000000E+00 -0.90078632758E+03  0.90078632758E+03  0.25500000920E-02 0.  1.
    10030    2    1    2    0    0  0.00000000000E+00  0.00000000000E+00 -0.11123023228E+02  0.17904496319E+04  0.17904150812E+04 0.  0.
        5    1    3    3  502    0 -0.76890164232E+03 -0.45723936631E+03 -0.38681285052E+02  0.89543056988E+03  0.46999998093E+01 0. -1.
       -5    1    3    3    0  502  0.76890164232E+03  0.45723936631E+03  0.27558261824E+02  0.89501906206E+03  0.46999998093E+01 0.  1.
</event>
<event>
 5   0  0.1214723E-04  0.1802724E+04  0.7818609E-02  0.8704852E-01
       -1   -1    0    0    0  501  0.00000000000E+00  0.00000000000E+00  0.65961999916E+03  0.65961999918E+03  0.50400001928E-02 0.  1.
        1   -1    0    0  501    0  0.00000000000E+00  0.00000000000E+00 -0.12316992792E+04  0.12316992792E+04  0.50400001928E-02 0. -1.
    10030    2    1    2    0    0  0.00000000000E+00  0.00000000000E+00 -0.57207928005E+03  0.18913192784E+04  0.18027240250E+04 0.  0.
        1    1    3    3  502    0  0.32051034811E+03  0.50097171165E+03  0.42456085485E+03  0.73071982224E+03  0.50400001928E-02 0.  1.
       -1    1    3    3    0  502 -0.32051034811E+03 -0.50097171165E+03 -0.99664013490E+03  0.11605994562E+04  0.50400001928E-02 0. -1.
</event>
<event>
 5   0  0.1253925E-04  0.1872547E+04  0.7818609E-02  0.8668643E-01
       -1   -1    0    0    0  501  0.00000000000E+00  0.00000000000E+00  0.69313486956E+03  0.69313486958E+03  0.50400001928E-02 0.  1.
        1   -1    0    0  501    0  0.00000000000E+00  0.00000000000E+00 -0.12647009505E+04  0.12647009505E+04  0.50400001928E-02 0. -1.
    10030    2    1    2    0    0  0.00000000000E+00  0.00000000000E+00 -0.57156608093E+03  0.19578358201E+04  0.18725472794E+04 0.  0.
        2    1    3    3  502    0  0.41334524060E+03 -0.71956851488E+03 -0.73909142046E+03  0.11112557146E+04  0.25500000920E-02 0. -1.
       -2    1    3    3    0  502 -0.41334524060E+03  0.71956851488E+03  0.16752533953E+03  0.84658010544E+03  0.25500000920E-02 0.  1.
</event>
<event>
 5   0  0.2431811E-04  0.1800028E+04  0.7818609E-02  0.8706285E-01
       -2   -1    0    0    0  501  0.00000000000E+00  0.00000000000E+00  0.97763616050E+03  0.97763616051E+03  0.25500000920E-02 0.  1.
        2   -1    0    0  501    0  0.00000000000E+00  0.00000000000E+00 -0.82855456819E+03  0.82855456819E+03  0.25500000920E-02 0. -1.
    10030    2    1    2    0    0  0.00000000000E+00  0.00000000000E+00  0.14908159231E+03  0.18061907287E+04  0.18000276740E+04 0.  0.
        3    1    3    3  502    0 -0.44907128889E+03  0.50797902119E+03 -0.51936169880E+03  0.85407510961E+03  0.10100000352E+00 0. -1.
       -3    1    3    3    0  502  0.44907128889E+03 -0.50797902119E+03  0.66844329112E+03  0.95211561909E+03  0.10100000352E+00 0.  1.
</event>
<event>
 5   0  0.1239119E-04  0.1772989E+04  0.7818609E-02  0.8720797E-01
        1   -1    0    0  501    0  0.00000000000E+00  0.00000000000E+00  0.10326035431E+04  0.10326035431E+04  0.50400001928E-02 0. -1.
       -1   -1    0    0    0  501  0.00000000000E+00  0.00000000000E+00 -0.76105969024E+03  0.76105969026E+03  0.50400001928E-02 0.  1.
    10030    2    1    2    0    0  0.00000000000E+00  0.00000000000E+00  0.27154385285E+03  0.17936632334E+04  0.17729894897E+04 0.  0.
        5    1    3    3  502    0  0.62411519558E+03 -0.62377834819E+03  0.49741302349E+02  0.88380738410E+03  0.46999998093E+01 0. -1.
       -5    1    3    3    0  502 -0.62411519558E+03  0.62377834819E+03  0.22180255050E+03  0.90985584926E+03  0.46999998093E+01 0.  1.
</event>
<event>
 5   0  0.2550616E-04  0.1809794E+04  0.7818609E-02  0.8701108E-01
       -2   -1    0    0    0  501  0.00000000000E+00  0.00000000000E+00  0.39402698935E+03  0.39402698936E+03  0.25500000920E-02 0. -1.
        2   -1    0    0  501    0  0.00000000000E+00  0.00000000000E+00 -0.20781280483E+04  0.20781280483E+04  0.25500000920E-02 0.  1.
    10030    2    1    2    0    0  0.00000000000E+00  0.00000000000E+00 -0.16841010589E+04  0.24721550376E+04  0.18097939533E+04 0.  0.
        1    1    3    3  502    0 -0.58691222474E+03 -0.27141473086E+03 -0.17067393234E+04  0.18251276760E+04  0.50400001928E-02 0.  1.
       -1    1    3    3    0  502  0.58691222474E+03  0.27141473086E+03  0.22638264447E+02  0.64702736165E+03  0.50400001928E-02 0. -1.
</event>
<event>
 5   0  0.1214723E-04  0.1701896E+04  0.7818609E-02  0.8760284E-01
       -1   -1    0    0    0  501  0.00000000000E+00  0.00000000000E+00  0.63181502990E+03  0.63181502992E+03  0.50400001928E-02 0.  1.
        1   -1    0    0  501    0  0.00000000000E+00  0.00000000000E+00 -0.11460834011E+04  0.11460834011E+04  0.50400001928E-02 0. -1.
    10030    2    1    2    0    0  0.00000000000E+00  0.00000000000E+00 -0.51426837122E+03  0.17778984310E+04  0.17018962581E+04 0.  0.
        1    1    3    3  502    0 -0.28963499572E+03 -0.58914747360E+03 -0.82272670650E+03  0.10525504311E+04  0.50400001928E-02 0. -1.
       -1    1    3    3    0  502  0.28963499572E+03  0.58914747360E+03  0.30845833528E+03  0.72534799995E+03  0.50400001928E-02 0.  1.
</event>
<event>
 5   0  0.2569405E-04  0.1779588E+04  0.7818609E-02  0.8717230E-01
        2   -1    0    0  501    0  0.00000000000E+00  0.00000000000E+00  0.23490488073E+04  0.23490488073E+04  0.25500000920E-02 0.  1.
       -2   -1    0    0    0  501  0.00000000000E+00  0.00000000000E+00 -0.33704423706E+03  0.33704423707E+03  0.25500000920E-02 0. -1.
    10030    2    1    2    0    0  0.00000000000E+00  0.00000000000E+00  0.20120045703E+04  0.26860930444E+04  0.17795880008E+04 0.  0.
        2    1    3    3  502    0  0.26273090425E+03 -0.62473833964E+03  0.13576594710E+03  0.69120034249E+03  0.25500000920E-02 0. -1.
       -2    1    3    3    0  502 -0.26273090425E+03  0.62473833964E+03  0.18762386232E+04  0.19948927019E+04  0.25500000920E-02 0.  1.
</event>
<event>
 5   0  0.1330225E-04  0.1802812E+04  0.7818609E-02  0.8704805E-01
       -1   -1    0    0    0  501  0.00000000000E+00  0.00000000000E+00  0.12207459692E+04  0.12207459693E+04  0.50400001928E-02 0. -1.
        1   -1    0    0  501    0  0.00000000000E+00  0.00000000000E+00 -0.66560366391E+03  0.66560366393E+03  0.50400001928E-02 0.  1.
    10030    2    1    2    0    0  0.00000000000E+00  0.00000000000E+00  0.55514230533E+03  0.18863496332E+04  0.18028122363E+04 0.  0.
        3    1    3    3  502    0 -0.25954098616E+03 -0.23832587407E+03 -0.59055605402E+03  0.68768976209E+03  0.10100000352E+00 0.  1.
       -3    1    3    3    0  502  0.25954098616E+03  0.23832587407E+03  0.11456983594E+04  0.11986598711E+04  0.10100000352E+00 0. -1.
</event>
<event>
 5   0  0.2417106E-04  0.1741754E+04  0.7818609E-02  0.8737902E-01
       -2   -1    0    0    0  501  0.00000000000E+00  0.00000000000E+00  0.10126732346E+04  0.10126732346E+04  0.25500000920E-02 0. -1.
        2   -1    0    0  501    0  0.00000000000E+00  0.00000000000E+00 -0.74893532811E+03  0.74893532811E+03  0.25500000920E-02 0.  1.
    10030    2    1    2    0    0  0.00000000000E+00  0.00000000000E+00  0.26373790648E+03  0.17616085627E+04  0.17417540139E+04 0.  0.
        4    1    3    3  502    0  0.84546841052E+03 -0.19119524453E+03  0.46931330636E+02  0.86808790880E+03  0.12699999809E+01 0. -1.
       -4    1    3    3    0  502 -0.84546841052E+03  0.19119524453E+03  0.21680657584E+03  0.89352065390E+03  0.12699999809E+01 0.  1.
</event>
<event>
 5   0  0.2550616E-04  0.1789800E+04  0.7818609E-02  0.8711742E-01
        2   -1    0    0  501    0  0.00000000000E+00  0.00000000000E+00  0.62773885857E+03  0.62773885858E+03  0.25500000920E-02 0.  1.
       -2   -1    0    0    0  501  0.00000000000E+00  0.00000000000E+00 -0.12757632589E+04  0.12757632589E+04  0.25500000920E-02 0. -1.
    10030    2    1    2    0    0  0.00000000000E+00  0.00000000000E+00 -0.64802440033E+03  0.19035021175E+04  0.17898001810E+04 0.  0.
        1    1    3    3  502    0  0.29500110302E+03  0.20574617377E+03 -0.11955139805E+04  0.12484433573E+04  0.50400001928E-02 0. -1.
       -1    1    3    3    0  502 -0.29500110302E+03 -0.20574617377E+03  0.54748958020E+03  0.65505876015E+03  0.50400001928E-02 0.  1.
</event>
<event>
 5   0  0.1330225E-04  0.1830662E+04  0.7818609E-02  0.8690162E-01
       -1   -1    0    0    0  501  0.00000000000E+00  0.00000000000E+00  0.36101807159E+03  0.36101807163E+03  0.50400001928E-02 0.  1.
        1   -1    0    0  501    0  0.00000000000E+00  0.00000000000E+00 -0.23207436410E+04  0.23207436411E+04  0.50400001928E-02 0. -1.
    10030    2    1    2    0    0  0.00000000000E+00  0.00000000000E+00 -0.19597255695E+04  0.26817617127E+04  0.18306615132E+04 0.  0.
        3    1    3    3  502    0  0.22925728432E+03 -0.48843628787E+03  0.10328385633E+03  0.54936005943E+03  0.10100000352E+00 0.  1.
       -3    1    3    3    0  502 -0.22925728432E+03  0.48843628787E+03 -0.20630094258E+04  0.21324016533E+04  0.10100000352E+00 0. -1.
</event>
<event>
 5   0  0.1239119E-04  0.1901066E+04  0.7818609E-02  0.8654326E-01
       -1   -1    0    0    0  501  0.00000000000E+00  0.00000000000E+00  0.41809736050E+03  0.41809736053E+03  0.50400001928E-02 0.  1.
        1   -1    0    0  501    0  0.00000000000E+00  0.00000000000E+00 -0.21610119400E+04  0.21610119400E+04  0.50400001928E-02 0. -1.
    10030    2    1    2    0    0  0.00000000000E+00  0.00000000000E+00 -0.17429145795E+04  0.25791093006E+04  0.19010664251E+04 0.  0.
        5    1    3    3  502    0  0.81099486354E+03  0.57536326004E+02 -0.15394932646E+04  0.17410010624E+04  0.46999998093E+01 0. -1.
       -5    1    3    3    0  502 -0.81099486354E+03 -0.57536326004E+02 -0.20342131490E+03  0.83810823814E+03  0.46999998093E+01 0.  1.
</event>
<event>
 5   0  0.1330225E-04  0.1794019E+04  0.7818609E-02  0.8709486E-01
        1   -1    0    0  501    0  0.00000000000E+00  0.00000000000E+00  0.13791915165E+04  0.13791915165E+04  0.50400001928E-02 0. -1.
       -1   -1    0    0    0  501  0.00000000000E+00  0.00000000000E+00 -0.58340434846E+03  0.58340434848E+03  0.50400001928E-02 0.  1.
    10030    2    1    2    0    0  0.00000000000E+00  0.00000000000E+00  0.79578716807E+03  0.19625958650E+04  0.17940193178E+04 0.  0.
        3    1    3    3  502    0  0.64688889621E+03 -0.43547037382E+03 -0.87075959016E+02  0.78465401506E+03  0.10100000352E+00 0.  1.
       -3    1    3    3    0  502 -0.64688889621E+03  0.43547037382E+03  0.88286312709E+03  0.11779418500E+04  0.10100000352E+00 0. -1.
</event>
<event>
 5   0  0.1239119E-04  0.1804046E+04  0.7818609E-02  0.8704151E-01
       -1   -1    0    0    0  501  0.00000000000E+00  0.00000000000E+00  0.13217333451E+04  0.13217333451E+04  0.50400001928E-02 0. -1.
        1   -1    0    0  501    0  0.00000000000E+00  0.00000000000E+00 -0.61558993609E+03  0.61558993611E+03  0.50400001928E-02 0.  1.
    10030    2    1    2    0    0  0.00000000000E+00  0.00000000000E+00  0.70614340898E+03  0.19373232812E+04  0.18040462804E+04 0.  0.
        5    1    3    3  502    0  0.48339247750E+03 -0.47218505428E+02 -0.46316345291E+03  0.67114852951E+03  0.46999998093E+01 0.  1.
       -5    1    3    3    0  502 -0.48339247750E+03  0.47218505428E+02  0.11693068619E+04  0.12661747517E+04  0.46999998093E+01 0. -1.
</event>
<event>
 5   0  0.2569405E-04  0.1801918E+04  0.7818609E-02  0.8705280E-01
       -2   -1    0    0    0  501  0.00000000000E+00  0.00000000000E+00  0.65162892291E+03  0.65162892291E+03  0.25500000920E-02 0. -1.
        2   -1    0    0  501    0  0.00000000000E+00  0.00000000000E+00 -0.12456885298E+04  0.12456885298E+04  0.25500000920E-02 0.  1.
    10030    2    1    2    0    0  0.00000000000E+00  0.00000000000E+00 -0.59405960684E+03  0.18973174527E+04  0.18019175064E+04 0.  0.
        2    1    3    3  502    0  0.71670120083E+03 -0.21128285542E+03  0.23303669270E+03  0.78269224885E+03  0.25500000920E-02 0. -1.
       -2    1    3    3    0  502 -0.71670120083E+03  0.21128285542E+03 -0.82709629954E+03  0.11146252038E+04  0.25500000920E-02 0.  1.
</event>
<event>
 5   0  0.1330225E-04  0.1456660E+04  0.7818609E-02  0.8913796E-01
       -1   -1    0    0    0  501  0.00000000000E+00  0.00000000000E+00  0.35971007357E+03  0.35971007360E+03  0.50400001928E-02 0.  1.
        1   -1    0    0  501    0  0.00000000000E+00  0.00000000000E+00 -0.14746997237E+04  0.14746997237E+04  0.50400001928E-02 0. -1.
    10030    2    1    2    0    0  0.00000000000E+00  0.00000000000E+00 -0.11149896501E+04  0.18344097973E+04  0.14566596667E+04 0.  0.
        3    1    3    3  502    0  0.59386710971E+03  0.13028431368E+03 -0.52487417447E+02  0.61025165758E+03  0.10100000352E+00 0.  1.
       -3    1    3    3    0  502 -0.59386710971E+03 -0.13028431368E+03 -0.10625022327E+04  0.12241581397E+04  0.10100000352E+00 0. -1.
</event>
<event>
 5   0  0.2550616E-04  0.1808521E+04  0.7818609E-02  0.8701781E-01
        2   -1    0    0  501    0  0.00000000000E+00  0.00000000000E+00  0.20281786351E+04  0.20281786351E+04  0.25500000920E-02 0.  1.
       -2   -1    0    0    0  501  0.00000000000E+00  0.00000000000E+00 -0.40316332372E+03  0.40316332373E+03  0.25500000920E-02 0. -1.
    10030    2    1    2    0    0  0.00000000000E+00  0.00000000000E+00  0.16250153114E+04  0.24313419588E+04  0.18085212077E+04 0.  0.
        1    1    3    3  502    0 -0.72209818322E+03  0.18252839603E+03  0.12313387156E+03  0.75492009638E+03  0.50400001928E-02 0. -1.
       -1    1    3    3    0  502  0.72209818322E+03 -0.18252839603E+03  0.15018814398E+04  0.16764218624E+04  0.50400001928E-02 0.  1.
</event>
<event>
 5   0  0.2417106E-04  0.1824704E+04  0.7818609E-02  0.8693271E-01
       -2   -1    0    0    0  501  0.00000000000E+00  0.00000000000E+00  0.13878395020E+04  0.13878395020E+04  0.25500000920E-02 0. -1.
        2   -1    0    0  501    0  0.00000000000E+00  0.00000000000E+00 -0.59977135367E+03  0.59977135368E+03  0.25500000920E-02 0.  1.
    10030    2    1    2    0    0  0.00000000000E+00  0.00000000000E+00  0.78806814828E+03  0.19876108556E+04  0.18247042246E+04 0.  0.
        4    1    3    3  502    0 -0.41289167026E+03  0.81317991570E+03  0.36639864563E+03  0.98284825232E+03  0.12699999809E+01 0.  1.
       -4    1    3    3    0  502  0.41289167026E+03 -0.81317991570E+03  0.42166950265E+03  0.10047626033E+04  0.12699999809E+01 0. -1.
</event>
<event>
 5   0  0.1330225E-04  0.1798319E+04  0.7818609E-02  0.8707194E-01
       -1   -1    0    0    0  501  0.00000000000E+00  0.00000000000E+00  0.51093893496E+03  0.51093893499E+03  0.50400001928E-02 0. -1.
        1   -1    0    0  501    0  0.00000000000E+00  0.00000000000E+00 -0.15823576339E+04  0.15823576340E+04  0.50400001928E-02 0.  1.
    10030    2    1    2    0    0  0.00000000000E+00  0.00000000000E+00 -0.10714186990E+04  0.20932965689E+04  0.17983193535E+04 0.  0.
        3    1    3    3  502    0 -0.12937847484E+03  0.41665983431E+03 -0.14508940258E+04  0.15150701936E+04  0.10100000352E+00 0.  1.
       -3    1    3    3    0  502  0.12937847484E+03 -0.41665983431E+03  0.37947532681E+03  0.57822637533E+03  0.10100000352E+00 0. -1.
</event>
<event>
 5   0  0.2431811E-04  0.1884054E+04  0.7818609E-02  0.8662835E-01
        2   -1    0    0  501    0  0.00000000000E+00  0.00000000000E+00  0.19856332105E+04  0.19856332105E+04  0.25500000920E-02 0. -1.
       -2   -1    0    0    0  501  0.00000000000E+00  0.00000000000E+00 -0.44691790248E+03  0.44691790249E+03  0.25500000920E-02 0.  1.
    10030    2    1    2    0    0  0.00000000000E+00  0.00000000000E+00  0.15387153080E+04  0.24325511129E+04  0.18840541707E+04 0.  0.
        3    1    3    3  502    0  0.58728545353E+03  0.78923248900E+02 -0.17615027081E+03  0.61819253575E+03  0.10100000352E+00 0.  1.
       -3    1    3    3    0  502 -0.58728545353E+03 -0.78923248900E+02  0.17148655788E+04  0.18143585772E+04  0.10100000352E+00 0. -1.
</event>
<event>
 5   0  0.2431811E-04  0.1807945E+04  0.7818609E-02  0.8702086E-01
        2   -1    0    0  501    0  0.00000000000E+00  0.00000000000E+00  0.57845035862E+03  0.57845035863E+03  0.25500000920E-02 0.  1.
       -2   -1    0    0    0  501  0.00000000000E+00  0.00000000000E+00 -0.14126811580E+04  0.14126811580E+04  0.25500000920E-02 0. -1.
    10030    2    1    2    0    0  0.00000000000E+00  0.00000000000E+00 -0.83423079937E+03  0.19911315166E+04  0.18079446036E+04 0.  0.
        3    1    3    3  502    0 -0.46767097765E+03  0.69478078411E+02 -0.12656509223E+04  0.13510794255E+04  0.10100000352E+00 0. -1.
       -3    1    3    3    0  502  0.46767097765E+03 -0.69478078411E+02  0.43142012291E+03  0.64005209113E+03  0.10100000352E+00 0.  1.
</event>
<event>
 5   0  0.1253925E-04  0.1518652E+04  0.7818609E-02  0.8872143E-01
        1   -1    0    0  501    0  0.00000000000E+00  0.00000000000E+00  0.25168025365E+04  0.25168025365E+04  0.50400001928E-02 0.  1.
       -1   -1    0    0    0  501  0.00000000000E+00  0.00000000000E+00 -0.22909068114E+03  0.22909068120E+03  0.50400001928E-02 0. -1.
    10030    2    1    2    0    0  0.00000000000E+00  0.00000000000E+00  0.22877118554E+04  0.27458932177E+04  0.15186520437E+04 0.  0.
        2    1    3    3  502    0 -0.20505362035E+03 -0.63028959011E+03  0.47396549651E+03  0.81483449025E+03  0.25500000920E-02 0. -1.
       -2    1    3    3    0  502  0.20505362035E+03  0.63028959011E+03  0.18137463589E+04  0.19310587275E+04  0.25500000920E-02 0.  1.
</event>
<event>
 5   0  0.1239119E-04  0.1837671E+04  0.7818609E-02  0.8686519E-01
        1   -1    0    0  501    0  0.00000000000E+00  0.00000000000E+00  0.17934894585E+04  0.17934894585E+04  0.50400001928E-02 0.  1.
       -1   -1    0    0    0  501  0.00000000000E+00  0.00000000000E+00 -0.47073500487E+03  0.47073500489E+03  0.50400001928E-02 0. -1.
    10030    2    1    2    0    0  0.00000000000E+00  0.00000000000E+00  0.13227544536E+04  0.22642244634E+04  0.18376705570E+04 0.  0.
        5    1    3    3  502    0 -0.35566062772E+03  0.71213720658E+03  0.12268131179E+04  0.14624385113E+04  0.46999998093E+01 0.  1.
       -5    1    3    3    0  502  0.35566062772E+03 -0.71213720658E+03  0.95941335759E+02  0.80178595212E+03  0.46999998093E+01 0. -1.
</event>
<event>
 5   0  0.1214723E-04  0.1797605E+04  0.7818609E-02  0.8707574E-01
       -1   -1    0    0    0  501  0.00000000000E+00  0.00000000000E+00  0.84355105110E+03  0.84355105112E+03  0.50400001928E-02 0.  1.
        1   -1    0    0  501    0  0.00000000000E+00  0.00000000000E+00 -0.95767263489E+03  0.95767263491E+03  0.50400001928E-02 0. -1.
    10030    2    1    2    0    0  0.00000000000E+00  0.00000000000E+00 -0.11412158379E+03  0.18012236860E+04  0.17976048040E+04 0.  0.
        1    1    3    3  502    0  0.22106715156E+03  0.78058780912E+03 -0.44469583120E+03  0.92517154926E+03  0.50400001928E-02 0. -1.
       -1    1    3    3    0  502 -0.22106715156E+03 -0.78058780912E+03  0.33057424741E+03  0.87605213676E+03  0.50400001928E-02 0.  1.
</event>
<event>
 5   0  0.2393421E-04  0.1828321E+04  0.7818609E-02  0.8691382E-01
        2   -1    0    0  501    0  0.00000000000E+00  0.00000000000E+00  0.19914195435E+04  0.19914195435E+04  0.25500000920E-02 0. -1.
       -2   -1    0    0    0  501  0.00000000000E+00  0.00000000000E+00 -0.41964500096E+03  0.41964500097E+03  0.25500000920E-02 0.  1.
    10030    2    1    2    0    0  0.00000000000E+00  0.00000000000E+00  0.15717745426E+04  0.24110645445E+04  0.18283208212E+04 0.  0.
        5    1    3    3  502    0 -0.75803000763E+03  0.27556345360E+03  0.21849164436E+03  0.83564669453E+03  0.46999998093E+01 0.  1.
       -5    1    3    3    0  502  0.75803000763E+03 -0.27556345360E+03  0.13532828982E+04  0.15754178500E+04  0.46999998093E+01 0. -1.
</event>
<event>
 5   0  0.2431811E-04  0.1792295E+04  0.7818609E-02  0.8710408E-01
       -2   -1    0    0    0  501  0.00000000000E+00  0.00000000000E+00  0.81045622230E+03  0.81045622231E+03  0.25500000920E-02 0.  1.
        2   -1    0    0  501    0  0.00000000000E+00  0.00000000000E+00 -0.99089901676E+03  0.99089901676E+03  0.25500000920E-02 0. -1.
    10030    2    1    2    0    0  0.00000000000E+00  0.00000000000E+00 -0.18044279446E+03  0.18013552391E+04  0.17922949242E+04 0.  0.
        3    1    3    3  502    0  0.22805969018E+02  0.82230288313E+03 -0.44751549085E+03  0.93646797520E+03  0.10100000352E+00 0.  1.
       -3    1    3    3    0  502 -0.22805969018E+02 -0.82230288313E+03  0.26707269639E+03  0.86488726386E+03  0.10100000352E+00 0. -1.
</event>
<event>
 5   0  0.2417106E-04  0.1787040E+04  0.7818609E-02  0.8713222E-01
       -2   -1    0    0    0  501  0.00000000000E+00  0.00000000000E+00  0.31490696616E+03  0.31490696617E+03  0.25500000920E-02 0. -1.
        2   -1    0    0  501    0  0.00000000000E+00  0.00000000000E+00 -0.25352832717E+04  0.25352832717E+04  0.25500000920E-02 0.  1.
    10030    2    1    2    0    0  0.00000000000E+00  0.00000000000E+00 -0.22203763055E+04  0.28501902378E+04  0.17870404175E+04 0.  0.
        4    1    3    3  502    0 -0.77186335479E+03  0.10319181914E+03 -0.41140991800E+03  0.88072772384E+03  0.12699999809E+01 0. -1.
       -4    1    3    3    0  502  0.77186335479E+03 -0.10319181914E+03 -0.18089663875E+04  0.19694625140E+04  0.12699999809E+01 0.  1.
</event>
<event>
 5   0  0.2431811E-04  0.1823616E+04  0.7818609E-02  0.8693841E-01
        2   -1    0    0  501    0  0.00000000000E+00  0.00000000000E+00  0.12235149384E+04  0.12235149384E+04  0.25500000920E-02 0. -1.
       -2   -1    0    0    0  501  0.00000000000E+00  0.00000000000E+00 -0.67951252199E+03  0.67951252199E+03  0.25500000920E-02 0.  1.
    10030    2    1    2    0    0  0.00000000000E+00  0.00000000000E+00  0.54400241637E+03  0.19030274603E+04  0.18236158822E+04 0.  0.
        3    1    3    3  502    0  0.20518201542E+03 -0.21661464396E+03 -0.62712886573E+03  0.69448699618E+03  0.10100000352E+00 0.  1.
       -3    1    3    3    0  502 -0.20518201542E+03  0.21661464396E+03  0.11711312821E+04  0.12085404642E+04  0.10100000352E+00 0. -1.
</event>
<event>
 5   0  0.1239119E-04  0.1838679E+04  0.7818609E-02  0.8685997E-01
        1   -1    0    0  501    0  0.00000000000E+00  0.00000000000E+00  0.10187692481E+04  0.10187692481E+04  0.50400001928E-02 0.  1.
       -1   -1    0    0    0  501  0.00000000000E+00  0.00000000000E+00 -0.82961391447E+03  0.82961391448E+03  0.50400001928E-02 0. -1.
    10030    2    1    2    0    0  0.00000000000E+00  0.00000000000E+00  0.18915533363E+03  0.18483831626E+04  0.18386790300E+04 0.  0.
        5    1    3    3  502    0  0.46192846900E+02  0.20782972783E+03  0.99363331951E+03  0.10161969487E+04  0.46999998093E+01 0.  1.
       -5    1    3    3    0  502 -0.46192846900E+02 -0.20782972783E+03 -0.80447798587E+03  0.83218621392E+03  0.46999998093E+01 0. -1.
</event>
<event>
 5   0  0.1308893E-04  0.1819510E+04  0.7818609E-02  0.8695992E-01
        1   -1    0    0  501    0  0.00000000000E+00  0.00000000000E+00  0.61488284424E+03  0.61488284426E+03  0.50400001928E-02 0.  1.
       -1   -1    0    0    0  501  0.00000000000E+00  0.00000000000E+00 -0.13460359686E+04  0.13460359686E+04  0.50400001928E-02 0. -1.
    10030    2    1    2    0    0  0.00000000000E+00  0.00000000000E+00 -0.73115312434E+03  0.19609188129E+04  0.18195102911E+04 0.  0.
        4    1    3    3  502    0  0.19940521987E+03  0.63124052083E+03 -0.10381155150E+04  0.12312239732E+04  0.12699999809E+01 0. -1.
       -4    1    3    3    0  502 -0.19940521987E+03 -0.63124052083E+03  0.30696239063E+03  0.72969483965E+03  0.12699999809E+01 0.  1.
</event>
<event>
 5   0  0.1239119E-04  0.1780880E+04  0.7818609E-02  0.8716534E-01
       -1   -1    0    0    0  501  0.00000000000E+00  0.00000000000E+00  0.56168952386E+03  0.56168952388E+03  0.50400001928E-02 0. -1.
        1   -1    0    0  501    0  0.00000000000E+00  0.00000000000E+00 -0.14116051670E+04  0.14116051670E+04  0.50400001928E-02 0.  1.
    10030    2    1    2    0    0  0.00000000000E+00  0.00000000000E+00 -0.84991564314E+03  0.19732946909E+04  0.17808804948E+04 0.  0.
        5    1    3    3  502    0  0.38385369352E+03  0.43845640186E+03  0.32104008336E+03  0.66533938669E+03  0.46999998093E+01 0. -1.
       -5    1    3    3    0  502 -0.38385369352E+03 -0.43845640186E+03 -0.11709557265E+04  0.13079553042E+04  0.46999998093E+01 0.  1.
</event>
<event>
 5   0  0.1308893E-04  0.1799498E+04  0.7818609E-02  0.8706566E-01
       -1   -1    0    0    0  501  0.00000000000E+00  0.00000000000E+00  0.33053458733E+03  0.33053458737E+03  0.50400001928E-02 0.  1.
        1   -1    0    0  501    0  0.00000000000E+00  0.00000000000E+00 -0.24492099132E+04  0.24492099132E+04  0.50400001928E-02 0. -1.
    10030    2    1    2    0    0  0.00000000000E+00  0.00000000000E+00 -0.21186753258E+04  0.27797445005E+04  0.17994983612E+04 0.  0.
        4    1    3    3  502    0 -0.90975573737E+02 -0.37593401738E+03 -0.23142314756E+04  0.23463315784E+04  0.12699999809E+01 0. -1.
       -4    1    3    3    0  502  0.90975573737E+02  0.37593401738E+03  0.19555614975E+03  0.43341292210E+03  0.12699999809E+01 0.  1.
</event>
<event>
 5   0  0.2431811E-04  0.1798394E+04  0.7818609E-02  0.8707154E-01
        2   -1    0    0  501    0  0.00000000000E+00  0.00000000000E+00  0.14569214263E+04  0.14569214263E+04  0.25500000920E-02 0.  1.
       -2   -1    0    0    0  501  0.00000000000E+00  0.00000000000E+00 -0.55497504290E+03  0.55497504291E+03  0.25500000920E-02 0. -1.
    10030    2    1    2    0    0  0.00000000000E+00  0.00000000000E+00  0.90194638343E+03  0.20118964692E+04  0.17983937623E+04 0.  0.
        3    1    3    3  502    0 -0.89694024641E+03  0.63610726210E+02  0.45390985978E+03  0.10072647622E+04  0.10100000352E+00 0. -1.
       -3    1    3    3    0  502  0.89694024641E+03 -0.63610726210E+02  0.44803652364E+03  0.10046317071E+04  0.10100000352E+00 0.  1.
</event>
<event>
 5   0  0.1330225E-04  0.1801911E+04  0.7818609E-02  0.8705284E-01
       -1   -1    0    0    0  501  0.00000000000E+00  0.00000000000E+00  0.91911660214E+03  0.91911660216E+03  0.50400001928E-02 0. -1.
        1   -1    0    0  501    0  0.00000000000E+00  0.00000000000E+00 -0.88315341872E+03  0.88315341873E+03  0.50400001928E-02 0.  1.
    10030    2    1    2    0    0  0.00000000000E+00  0.00000000000E+00  0.35963183428E+02  0.18022700209E+04  0.18019111736E+04 0.  0.
        3    1    3    3  502    0 -0.23122215183E+03 -0.52117400777E+03  0.71571275306E+03  0.91505780417E+03  0.10100000352E+00 0. -1.
       -3    1    3    3    0  502  0.23122215183E+03  0.52117400777E+03 -0.67974956963E+03  0.88721221672E+03  0.10100000352E+00 0.  1.
</event>
<event>
 5   0  0.2393421E-04  0.1807722E+04  0.7818609E-02  0.8702204E-01
       -2   -1    0    0    0  501  0.00000000000E+00  0.00000000000E+00  0.50383724335E+03  0.50383724336E+03  0.25500000920E-02 0. -1.
        2   -1    0    0  501    0  0.00000000000E+00  0.00000000000E+00 -0.16214853254E+04  0.16214853254E+04  0.25500000920E-02 0.  1.
    10030    2    1    2    0    0  0.00000000000E+00  0.00000000000E+00 -0.11176480821E+04  0.21253225688E+04  0.18077219880E+04 0.  0.
        5    1    3    3  502    0  0.53840002119E+03  0.67711491599E+03 -0.25092895036E+03  0.90074781176E+03  0.46999998093E+01 0. -1.
       -5    1    3    3    0  502 -0.53840002119E+03 -0.67711491599E+03 -0.86671913171E+03  0.12245747570E+04  0.46999998093E+01 0.  1.
</event>
<event>
 5   0  0.2431811E-04  0.1781187E+04  0.7818609E-02  0.8716368E-01
       -2   -1    0    0    0  501  0.00000000000E+00  0.00000000000E+00  0.70610002392E+03  0.70610002392E+03  0.25500000920E-02 0.  1.
        2   -1    0    0  501    0  0.00000000000E+00  0.00000000000E+00 -0.11232924522E+04  0.11232924522E+04  0.25500000920E-02 0. -1.
    10030    2    1    2    0    0  0.00000000000E+00  0.00000000000E+00 -0.41719242829E+03  0.18293924761E+04  0.17811870507E+04 0.  0.
        3    1    3    3  502    0 -0.23805339389E+02  0.87093556825E+03 -0.39814820273E+03  0.95792351457E+03  0.10100000352E+00 0. -1.
       -3    1    3    3    0  502  0.23805339389E+02 -0.87093556825E+03 -0.19044225556E+02  0.87146896156E+03  0.10100000352E+00 0.  1.
</event>
<event>
 5   0  0.1330225E-04  0.1809025E+04  0.7818609E-02  0.8701515E-01
        1   -1    0    0  501    0  0.00000000000E+00  0.00000000000E+00  0.17473372538E+04  0.17473372539E+04  0.50400001928E-02 0. -1.
       -1   -1    0    0    0  501  0.00000000000E+00  0.00000000000E+00 -0.46822253420E+03  0.46822253422E+03  0.50400001928E-02 0.  1.
    10030    2    1    2    0    0  0.00000000000E+00  0.00000000000E+00  0.12791147197E+04  0.22155597881E+04  0.18090247949E+04 0.  0.
        3    1    3    3  502    0 -0.65720152340E+03  0.59452037195E+03  0.41783677727E+03  0.97977339098E+03  0.10100000352E+00 0.  1.
       -3    1    3    3    0  502  0.65720152340E+03 -0.59452037195E+03  0.86127794238E+03  0.12357863971E+04  0.10100000352E+00 0. -1.
</event>
<event>
 5   0  0.2417106E-04  0.1803667E+04  0.7818609E-02  0.8704352E-01
        2   -1    0    0  501    0  0.00000000000E+00  0.00000000000E+00  0.20009924282E+04  0.20009924282E+04  0.25500000920E-02 0. -1.
       -2   -1    0    0    0  501  0.00000000000E+00  0.00000000000E+00 -0.40645017850E+03  0.40645017851E+03  0.25500000920E-02 0.  1.
    10030    2    1    2    0    0  0.00000000000E+00  0.00000000000E+00  0.15945422497E+04  0.24074426067E+04  0.18036670753E+04 0.  0.
        4    1    3    3  502    0  0.64038555454E+03  0.62227266132E+03  0.62851540187E+03  0.10919478682E+04  0.12699999809E+01 0.  1.
       -4    1    3    3    0  502 -0.64038555454E+03 -0.62227266132E+03  0.96602684780E+03  0.13154947385E+04  0.12699999809E+01 0. -1.
</event>
<event>
 5   0  0.2393421E-04  0.1820993E+04  0.7818609E-02  0.8695215E-01
       -2   -1    0    0    0  501  0.00000000000E+00  0.00000000000E+00  0.11023696048E+04  0.11023696048E+04  0.25500000920E-02 0. -1.
        2   -1    0    0  501    0  0.00000000000E+00  0.00000000000E+00 -0.75201954421E+03  0.75201954422E+03  0.25500000920E-02 0.  1.
    10030    2    1    2    0    0  0.00000000000E+00  0.00000000000E+00  0.35035006063E+03  0.18543891491E+04  0.18209925731E+04 0.  0.
        5    1    3    3  502    0 -0.75767501006E+03 -0.18456333818E+01  0.68931719048E+03  0.10243315412E+04  0.46999998093E+01 0. -1.
       -5    1    3    3    0  502  0.75767501006E+03  0.18456333818E+01 -0.33896712985E+03  0.83005760785E+03  0.46999998093E+01 0.  1.
</event>
<event>
 5   0  0.1253925E-04  0.1790769E+04  0.7818609E-02  0.8711224E-01
       -1   -1    0    0    0  501  0.00000000000E+00  0.00000000000E+00  0.44564194627E+03  0.44564194630E+03  0.50400001928E-02 0.  1.
        1   -1    0    0  501    0  0.00000000000E+00  0.00000000000E+00 -0.17990087612E+04  0.17990087612E+04  0.50400001928E-02 0. -1.
    10030    2    1    2    0    0  0.00000000000E+00  0.00000000000E+00 -0.13533668150E+04  0.22446507075E+04  0.17907694053E+04 0.  0.
        2    1    3    3  502    0  0.26972048484E+03  0.30616275406E+03 -0.16757035847E+04  0.17246643951E+04  0.25500000920E-02 0. -1.
       -2    1    3    3    0  502 -0.26972048484E+03 -0.30616275406E+03  0.32233676978E+03  0.51998631239E+03  0.25500000920E-02 0.  1.
</event>
<event>
 5   0  0.1308893E-04  0.1806703E+04  0.7818609E-02  0.8702743E-01
       -1   -1    0    0    0  501  0.00000000000E+00  0.00000000000E+00  0.92504975033E+03  0.92504975034E+03  0.50400001928E-02 0.  1.
        1   -1    0    0  501    0  0.00000000000E+00  0.00000000000E+00 -0.88216187220E+03  0.88216187221E+03  0.50400001928E-02 0. -1.
    10030    2    1    2    0    0  0.00000000000E+00  0.00000000000E+00  0.42887878130E+02  0.18072116226E+04  0.18067026536E+04 0.  0.
        4    1    3    3  502    0 -0.78952948324E+02 -0.88397838348E+03  0.18998667679E+03  0.90760558657E+03  0.12699999809E+01 0.  1.
       -4    1    3    3    0  502  0.78952948324E+02  0.88397838348E+03 -0.14709879866E+03  0.89960603599E+03  0.12699999809E+01 0. -1.
</event>
<event>
 5   0  0.1330225E-04  0.1794646E+04  0.7818609E-02  0.8709152E-01
       -1   -1    0    0    0  501  0.00000000000E+00  0.00000000000E+00  0.63201750562E+03  0.63201750564E+03  0.50400001928E-02 0.  1.
        1   -1    0    0  501    0  0.00000000000E+00  0.00000000000E+00 -0.12739979391E+04  0.12739979391E+04  0.50400001928E-02 0. -1.
    10030    2    1    2    0    0  0.00000000000E+00  0.00000000000E+00 -0.64198043346E+03  0.19060154447E+04  0.17946464829E+04 0.  0.
        3    1    3    3  502    0 -0.26428066449E+03 -0.74398211836E+03  0.13189342561E+03  0.80046833040E+03  0.10100000352E+00 0.  1.
       -3    1    3    3    0  502  0.26428066449E+03  0.74398211836E+03 -0.77387385907E+03  0.11055471143E+04  0.10100000352E+00 0. -1.
</event>
<event>
 5   0  0.1239119E-04  0.1784948E+04  0.7818609E-02  0.8714345E-01
        1   -1    0    0  501    0  0.00000000000E+00  0.00000000000E+00  0.73032225321E+03  0.73032225323E+03  0.50400001928E-02 0.  1.
       -1   -1    0    0    0  501  0.00000000000E+00  0.00000000000E+00 -0.10906283770E+04  0.10906283770E+04  0.50400001928E-02 0. -1.
    10030    2    1    2    0    0  0.00000000000E+00  0.00000000000E+00 -0.36030612375E+03  0.18209506302E+04  0.17849483732E+04 0.  0.
        5    1    3    3  502    0 -0.77806469592E+03  0.38492672267E+02 -0.62439193687E+03  0.99837554942E+03  0.46999998093E+01 0. -1.
       -5    1    3    3    0  502  0.77806469592E+03 -0.38492672267E+02  0.26408581312E+03  0.82257508079E+03  0.46999998093E+01 0.  1.
</event>
<event>
 5   0  0.2431811E-04  0.1790688E+04  0.7818609E-02  0.8711267E-01
       -2   -1    0    0    0  501  0.00000000000E+00  0.00000000000E+00  0.66041726638E+03  0.66041726638E+03  0.25500000920E-02 0. -1.
        2   -1    0    0  501    0  0.00000000000E+00  0.00000000000E+00 -0.12138394214E+04  0.12138394214E+04  0.25500000920E-02 0.  1.
    10030    2    1    2    0    0  0.00000000000E+00  0.00000000000E+00 -0.55342215500E+03  0.18742566878E+04  0.17906875914E+04 0.  0.
        3    1    3    3  502    0  0.90946405903E+02 -0.75170991708E+03 -0.77681882647E+03  0.10847979294E+04  0.10100000352E+00 0.  1.
       -3    1    3    3    0  502 -0.90946405903E+02  0.75170991708E+03  0.22339667147E+03  0.78945875840E+03  0.10100000352E+00 0. -1.
</event>
<event>
 5   0  0.1214723E-04  0.1809598E+04  0.7818609E-02  0.8701212E-01
       -1   -1    0    0    0  501  0.00000000000E+00  0.00000000000E+00  0.90667261550E+03  0.90667261552E+03  0.50400001928E-02 0.  1.
        1   -1    0    0  501    0  0.00000000000E+00  0.00000000000E+00 -0.90292936862E+03  0.90292936863E+03  0.50400001928E-02 0. -1.
    10030    2    1    2    0    0  0.00000000000E+00  0.00000000000E+00  0.37432468855E+01  0.18096019841E+04  0.18095981126E+04 0.  0.
        1    1    3    3  502    0 -0.66383188553E+03  0.61268933415E+03 -0.49122013006E+02  0.90469550934E+03  0.50400001928E-02 0.  1.
       -1    1    3    3    0  502  0.66383188553E+03 -0.61268933415E+03  0.52865259891E+02  0.90490647481E+03  0.50400001928E-02 0. -1.
</event>
<event>
 5   0  0.2550616E-04  0.1840594E+04  0.7818609E-02  0.8685005E-01
       -2   -1    0    0    0  501  0.00000000000E+00  0.00000000000E+00  0.36807826192E+03  0.36807826193E+03  0.25500000920E-02 0. -1.
        2   -1    0    0  501    0  0.00000000000E+00  0.00000000000E+00 -0.23009953129E+04  0.23009953129E+04  0.25500000920E-02 0.  1.
    10030    2    1    2    0    0  0.00000000000E+00  0.00000000000E+00 -0.19329170510E+04  0.26690735749E+04  0.18405937689E+04 0.  0.
        1    1    3    3  502    0  0.12274584862E+03  0.93884820260E+02 -0.22820461656E+04  0.22872725253E+04  0.50400001928E-02 0.  1.
       -1    1    3    3    0  502 -0.12274584862E+03 -0.93884820260E+02  0.34912911457E+03  0.38180104962E+03  0.50400001928E-02 0. -1.
</event>
<event>
 5   0  0.1330225E-04  0.1867821E+04  0.7818609E-02  0.8671042E-01
       -1   -1    0    0    0  501  0.00000000000E+00  0.00000000000E+00  0.10292825915E+04  0.10292825915E+04  0.50400001928E-02 0. -1.
        1   -1    0    0  501    0  0.00000000000E+00  0.00000000000E+00 -0.84737567183E+03  0.84737567185E+03  0.50400001928E-02 0.  1.
    10030    2    1    2    0    0  0.00000000000E+00  0.00000000000E+00  0.18190691968E+03  0.18766582634E+04  0.18678212200E+04 0.  0.
        3    1    3    3  502    0  0.86296359523E+03  0.35704005837E+03  0.93255005074E+02  0.93855222345E+03  0.10100000352E+00 0.  1.
       -3    1    3    3    0  502 -0.86296359523E+03 -0.35704005837E+03  0.88651914602E+02  0.93810603992E+03  0.10100000352E+00 0. -1.
</event>
<event>
 5   0  0.1253925E-04  0.1812412E+04  0.7818609E-02  0.8699726E-01
        1   -1    0    0  501    0  0.00000000000E+00  0.00000000000E+00  0.18589178869E+04  0.18589178870E+04  0.50400001928E-02 0. -1.
       -1   -1    0    0    0  501  0.00000000000E+00  0.00000000000E+00 -0.44176753969E+03  0.44176753972E+03  0.50400001928E-02 0.  1.
    10030    2    1    2    0    0  0.00000000000E+00  0.00000000000E+00  0.14171503473E+04  0.23006854267E+04  0.18124122946E+04 0.  0.
        2    1    3    3  502    0 -0.44309922207E+03 -0.12904027012E+03 -0.28141536403E+03  0.54053947037E+03  0.25500000920E-02 0.  1.
       -2    1    3    3    0  502  0.44309922207E+03  0.12904027012E+03  0.16985657113E+04  0.17601459563E+04  0.25500000920E-02 0. -1.
</event>
<event>
 5   0  0.1239119E-04  0.1770813E+04  0.7818609E-02  0.8721977E-01
        1   -1    0    0  501    0  0.00000000000E+00  0.00000000000E+00  0.11656607487E+04  0.11656607487E+04  0.50400001928E-02 0. -1.
       -1   -1    0    0    0  501  0.00000000000E+00  0.00000000000E+00 -0.67253256652E+03  0.67253256654E+03  0.50400001928E-02 0.  1.
    10030    2    1    2    0    0  0.00000000000E+00  0.00000000000E+00  0.49312818219E+03  0.18381933153E+04  0.17708131635E+04 0.  0.
        5    1    3    3  502    0  0.24059777584E+03 -0.83790540517E+03  0.40721045609E+03  0.96219291377E+03  0.46999998093E+01 0. -1.
       -5    1    3    3    0  502 -0.24059777584E+03  0.83790540517E+03  0.85917726092E+02  0.87600040149E+03  0.46999998093E+01 0.  1.
</event>
<event>
 5   0  0.2393421E-04  0.1819605E+04  0.7818609E-02  0.8695943E-01
        2   -1    0    0  501    0  0.00000000000E+00  0.00000000000E+00  0.77806129528E+03  0.77806129528E+03  0.25500000920E-02 0. -1.
       -2   -1    0    0    0  501  0.00000000000E+00  0.00000000000E+00 -0.10638502901E+04  0.10638502901E+04  0.25500000920E-02 0.  1.
    10030    2    1    2    0    0  0.00000000000E+00  0.00000000000E+00 -0.28578899482E+03  0.18419115854E+04  0.18196051601E+04 0.  0.
        5    1    3    3  502    0  0.46442639502E+03  0.46735684657E+03  0.49217545118E+03  0.82241903138E+03  0.46999998093E+01 0. -1.
       -5    1    3    3    0  502 -0.46442639502E+03 -0.46735684657E+03 -0.77796444599E+03  0.10194925540E+04  0.46999998093E+01 0.  1.
</event>
<event>
 5   0  0.2393421E-04  0.1781215E+04  0.7818609E-02  0.8716354E-01
       -2   -1    0    0    0  501  0.00000000000E+00  0.00000000000E+00  0.48787544266E+03  0.48787544266E+03  0.25500000920E-02 0. -1.
        2   -1    0    0  501    0  0.00000000000E+00  0.00000000000E+00 -0.16257866758E+04  0.16257866758E+04  0.25500000920E-02 0.  1.
    10030    2    1    2    0    0  0.00000000000E+00  0.00000000000E+00 -0.11379112332E+04  0.21136621185E+04  0.17812146352E+04 0.  0.
        5    1    3    3  502    0  0.73808198165E+03 -0.21891764498E+03 -0.11002598888E+04  0.13428640511E+04  0.46999998093E+01 0.  1.
       -5    1    3    3    0  502 -0.73808198165E+03  0.21891764498E+03 -0.37651344370E+02  0.77079806736E+03  0.46999998093E+01 0. -1.
</event>
<event>
 5   0  0.2393421E-04  0.1837553E+04  0.7818609E-02  0.8686580E-01
       -2   -1    0    0    0  501  0.00000000000E+00  0.00000000000E+00  0.74385370566E+03  0.74385370567E+03  0.25500000920E-02 0. -1.
        2   -1    0    0  501    0  0.00000000000E+00  0.00000000000E+00 -0.11348338773E+04  0.11348338773E+04  0.25500000920E-02 0.  1.
    10030    2    1    2    0    0  0.00000000000E+00  0.00000000000E+00 -0.39098017162E+03  0.18786875830E+04  0.18375531393E+04 0.  0.
        5    1    3    3  502    0  0.37924070016E+03  0.64362606890E+03 -0.74229931822E+03  0.10531421524E+04  0.46999998093E+01 0.  1.
       -5    1    3    3    0  502 -0.37924070016E+03 -0.64362606890E+03  0.35131914659E+03  0.82554543061E+03  0.46999998093E+01 0. -1.
</event>
<event>
 5   0  0.1308893E-04  0.1797935E+04  0.7818609E-02  0.8707398E-01
       -1   -1    0    0    0  501  0.00000000000E+00  0.00000000000E+00  0.68348142277E+03  0.68348142279E+03  0.50400001928E-02 0.  1.
        1   -1    0    0  501    0  0.00000000000E+00  0.00000000000E+00 -0.11823914206E+04  0.11823914206E+04  0.50400001928E-02 0. -1.
    10030    2    1    2    0    0  0.00000000000E+00  0.00000000000E+00 -0.49890999781E+03  0.18658728434E+04  0.17979350049E+04 0.  0.
        4    1    3    3  502    0  0.38756741241E+02  0.68035375379E+03 -0.85791808645E+03  0.10956314943E+04  0.12699999809E+01 0. -1.
       -4    1    3    3    0  502 -0.38756741241E+02 -0.68035375379E+03  0.35900808864E+03  0.77024134912E+03  0.12699999809E+01 0.  1.
</event>
<event>
 5   0  0.2569405E-04  0.1808713E+04  0.7818609E-02  0.8701680E-01
        2   -1    0    0  501    0  0.00000000000E+00  0.00000000000E+00  0.19247987520E+04  0.19247987520E+04  0.25500000920E-02 0.  1.
       -2   -1    0    0    0  501  0.00000000000E+00  0.00000000000E+00 -0.42490719675E+03  0.42490719675E+03  0.25500000920E-02 0. -1.
    10030    2    1    2    0    0  0.00000000000E+00  0.00000000000E+00  0.14998915553E+04  0.23497059488E+04  0.18087131802E+04 0.  0.
        2    1    3    3  502    0 -0.31912232485E+03 -0.53954195484E+03  0.15967743242E+04  0.17154103945E+04  0.25500000920E-02 0.  1.
       -2    1    3    3    0  502  0.31912232485E+03  0.53954195484E+03 -0.96882768897E+02  0.63429555427E+03  0.25500000920E-02 0. -1.
</event>
<event>
 5   0  0.2431811E-04  0.1794715E+04  0.7818609E-02  0.8709115E-01
       -2   -1    0    0    0  501  0.00000000000E+00  0.00000000000E+00  0.27019388185E+03  0.27019388187E+03  0.25500000920E-02 0. -1.
        2   -1    0    0  501    0  0.00000000000E+00  0.00000000000E+00 -0.29802689752E+04  0.29802689752E+04  0.25500000920E-02 0.  1.
    10030    2    1    2    0    0  0.00000000000E+00  0.00000000000E+00 -0.27100750933E+04  0.32504628570E+04  0.17947149561E+04 0.  0.
        3    1    3    3  502    0 -0.49143566772E+03 -0.16468021862E+03 -0.28303423723E+02  0.51906616524E+03  0.10100000352E+00 0. -1.
       -3    1    3    3    0  502  0.49143566772E+03  0.16468021862E+03 -0.26817716696E+04  0.27313966918E+04  0.10100000352E+00 0.  1.
</event>
<event>
 5   0  0.1214723E-04  0.1800325E+04  0.7818609E-02  0.8706127E-01
       -1   -1    0    0    0  501  0.00000000000E+00  0.00000000000E+00  0.50211760235E+03  0.50211760237E+03  0.50400001928E-02 0.  1.
        1   -1    0    0  501    0  0.00000000000E+00  0.00000000000E+00 -0.16137505810E+04  0.16137505810E+04  0.50400001928E-02 0. -1.
    10030    2    1    2    0    0  0.00000000000E+00  0.00000000000E+00 -0.11116329787E+04  0.21158681834E+04  0.18003250513E+04 0.  0.
        1    1    3    3  502    0  0.69461783612E+03  0.29309227285E+03 -0.11338481494E+04  0.13616198605E+04  0.50400001928E-02 0. -1.
       -1    1    3    3    0  502 -0.69461783612E+03 -0.29309227285E+03  0.22215170762E+02  0.75424832284E+03  0.50400001928E-02 0.  1.
</event>
<event>
 5   0  0.2431811E-04  0.1772759E+04  0.7818609E-02  0.8720922E-01
        2   -1    0    0  501    0  0.00000000000E+00  0.00000000000E+00  0.11883966914E+04  0.11883966914E+04  0.25500000920E-02 0. -1.
       -2   -1    0    0    0  501  0.00000000000E+00  0.00000000000E+00 -0.66111614851E+03  0.66111614851E+03  0.25500000920E-02 0.  1.
    10030    2    1    2    0    0  0.00000000000E+00  0.00000000000E+00  0.52728054294E+03  0.18495128400E+04  0.17727585775E+04 0.  0.
        3    1    3    3  502    0  0.18034882755E+03 -0.56236582050E+02  0.11671494955E+04  0.11823392947E+04  0.10100000352E+00 0. -1.
       -3    1    3    3    0  502 -0.18034882755E+03  0.56236582050E+02 -0.63986895259E+03  0.66717354523E+03  0.10100000352E+00 0.  1.
</event>
<event>
 5   0  0.1308893E-04  0.1807023E+04  0.7818609E-02  0.8702573E-01
        1   -1    0    0  501    0  0.00000000000E+00  0.00000000000E+00  0.60739588643E+03  0.60739588645E+03  0.50400001928E-02 0.  1.
       -1   -1    0    0    0  501  0.00000000000E+00  0.00000000000E+00 -0.13439888729E+04  0.13439888729E+04  0.50400001928E-02 0. -1.
    10030    2    1    2    0    0  0.00000000000E+00  0.00000000000E+00 -0.73659298644E+03  0.19513847593E+04  0.18070233123E+04 0.  0.
        4    1    3    3  502    0  0.41780192092E+03 -0.77738796590E+03 -0.57725211679E+03  0.10545672638E+04  0.12699999809E+01 0. -1.
       -4    1    3    3    0  502 -0.41780192092E+03  0.77738796590E+03 -0.15934086965E+03  0.89681749553E+03  0.12699999809E+01 0.  1.
</event>
<event>
 5   0  0.2393421E-04  0.1796727E+04  0.7818609E-02  0.8708042E-01
        2   -1    0    0  501    0  0.00000000000E+00  0.00000000000E+00  0.81080953929E+03  0.81080953929E+03  0.25500000920E-02 0.  1.
       -2   -1    0    0    0  501  0.00000000000E+00  0.00000000000E+00 -0.99537154428E+03  0.99537154429E+03  0.25500000920E-02 0. -1.
    10030    2    1    2    0    0  0.00000000000E+00  0.00000000000E+00 -0.18456200500E+03  0.18061810836E+04  0.17967267385E+04 0.  0.
        5    1    3    3  502    0  0.45723036370E+02 -0.45524150825E+03 -0.86945919424E+03  0.98250537268E+03  0.46999998093E+01 0. -1.
       -5    1    3    3    0  502 -0.45723036370E+02  0.45524150825E+03  0.68489718925E+03  0.82367571090E+03  0.46999998093E+01 0.  1.
</event>
<event>
 5   0  0.1330225E-04  0.1796762E+04  0.7818609E-02  0.8708023E-01
        1   -1    0    0  501    0  0.00000000000E+00  0.00000000000E+00  0.12417942979E+04  0.12417942979E+04  0.50400001928E-02 0. -1.
       -1   -1    0    0    0  501  0.00000000000E+00  0.00000000000E+00 -0.64993757043E+03  0.64993757045E+03  0.50400001928E-02 0.  1.
    10030    2    1    2    0    0  0.00000000000E+00  0.00000000000E+00  0.59185672746E+03  0.18917318684E+04  0.17967623872E+04 0.  0.
        3    1    3    3  502    0  0.77850814967E+03  0.15531827251E+03 -0.14688491899E+03  0.80732514794E+03  0.10100000352E+00 0.  1.
       -3    1    3    3    0  502 -0.77850814967E+03 -0.15531827251E+03  0.73874164646E+03  0.10844067204E+04  0.10100000352E+00 0. -1.
</event>
<event>
 5   0  0.2569405E-04  0.1868087E+04  0.7818609E-02  0.8670906E-01
       -2   -1    0    0    0  501  0.00000000000E+00  0.00000000000E+00  0.78825323328E+03  0.78825323328E+03  0.25500000920E-02 0. -1.
        2   -1    0    0  501    0  0.00000000000E+00  0.00000000000E+00 -0.11067986540E+04  0.11067986540E+04  0.25500000920E-02 0.  1.
    10030    2    1    2    0    0  0.00000000000E+00  0.00000000000E+00 -0.31854542072E+03  0.18950518873E+04  0.18680873830E+04 0.  0.
        2    1    3    3  502    0  0.32340050375E+03  0.86833126682E+03 -0.39885634329E+02  0.92745778265E+03  0.25500000920E-02 0. -1.
       -2    1    3    3    0  502 -0.32340050375E+03 -0.86833126682E+03 -0.27865978639E+03  0.96759410463E+03  0.25500000920E-02 0.  1.
</event>
<event>
 5   0  0.1239119E-04  0.1803943E+04  0.7818609E-02  0.8704206E-01
        1   -1    0    0  501    0  0.00000000000E+00  0.00000000000E+00  0.77337068087E+03  0.77337068088E+03  0.50400001928E-02 0.  1.
       -1   -1    0    0    0  501  0.00000000000E+00  0.00000000000E+00 -0.10519562980E+04  0.10519562980E+04  0.50400001928E-02 0. -1.
    10030    2    1    2    0    0  0.00000000000E+00  0.00000000000E+00 -0.27858561712E+03  0.18253269789E+04  0.18039425251E+04 0.  0.
        5    1    3    3  502    0 -0.60367892610E+02 -0.24045805642E+03 -0.10167902725E+04  0.10465891780E+04  0.46999998093E+01 0. -1.
       -5    1    3    3    0  502  0.60367892610E+02  0.24045805642E+03  0.73820465534E+03  0.77873780088E+03  0.46999998093E+01 0.  1.
</event>
<event>
 5   0  0.1253925E-04  0.1830506E+04  0.7818609E-02  0.8690243E-01
       -1   -1    0    0    0  501  0.00000000000E+00  0.00000000000E+00  0.49046123233E+03  0.49046123236E+03  0.50400001928E-02 0.  1.
        1   -1    0    0  501    0  0.00000000000E+00  0.00000000000E+00 -0.17079594890E+04  0.17079594890E+04  0.50400001928E-02 0. -1.
    10030    2    1    2    0    0  0.00000000000E+00  0.00000000000E+00 -0.12174982566E+04  0.21984207213E+04  0.18305058490E+04 0.  0.
        2    1    3    3  502    0  0.85776188489E+03  0.23295985728E+03 -0.87094544793E+03  0.12444162164E+04  0.25500000920E-02 0.  1.
       -2    1    3    3    0  502 -0.85776188489E+03 -0.23295985728E+03 -0.34655280870E+03  0.95400450497E+03  0.25500000920E-02 0. -1.
</event>
<event>
 5   0  0.1239119E-04  0.1643462E+04  0.7818609E-02  0.8794284E-01
        1   -1    0    0  501    0  0.00000000000E+00  0.00000000000E+00  0.96541190675E+03  0.96541190677E+03  0.50400001928E-02 0. -1.
       -1   -1    0    0    0  501  0.00000000000E+00  0.00000000000E+00 -0.69943414116E+03  0.69943414117E+03  0.50400001928E-02 0.  1.
    10030    2    1    2    0    0  0.00000000000E+00  0.00000000000E+00  0.26597776560E+03  0.16648460479E+04  0.16434622574E+04 0.  0.
        5    1    3    3  502    0  0.65636216993E+03  0.46711849217E+03 -0.31009420553E+02  0.80622246186E+03  0.46999998093E+01 0. -1.
       -5    1    3    3    0  502 -0.65636216993E+03 -0.46711849217E+03  0.29698718615E+03  0.85862358608E+03  0.46999998093E+01 0.  1.
</event>
<event>
 5   0  0.2393421E-04  0.1575137E+04  0.7818609E-02  0.8835970E-01
       -2   -1    0    0    0  501  0.00000000000E+00  0.00000000000E+00  0.59810848971E+03  0.59810848971E+03  0.25500000920E-02 0. -1.
        2   -1    0    0  501    0  0.00000000000E+00  0.00000000000E+00 -0.10370428043E+04  0.10370428043E+04  0.25500000920E-02 0.  1.
    10030    2    1    2    0    0  0.00000000000E+00  0.00000000000E+00 -0.43893431458E+03  0.16351512940E+04  0.15751369533E+04 0.  0.
        5    1    3    3  502    0 -0.29006991234E+03 -0.14839986239E+02 -0.97939769569E+03  0.10215687522E+04  0.46999998093E+01 0.  1.
       -5    1    3    3    0  502  0.29006991234E+03  0.14839986239E+02  0.54046338111E+03  0.61358254176E+03  0.46999998093E+01 0. -1.
</event>
<event>
 5   0  0.1239119E-04  0.1810075E+04  0.7818609E-02  0.8700960E-01
        1   -1    0    0  501    0  0.00000000000E+00  0.00000000000E+00  0.16386563997E+04  0.16386563997E+04  0.50400001928E-02 0. -1.
       -1   -1    0    0    0  501  0.00000000000E+00  0.00000000000E+00 -0.49985619245E+03  0.49985619247E+03  0.50400001928E-02 0.  1.
    10030    2    1    2    0    0  0.00000000000E+00  0.00000000000E+00  0.11388002072E+04  0.21385125921E+04  0.18100746379E+04 0.  0.
        5    1    3    3  502    0  0.42330099765E+03 -0.41702648050E+03  0.13758862929E+04  0.14987261261E+04  0.46999998093E+01 0. -1.
       -5    1    3    3    0  502 -0.42330099765E+03  0.41702648050E+03 -0.23708608572E+03  0.63978646601E+03  0.46999998093E+01 0.  1.
</event>
<event>
 5   0  0.2550616E-04  0.1797932E+04  0.7818609E-02  0.8707400E-01
       -2   -1    0    0    0  501  0.00000000000E+00  0.00000000000E+00  0.72789532244E+03  0.72789532245E+03  0.25500000920E-02 0. -1.
        2   -1    0    0  501    0  0.00000000000E+00  0.00000000000E+00 -0.11102415510E+04  0.11102415510E+04  0.25500000920E-02 0.  1.
    10030    2    1    2    0    0  0.00000000000E+00  0.00000000000E+00 -0.38234622851E+03  0.18381368734E+04  0.17979317359E+04 0.  0.
        1    1    3    3  502    0  0.27174812880E+03 -0.76745494456E+03  0.19854058001E+03  0.83800507121E+03  0.50400001928E-02 0. -1.
       -1    1    3    3    0  502 -0.27174812880E+03  0.76745494456E+03 -0.58088680852E+03  0.10001318022E+04  0.50400001928E-02 0.  1.
</event>
<event>
 5   0  0.2393421E-04  0.1807615E+04  0.7818609E-02  0.8702260E-01
       -2   -1    0    0    0  501  0.00000000000E+00  0.00000000000E+00  0.46388249032E+03  0.46388249033E+03  0.25500000920E-02 0. -1.
        2   -1    0    0  501    0  0.00000000000E+00  0.00000000000E+00 -0.17609368443E+04  0.17609368443E+04  0.25500000920E-02 0.  1.
    10030    2    1    2    0    0  0.00000000000E+00  0.00000000000E+00 -0.12970543540E+04  0.22248193346E+04  0.18076147473E+04 0.  0.
        5    1    3    3  502    0  0.88379038965E+03 -0.11879411649E+03 -0.46743503467E+03  0.10068341952E+04  0.46999998093E+01 0.  1.
       -5    1    3    3    0  502 -0.88379038965E+03  0.11879411649E+03 -0.82961931930E+03  0.12179851394E+04  0.46999998093E+01 0. -1.
</event>
<event>
 5   0  0.2393421E-04  0.1834016E+04  0.7818609E-02  0.8688417E-01
        2   -1    0    0  501    0  0.00000000000E+00  0.00000000000E+00  0.73017088124E+03  0.73017088125E+03  0.25500000920E-02 0. -1.
       -2   -1    0    0    0  501  0.00000000000E+00  0.00000000000E+00 -0.11516526419E+04  0.11516526419E+04  0.25500000920E-02 0.  1.
    10030    2    1    2    0    0  0.00000000000E+00  0.00000000000E+00 -0.42148176064E+03  0.18818235231E+04  0.18340155118E+04 0.  0.
        5    1    3    3  502    0 -0.71685324678E+03  0.32612217229E+03  0.27123442762E+03  0.83296125564E+03  0.46999998093E+01 0. -1.
       -5    1    3    3    0  502  0.71685324678E+03 -0.32612217229E+03 -0.69271618826E+03  0.10488622675E+04  0.46999998093E+01 0.  1.
</event>
<event>
 5   0  0.1239119E-04  0.1800404E+04  0.7818609E-02  0.8706085E-01
        1   -1    0    0  501    0  0.00000000000E+00  0.00000000000E+00  0.17073982062E+04  0.17073982062E+04  0.50400001928E-02 0.  1.
       -1   -1    0    0    0  501  0.00000000000E+00  0.00000000000E+00 -0.47461892259E+03  0.47461892262E+03  0.50400001928E-02 0. -1.
    10030    2    1    2    0    0  0.00000000000E+00  0.00000000000E+00  0.12327792836E+04  0.21820171288E+04  0.18004038404E+04 0.  0.
        5    1    3    3  502    0  0.31109701226E+03  0.49899817756E+03 -0.20966645379E+03  0.62430973409E+03  0.46999998093E+01 0. -1.
       -5    1    3    3    0  502 -0.31109701226E+03 -0.49899817756E+03  0.14424457374E+04  0.15577073947E+04  0.46999998093E+01 0.  1.
</event>
<event>
 5   0  0.1239119E-04  0.1799102E+04  0.7818609E-02  0.8706777E-01
        1   -1    0    0  501    0  0.00000000000E+00  0.00000000000E+00  0.82549310483E+03  0.82549310484E+03  0.50400001928E-02 0.  1.
       -1   -1    0    0    0  501  0.00000000000E+00  0.00000000000E+00 -0.98025271488E+03  0.98025271489E+03  0.50400001928E-02 0. -1.
    10030    2    1    2    0    0  0.00000000000E+00  0.00000000000E+00 -0.15475961005E+03  0.18057458197E+04  0.17991018394E+04 0.  0.
        5    1    3    3  502    0 -0.59365646507E+03 -0.37182939599E+03  0.48904874627E+03  0.85432772662E+03  0.46999998093E+01 0.  1.
       -5    1    3    3    0  502  0.59365646507E+03  0.37182939599E+03 -0.64380835632E+03  0.95141809312E+03  0.46999998093E+01 0. -1.
</event>
<event>
 5   0  0.2393421E-04  0.1798527E+04  0.7818609E-02  0.8707083E-01
       -2   -1    0    0    0  501  0.00000000000E+00  0.00000000000E+00  0.35791130345E+03  0.35791130346E+03  0.25500000920E-02 0.  1.
        2   -1    0    0  501    0  0.00000000000E+00  0.00000000000E+00 -0.22594288744E+04  0.22594288744E+04  0.25500000920E-02 0. -1.
    10030    2    1    2    0    0  0.00000000000E+00  0.00000000000E+00 -0.19015175709E+04  0.26173401779E+04  0.17985273237E+04 0.  0.
        5    1    3    3  502    0 -0.23496421223E+03  0.56145655994E+03  0.12593128254E+02  0.60878758743E+03  0.46999998093E+01 0.  1.
       -5    1    3    3    0  502  0.23496421223E+03 -0.56145655994E+03 -0.19141106992E+04  0.20085525904E+04  0.46999998093E+01 0. -1.
</event>
<event>
 5   0  0.1308893E-04  0.1796038E+04  0.7818609E-02  0.8708409E-01
        1   -1    0    0  501    0  0.00000000000E+00  0.00000000000E+00  0.77827279929E+03  0.77827279931E+03  0.50400001928E-02 0. -1.
       -1   -1    0    0    0  501  0.00000000000E+00  0.00000000000E+00 -0.10361893606E+04  0.10361893606E+04  0.50400001928E-02 0.  1.
    10030    2    1    2    0    0  0.00000000000E+00  0.00000000000E+00 -0.25791656126E+03  0.18144621599E+04  0.17960378551E+04 0.  0.
        4    1    3    3  502    0 -0.76939394418E+03  0.83183288503E+02 -0.58920814940E+03  0.97265325632E+03  0.12699999809E+01 0. -1.
       -4    1    3    3    0  502  0.76939394418E+03 -0.83183288503E+02  0.33129158814E+03  0.84180890355E+03  0.12699999809E+01 0.  1.
</event>
<event>
 5   0  0.2550616E-04  0.1928417E+04  0.7818609E-02  0.8640839E-01
        2   -1    0    0  501    0  0.00000000000E+00  0.00000000000E+00  0.12975000025E+04  0.12975000025E+04  0.25500000920E-02 0. -1.
       -2   -1    0    0    0  501  0.00000000000E+00  0.00000000000E+00 -0.71653022982E+03  0.71653022983E+03  0.25500000920E-02 0.  1.
    10030    2    1    2    0    0  0.00000000000E+00  0.00000000000E+00  0.58096977271E+03  0.20140302324E+04  0.19284169414E+04 0.  0.
        1    1    3    3  502    0  0.46172123838E+03 -0.40100261996E+03  0.10690384860E+04  0.12315976972E+04  0.50400001928E-02 0. -1.
       -1    1    3    3    0  502 -0.46172123838E+03  0.40100261996E+03 -0.48806871328E+03  0.78243253517E+03  0.50400001928E-02 0.  1.
</event>
<event>
 5   0  0.1239119E-04  0.1908843E+04  0.7818609E-02  0.8650467E-01
        1   -1    0    0  501    0  0.00000000000E+00  0.00000000000E+00  0.17665382499E+04  0.17665382499E+04  0.50400001928E-02 0.  1.
       -1   -1    0    0    0  501  0.00000000000E+00  0.00000000000E+00 -0.51565258625E+03  0.51565258627E+03  0.50400001928E-02 0. -1.
    10030    2    1    2    0    0  0.00000000000E+00  0.00000000000E+00  0.12508856636E+04  0.22821908362E+04  0.19088425994E+04 0.  0.
        5    1    3    3  502    0 -0.82612958471E+03 -0.42555170858E+03  0.36538212215E+03  0.99855422116E+03  0.46999998093E+01 0.  1.
       -5    1    3    3    0  502  0.82612958471E+03  0.42555170858E+03  0.88550354150E+03  0.12836366150E+04  0.46999998093E+01 0. -1.
</event>
<event>
 5   0  0.1214723E-04  0.1798068E+04  0.7818609E-02  0.8707327E-01
        1   -1    0    0  501    0  0.00000000000E+00  0.00000000000E+00  0.14682156309E+04  0.14682156309E+04  0.50400001928E-02 0. -1.
       -1   -1    0    0    0  501  0.00000000000E+00  0.00000000000E+00 -0.55050670372E+03  0.55050670374E+03  0.50400001928E-02 0.  1.
    10030    2    1    2    0    0  0.00000000000E+00  0.00000000000E+00  0.91770892715E+03  0.20187223346E+04  0.17980684607E+04 0.  0.
        1    1    3    3  502    0 -0.83470211233E+03  0.33396570475E+03  0.46037698809E+03  0.10100533053E+04  0.50400001928E-02 0. -1.
       -1    1    3    3    0  502  0.83470211233E+03 -0.33396570475E+03  0.45733193906E+03  0.10086690294E+04  0.50400001928E-02 0.  1.
</event>
<event>
 5   0  0.1214723E-04  0.1759559E+04  0.7818609E-02  0.8728106E-01
        1   -1    0    0  501    0  0.00000000000E+00  0.00000000000E+00  0.11255757177E+04  0.11255757177E+04  0.50400001928E-02 0.  1.
       -1   -1    0    0    0  501  0.00000000000E+00  0.00000000000E+00 -0.68765836397E+03  0.68765836399E+03  0.50400001928E-02 0. -1.
    10030    2    1    2    0    0  0.00000000000E+00  0.00000000000E+00  0.43791735374E+03  0.18132340817E+04  0.17595585317E+04 0.  0.
        1    1    3    3  502    0 -0.12405369836E+03  0.56605014960E+03  0.90112618818E+03  0.10713685169E+04  0.50400001928E-02 0.  1.
       -1    1    3    3    0  502  0.12405369836E+03 -0.56605014960E+03 -0.46320883444E+03  0.74186556482E+03  0.50400001928E-02 0. -1.
</event>
<event>
 5   0  0.1308893E-04  0.1848388E+04  0.7818609E-02  0.8680982E-01
        1   -1    0    0  501    0  0.00000000000E+00  0.00000000000E+00  0.78498040514E+03  0.78498040515E+03  0.50400001928E-02 0.  1.
       -1   -1    0    0    0  501  0.00000000000E+00  0.00000000000E+00 -0.10880961811E+04  0.10880961811E+04  0.50400001928E-02 0. -1.
    10030    2    1    2    0    0  0.00000000000E+00  0.00000000000E+00 -0.30311577592E+03  0.18730765862E+04  0.18483876012E+04 0.  0.
        4    1    3    3  502    0  0.80207799571E+03 -0.27546371362E+03  0.22066733953E+03  0.87630192078E+03  0.12699999809E+01 0.  1.
       -4    1    3    3    0  502 -0.80207799571E+03  0.27546371362E+03 -0.52378311545E+03  0.99677466544E+03  0.12699999809E+01 0. -1.
</event>
<event>
 5   0  0.2417106E-04  0.1820522E+04  0.7818609E-02  0.8695462E-01
       -2   -1    0    0    0  501  0.00000000000E+00  0.00000000000E+00  0.11240820835E+04  0.11240820835E+04  0.25500000920E-02 0. -1.
        2   -1    0    0  501    0  0.00000000000E+00  0.00000000000E+00 -0.73711269208E+03  0.73711269208E+03  0.25500000920E-02 0.  1.
    10030    2    1    2    0    0  0.00000000000E+00  0.00000000000E+00  0.38696939141E+03  0.18611947756E+04  0.18205220907E+04 0.  0.
        4    1    3    3  502    0 -0.17503004859E+03  0.17388660927E+03  0.10892455153E+04  0.11168390556E+04  0.12699999809E+01 0. -1.
       -4    1    3    3    0  502  0.17503004859E+03 -0.17388660927E+03 -0.70227612384E+03  0.74435571994E+03  0.12699999809E+01 0.  1.
</event>
<event>
 5   0  0.2431811E-04  0.1815170E+04  0.7818609E-02  0.8698274E-01
        2   -1    0    0  501    0  0.00000000000E+00  0.00000000000E+00  0.81449357906E+03  0.81449357906E+03  0.25500000920E-02 0. -1.
       -2   -1    0    0    0  501  0.00000000000E+00  0.00000000000E+00 -0.10113161754E+04  0.10113161754E+04  0.25500000920E-02 0.  1.
    10030    2    1    2    0    0  0.00000000000E+00  0.00000000000E+00 -0.19682259631E+03  0.18258097544E+04  0.18151699989E+04 0.  0.
        3    1    3    3  502    0  0.42519919330E+03 -0.28876106659E+03 -0.85081539836E+03  0.99401416481E+03  0.10100000352E+00 0.  1.
       -3    1    3    3    0  502 -0.42519919330E+03  0.28876106659E+03  0.65399280205E+03  0.83179558961E+03  0.10100000352E+00 0. -1.
</event>
<event>
 5   0  0.1308893E-04  0.1779647E+04  0.7818609E-02  0.8717198E-01
        1   -1    0    0  501    0  0.00000000000E+00  0.00000000000E+00  0.67096307714E+03  0.67096307716E+03  0.50400001928E-02 0.  1.
       -1   -1    0    0    0  501  0.00000000000E+00  0.00000000000E+00 -0.11800739678E+04  0.11800739678E+04  0.50400001928E-02 0. -1.
    10030    2    1    2    0    0  0.00000000000E+00  0.00000000000E+00 -0.50911089064E+03  0.18510370449E+04  0.17796472243E+04 0.  0.
        4    1    3    3  502    0  0.88258927875E+03 -0.83191066042E+02 -0.17466367986E+03  0.90354501958E+03  0.12699999809E+01 0. -1.
       -4    1    3    3    0  502 -0.88258927875E+03  0.83191066042E+02 -0.33444721077E+03  0.94749202537E+03  0.12699999809E+01 0.  1.
</event>
<event>
 5   0  0.2393421E-04  0.1813947E+04  0.7818609E-02  0.8698918E-01
        2   -1    0    0  501    0  0.00000000000E+00  0.00000000000E+00  0.23164675222E+04  0.23164675222E+04  0.25500000920E-02 0. -1.
       -2   -1    0    0    0  501  0.00000000000E+00  0.00000000000E+00 -0.35511011969E+03  0.35511011970E+03  0.25500000920E-02 0.  1.
    10030    2    1    2    0    0  0.00000000000E+00  0.00000000000E+00  0.19613574025E+04  0.26715776419E+04  0.18139471426E+04 0.  0.
        5    1    3    3  502    0  0.49117173400E+03 -0.69948121650E+03  0.14275347378E+04  0.16638513041E+04  0.46999998093E+01 0. -1.
       -5    1    3    3    0  502 -0.49117173400E+03  0.69948121650E+03  0.53382266466E+03  0.10077263378E+04  0.46999998093E+01 0.  1.
</event>
<event>
 5   0  0.2431811E-04  0.1851107E+04  0.7818609E-02  0.8679584E-01
        2   -1    0    0  501    0  0.00000000000E+00  0.00000000000E+00  0.13809632681E+04  0.13809632681E+04  0.25500000920E-02 0.  1.
       -2   -1    0    0    0  501  0.00000000000E+00  0.00000000000E+00 -0.62032755051E+03  0.62032755051E+03  0.25500000920E-02 0. -1.
    10030    2    1    2    0    0  0.00000000000E+00  0.00000000000E+00  0.76063571764E+03  0.20012908187E+04  0.18511073026E+04 0.  0.
        3    1    3    3  502    0  0.68271084621E+03  0.20851954877E+03 -0.25661008936E+03  0.75856657579E+03  0.10100000352E+00 0. -1.
       -3    1    3    3    0  502 -0.68271084621E+03 -0.20851954877E+03  0.10172458070E+04  0.12427242429E+04  0.10100000352E+00 0.  1.
</event>
<event>
 5   0  0.2417106E-04  0.1790928E+04  0.7818609E-02  0.8711139E-01
        2   -1    0    0  501    0  0.00000000000E+00  0.00000000000E+00  0.17684684152E+04  0.17684684152E+04  0.25500000920E-02 0.  1.
       -2   -1    0    0    0  501  0.00000000000E+00  0.00000000000E+00 -0.45341828657E+03  0.45341828657E+03  0.25500000920E-02 0. -1.
    10030    2    1    2    0    0  0.00000000000E+00  0.00000000000E+00  0.13150501287E+04  0.22218867018E+04  0.17909281601E+04 0.  0.
        4    1    3    3  502    0 -0.46950633344E+03  0.29166289334E+03 -0.21652867693E+03  0.59362422569E+03  0.12699999809E+01 0. -1.
       -4    1    3    3    0  502  0.46950633344E+03 -0.29166289334E+03  0.15315788056E+04  0.16282624761E+04  0.12699999809E+01 0.  1.
</event>
<event>
 5   0  0.2569405E-04  0.1780306E+04  0.7818609E-02  0.8716843E-01
        2   -1    0    0  501    0  0.00000000000E+00  0.00000000000E+00  0.11224519139E+04  0.11224519139E+04  0.25500000920E-02 0.  1.
       -2   -1    0    0    0  501  0.00000000000E+00  0.00000000000E+00 -0.70592979553E+03  0.70592979553E+03  0.25500000920E-02 0. -1.
    10030    2    1    2    0    0  0.00000000000E+00  0.00000000000E+00  0.41652211835E+03  0.18283817094E+04  0.17803058727E+04 0.  0.
        2    1    3    3  502    0 -0.17143675312E+03 -0.70652745084E+03  0.73574613311E+03  0.10343567912E+04  0.25500000920E-02 0.  1.
       -2    1    3    3    0  502  0.17143675312E+03  0.70652745084E+03 -0.31922401476E+03  0.79402491820E+03  0.25500000920E-02 0. -1.
</event>
<event>
 5   0  0.2569405E-04  0.1799302E+04  0.7818609E-02  0.8706671E-01
       -2   -1    0    0    0  501  0.00000000000E+00  0.00000000000E+00  0.39422988296E+03  0.39422988297E+03  0.25500000920E-02 0.  1.
        2   -1    0    0  501    0  0.00000000000E+00  0.00000000000E+00 -0.20530454222E+04  0.20530454222E+04  0.25500000920E-02 0. -1.
    10030    2    1    2    0    0  0.00000000000E+00  0.00000000000E+00 -0.16588155392E+04  0.24472753052E+04  0.17993019274E+04 0.  0.
        2    1    3    3  502    0 -0.63039275219E+02 -0.89301366174E+03 -0.70832986719E+03  0.11415684610E+04  0.25500000920E-02 0.  1.
       -2    1    3    3    0  502  0.63039275219E+02  0.89301366174E+03 -0.95048567203E+03  0.13057068442E+04  0.25500000920E-02 0. -1.
</event>
<event>
 5   0  0.2569405E-04  0.1801088E+04  0.7818609E-02  0.8705721E-01
        2   -1    0    0  501    0  0.00000000000E+00  0.00000000000E+00  0.19778746170E+04  0.19778746170E+04  0.25500000920E-02 0. -1.
       -2   -1    0    0    0  501  0.00000000000E+00  0.00000000000E+00 -0.41002580862E+03  0.41002580863E+03  0.25500000920E-02 0.  1.
    10030    2    1    2    0    0  0.00000000000E+00  0.00000000000E+00  0.15678488084E+04  0.23879004256E+04  0.18010881591E+04 0.  0.
        2    1    3    3  502    0  0.66129079606E+03  0.27811510531E+03  0.62208622335E+02  0.72008571813E+03  0.25500000920E-02 0.  1.
       -2    1    3    3    0  502 -0.66129079606E+03 -0.27811510531E+03  0.15056401861E+04  0.16678147075E+04  0.25500000920E-02 0. -1.
</event>
<event>
 5   0  0.2431811E-04  0.1791489E+04  0.7818609E-02  0.8710839E-01
        2   -1    0    0  501    0  0.00000000000E+00  0.00000000000E+00  0.66561797009E+03  0.66561797010E+03  0.25500000920E-02 0. -1.
       -2   -1    0    0    0  501  0.00000000000E+00  0.00000000000E+00 -0.12054338857E+04  0.12054338857E+04  0.25500000920E-02 0.  1.
    10030    2    1    2    0    0  0.00000000000E+00  0.00000000000E+00 -0.53981591558E+03  0.18710518558E+04  0.17914892755E+04 0.  0.
        3    1    3    3  502    0 -0.70753410776E+03  0.94573250073E+02 -0.83505887858E+03  0.10985772409E+04  0.10100000352E+00 0.  1.
       -3    1    3    3    0  502  0.70753410776E+03 -0.94573250073E+02  0.29524296300E+03  0.77247461491E+03  0.10100000352E+00 0. -1.
</event>
<event>
 5   0  0.2417106E-04  0.1774172E+04  0.7818609E-02  0.8720156E-01
       -2   -1    0    0    0  501  0.00000000000E+00  0.00000000000E+00  0.55051439010E+03  0.55051439010E+03  0.25500000920E-02 0. -1.
        2   -1    0    0  501    0  0.00000000000E+00  0.00000000000E+00 -0.14294299859E+04  0.14294299859E+04  0.25500000920E-02 0.  1.
    10030    2    1    2    0    0  0.00000000000E+00  0.00000000000E+00 -0.87891559585E+03  0.19799443761E+04  0.17741722317E+04 0.  0.
        4    1    3    3  502    0  0.41529027986E+03  0.36443979550E+03 -0.12139507788E+04  0.13337767757E+04  0.12699999809E+01 0.  1.
       -4    1    3    3    0  502 -0.41529027986E+03 -0.36443979550E+03  0.33503518294E+03  0.64616760039E+03  0.12699999809E+01 0. -1.
</event>
<event>
 5   0  0.2550616E-04  0.1820797E+04  0.7818609E-02  0.8695318E-01
        2   -1    0    0  501    0  0.00000000000E+00  0.00000000000E+00  0.18172631109E+04  0.18172631109E+04  0.25500000920E-02 0. -1.
       -2   -1    0    0    0  501  0.00000000000E+00  0.00000000000E+00 -0.45608426062E+03  0.45608426062E+03  0.25500000920E-02 0.  1.
    10030    2    1    2    0    0  0.00000000000E+00  0.00000000000E+00  0.13611788503E+04  0.22733473715E+04  0.18207966414E+04 0.  0.
        1    1    3    3  502    0  0.20705734331E+03 -0.27749233338E+03  0.17318545883E+04  0.17661243030E+04  0.50400001928E-02 0. -1.
       -1    1    3    3    0  502 -0.20705734331E+03  0.27749233338E+03 -0.37067573801E+03  0.50722306856E+03  0.50400001928E-02 0.  1.
</event>
<event>
 5   0  0.1214723E-04  0.1797564E+04  0.7818609E-02  0.8707596E-01
       -1   -1    0    0    0  501  0.00000000000E+00  0.00000000000E+00  0.54013066320E+03  0.54013066322E+03  0.50400001928E-02 0. -1.
        1   -1    0    0  501    0  0.00000000000E+00  0.00000000000E+00 -0.14955806304E+04  0.14955806304E+04  0.50400001928E-02 0.  1.
    10030    2    1    2    0    0  0.00000000000E+00  0.00000000000E+00 -0.95544996724E+03  0.20357112937E+04  0.17975638601E+04 0.  0.
        1    1    3    3  502    0  0.39399213382E+03 -0.15330118668E+03 -0.13759477799E+04  0.14394316061E+04  0.50400001928E-02 0.  1.
       -1    1    3    3    0  502 -0.39399213382E+03  0.15330118668E+03  0.42049781270E+03  0.59627968762E+03  0.50400001928E-02 0. -1.
</event>
<event>
 5   0  0.1330225E-04  0.1789560E+04  0.7818609E-02  0.8711871E-01
        1   -1    0    0  501    0  0.00000000000E+00  0.00000000000E+00  0.76683416815E+03  0.76683416817E+03  0.50400001928E-02 0. -1.
       -1   -1    0    0    0  501  0.00000000000E+00  0.00000000000E+00 -0.10440729941E+04  0.10440729941E+04  0.50400001928E-02 0.  1.
    10030    2    1    2    0    0  0.00000000000E+00  0.00000000000E+00 -0.27723882593E+03  0.18109071623E+04  0.17895595502E+04 0.  0.
        3    1    3    3  502    0  0.51260827464E+03 -0.29625389662E+03 -0.81751533117E+03  0.10093883997E+04  0.10100000352E+00 0.  1.
       -3    1    3    3    0  502 -0.51260827464E+03  0.29625389662E+03  0.54027650523E+03  0.80151876260E+03  0.10100000352E+00 0. -1.
</event>
<event>
 5   0  0.1214723E-04  0.1799179E+04  0.7818609E-02  0.8706736E-01
       -1   -1    0    0    0  501  0.00000000000E+00  0.00000000000E+00  0.78333767185E+03  0.78333767187E+03  0.50400001928E-02 0. -1.
        1   -1    0    0  501    0  0.00000000000E+00  0.00000000000E+00 -0.10330936407E+04  0.10330936407E+04  0.50400001928E-02 0.  1.
    10030    2    1    2    0    0  0.00000000000E+00  0.00000000000E+00 -0.24975596881E+03  0.18164313125E+04  0.17991788875E+04 0.  0.
        1    1    3    3  502    0  0.42836770948E+03  0.86090549102E+02  0.66901517264E+03  0.79905680550E+03  0.50400001928E-02 0. -1.
       -1    1    3    3    0  502 -0.42836770948E+03 -0.86090549102E+02 -0.91877114145E+03  0.10173745070E+04  0.50400001928E-02 0.  1.
</event>
<event>
 5   0  0.2417106E-04  0.1788969E+04  0.7818609E-02  0.8712187E-01
       -2   -1    0    0    0  501  0.00000000000E+00  0.00000000000E+00  0.77319517462E+03  0.77319517462E+03  0.25500000920E-02 0.  1.
        2   -1    0    0  501    0  0.00000000000E+00  0.00000000000E+00 -0.10348007717E+04  0.10348007717E+04  0.25500000920E-02 0. -1.
    10030    2    1    2    0    0  0.00000000000E+00  0.00000000000E+00 -0.26160559708E+03  0.18079959463E+04  0.17889694949E+04 0.  0.
        4    1    3    3  502    0  0.86544791119E+03  0.33113406044E+02  0.95192922408E+02  0.87129781936E+03  0.12699999809E+01 0.  1.
       -4    1    3    3    0  502 -0.86544791119E+03 -0.33113406044E+02 -0.35679851949E+03  0.93669812696E+03  0.12699999809E+01 0. -1.
</event>
<event>
 5   0  0.2569405E-04  0.1795877E+04  0.7818609E-02  0.8708495E-01
        2   -1    0    0  501    0  0.00000000000E+00  0.00000000000E+00  0.21271279818E+04  0.21271279818E+04  0.25500000920E-02 0.  1.
       -2   -1    0    0    0  501  0.00000000000E+00  0.00000000000E+00 -0.37905276605E+03  0.37905276606E+03  0.25500000920E-02 0. -1.
    10030    2    1    2    0    0  0.00000000000E+00  0.00000000000E+00  0.17480752157E+04  0.25061807478E+04  0.17958772177E+04 0.  0.
        2    1    3    3  502    0  0.72796739947E+03 -0.46971890217E+03  0.12034550691E+04  0.14828609123E+04  0.25500000920E-02 0.  1.
       -2    1    3    3    0  502 -0.72796739947E+03  0.46971890217E+03  0.54462014659E+03  0.10233198355E+04  0.25500000920E-02 0. -1.
</event>
<event>
 5   0  0.2569405E-04  0.1796783E+04  0.7818609E-02  0.8708012E-01
       -2   -1    0    0    0  501  0.00000000000E+00  0.00000000000E+00  0.54605779394E+03  0.54605779395E+03  0.25500000920E-02 0.  1.
        2   -1    0    0  501    0  0.00000000000E+00  0.00000000000E+00 -0.14780627709E+04  0.14780627709E+04  0.25500000920E-02 0. -1.
    10030    2    1    2    0    0  0.00000000000E+00  0.00000000000E+00 -0.93200497700E+03  0.20241205649E+04  0.17967834550E+04 0.  0.
        2    1    3    3  502    0  0.32738563077E+03 -0.70072974311E+03  0.48887199377E+02  0.77497966579E+03  0.25500000920E-02 0.  1.
       -2    1    3    3    0  502 -0.32738563077E+03  0.70072974311E+03 -0.98089217637E+03  0.12491408991E+04  0.25500000920E-02 0. -1.
</event>
<event>
 5   0  0.2550616E-04  0.1796277E+04  0.7818609E-02  0.8708282E-01
        2   -1    0    0  501    0  0.00000000000E+00  0.00000000000E+00  0.11971757430E+04  0.11971757430E+04  0.25500000920E-02 0.  1.
       -2   -1    0    0    0  501  0.00000000000E+00  0.00000000000E+00 -0.67379625715E+03  0.67379625715E+03  0.25500000920E-02 0. -1.
    10030    2    1    2    0    0  0.00000000000E+00  0.00000000000E+00  0.52337948584E+03  0.18709720001E+04  0.17962767435E+04 0.  0.
        1    1    3    3  502    0  0.88939301662E+03 -0.12497147870E+03  0.25769268589E+03  0.93436787663E+03  0.50400001928E-02 0.  1.
       -1    1    3    3    0  502 -0.88939301662E+03  0.12497147870E+03  0.26568679995E+03  0.93660412352E+03  0.50400001928E-02 0. -1.
</event>
<event>
 5   0  0.2393421E-04  0.1800532E+04  0.7818609E-02  0.8706016E-01
       -2   -1    0    0    0  501  0.00000000000E+00  0.00000000000E+00  0.10473694626E+04  0.10473694626E+04  0.25500000920E-02 0. -1.
        2   -1    0    0  501    0  0.00000000000E+00  0.00000000000E+00 -0.77382364708E+03  0.77382364708E+03  0.25500000920E-02 0.  1.
    10030    2    1    2    0    0  0.00000000000E+00  0.00000000000E+00  0.27354581555E+03  0.18211931097E+04  0.18005324295E+04 0.  0.
        5    1    3    3  502    0 -0.56592275312E+03  0.59423894932E+03  0.51124905470E+03  0.96684340889E+03  0.46999998093E+01 0. -1.
       -5    1    3    3    0  502  0.56592275312E+03 -0.59423894932E+03 -0.23770323915E+03  0.85434970082E+03  0.46999998093E+01 0.  1.
</event>
<event>
 5   0  0.1253925E-04  0.1698167E+04  0.7818609E-02  0.8762410E-01
       -1   -1    0    0    0  501  0.00000000000E+00  0.00000000000E+00  0.74525536420E+03  0.74525536422E+03  0.50400001928E-02 0. -1.
        1   -1    0    0  501    0  0.00000000000E+00  0.00000000000E+00 -0.96737699562E+03  0.96737699564E+03  0.50400001928E-02 0.  1.
    10030    2    1    2    0    0  0.00000000000E+00  0.00000000000E+00 -0.22212163142E+03  0.17126323599E+04  0.16981671240E+04 0.  0.
        2    1    3    3  502    0  0.64365299670E+03 -0.34865093168E+03  0.32283205930E+03  0.80004199317E+03  0.25500000920E-02 0. -1.
       -2    1    3    3    0  502 -0.64365299670E+03  0.34865093168E+03 -0.54495369072E+03  0.91259036668E+03  0.25500000920E-02 0.  1.
</event>
<event>
 5   0  0.1330225E-04  0.1816294E+04  0.7818609E-02  0.8697682E-01
        1   -1    0    0  501    0  0.00000000000E+00  0.00000000000E+00  0.11904673776E+04  0.11904673776E+04  0.50400001928E-02 0. -1.
       -1   -1    0    0    0  501  0.00000000000E+00  0.00000000000E+00 -0.69277920544E+03  0.69277920546E+03  0.50400001928E-02 0.  1.
    10030    2    1    2    0    0  0.00000000000E+00  0.00000000000E+00  0.49768817211E+03  0.18832465830E+04  0.18162940775E+04 0.  0.
        3    1    3    3  502    0 -0.15866783469E+03 -0.72917622221E+03  0.78547167777E+03  0.10834386054E+04  0.10100000352E+00 0. -1.
       -3    1    3    3    0  502  0.15866783469E+03  0.72917622221E+03 -0.28778350566E+03  0.79980797767E+03  0.10100000352E+00 0.  1.
</event>
<event>
 5   0  0.1214723E-04  0.1811311E+04  0.7818609E-02  0.8700308E-01
       -1   -1    0    0    0  501  0.00000000000E+00  0.00000000000E+00  0.49192456675E+03  0.49192456678E+03  0.50400001928E-02 0. -1.
        1   -1    0    0  501    0  0.00000000000E+00  0.00000000000E+00 -0.16673524216E+04  0.16673524217E+04  0.50400001928E-02 0.  1.
    10030    2    1    2    0    0  0.00000000000E+00  0.00000000000E+00 -0.11754278549E+04  0.21592769884E+04  0.18113107052E+04 0.  0.
        1    1    3    3  502    0 -0.36677675356E+03 -0.44323562041E+03  0.24610419181E+03  0.62573978250E+03  0.50400001928E-02 0. -1.
       -1    1    3    3    0  502  0.36677675356E+03  0.44323562041E+03 -0.14215320467E+04  0.15335372059E+04  0.50400001928E-02 0.  1.
</event>
<event>
 5   0  0.1253925E-04  0.1773148E+04  0.7818609E-02  0.8720711E-01
       -1   -1    0    0    0  501  0.00000000000E+00  0.00000000000E+00  0.52893652147E+03  0.52893652150E+03  0.50400001928E-02 0. -1.
        1   -1    0    0  501    0  0.00000000000E+00  0.00000000000E+00 -0.14860258919E+04  0.14860258919E+04  0.50400001928E-02 0.  1.
    10030    2    1    2    0    0  0.00000000000E+00  0.00000000000E+00 -0.95708937041E+03  0.20149624134E+04  0.17731478969E+04 0.  0.
        2    1    3    3  502    0 -0.19603648707E+03 -0.80194545035E+03 -0.11125339672E+03  0.83302108490E+03  0.25500000920E-02 0.  1.
       -2    1    3    3    0  502  0.19603648707E+03  0.80194545035E+03 -0.84583597369E+03  0.11819413285E+04  0.25500000920E-02 0. -1.
</event>
<event>
 5   0  0.2431811E-04  0.1745141E+04  0.7818609E-02  0.8736029E-01
       -2   -1    0    0    0  501  0.00000000000E+00  0.00000000000E+00  0.34659794617E+03  0.34659794618E+03  0.25500000920E-02 0. -1.
        2   -1    0    0  501    0  0.00000000000E+00  0.00000000000E+00 -0.21967226075E+04  0.21967226075E+04  0.25500000920E-02 0.  1.
    10030    2    1    2    0    0  0.00000000000E+00  0.00000000000E+00 -0.18501246613E+04  0.25433205536E+04  0.17451413055E+04 0.  0.
        3    1    3    3  502    0 -0.19870570683E+03 -0.17993384083E+02  0.31290813370E+03  0.37110541647E+03  0.10100000352E+00 0. -1.
       -3    1    3    3    0  502  0.19870570683E+03  0.17993384083E+02 -0.21630327950E+04  0.21722151372E+04  0.10100000352E+00 0.  1.
</event>
<event>
 5   0  0.1253925E-04  0.1968358E+04  0.7818609E-02  0.8621559E-01
        1   -1    0    0  501    0  0.00000000000E+00  0.00000000000E+00  0.64195194969E+03  0.64195194971E+03  0.50400001928E-02 0.  1.
       -1   -1    0    0    0  501  0.00000000000E+00  0.00000000000E+00 -0.15088481342E+04  0.15088481342E+04  0.50400001928E-02 0. -1.
    10030    2    1    2    0    0  0.00000000000E+00  0.00000000000E+00 -0.86689618453E+03  0.21508000839E+04  0.19683576927E+04 0.  0.
        2    1    3    3  502    0  0.39920968169E+03  0.78176509951E+03  0.52869054486E+02  0.87938625057E+03  0.25500000920E-02 0.  1.
       -2    1    3    3    0  502 -0.39920968169E+03 -0.78176509951E+03 -0.91976523902E+03  0.12714138334E+04  0.25500000920E-02 0. -1.
</event>
<event>
 5   0  0.2393421E-04  0.1727074E+04  0.7818609E-02  0.8746072E-01
       -2   -1    0    0    0  501  0.00000000000E+00  0.00000000000E+00  0.49949569446E+03  0.49949569446E+03  0.25500000920E-02 0.  1.
        2   -1    0    0  501    0  0.00000000000E+00  0.00000000000E+00 -0.14928982519E+04  0.14928982519E+04  0.25500000920E-02 0. -1.
    10030    2    1    2    0    0  0.00000000000E+00  0.00000000000E+00 -0.99340255740E+03  0.19923939463E+04  0.17270741143E+04 0.  0.
        5    1    3    3  502    0 -0.34343278971E+03 -0.60927996864E+03  0.87567932025E+02  0.70488182978E+03  0.46999998093E+01 0.  1.
       -5    1    3    3    0  502  0.34343278971E+03  0.60927996864E+03 -0.10809704894E+04  0.12875121165E+04  0.46999998093E+01 0. -1.
</event>
<event>
 5   0  0.2417106E-04  0.1821697E+04  0.7818609E-02  0.8694846E-01
       -2   -1    0    0    0  501  0.00000000000E+00  0.00000000000E+00  0.57121291832E+03  0.57121291832E+03  0.25500000920E-02 0.  1.
        2   -1    0    0  501    0  0.00000000000E+00  0.00000000000E+00 -0.14524269752E+04  0.14524269752E+04  0.25500000920E-02 0. -1.
    10030    2    1    2    0    0  0.00000000000E+00  0.00000000000E+00 -0.88121405685E+03  0.20236398935E+04  0.18216970672E+04 0.  0.
        4    1    3    3  502    0  0.11048558222E+03  0.77219938220E+03 -0.96299736347E+03  0.12392999979E+04  0.12699999809E+01 0. -1.
       -4    1    3    3    0  502 -0.11048558222E+03 -0.77219938220E+03  0.81783306618E+02  0.78433989564E+03  0.12699999809E+01 0.  1.
</event>
<event>
 5   0  0.1239119E-04  0.1780604E+04  0.7818609E-02  0.8716683E-01
        1   -1    0    0  501    0  0.00000000000E+00  0.00000000000E+00  0.13314247825E+04  0.13314247825E+04  0.50400001928E-02 0.  1.
       -1   -1    0    0    0  501  0.00000000000E+00  0.00000000000E+00 -0.59533041724E+03  0.59533041726E+03  0.50400001928E-02 0. -1.
    10030    2    1    2    0    0  0.00000000000E+00  0.00000000000E+00  0.73609436523E+03  0.19267551997E+04  0.17806040226E+04 0.  0.
        5    1    3    3  502    0  0.11876801571E+03  0.48968438143E+03 -0.42617189405E+03  0.65995545929E+03  0.46999998093E+01 0. -1.
       -5    1    3    3    0  502 -0.11876801571E+03 -0.48968438143E+03  0.11622662593E+04  0.12667997405E+04  0.46999998093E+01 0.  1.
</event>
<event>
 5   0  0.1330225E-04  0.1768946E+04  0.7818609E-02  0.8722990E-01
       -1   -1    0    0    0  501  0.00000000000E+00  0.00000000000E+00  0.41335446205E+03  0.41335446208E+03  0.50400001928E-02 0.  1.
        1   -1    0    0  501    0  0.00000000000E+00  0.00000000000E+00 -0.18925466168E+04  0.18925466168E+04  0.50400001928E-02 0. -1.
    10030    2    1    2    0    0  0.00000000000E+00  0.00000000000E+00 -0.14791921548E+04  0.23059010789E+04  0.17689461142E+04 0.  0.
        3    1    3    3  502    0 -0.15158452418E+03  0.84269521482E+03 -0.10286760863E+04  0.13383899259E+04  0.10100000352E+00 0. -1.
       -3    1    3    3    0  502  0.15158452418E+03 -0.84269521482E+03 -0.45051606850E+03  0.96751115302E+03  0.10100000352E+00 0.  1.
</event>
<event>
 5   0  0.1308893E-04  0.1797381E+04  0.7818609E-02  0.8707693E-01
        1   -1    0    0  501    0  0.00000000000E+00  0.00000000000E+00  0.13858507477E+04  0.13858507477E+04  0.50400001928E-02 0. -1.
       -1   -1    0    0    0  501  0.00000000000E+00  0.00000000000E+00 -0.58277889348E+03  0.58277889350E+03  0.50400001928E-02 0.  1.
    10030    2    1    2    0    0  0.00000000000E+00  0.00000000000E+00  0.80307185419E+03  0.19686296412E+04  0.17973809449E+04 0.  0.
        4    1    3    3  502    0  0.96850067816E+01 -0.89583408662E+03  0.47921910285E+03  0.10160044643E+04  0.12699999809E+01 0. -1.
       -4    1    3    3    0  502 -0.96850067816E+01  0.89583408662E+03  0.32385275133E+03  0.95262517684E+03  0.12699999809E+01 0.  1.
</event>
<event>
 5   0  0.1239119E-04  0.1806773E+04  0.7818609E-02  0.8702706E-01
       -1   -1    0    0    0  501  0.00000000000E+00  0.00000000000E+00  0.63611689826E+03  0.63611689828E+03  0.50400001928E-02 0. -1.
        1   -1    0    0  501    0  0.00000000000E+00  0.00000000000E+00 -0.12829508608E+04  0.12829508609E+04  0.50400001928E-02 0.  1.
    10030    2    1    2    0    0  0.00000000000E+00  0.00000000000E+00 -0.64683396259E+03  0.19190677591E+04  0.18067725062E+04 0.  0.
        5    1    3    3  502    0  0.53336848270E+03 -0.86319478771E+02 -0.10923974532E+04  0.12187236259E+04  0.46999998093E+01 0.  1.
       -5    1    3    3    0  502 -0.53336848270E+03  0.86319478771E+02  0.44556349058E+03  0.70034413319E+03  0.46999998093E+01 0. -1.
</event>
<event>
 5   0  0.2569405E-04  0.1740175E+04  0.7818609E-02  0.8738777E-01
       -2   -1    0    0    0  501  0.00000000000E+00  0.00000000000E+00  0.14020652125E+04  0.14020652125E+04  0.25500000920E-02 0. -1.
        2   -1    0    0  501    0  0.00000000000E+00  0.00000000000E+00 -0.53995490329E+03  0.53995490330E+03  0.25500000920E-02 0.  1.
    10030    2    1    2    0    0  0.00000000000E+00  0.00000000000E+00  0.86211030925E+03  0.19420201158E+04  0.17401746881E+04 0.  0.
        2    1    3    3  502    0  0.71301755587E+03  0.49160942848E+03  0.33783064064E+03  0.92962541214E+03  0.25500000920E-02 0.  1.
       -2    1    3    3    0  502 -0.71301755587E+03 -0.49160942848E+03  0.52427966861E+03  0.10123947037E+04  0.25500000920E-02 0. -1.
</event>
<event>
 5   0  0.1253925E-04  0.1807358E+04  0.7818609E-02  0.8702397E-01
        1   -1    0    0  501    0  0.00000000000E+00  0.00000000000E+00  0.98222430408E+03  0.98222430409E+03  0.50400001928E-02 0. -1.
       -1   -1    0    0    0  501  0.00000000000E+00  0.00000000000E+00 -0.83141430818E+03  0.83141430820E+03  0.50400001928E-02 0.  1.
    10030    2    1    2    0    0  0.00000000000E+00  0.00000000000E+00  0.15080999590E+03  0.18136386123E+04  0.18073575632E+04 0.  0.
        2    1    3    3  502    0  0.10024632880E+03  0.29244083776E+03 -0.77670113425E+03  0.83596388796E+03  0.25500000920E-02 0.  1.
       -2    1    3    3    0  502 -0.10024632880E+03 -0.29244083776E+03  0.92751113014E+03  0.97767472432E+03  0.25500000920E-02 0. -1.
</event>
<event>
 5   0  0.2393421E-04  0.1808856E+04  0.7818609E-02  0.8701604E-01
       -2   -1    0    0    0  501  0.00000000000E+00  0.00000000000E+00  0.10319927020E+04  0.10319927020E+04  0.25500000920E-02 0.  1.
        2   -1    0    0  501    0  0.00000000000E+00  0.00000000000E+00 -0.79263196529E+03  0.79263196530E+03  0.25500000920E-02 0. -1.
    10030    2    1    2    0    0  0.00000000000E+00  0.00000000000E+00  0.23936073672E+03  0.18246246673E+04  0.18088564383E+04 0.  0.
        5    1    3    3  502    0  0.35562493287E+03 -0.27965140350E+03  0.90963820300E+03  0.10159418048E+04  0.46999998093E+01 0.  1.
       -5    1    3    3    0  502 -0.35562493287E+03  0.27965140350E+03 -0.67027746628E+03  0.80868286253E+03  0.46999998093E+01 0. -1.
</event>
<event>
 5   0  0.1214723E-04  0.1795770E+04  0.7818609E-02  0.8708552E-01
        1   -1    0    0  501    0  0.00000000000E+00  0.00000000000E+00  0.70491857854E+03  0.70491857856E+03  0.50400001928E-02 0.  1.
       -1   -1    0    0    0  501  0.00000000000E+00  0.00000000000E+00 -0.11436751242E+04  0.11436751242E+04  0.50400001928E-02 0. -1.
    10030    2    1    2    0    0  0.00000000000E+00  0.00000000000E+00 -0.43875654569E+03  0.18485937028E+04  0.17957704117E+04 0.  0.
        1    1    3    3  502    0 -0.48576029838E+03 -0.71021075295E+03 -0.48351001800E+03  0.98698749669E+03  0.50400001928E-02 0. -1.
       -1    1    3    3    0  502  0.48576029838E+03  0.71021075295E+03  0.44753472311E+02  0.86160620611E+03  0.50400001928E-02 0.  1.
</event>
<event>
 5   0  0.2431811E-04  0.1790589E+04  0.7818609E-02  0.8711320E-01
       -2   -1    0    0    0  501  0.00000000000E+00  0.00000000000E+00  0.95047793732E+03  0.95047793733E+03  0.25500000920E-02 0.  1.
        2   -1    0    0  501    0  0.00000000000E+00  0.00000000000E+00 -0.84331530119E+03  0.84331530119E+03  0.25500000920E-02 0. -1.
    10030    2    1    2    0    0  0.00000000000E+00  0.00000000000E+00  0.10716263613E+03  0.17937932385E+04  0.17905893868E+04 0.  0.
        3    1    3    3  502    0 -0.82742323282E+03 -0.32487839780E+03 -0.53274421909E+02  0.89051297228E+03  0.10100000352E+00 0.  1.
       -3    1    3    3    0  502  0.82742323282E+03  0.32487839780E+03  0.16043705804E+03  0.90328026623E+03  0.10100000352E+00 0. -1.
</event>
<event>
 5   0  0.2393421E-04  0.1804067E+04  0.7818609E-02  0.8704140E-01
        2   -1    0    0  501    0  0.00000000000E+00  0.00000000000E+00  0.96913052493E+03  0.96913052493E+03  0.25500000920E-02 0. -1.
       -2   -1    0    0    0  501  0.00000000000E+00  0.00000000000E+00 -0.83958188333E+03  0.83958188333E+03  0.25500000920E-02 0.  1.
    10030    2    1    2    0    0  0.00000000000E+00  0.00000000000E+00  0.12954864160E+03  0.18087124083E+04  0.18040669958E+04 0.  0.
        5    1    3    3  502    0 -0.29839050536E+03  0.33062171321E+03 -0.72165274955E+03  0.84802853246E+03  0.46999998093E+01 0.  1.
       -5    1    3    3    0  502  0.29839050536E+03 -0.33062171321E+03  0.85120139115E+03  0.96068387581E+03  0.46999998093E+01 0. -1.
</event>
<event>
 5   0  0.2393421E-04  0.1778061E+04  0.7818609E-02  0.8718054E-01
        2   -1    0    0  501    0  0.00000000000E+00  0.00000000000E+00  0.10482439374E+04  0.10482439374E+04  0.25500000920E-02 0.  1.
       -2   -1    0    0    0  501  0.00000000000E+00  0.00000000000E+00 -0.75399908794E+03  0.75399908794E+03  0.25500000920E-02 0. -1.
    10030    2    1    2    0    0  0.00000000000E+00  0.00000000000E+00  0.29424484951E+03  0.18022430254E+04  0.17780607107E+04 0.  0.
        5    1    3    3  502    0 -0.95496595468E+02  0.47239193206E+03  0.90432950278E+03  0.10247476162E+04  0.46999998093E+01 0.  1.
       -5    1    3    3    0  502  0.95496595468E+02 -0.47239193206E+03 -0.61008465327E+03  0.77749540923E+03  0.46999998093E+01 0. -1.
</event>
<event>
 5   0  0.2431811E-04  0.1766669E+04  0.7818609E-02  0.8724228E-01
       -2   -1    0    0    0  501  0.00000000000E+00  0.00000000000E+00  0.53021769603E+03  0.53021769604E+03  0.25500000920E-02 0. -1.
        2   -1    0    0  501    0  0.00000000000E+00  0.00000000000E+00 -0.14716210845E+04  0.14716210845E+04  0.25500000920E-02 0.  1.
    10030    2    1    2    0    0  0.00000000000E+00  0.00000000000E+00 -0.94140338851E+03  0.20018387806E+04  0.17666686626E+04 0.  0.
        3    1    3    3  502    0 -0.37956281300E+03 -0.33470485904E+01 -0.13744988315E+04  0.14259474674E+04  0.10100000352E+00 0.  1.
       -3    1    3    3    0  502  0.37956281300E+03  0.33470485904E+01  0.43309544296E+03  0.57589131323E+03  0.10100000352E+00 0. -1.
</event>
<event>
 5   0  0.1214723E-04  0.1699811E+04  0.7818609E-02  0.8761472E-01
       -1   -1    0    0    0  501  0.00000000000E+00  0.00000000000E+00  0.48369127068E+03  0.48369127071E+03  0.50400001928E-02 0.  1.
        1   -1    0    0  501    0  0.00000000000E+00  0.00000000000E+00 -0.14933896631E+04  0.14933896631E+04  0.50400001928E-02 0. -1.
    10030    2    1    2    0    0  0.00000000000E+00  0.00000000000E+00 -0.10096983924E+04  0.19770809338E+04  0.16998112175E+04 0.  0.
        1    1    3    3  502    0  0.61816628542E+03 -0.15330762414E+03 -0.11594136595E+04  0.13228275844E+04  0.50400001928E-02 0. -1.
       -1    1    3    3    0  502 -0.61816628542E+03  0.15330762414E+03  0.14971526710E+03  0.65425334946E+03  0.50400001928E-02 0.  1.
</event>
<event>
 5   0  0.1253925E-04  0.1785529E+04  0.7818609E-02  0.8714033E-01
        1   -1    0    0  501    0  0.00000000000E+00  0.00000000000E+00  0.17926799184E+04  0.17926799184E+04  0.50400001928E-02 0. -1.
       -1   -1    0    0    0  501  0.00000000000E+00  0.00000000000E+00 -0.44460153173E+03  0.44460153176E+03  0.50400001928E-02 0.  1.
    10030    2    1    2    0    0  0.00000000000E+00  0.00000000000E+00  0.13480783866E+04  0.22372814501E+04  0.17855287594E+04 0.  0.
        2    1    3    3  502    0  0.39819972232E+03 -0.16821311955E+03 -0.30472718589E+03  0.52888309698E+03  0.25500000920E-02 0.  1.
       -2    1    3    3    0  502 -0.39819972232E+03  0.16821311955E+03  0.16528055725E+04  0.17083983531E+04  0.25500000920E-02 0. -1.
</event>
<event>
 5   0  0.1239119E-04  0.1795313E+04  0.7818609E-02  0.8708796E-01
        1   -1    0    0  501    0  0.00000000000E+00  0.00000000000E+00  0.13173477038E+04  0.13173477039E+04  0.50400001928E-02 0.  1.
       -1   -1    0    0    0  501  0.00000000000E+00  0.00000000000E+00 -0.61167371803E+03  0.61167371805E+03  0.50400001928E-02 0. -1.
    10030    2    1    2    0    0  0.00000000000E+00  0.00000000000E+00  0.70567398582E+03  0.19290214219E+04  0.17953127504E+04 0.  0.
        5    1    3    3  502    0  0.16759380098E+02 -0.65367673729E+02 -0.60893118928E+03  0.61267698902E+03  0.46999998093E+01 0. -1.
       -5    1    3    3    0  502 -0.16759380098E+02  0.65367673729E+02  0.13146051751E+04  0.13163444329E+04  0.46999998093E+01 0.  1.
</event>
<event>
 5   0  0.2569405E-04  0.1858190E+04  0.7818609E-02  0.8675953E-01
        2   -1    0    0  501    0  0.00000000000E+00  0.00000000000E+00  0.10684492867E+04  0.10684492867E+04  0.25500000920E-02 0.  1.
       -2   -1    0    0    0  501  0.00000000000E+00  0.00000000000E+00 -0.80791582099E+03  0.80791582099E+03  0.25500000920E-02 0. -1.
    10030    2    1    2    0    0  0.00000000000E+00  0.00000000000E+00  0.26053346569E+03  0.18763651077E+04  0.18581895303E+04 0.  0.
        2    1    3    3  502    0 -0.62062265171E+03  0.67128477713E+03  0.29748040854E+03  0.96140018790E+03  0.25500000920E-02 0.  1.
       -2    1    3    3    0  502  0.62062265171E+03 -0.67128477713E+03 -0.36946942856E+02  0.91496491977E+03  0.25500000920E-02 0. -1.
</event>
<event>
 5   0  0.1330225E-04  0.1802878E+04  0.7818609E-02  0.8704770E-01
       -1   -1    0    0    0  501  0.00000000000E+00  0.00000000000E+00  0.66242865874E+03  0.66242865876E+03  0.50400001928E-02 0. -1.
        1   -1    0    0  501    0  0.00000000000E+00  0.00000000000E+00 -0.12266866679E+04  0.12266866679E+04  0.50400001928E-02 0.  1.
    10030    2    1    2    0    0  0.00000000000E+00  0.00000000000E+00 -0.56425800918E+03  0.18891153267E+04  0.18028781480E+04 0.  0.
        3    1    3    3  502    0 -0.20001375171E+03 -0.27208633696E+03 -0.11579042895E+04  0.12061421266E+04  0.10100000352E+00 0.  1.
       -3    1    3    3    0  502  0.20001375171E+03  0.27208633696E+03  0.59364628036E+03  0.68297320008E+03  0.10100000352E+00 0. -1.
</event>
<event>
 5   0  0.1308893E-04  0.1790415E+04  0.7818609E-02  0.8711413E-01
       -1   -1    0    0    0  501  0.00000000000E+00  0.00000000000E+00  0.73185330977E+03  0.73185330979E+03  0.50400001928E-02 0. -1.
        1   -1    0    0  501    0  0.00000000000E+00  0.00000000000E+00 -0.10950233052E+04  0.10950233052E+04  0.50400001928E-02 0.  1.
    10030    2    1    2    0    0  0.00000000000E+00  0.00000000000E+00 -0.36316999546E+03  0.18268766150E+04  0.17904149578E+04 0.  0.
        4    1    3    3  502    0 -0.64083954327E+01 -0.85963727305E+03  0.73256137779E+02  0.86277771376E+03  0.12699999809E+01 0. -1.
       -4    1    3    3    0  502  0.64083954327E+01  0.85963727305E+03 -0.43642613324E+03  0.96409890127E+03  0.12699999809E+01 0.  1.
</event>
<event>
 5   0  0.2417106E-04  0.1804436E+04  0.7818609E-02  0.8703944E-01
       -2   -1    0    0    0  501  0.00000000000E+00  0.00000000000E+00  0.69173274626E+03  0.69173274626E+03  0.25500000920E-02 0.  1.
        2   -1    0    0  501    0  0.00000000000E+00  0.00000000000E+00 -0.11767507257E+04  0.11767507257E+04  0.25500000920E-02 0. -1.
    10030    2    1    2    0    0  0.00000000000E+00  0.00000000000E+00 -0.48501797944E+03  0.18684834720E+04  0.18044356582E+04 0.  0.
        4    1    3    3  502    0 -0.93066270907E+02 -0.70355234209E+03  0.33435370426E+03  0.78450063180E+03  0.12699999809E+01 0.  1.
       -4    1    3    3    0  502  0.93066270907E+02  0.70355234209E+03 -0.81937168370E+03  0.10839828402E+04  0.12699999809E+01 0. -1.
</event>
<event>
 5   0  0.1308893E-04  0.1804208E+04  0.7818609E-02  0.8704065E-01
       -1   -1    0    0    0  501  0.00000000000E+00  0.00000000000E+00  0.82343075085E+03  0.82343075087E+03  0.50400001928E-02 0.  1.
        1   -1    0    0  501    0  0.00000000000E+00  0.00000000000E+00 -0.98829444837E+03  0.98829444839E+03  0.50400001928E-02 0. -1.
    10030    2    1    2    0    0  0.00000000000E+00  0.00000000000E+00 -0.16486369752E+03  0.18117251993E+04  0.18042084577E+04 0.  0.
        4    1    3    3  502    0 -0.18062536290E+03  0.52732905277E+03 -0.79467455531E+03  0.97067539032E+03  0.12699999809E+01 0. -1.
       -4    1    3    3    0  502  0.18062536290E+03 -0.52732905277E+03  0.62981085779E+03  0.84104980893E+03  0.12699999809E+01 0.  1.
</event>
<event>
 5   0  0.1308893E-04  0.1893616E+04  0.7818609E-02  0.8658041E-01
        1   -1    0    0  501    0  0.00000000000E+00  0.00000000000E+00  0.12408206824E+04  0.12408206825E+04  0.50400001928E-02 0. -1.
       -1   -1    0    0    0  501  0.00000000000E+00  0.00000000000E+00 -0.72246163069E+03  0.72246163071E+03  0.50400001928E-02 0.  1.
    10030    2    1    2    0    0  0.00000000000E+00  0.00000000000E+00  0.51835905176E+03  0.19632823132E+04  0.18936159417E+04 0.  0.
        4    1    3    3  502    0 -0.71982901200E+03 -0.41420877366E+02  0.89541246339E+03  0.11496236724E+04  0.12699999809E+01 0. -1.
       -4    1    3    3    0  502  0.71982901200E+03  0.41420877366E+02 -0.37705341164E+03  0.81365864079E+03  0.12699999809E+01 0.  1.
</event>
<event>
 5   0  0.1214723E-04  0.1797036E+04  0.7818609E-02  0.8707877E-01
       -1   -1    0    0    0  501  0.00000000000E+00  0.00000000000E+00  0.73078948130E+03  0.73078948131E+03  0.50400001928E-02 0. -1.
        1   -1    0    0  501    0  0.00000000000E+00  0.00000000000E+00 -0.11047433300E+04  0.11047433300E+04  0.50400001928E-02 0.  1.
    10030    2    1    2    0    0  0.00000000000E+00  0.00000000000E+00 -0.37395384870E+03  0.18355328113E+04  0.17970362324E+04 0.  0.
        1    1    3    3  502    0  0.69270265397E+03 -0.30498286947E+03  0.30763122299E+03  0.81699968596E+03  0.50400001928E-02 0. -1.
       -1    1    3    3    0  502 -0.69270265397E+03  0.30498286947E+03 -0.68158507169E+03  0.10185331254E+04  0.50400001928E-02 0.  1.
</event>
<event>
 5   0  0.2550616E-04  0.1803824E+04  0.7818609E-02  0.8704269E-01
        2   -1    0    0  501    0  0.00000000000E+00  0.00000000000E+00  0.54689281009E+03  0.54689281010E+03  0.25500000920E-02 0.  1.
       -2   -1    0    0    0  501  0.00000000000E+00  0.00000000000E+00 -0.14873940828E+04  0.14873940828E+04  0.25500000920E-02 0. -1.
    10030    2    1    2    0    0  0.00000000000E+00  0.00000000000E+00 -0.94050127272E+03  0.20342868929E+04  0.18038238602E+04 0.  0.
        1    1    3    3  502    0 -0.24392993795E+03  0.35674789470E+03  0.42251815505E+03  0.60439429711E+03  0.50400001928E-02 0.  1.
       -1    1    3    3    0  502  0.24392993795E+03 -0.35674789470E+03 -0.13630194278E+04  0.14298925958E+04  0.50400001928E-02 0. -1.
</event>
<event>
 5   0  0.1330225E-04  0.1798074E+04  0.7818609E-02  0.8707324E-01
       -1   -1    0    0    0  501  0.00000000000E+00  0.00000000000E+00  0.89246408188E+03  0.89246408189E+03  0.50400001928E-02 0.  1.
        1   -1    0    0  501    0  0.00000000000E+00  0.00000000000E+00 -0.90565823997E+03  0.90565823998E+03  0.50400001928E-02 0. -1.
    10030    2    1    2    0    0  0.00000000000E+00  0.00000000000E+00 -0.13194158090E+02  0.17981223219E+04  0.17980739136E+04 0.  0.
        3    1    3    3  502    0 -0.51337454704E+03 -0.40252567053E+03  0.61203666105E+03  0.89452178602E+03  0.10100000352E+00 0.  1.
       -3    1    3    3    0  502  0.51337454704E+03  0.40252567053E+03 -0.62523081914E+03  0.90360053585E+03  0.10100000352E+00 0. -1.
</event>
<event>
 5   0  0.2569405E-04  0.1806432E+04  0.7818609E-02  0.8702886E-01
        2   -1    0    0  501    0  0.00000000000E+00  0.00000000000E+00  0.18665010804E+04  0.18665010804E+04  0.25500000920E-02 0.  1.
       -2   -1    0    0    0  501  0.00000000000E+00  0.00000000000E+00 -0.43707426600E+03  0.43707426600E+03  0.25500000920E-02 0. -1.
    10030    2    1    2    0    0  0.00000000000E+00  0.00000000000E+00  0.14294268144E+04  0.23035753464E+04  0.18064324949E+04 0.  0.
        2    1    3    3  502    0  0.82717561595E+03  0.26743922321E+03  0.10272207017E+04  0.13457063601E+04  0.25500000920E-02 0.  1.
       -2    1    3    3    0  502 -0.82717561595E+03 -0.26743922321E+03  0.40220611272E+03  0.95786898626E+03  0.25500000920E-02 0. -1.
</event>
<event>
 5   0  0.2431811E-04  0.1790599E+04  0.7818609E-02  0.8711315E-01
       -2   -1    0    0    0  501  0.00000000000E+00  0.00000000000E+00  0.98551395256E+03  0.98551395256E+03  0.25500000920E-02 0. -1.
        2   -1    0    0  501    0  0.00000000000E+00  0.00000000000E+00 -0.81334310272E+03  0.81334310272E+03  0.25500000920E-02 0.  1.
    10030    2    1    2    0    0  0.00000000000E+00  0.00000000000E+00  0.17217084984E+03  0.17988570553E+04  0.17905987557E+04 0.  0.
        3    1    3    3  502    0  0.58276346320E+02  0.62410069138E+03  0.72830142314E+03  0.96089582093E+03  0.10100000352E+00 0. -1.
       -3    1    3    3    0  502 -0.58276346320E+02 -0.62410069138E+03 -0.55613057330E+03  0.83796123436E+03  0.10100000352E+00 0.  1.
</event>
<event>
 5   0  0.9144875E-05  0.1790115E+04  0.7818609E-02  0.8711574E-01
       -3   -1    0    0    0  501  0.00000000000E+00  0.00000000000E+00  0.10480020456E+04  0.10480020505E+04  0.10100000352E+00 0. -1.
        3   -1    0    0  501    0  0.00000000000E+00  0.00000000000E+00 -0.76443373506E+03  0.76443374174E+03  0.10100000352E+00 0.  1.
    10030    2    1    2    0    0  0.00000000000E+00  0.00000000000E+00  0.28356831052E+03  0.18124357922E+04  0.17901152237E+04 0.  0.
        1    1    3    3  502    0 -0.10021797059E+03  0.48538587470E+03 -0.61281762869E+03  0.78815514656E+03  0.50400001928E-02 0.  1.
       -1    1    3    3    0  502  0.10021797059E+03 -0.48538587470E+03  0.89638593921E+03  0.10242806456E+04  0.50400001928E-02 0. -1.
</event>
<event>
 5   0  0.1239119E-04  0.1818123E+04  0.7818609E-02  0.8696721E-01
        1   -1    0    0  501    0  0.00000000000E+00  0.00000000000E+00  0.14418744822E+04  0.14418744822E+04  0.50400001928E-02 0. -1.
       -1   -1    0    0    0  501  0.00000000000E+00  0.00000000000E+00 -0.57313784008E+03  0.57313784010E+03  0.50400001928E-02 0.  1.
    10030    2    1    2    0    0  0.00000000000E+00  0.00000000000E+00  0.86873664209E+03  0.20150123223E+04  0.18181230172E+04 0.  0.
        5    1    3    3  502    0 -0.54532430523E+03  0.31019816642E+03  0.11634608227E+04  0.13218413960E+04  0.46999998093E+01 0. -1.
       -5    1    3    3    0  502  0.54532430523E+03 -0.31019816642E+03 -0.29472418062E+03  0.69317092623E+03  0.46999998093E+01 0.  1.
</event>
<event>
 5   0  0.2417106E-04  0.1759191E+04  0.7818609E-02  0.8728307E-01
        2   -1    0    0  501    0  0.00000000000E+00  0.00000000000E+00  0.14218765380E+04  0.14218765380E+04  0.25500000920E-02 0. -1.
       -2   -1    0    0    0  501  0.00000000000E+00  0.00000000000E+00 -0.54413205451E+03  0.54413205452E+03  0.25500000920E-02 0.  1.
    10030    2    1    2    0    0  0.00000000000E+00  0.00000000000E+00  0.87774448352E+03  0.19660085926E+04  0.17591914073E+04 0.  0.
        4    1    3    3  502    0  0.29482767548E+03  0.57981216376E+03 -0.22283639779E+03  0.68757776037E+03  0.12699999809E+01 0.  1.
       -4    1    3    3    0  502 -0.29482767548E+03 -0.57981216376E+03  0.11005808813E+04  0.12784308322E+04  0.12699999809E+01 0. -1.
</event>
<event>
 5   0  0.2417106E-04  0.1761173E+04  0.7818609E-02  0.8727224E-01
        2   -1    0    0  501    0  0.00000000000E+00  0.00000000000E+00  0.89504143244E+03  0.89504143244E+03  0.25500000920E-02 0.  1.
       -2   -1    0    0    0  501  0.00000000000E+00  0.00000000000E+00 -0.86636485006E+03  0.86636485006E+03  0.25500000920E-02 0. -1.
    10030    2    1    2    0    0  0.00000000000E+00  0.00000000000E+00  0.28676582379E+02  0.17614062825E+04  0.17611728324E+04 0.  0.
        4    1    3    3  502    0 -0.75200155838E+03  0.41929422482E+03 -0.17039361719E+03  0.87769561264E+03  0.12699999809E+01 0.  1.
       -4    1    3    3    0  502  0.75200155838E+03 -0.41929422482E+03  0.19907019957E+03  0.88371066986E+03  0.12699999809E+01 0. -1.
</event>
<event>
 5   0  0.2569405E-04  0.1797377E+04  0.7818609E-02  0.8707695E-01
       -2   -1    0    0    0  501  0.00000000000E+00  0.00000000000E+00  0.52922885266E+03  0.52922885266E+03  0.25500000920E-02 0.  1.
        2   -1    0    0  501    0  0.00000000000E+00  0.00000000000E+00 -0.15260717576E+04  0.15260717576E+04  0.25500000920E-02 0. -1.
    10030    2    1    2    0    0  0.00000000000E+00  0.00000000000E+00 -0.99684290493E+03  0.20553006103E+04  0.17973772062E+04 0.  0.
        2    1    3    3  502    0 -0.81878901230E+03  0.13730684484E+03 -0.89184621801E+03  0.12184655485E+04  0.25500000920E-02 0. -1.
       -2    1    3    3    0  502  0.81878901230E+03 -0.13730684484E+03 -0.10499668692E+03  0.83683506175E+03  0.25500000920E-02 0.  1.
</event>
<event>
 5   0  0.1239119E-04  0.1807156E+04  0.7818609E-02  0.8702503E-01
        1   -1    0    0  501    0  0.00000000000E+00  0.00000000000E+00  0.86240137733E+03  0.86240137734E+03  0.50400001928E-02 0.  1.
       -1   -1    0    0    0  501  0.00000000000E+00  0.00000000000E+00 -0.94672074191E+03  0.94672074192E+03  0.50400001928E-02 0. -1.
    10030    2    1    2    0    0  0.00000000000E+00  0.00000000000E+00 -0.84319364581E+02  0.18091221193E+04  0.18071560772E+04 0.  0.
        5    1    3    3  502    0 -0.41129314149E+03  0.52717688779E+03  0.56624623034E+03  0.87620454383E+03  0.46999998093E+01 0.  1.
       -5    1    3    3    0  502  0.41129314149E+03 -0.52717688779E+03 -0.65056559492E+03  0.93291757544E+03  0.46999998093E+01 0. -1.
</event>
<event>
 5   0  0.2431811E-04  0.1776537E+04  0.7818609E-02  0.8718877E-01
       -2   -1    0    0    0  501  0.00000000000E+00  0.00000000000E+00  0.36271406831E+03  0.36271406832E+03  0.25500000920E-02 0.  1.
        2   -1    0    0  501    0  0.00000000000E+00  0.00000000000E+00 -0.21753260255E+04  0.21753260255E+04  0.25500000920E-02 0. -1.
    10030    2    1    2    0    0  0.00000000000E+00  0.00000000000E+00 -0.18126119572E+04  0.25380400938E+04  0.17765374779E+04 0.  0.
        3    1    3    3  502    0 -0.40189508340E+03 -0.67167496354E+03 -0.15062590604E+04  0.16974932348E+04  0.10100000352E+00 0. -1.
       -3    1    3    3    0  502  0.40189508340E+03  0.67167496354E+03 -0.30635289675E+03  0.84054685905E+03  0.10100000352E+00 0.  1.
</event>
<event>
 5   0  0.9144875E-05  0.1847719E+04  0.7818609E-02  0.8681326E-01
       -3   -1    0    0    0  501  0.00000000000E+00  0.00000000000E+00  0.12968139283E+04  0.12968139322E+04  0.10100000352E+00 0. -1.
        3   -1    0    0  501    0  0.00000000000E+00  0.00000000000E+00 -0.65816442675E+03  0.65816443450E+03  0.10100000352E+00 0.  1.
    10030    2    1    2    0    0  0.00000000000E+00  0.00000000000E+00  0.63864950152E+03  0.19549783667E+04  0.18477194669E+04 0.  0.
        2    1    3    3  502    0 -0.80817349061E+03  0.43980091454E+03  0.40751538020E+03  0.10062991705E+04  0.25500000920E-02 0. -1.
       -2    1    3    3    0  502  0.80817349061E+03 -0.43980091454E+03  0.23113412132E+03  0.94867919625E+03  0.25500000920E-02 0.  1.
</event>
<event>
 5   0  0.1330225E-04  0.1805577E+04  0.7818609E-02  0.8703339E-01
       -1   -1    0    0    0  501  0.00000000000E+00  0.00000000000E+00  0.53682188058E+03  0.53682188061E+03  0.50400001928E-02 0. -1.
        1   -1    0    0  501    0  0.00000000000E+00  0.00000000000E+00 -0.15182452729E+04  0.15182452729E+04  0.50400001928E-02 0.  1.
    10030    2    1    2    0    0  0.00000000000E+00  0.00000000000E+00 -0.98142339232E+03  0.20550671535E+04  0.18055772292E+04 0.  0.
        3    1    3    3  502    0 -0.34129346613E+03 -0.61949538497E+03  0.14785704860E+03  0.72257697101E+03  0.10100000352E+00 0. -1.
       -3    1    3    3    0  502  0.34129346613E+03  0.61949538497E+03 -0.11292804409E+04  0.13324901825E+04  0.10100000352E+00 0.  1.
</event>
<event>
 5   0  0.9144875E-05  0.1807157E+04  0.7818609E-02  0.8702503E-01
        3   -1    0    0  501    0  0.00000000000E+00  0.00000000000E+00  0.60429666043E+03  0.60429666887E+03  0.10100000352E+00 0. -1.
       -3   -1    0    0    0  501  0.00000000000E+00  0.00000000000E+00 -0.13510816710E+04  0.13510816748E+04  0.10100000352E+00 0.  1.
    10030    2    1    2    0    0  0.00000000000E+00  0.00000000000E+00 -0.74678501060E+03  0.19553783437E+04  0.18071570532E+04 0.  0.
        2    1    3    3  502    0  0.33009659045E+03 -0.70341005729E+03 -0.87241880304E+03  0.11682739557E+04  0.25500000920E-02 0.  1.
       -2    1    3    3    0  502 -0.33009659045E+03  0.70341005729E+03  0.12563379244E+03  0.78710438795E+03  0.25500000920E-02 0. -1.
</event>
<event>
 5   0  0.2417106E-04  0.1775866E+04  0.7818609E-02  0.8719240E-01
       -2   -1    0    0    0  501  0.00000000000E+00  0.00000000000E+00  0.56996299666E+03  0.56996299667E+03  0.25500000920E-02 0. -1.
        2   -1    0    0  501    0  0.00000000000E+00  0.00000000000E+00 -0.13832921683E+04  0.13832921683E+04  0.25500000920E-02 0.  1.
    10030    2    1    2    0    0  0.00000000000E+00  0.00000000000E+00 -0.81332917166E+03  0.19532551650E+04  0.17758663796E+04 0.  0.
        4    1    3    3  502    0 -0.24968172501E+03 -0.75061345003E+02  0.52691250744E+03  0.58788908199E+03  0.12699999809E+01 0. -1.
       -4    1    3    3    0  502  0.24968172501E+03  0.75061345003E+02 -0.13402416791E+04  0.13653660830E+04  0.12699999809E+01 0.  1.
</event>
<event>
 5   0  0.1308893E-04  0.1806808E+04  0.7818609E-02  0.8702688E-01
       -1   -1    0    0    0  501  0.00000000000E+00  0.00000000000E+00  0.60890224527E+03  0.60890224529E+03  0.50400001928E-02 0. -1.
        1   -1    0    0  501    0  0.00000000000E+00  0.00000000000E+00 -0.13403440957E+04  0.13403440957E+04  0.50400001928E-02 0.  1.
    10030    2    1    2    0    0  0.00000000000E+00  0.00000000000E+00 -0.73144185047E+03  0.19492463410E+04  0.18068077146E+04 0.  0.
        4    1    3    3  502    0  0.68267513263E+03  0.29325719252E+03  0.18869059856E+03  0.76658389793E+03  0.12699999809E+01 0. -1.
       -4    1    3    3    0  502 -0.68267513263E+03 -0.29325719252E+03 -0.92013244903E+03  0.11826624431E+04  0.12699999809E+01 0.  1.
</event>
<event>
 5   0  0.1330225E-04  0.1794426E+04  0.7818609E-02  0.8709270E-01
        1   -1    0    0  501    0  0.00000000000E+00  0.00000000000E+00  0.94134799457E+03  0.94134799458E+03  0.50400001928E-02 0.  1.
       -1   -1    0    0    0  501  0.00000000000E+00  0.00000000000E+00 -0.85514684212E+03  0.85514684213E+03  0.50400001928E-02 0. -1.
    10030    2    1    2    0    0  0.00000000000E+00  0.00000000000E+00  0.86201152454E+02  0.17964948367E+04  0.17944255514E+04 0.  0.
        3    1    3    3  502    0  0.85833014397E+03 -0.24668792625E+03 -0.43052046977E+02  0.89411355988E+03  0.10100000352E+00 0. -1.
       -3    1    3    3    0  502 -0.85833014397E+03  0.24668792625E+03  0.12925319943E+03  0.90238127683E+03  0.10100000352E+00 0.  1.
</event>
<event>
 5   0  0.2569405E-04  0.1802516E+04  0.7818609E-02  0.8704963E-01
       -2   -1    0    0    0  501  0.00000000000E+00  0.00000000000E+00  0.69876491214E+03  0.69876491215E+03  0.25500000920E-02 0.  1.
        2   -1    0    0  501    0  0.00000000000E+00  0.00000000000E+00 -0.11624312870E+04  0.11624312870E+04  0.25500000920E-02 0. -1.
    10030    2    1    2    0    0  0.00000000000E+00  0.00000000000E+00 -0.46366637481E+03  0.18611961991E+04  0.18025162369E+04 0.  0.
        2    1    3    3  502    0  0.68130274771E+02  0.84921206159E+03 -0.53545220162E+03  0.10062365130E+04  0.25500000920E-02 0. -1.
       -2    1    3    3    0  502 -0.68130274771E+02 -0.84921206159E+03  0.71785826818E+02  0.85495968609E+03  0.25500000920E-02 0.  1.
</event>
<event>
 5   0  0.1330225E-04  0.1795102E+04  0.7818609E-02  0.8708909E-01
       -1   -1    0    0    0  501  0.00000000000E+00  0.00000000000E+00  0.67821824103E+03  0.67821824105E+03  0.50400001928E-02 0.  1.
        1   -1    0    0  501    0  0.00000000000E+00  0.00000000000E+00 -0.11878149165E+04  0.11878149165E+04  0.50400001928E-02 0. -1.
    10030    2    1    2    0    0  0.00000000000E+00  0.00000000000E+00 -0.50959667547E+03  0.18660331576E+04  0.17951019396E+04 0.  0.
        3    1    3    3  502    0 -0.23665247583E+03  0.76954677193E+03 -0.66719992872E+03  0.10456397007E+04  0.10100000352E+00 0. -1.
       -3    1    3    3    0  502  0.23665247583E+03 -0.76954677193E+03  0.15760325325E+03  0.82039345691E+03  0.10100000352E+00 0.  1.
</event>
<event>
 5   0  0.2417106E-04  0.1788485E+04  0.7818609E-02  0.8712447E-01
       -2   -1    0    0    0  501  0.00000000000E+00  0.00000000000E+00  0.70528586622E+03  0.70528586622E+03  0.25500000920E-02 0. -1.
        2   -1    0    0  501    0  0.00000000000E+00  0.00000000000E+00 -0.11338228449E+04  0.11338228449E+04  0.25500000920E-02 0.  1.
    10030    2    1    2    0    0  0.00000000000E+00  0.00000000000E+00 -0.42853697870E+03  0.18391087111E+04  0.17884845287E+04 0.  0.
        4    1    3    3  502    0  0.43933353710E+02  0.32266273249E+03  0.64214789967E+03  0.71999785865E+03  0.12699999809E+01 0. -1.
       -4    1    3    3    0  502 -0.43933353710E+02 -0.32266273249E+03 -0.10706848784E+04  0.11191108525E+04  0.12699999809E+01 0.  1.
</event>
<event>
 5   0  0.2550616E-04  0.1742242E+04  0.7818609E-02  0.8737632E-01
       -2   -1    0    0    0  501  0.00000000000E+00  0.00000000000E+00  0.65831080808E+03  0.65831080808E+03  0.25500000920E-02 0.  1.
        2   -1    0    0  501    0  0.00000000000E+00  0.00000000000E+00 -0.11527254121E+04  0.11527254121E+04  0.25500000920E-02 0. -1.
    10030    2    1    2    0    0  0.00000000000E+00  0.00000000000E+00 -0.49441460398E+03  0.18110362201E+04  0.17422417714E+04 0.  0.
        1    1    3    3  502    0  0.24678488792E+03  0.29401544021E+03  0.56565741300E+03  0.68360527272E+03  0.50400001928E-02 0.  1.
       -1    1    3    3    0  502 -0.24678488792E+03 -0.29401544021E+03 -0.10600720170E+04  0.11274309474E+04  0.50400001928E-02 0. -1.
</event>
<event>
 5   0  0.2550616E-04  0.1799411E+04  0.7818609E-02  0.8706613E-01
        2   -1    0    0  501    0  0.00000000000E+00  0.00000000000E+00  0.21216970616E+04  0.21216970616E+04  0.25500000920E-02 0.  1.
       -2   -1    0    0    0  501  0.00000000000E+00  0.00000000000E+00 -0.38152008389E+03  0.38152008390E+03  0.25500000920E-02 0. -1.
    10030    2    1    2    0    0  0.00000000000E+00  0.00000000000E+00  0.17401769777E+04  0.25032171455E+04  0.17994110603E+04 0.  0.
        1    1    3    3  502    0 -0.57102193221E+03  0.61713953395E+03  0.13155607875E+04  0.15612903116E+04  0.50400001928E-02 0.  1.
       -1    1    3    3    0  502  0.57102193221E+03 -0.61713953395E+03  0.42461619019E+03  0.94192683390E+03  0.50400001928E-02 0. -1.
</event>
<event>
 5   0  0.2431811E-04  0.1795398E+04  0.7818609E-02  0.8708750E-01
        2   -1    0    0  501    0  0.00000000000E+00  0.00000000000E+00  0.10367768128E+04  0.10367768128E+04  0.25500000920E-02 0. -1.
       -2   -1    0    0    0  501  0.00000000000E+00  0.00000000000E+00 -0.77727807404E+03  0.77727807404E+03  0.25500000920E-02 0.  1.
    10030    2    1    2    0    0  0.00000000000E+00  0.00000000000E+00  0.25949873879E+03  0.18140548869E+04  0.17953984341E+04 0.  0.
        3    1    3    3  502    0  0.35472440025E+03  0.72248945037E+03  0.53142719427E+03  0.96448705489E+03  0.10100000352E+00 0. -1.
       -3    1    3    3    0  502 -0.35472440025E+03 -0.72248945037E+03 -0.27192845549E+03  0.84956783198E+03  0.10100000352E+00 0.  1.
</event>
<event>
 5   0  0.2393421E-04  0.1800405E+04  0.7818609E-02  0.8706084E-01
        2   -1    0    0  501    0  0.00000000000E+00  0.00000000000E+00  0.70185491630E+03  0.70185491630E+03  0.25500000920E-02 0.  1.
       -2   -1    0    0    0  501  0.00000000000E+00  0.00000000000E+00 -0.11546035927E+04  0.11546035927E+04  0.25500000920E-02 0. -1.
    10030    2    1    2    0    0  0.00000000000E+00  0.00000000000E+00 -0.45274867635E+03  0.18564585090E+04  0.18004046299E+04 0.  0.
        5    1    3    3  502    0 -0.35366747650E+02  0.11231038589E+03 -0.11466160899E+04  0.11526556195E+04  0.46999998093E+01 0. -1.
       -5    1    3    3    0  502  0.35366747650E+02 -0.11231038589E+03  0.69386741353E+03  0.70380288944E+03  0.46999998093E+01 0.  1.
</event>
<event>
 5   0  0.1330225E-04  0.1780836E+04  0.7818609E-02  0.8716557E-01
       -1   -1    0    0    0  501  0.00000000000E+00  0.00000000000E+00  0.45131245223E+03  0.45131245226E+03  0.50400001928E-02 0. -1.
        1   -1    0    0  501    0  0.00000000000E+00  0.00000000000E+00 -0.17567532910E+04  0.17567532910E+04  0.50400001928E-02 0.  1.
    10030    2    1    2    0    0  0.00000000000E+00  0.00000000000E+00 -0.13054408388E+04  0.22080657433E+04  0.17808364729E+04 0.  0.
        3    1    3    3  502    0 -0.72098662907E+03  0.50861276110E+03 -0.80117767642E+03  0.11918029785E+04  0.10100000352E+00 0.  1.
       -3    1    3    3    0  502  0.72098662907E+03 -0.50861276110E+03 -0.50426316236E+03  0.10162627648E+04  0.10100000352E+00 0. -1.
</event>
<event>
 5   0  0.1308893E-04  0.1521167E+04  0.7818609E-02  0.8870498E-01
        1   -1    0    0  501    0  0.00000000000E+00  0.00000000000E+00  0.11224902473E+04  0.11224902473E+04  0.50400001928E-02 0. -1.
       -1   -1    0    0    0  501  0.00000000000E+00  0.00000000000E+00 -0.51536074327E+03  0.51536074329E+03  0.50400001928E-02 0.  1.
    10030    2    1    2    0    0  0.00000000000E+00  0.00000000000E+00  0.60712950405E+03  0.16378509906E+04  0.15211671942E+04 0.  0.
        4    1    3    3  502    0 -0.67768710701E+03 -0.32310110563E+03  0.17243771238E+03  0.77031845169E+03  0.12699999809E+01 0.  1.
       -4    1    3    3    0  502  0.67768710701E+03  0.32310110563E+03  0.43469179167E+03  0.86753253893E+03  0.12699999809E+01 0. -1.
</event>
<event>
 5   0  0.2417106E-04  0.1797213E+04  0.7818609E-02  0.8707783E-01
        2   -1    0    0  501    0  0.00000000000E+00  0.00000000000E+00  0.17655193341E+04  0.17655193341E+04  0.25500000920E-02 0. -1.
       -2   -1    0    0    0  501  0.00000000000E+00  0.00000000000E+00 -0.45736871254E+03  0.45736871255E+03  0.25500000920E-02 0.  1.
    10030    2    1    2    0    0  0.00000000000E+00  0.00000000000E+00  0.13081506215E+04  0.22228880466E+04  0.17972126249E+04 0.  0.
        4    1    3    3  502    0  0.33818782806E+01 -0.49110317774E+03  0.15848415333E+04  0.16591919921E+04  0.12699999809E+01 0. -1.
       -4    1    3    3    0  502 -0.33818782806E+01  0.49110317774E+03 -0.27669091175E+03  0.56369605448E+03  0.12699999809E+01 0.  1.
</event>
<event>
 5   0  0.1330225E-04  0.1807849E+04  0.7818609E-02  0.8702136E-01
       -1   -1    0    0    0  501  0.00000000000E+00  0.00000000000E+00  0.50326998745E+03  0.50326998747E+03  0.50400001928E-02 0. -1.
        1   -1    0    0  501    0  0.00000000000E+00  0.00000000000E+00 -0.16235416849E+04  0.16235416849E+04  0.50400001928E-02 0.  1.
    10030    2    1    2    0    0  0.00000000000E+00  0.00000000000E+00 -0.11202716974E+04  0.21268116723E+04  0.18078493338E+04 0.  0.
        3    1    3    3  502    0  0.81913891497E+03 -0.29012716795E+02 -0.10084930142E+04  0.12995724180E+04  0.10100000352E+00 0.  1.
       -3    1    3    3    0  502 -0.81913891497E+03  0.29012716795E+02 -0.11177868326E+03  0.82723925438E+03  0.10100000352E+00 0. -1.
</event>
<event>
 5   0  0.1253925E-04  0.1806385E+04  0.7818609E-02  0.8702911E-01
       -1   -1    0    0    0  501  0.00000000000E+00  0.00000000000E+00  0.69979781297E+03  0.69979781299E+03  0.50400001928E-02 0. -1.
        1   -1    0    0  501    0  0.00000000000E+00  0.00000000000E+00 -0.11657038540E+04  0.11657038540E+04  0.50400001928E-02 0.  1.
    10030    2    1    2    0    0  0.00000000000E+00  0.00000000000E+00 -0.46590604105E+03  0.18655016670E+04  0.18063853494E+04 0.  0.
        2    1    3    3  502    0 -0.65822254833E+02 -0.15071650147E+03 -0.11501099053E+04  0.11618092904E+04  0.25500000920E-02 0.  1.
       -2    1    3    3    0  502  0.65822254833E+02  0.15071650147E+03  0.68420386424E+03  0.70369237661E+03  0.25500000920E-02 0. -1.
</event>
<event>
 5   0  0.1330225E-04  0.1801102E+04  0.7818609E-02  0.8705714E-01
       -1   -1    0    0    0  501  0.00000000000E+00  0.00000000000E+00  0.71774443097E+03  0.71774443099E+03  0.50400001928E-02 0.  1.
        1   -1    0    0  501    0  0.00000000000E+00  0.00000000000E+00 -0.11299178213E+04  0.11299178213E+04  0.50400001928E-02 0. -1.
    10030    2    1    2    0    0  0.00000000000E+00  0.00000000000E+00 -0.41217339032E+03  0.18476622523E+04  0.18011021334E+04 0.  0.
        3    1    3    3  502    0  0.36112952141E+03 -0.81163800158E+03 -0.54547172280E+02  0.89002594403E+03  0.10100000352E+00 0.  1.
       -3    1    3    3    0  502 -0.36112952141E+03  0.81163800158E+03 -0.35762621804E+03  0.95763630825E+03  0.10100000352E+00 0. -1.
</event>
<event>
 5   0  0.1330225E-04  0.1761437E+04  0.7818609E-02  0.8727080E-01
        1   -1    0    0  501    0  0.00000000000E+00  0.00000000000E+00  0.47813760078E+03  0.47813760081E+03  0.50400001928E-02 0.  1.
       -1   -1    0    0    0  501  0.00000000000E+00  0.00000000000E+00 -0.16222626914E+04  0.16222626914E+04  0.50400001928E-02 0. -1.
    10030    2    1    2    0    0  0.00000000000E+00  0.00000000000E+00 -0.11441250906E+04  0.21004002922E+04  0.17614366763E+04 0.  0.
        3    1    3    3  502    0 -0.43173036649E+03 -0.53771821965E+03  0.81206013154E+02  0.69435323854E+03  0.10100000352E+00 0.  1.
       -3    1    3    3    0  502  0.43173036649E+03  0.53771821965E+03 -0.12253311038E+04  0.14060470537E+04  0.10100000352E+00 0. -1.
</event>
<event>
 5   0  0.1239119E-04  0.1804529E+04  0.7818609E-02  0.8703895E-01
       -1   -1    0    0    0  501  0.00000000000E+00  0.00000000000E+00  0.84785245567E+03  0.84785245569E+03  0.50400001928E-02 0.  1.
        1   -1    0    0  501    0  0.00000000000E+00  0.00000000000E+00 -0.96016878841E+03  0.96016878842E+03  0.50400001928E-02 0. -1.
    10030    2    1    2    0    0  0.00000000000E+00  0.00000000000E+00 -0.11231633274E+03  0.18080212441E+04  0.18045292629E+04 0.  0.
        5    1    3    3  502    0 -0.34779028938E+03  0.45244771109E+03 -0.75636126784E+03  0.94750803382E+03  0.46999998093E+01 0. -1.
       -5    1    3    3    0  502  0.34779028938E+03 -0.45244771109E+03  0.64404493510E+03  0.86051321029E+03  0.46999998093E+01 0.  1.
</event>
<event>
 5   0  0.1253925E-04  0.1762855E+04  0.7818609E-02  0.8726306E-01
        1   -1    0    0  501    0  0.00000000000E+00  0.00000000000E+00  0.11257490077E+04  0.11257490077E+04  0.50400001928E-02 0.  1.
       -1   -1    0    0    0  501  0.00000000000E+00  0.00000000000E+00 -0.69013080664E+03  0.69013080666E+03  0.50400001928E-02 0. -1.
    10030    2    1    2    0    0  0.00000000000E+00  0.00000000000E+00  0.43561820102E+03  0.18158798143E+04  0.17628545836E+04 0.  0.
        2    1    3    3  502    0  0.75806002134E+02  0.81688196072E+03  0.54979418259E+03  0.98758105031E+03  0.25500000920E-02 0.  1.
       -2    1    3    3    0  502 -0.75806002134E+02 -0.81688196072E+03 -0.11417598157E+03  0.82829876403E+03  0.25500000920E-02 0. -1.
</event>
<event>
 5   0  0.9144875E-05  0.1786711E+04  0.7818609E-02  0.8713399E-01
       -3   -1    0    0    0  501  0.00000000000E+00  0.00000000000E+00  0.22769919776E+04  0.22769919798E+04  0.10100000352E+00 0.  1.
        3   -1    0    0  501    0  0.00000000000E+00  0.00000000000E+00 -0.35049913275E+03  0.35049914731E+03  0.10100000352E+00 0. -1.
    10030    2    1    2    0    0  0.00000000000E+00  0.00000000000E+00  0.19264928448E+04  0.26274911271E+04  0.17867106486E+04 0.  0.
        3    1    3    3  502    0  0.47300938610E+03 -0.95500612016E+02  0.20688460854E+04  0.21243781164E+04  0.10100000352E+00 0.  1.
       -3    1    3    3    0  502 -0.47300938610E+03  0.95500612016E+02 -0.14235324058E+03  0.50311301071E+03  0.10100000352E+00 0. -1.
</event>
<event>
 5   0  0.9144875E-05  0.1797157E+04  0.7818609E-02  0.8707813E-01
       -4   -1    0    0    0  501  0.00000000000E+00  0.00000000000E+00  0.60380913635E+03  0.60381047196E+03  0.12699999809E+01 0.  1.
        4   -1    0    0  501    0  0.00000000000E+00  0.00000000000E+00 -0.13372455204E+04  0.13372461235E+04  0.12699999809E+01 0. -1.
    10030    2    1    2    0    0  0.00000000000E+00  0.00000000000E+00 -0.73343638403E+03  0.19410565954E+04  0.17971565811E+04 0.  0.
        5    1    3    3  502    0 -0.91296073215E+02  0.89119426507E+03 -0.29143280650E+03  0.94208139871E+03  0.46999998093E+01 0. -1.
       -5    1    3    3    0  502  0.91296073215E+02 -0.89119426507E+03 -0.44200357753E+03  0.99897519670E+03  0.46999998093E+01 0.  1.
</event>
<event>
 5   0  0.2393421E-04  0.1719239E+04  0.7818609E-02  0.8750467E-01
       -2   -1    0    0    0  501  0.00000000000E+00  0.00000000000E+00  0.75835060901E+03  0.75835060901E+03  0.25500000920E-02 0. -1.
        2   -1    0    0  501    0  0.00000000000E+00  0.00000000000E+00 -0.97441205339E+03  0.97441205339E+03  0.25500000920E-02 0.  1.
    10030    2    1    2    0    0  0.00000000000E+00  0.00000000000E+00 -0.21606144438E+03  0.17327626624E+04  0.17192393366E+04 0.  0.
        5    1    3    3  502    0  0.24622747571E+03  0.38986614435E+03 -0.83920272274E+03  0.95755254695E+03  0.46999998093E+01 0.  1.
       -5    1    3    3    0  502 -0.24622747571E+03 -0.38986614435E+03  0.62314127836E+03  0.77521011545E+03  0.46999998093E+01 0. -1.
</event>
<event>
 5   0  0.1214723E-04  0.1797170E+04  0.7818609E-02  0.8707806E-01
       -1   -1    0    0    0  501  0.00000000000E+00  0.00000000000E+00  0.10329822364E+04  0.10329822364E+04  0.50400001928E-02 0. -1.
        1   -1    0    0  501    0  0.00000000000E+00  0.00000000000E+00 -0.78167406219E+03  0.78167406220E+03  0.50400001928E-02 0.  1.
    10030    2    1    2    0    0  0.00000000000E+00  0.00000000000E+00  0.25130817417E+03  0.18146562986E+04  0.17971704659E+04 0.  0.
        1    1    3    3  502    0 -0.85155289414E+02  0.88325178731E+03  0.26870208997E+03  0.92713858526E+03  0.50400001928E-02 0. -1.
       -1    1    3    3    0  502  0.85155289414E+02 -0.88325178731E+03 -0.17393915800E+02  0.88751771331E+03  0.50400001928E-02 0.  1.
</event>
<event>
 5   0  0.2393421E-04  0.1759684E+04  0.7818609E-02  0.8728038E-01
        2   -1    0    0  501    0  0.00000000000E+00  0.00000000000E+00  0.14193819642E+04  0.14193819642E+04  0.25500000920E-02 0. -1.
       -2   -1    0    0    0  501  0.00000000000E+00  0.00000000000E+00 -0.54539366182E+03  0.54539366183E+03  0.25500000920E-02 0.  1.
    10030    2    1    2    0    0  0.00000000000E+00  0.00000000000E+00  0.87398830236E+03  0.19647756260E+04  0.17596839796E+04 0.  0.
        5    1    3    3  502    0 -0.47834159978E+03  0.27984799523E+03  0.11999945212E+04  0.13217921650E+04  0.46999998093E+01 0. -1.
       -5    1    3    3    0  502  0.47834159978E+03 -0.27984799523E+03 -0.32600621880E+03  0.64298346107E+03  0.46999998093E+01 0.  1.
</event>
<event>
 5   0  0.1330225E-04  0.1803604E+04  0.7818609E-02  0.8704385E-01
        1   -1    0    0  501    0  0.00000000000E+00  0.00000000000E+00  0.23480369478E+04  0.23480369478E+04  0.50400001928E-02 0. -1.
       -1   -1    0    0    0  501  0.00000000000E+00  0.00000000000E+00 -0.34635194440E+03  0.34635194444E+03  0.50400001928E-02 0.  1.
    10030    2    1    2    0    0  0.00000000000E+00  0.00000000000E+00  0.20016850034E+04  0.26943888922E+04  0.18036043496E+04 0.  0.
        3    1    3    3  502    0 -0.10689157179E+03 -0.26721651480E+03 -0.27590302853E+03  0.39868905836E+03  0.10100000352E+00 0.  1.
       -3    1    3    3    0  502  0.10689157179E+03  0.26721651480E+03  0.22775880319E+04  0.22956998339E+04  0.10100000352E+00 0. -1.
</event>
<event>
 5   0  0.2417106E-04  0.1812502E+04  0.7818609E-02  0.8699679E-01
       -2   -1    0    0    0  501  0.00000000000E+00  0.00000000000E+00  0.43087450475E+03  0.43087450476E+03  0.25500000920E-02 0. -1.
        2   -1    0    0  501    0  0.00000000000E+00  0.00000000000E+00 -0.19061015220E+04  0.19061015220E+04  0.25500000920E-02 0.  1.
    10030    2    1    2    0    0  0.00000000000E+00  0.00000000000E+00 -0.14752270172E+04  0.23369760267E+04  0.18125016406E+04 0.  0.
        4    1    3    3  502    0  0.37014589405E+02 -0.23744556921E+03 -0.18642694397E+04  0.18796948249E+04  0.12699999809E+01 0.  1.
       -4    1    3    3    0  502 -0.37014589405E+02  0.23744556921E+03  0.38904242246E+03  0.45728120182E+03  0.12699999809E+01 0. -1.
</event>
<event>
 5   0  0.1308893E-04  0.1802735E+04  0.7818609E-02  0.8704846E-01
        1   -1    0    0  501    0  0.00000000000E+00  0.00000000000E+00  0.76949773668E+03  0.76949773670E+03  0.50400001928E-02 0.  1.
       -1   -1    0    0    0  501  0.00000000000E+00  0.00000000000E+00 -0.10558358995E+04  0.10558358995E+04  0.50400001928E-02 0. -1.
    10030    2    1    2    0    0  0.00000000000E+00  0.00000000000E+00 -0.28633816280E+03  0.18253336362E+04  0.18027349611E+04 0.  0.
        4    1    3    3  502    0 -0.32313244907E+03 -0.64269128160E+03 -0.69311216753E+03  0.99893581013E+03  0.12699999809E+01 0. -1.
       -4    1    3    3    0  502  0.32313244907E+03  0.64269128160E+03  0.40677400473E+03  0.82639782606E+03  0.12699999809E+01 0.  1.
</event>
<event>
 5   0  0.2417106E-04  0.1801426E+04  0.7818609E-02  0.8705542E-01
       -2   -1    0    0    0  501  0.00000000000E+00  0.00000000000E+00  0.12772708913E+04  0.12772708913E+04  0.25500000920E-02 0.  1.
        2   -1    0    0  501    0  0.00000000000E+00  0.00000000000E+00 -0.63516980328E+03  0.63516980329E+03  0.25500000920E-02 0. -1.
    10030    2    1    2    0    0  0.00000000000E+00  0.00000000000E+00  0.64210108802E+03  0.19124406946E+04  0.18014259916E+04 0.  0.
        4    1    3    3  502    0  0.29221977144E+03  0.22601823771E+03 -0.55103865295E+03  0.66341679851E+03  0.12699999809E+01 0. -1.
       -4    1    3    3    0  502 -0.29221977144E+03 -0.22601823771E+03  0.11931397410E+04  0.12490238961E+04  0.12699999809E+01 0.  1.
</event>
<event>
 5   0  0.2569405E-04  0.1743684E+04  0.7818609E-02  0.8736835E-01
        2   -1    0    0  501    0  0.00000000000E+00  0.00000000000E+00  0.96242890772E+03  0.96242890772E+03  0.25500000920E-02 0. -1.
       -2   -1    0    0    0  501  0.00000000000E+00  0.00000000000E+00 -0.78978127716E+03  0.78978127717E+03  0.25500000920E-02 0.  1.
    10030    2    1    2    0    0  0.00000000000E+00  0.00000000000E+00  0.17264763056E+03  0.17522101849E+04  0.17436838382E+04 0.  0.
        2    1    3    3  502    0 -0.61852865124E+03  0.43471534140E+03 -0.35002663160E+03  0.83311089495E+03  0.25500000920E-02 0.  1.
       -2    1    3    3    0  502  0.61852865124E+03 -0.43471534140E+03  0.52267426215E+03  0.91909928994E+03  0.25500000920E-02 0. -1.
</event>
<event>
 5   0  0.1214723E-04  0.1802250E+04  0.7818609E-02  0.8705104E-01
       -1   -1    0    0    0  501  0.00000000000E+00  0.00000000000E+00  0.67260633897E+03  0.67260633899E+03  0.50400001928E-02 0.  1.
        1   -1    0    0  501    0  0.00000000000E+00  0.00000000000E+00 -0.12072827250E+04  0.12072827250E+04  0.50400001928E-02 0. -1.
    10030    2    1    2    0    0  0.00000000000E+00  0.00000000000E+00 -0.53467638602E+03  0.18798890640E+04  0.18022497205E+04 0.  0.
        1    1    3    3  502    0 -0.53223223882E+03  0.63690037316E+03 -0.63332784834E+03  0.10440389863E+04  0.50400001928E-02 0. -1.
       -1    1    3    3    0  502  0.53223223882E+03 -0.63690037316E+03  0.98651462318E+02  0.83585007772E+03  0.50400001928E-02 0.  1.
</event>
<event>
 5   0  0.9144875E-05  0.1805752E+04  0.7818609E-02  0.8703246E-01
       -3   -1    0    0    0  501  0.00000000000E+00  0.00000000000E+00  0.12410826666E+04  0.12410826707E+04  0.10100000352E+00 0. -1.
        3   -1    0    0  501    0  0.00000000000E+00  0.00000000000E+00 -0.65683398390E+03  0.65683399166E+03  0.10100000352E+00 0.  1.
    10030    2    1    2    0    0  0.00000000000E+00  0.00000000000E+00  0.58424868273E+03  0.18979166624E+04  0.18057522350E+04 0.  0.
        4    1    3    3  502    0 -0.64405362918E+03  0.14084772863E+03  0.94048913708E+03  0.11485489061E+04  0.12699999809E+01 0. -1.
       -4    1    3    3    0  502  0.64405362918E+03 -0.14084772863E+03 -0.35624045435E+03  0.74936775627E+03  0.12699999809E+01 0.  1.
</event>
<event>
 5   0  0.1214723E-04  0.1813164E+04  0.7818609E-02  0.8699330E-01
       -1   -1    0    0    0  501  0.00000000000E+00  0.00000000000E+00  0.51414081566E+03  0.51414081568E+03  0.50400001928E-02 0.  1.
        1   -1    0    0  501    0  0.00000000000E+00  0.00000000000E+00 -0.15985716207E+04  0.15985716207E+04  0.50400001928E-02 0. -1.
    10030    2    1    2    0    0  0.00000000000E+00  0.00000000000E+00 -0.10844308051E+04  0.21127124364E+04  0.18131639937E+04 0.  0.
        1    1    3    3  502    0 -0.56964018531E+03 -0.70413956770E+03 -0.58865510792E+03  0.10801931807E+04  0.50400001928E-02 0. -1.
       -1    1    3    3    0  502  0.56964018531E+03  0.70413956770E+03 -0.49577569715E+03  0.10325192557E+04  0.50400001928E-02 0.  1.
</event>
<event>
 5   0  0.2393421E-04  0.1807928E+04  0.7818609E-02  0.8702095E-01
       -2   -1    0    0    0  501  0.00000000000E+00  0.00000000000E+00  0.65805977047E+03  0.65805977048E+03  0.25500000920E-02 0. -1.
        2   -1    0    0  501    0  0.00000000000E+00  0.00000000000E+00 -0.12417573639E+04  0.12417573640E+04  0.25500000920E-02 0.  1.
    10030    2    1    2    0    0  0.00000000000E+00  0.00000000000E+00 -0.58369759348E+03  0.18998171344E+04  0.18079276157E+04 0.  0.
        5    1    3    3  502    0 -0.30898785347E+02  0.46543479614E+03  0.52180819672E+03  0.69992154457E+03  0.46999998093E+01 0. -1.
       -5    1    3    3    0  502  0.30898785347E+02 -0.46543479614E+03 -0.11055057902E+04  0.11998955899E+04  0.46999998093E+01 0.  1.
</event>
<event>
 5   0  0.2431811E-04  0.1806596E+04  0.7818609E-02  0.8702800E-01
        2   -1    0    0  501    0  0.00000000000E+00  0.00000000000E+00  0.17458539052E+04  0.17458539052E+04  0.25500000920E-02 0. -1.
       -2   -1    0    0    0  501  0.00000000000E+00  0.00000000000E+00 -0.46736262113E+03  0.46736262114E+03  0.25500000920E-02 0.  1.
    10030    2    1    2    0    0  0.00000000000E+00  0.00000000000E+00  0.12784912840E+04  0.22132165263E+04  0.18065955355E+04 0.  0.
        3    1    3    3  502    0 -0.65021863962E+03 -0.50741417767E+03  0.18796950812E+03  0.84592314851E+03  0.10100000352E+00 0.  1.
       -3    1    3    3    0  502  0.65021863962E+03  0.50741417767E+03  0.10905217759E+04  0.13672933778E+04  0.10100000352E+00 0. -1.
</event>
<event>
 5   0  0.2393421E-04  0.1814404E+04  0.7818609E-02  0.8698677E-01
        2   -1    0    0  501    0  0.00000000000E+00  0.00000000000E+00  0.14149959648E+04  0.14149959648E+04  0.25500000920E-02 0. -1.
       -2   -1    0    0    0  501  0.00000000000E+00  0.00000000000E+00 -0.58163792338E+03  0.58163792338E+03  0.25500000920E-02 0.  1.
    10030    2    1    2    0    0  0.00000000000E+00  0.00000000000E+00  0.83335804141E+03  0.19966338882E+04  0.18144038300E+04 0.  0.
        5    1    3    3  502    0 -0.24650111888E+03  0.43862355306E+03 -0.41401459766E+03  0.65160079802E+03  0.46999998093E+01 0.  1.
       -5    1    3    3    0  502  0.24650111888E+03 -0.43862355306E+03  0.12473726391E+04  0.13450330901E+04  0.46999998093E+01 0. -1.
</event>
<event>
 5   0  0.1253925E-04  0.1798839E+04  0.7818609E-02  0.8706917E-01
        1   -1    0    0  501    0  0.00000000000E+00  0.00000000000E+00  0.68380263638E+03  0.68380263639E+03  0.50400001928E-02 0.  1.
       -1   -1    0    0    0  501  0.00000000000E+00  0.00000000000E+00 -0.11830241276E+04  0.11830241277E+04  0.50400001928E-02 0. -1.
    10030    2    1    2    0    0  0.00000000000E+00  0.00000000000E+00 -0.49922149127E+03  0.18668267640E+04  0.17988385335E+04 0.  0.
        2    1    3    3  502    0 -0.11025576940E+03  0.75565812997E+03  0.24351089759E+03  0.80154419799E+03  0.25500000920E-02 0.  1.
       -2    1    3    3    0  502  0.11025576940E+03 -0.75565812997E+03 -0.74273238886E+03  0.10652825661E+04  0.25500000920E-02 0. -1.
</event>
<event>
 5   0  0.2417106E-04  0.1845281E+04  0.7818609E-02  0.8682584E-01
        2   -1    0    0  501    0  0.00000000000E+00  0.00000000000E+00  0.91032693505E+03  0.91032693505E+03  0.25500000920E-02 0. -1.
       -2   -1    0    0    0  501  0.00000000000E+00  0.00000000000E+00 -0.93512018112E+03  0.93512018112E+03  0.25500000920E-02 0.  1.
    10030    2    1    2    0    0  0.00000000000E+00  0.00000000000E+00 -0.24793246068E+02  0.18454471162E+04  0.18452805623E+04 0.  0.
        4    1    3    3  502    0 -0.48809269895E+03  0.36009990267E+03  0.68290497468E+03  0.91338230769E+03  0.12699999809E+01 0. -1.
       -4    1    3    3    0  502  0.48809269895E+03 -0.36009990267E+03 -0.70769822074E+03  0.93206480848E+03  0.12699999809E+01 0.  1.
</event>
<event>
 5   0  0.1214723E-04  0.1811290E+04  0.7818609E-02  0.8700319E-01
        1   -1    0    0  501    0  0.00000000000E+00  0.00000000000E+00  0.17819911924E+04  0.17819911924E+04  0.50400001928E-02 0.  1.
       -1   -1    0    0    0  501  0.00000000000E+00  0.00000000000E+00 -0.46026762181E+03  0.46026762184E+03  0.50400001928E-02 0. -1.
    10030    2    1    2    0    0  0.00000000000E+00  0.00000000000E+00  0.13217235706E+04  0.22422588142E+04  0.18112899804E+04 0.  0.
        1    1    3    3  502    0 -0.12108728558E+02 -0.76226712055E+03  0.12660524507E+04  0.14778655529E+04  0.50400001928E-02 0.  1.
       -1    1    3    3    0  502  0.12108728558E+02  0.76226712055E+03  0.55671119856E+02  0.76439326135E+03  0.50400001928E-02 0. -1.
</event>
<event>
 5   0  0.2431811E-04  0.1710052E+04  0.7818609E-02  0.8755652E-01
       -2   -1    0    0    0  501  0.00000000000E+00  0.00000000000E+00  0.72921192020E+03  0.72921192021E+03  0.25500000920E-02 0.  1.
        2   -1    0    0  501    0  0.00000000000E+00  0.00000000000E+00 -0.10025471845E+04  0.10025471845E+04  0.25500000920E-02 0. -1.
    10030    2    1    2    0    0  0.00000000000E+00  0.00000000000E+00 -0.27333526425E+03  0.17317591047E+04  0.17100518793E+04 0.  0.
        3    1    3    3  502    0 -0.99067947807E+01  0.40596946474E+03 -0.89865502043E+03  0.98614918081E+03  0.10100000352E+00 0. -1.
       -3    1    3    3    0  502  0.99067947807E+01 -0.40596946474E+03  0.62531975618E+03  0.74560992385E+03  0.10100000352E+00 0.  1.
</event>
<event>
 5   0  0.1214723E-04  0.1798659E+04  0.7818609E-02  0.8707013E-01
       -1   -1    0    0    0  501  0.00000000000E+00  0.00000000000E+00  0.59599707892E+03  0.59599707894E+03  0.50400001928E-02 0. -1.
        1   -1    0    0  501    0  0.00000000000E+00  0.00000000000E+00 -0.13570423863E+04  0.13570423863E+04  0.50400001928E-02 0.  1.
    10030    2    1    2    0    0  0.00000000000E+00  0.00000000000E+00 -0.76104530741E+03  0.19530394653E+04  0.17986587206E+04 0.  0.
        1    1    3    3  502    0  0.27899671733E+03  0.14492959452E+03  0.53438233021E+03  0.62000663748E+03  0.50400001928E-02 0. -1.
       -1    1    3    3    0  502 -0.27899671733E+03 -0.14492959452E+03 -0.12954276376E+04  0.13330328278E+04  0.50400001928E-02 0.  1.
</event>
<event>
 5   0  0.2393421E-04  0.1790631E+04  0.7818609E-02  0.8711298E-01
       -2   -1    0    0    0  501  0.00000000000E+00  0.00000000000E+00  0.35615697343E+03  0.35615697343E+03  0.25500000920E-02 0. -1.
        2   -1    0    0  501    0  0.00000000000E+00  0.00000000000E+00 -0.22506648420E+04  0.22506648420E+04  0.25500000920E-02 0.  1.
    10030    2    1    2    0    0  0.00000000000E+00  0.00000000000E+00 -0.18945078686E+04  0.26068218154E+04  0.17906311494E+04 0.  0.
        5    1    3    3  502    0 -0.28000492570E+03 -0.32616406635E+03  0.19607476080E+03  0.47249672847E+03  0.46999998093E+01 0. -1.
       -5    1    3    3    0  502  0.28000492570E+03  0.32616406635E+03 -0.20905826294E+04  0.21343250869E+04  0.46999998093E+01 0.  1.
</event>
<event>
 5   0  0.9144875E-05  0.1806480E+04  0.7818609E-02  0.8702861E-01
       -3   -1    0    0    0  501  0.00000000000E+00  0.00000000000E+00  0.64669786287E+03  0.64669787076E+03  0.10100000352E+00 0.  1.
        3   -1    0    0  501    0  0.00000000000E+00  0.00000000000E+00 -0.12615511048E+04  0.12615511089E+04  0.10100000352E+00 0. -1.
    10030    2    1    2    0    0  0.00000000000E+00  0.00000000000E+00 -0.61485324194E+03  0.19082489796E+04  0.18064799083E+04 0.  0.
        1    1    3    3  502    0  0.59452027666E+02 -0.16176580728E+03  0.62916823030E+03  0.65234606003E+03  0.50400001928E-02 0.  1.
       -1    1    3    3    0  502 -0.59452027666E+02  0.16176580728E+03 -0.12440214722E+04  0.12559029196E+04  0.50400001928E-02 0. -1.
</event>
<event>
 5   0  0.1308893E-04  0.1782793E+04  0.7818609E-02  0.8715504E-01
       -1   -1    0    0    0  501  0.00000000000E+00  0.00000000000E+00  0.78037836185E+03  0.78037836187E+03  0.50400001928E-02 0.  1.
        1   -1    0    0  501    0  0.00000000000E+00  0.00000000000E+00 -0.10182082404E+04  0.10182082404E+04  0.50400001928E-02 0. -1.
    10030    2    1    2    0    0  0.00000000000E+00  0.00000000000E+00 -0.23782987853E+03  0.17985866023E+04  0.17827929534E+04 0.  0.
        4    1    3    3  502    0  0.41529157125E+03  0.34057218211E+02  0.67607555723E+03  0.79417048248E+03  0.12699999809E+01 0.  1.
       -4    1    3    3    0  502 -0.41529157125E+03 -0.34057218211E+02 -0.91390543576E+03  0.10044161198E+04  0.12699999809E+01 0. -1.
</event>
<event>
 5   0  0.2569405E-04  0.1804745E+04  0.7818609E-02  0.8703780E-01
        2   -1    0    0  501    0  0.00000000000E+00  0.00000000000E+00  0.63851973369E+03  0.63851973370E+03  0.25500000920E-02 0. -1.
       -2   -1    0    0    0  501  0.00000000000E+00  0.00000000000E+00 -0.12752557829E+04  0.12752557829E+04  0.25500000920E-02 0.  1.
    10030    2    1    2    0    0  0.00000000000E+00  0.00000000000E+00 -0.63673604918E+03  0.19137755166E+04  0.18047448383E+04 0.  0.
        2    1    3    3  502    0 -0.88859623595E+02  0.14203540843E+03 -0.12586180053E+04  0.12697201949E+04  0.25500000920E-02 0.  1.
       -2    1    3    3    0  502  0.88859623595E+02 -0.14203540843E+03  0.62188195617E+03  0.64405532167E+03  0.25500000920E-02 0. -1.
</event>
<event>
 5   0  0.2431811E-04  0.1825592E+04  0.7818609E-02  0.8692807E-01
        2   -1    0    0  501    0  0.00000000000E+00  0.00000000000E+00  0.14431209781E+04  0.14431209781E+04  0.25500000920E-02 0. -1.
       -2   -1    0    0    0  501  0.00000000000E+00  0.00000000000E+00 -0.57735712143E+03  0.57735712144E+03  0.25500000920E-02 0.  1.
    10030    2    1    2    0    0  0.00000000000E+00  0.00000000000E+00  0.86576385666E+03  0.20204780995E+04  0.18255916014E+04 0.  0.
        3    1    3    3  502    0  0.39952198338E+03  0.51309278220E+03  0.11418207561E+04  0.13140154747E+04  0.10100000352E+00 0. -1.
       -3    1    3    3    0  502 -0.39952198338E+03 -0.51309278220E+03 -0.27605689949E+03  0.70646262485E+03  0.10100000352E+00 0.  1.
</event>
<event>
 5   0  0.1239119E-04  0.1794358E+04  0.7818609E-02  0.8709306E-01
       -1   -1    0    0    0  501  0.00000000000E+00  0.00000000000E+00  0.10234749773E+04  0.10234749773E+04  0.50400001928E-02 0. -1.
        1   -1    0    0  501    0  0.00000000000E+00  0.00000000000E+00 -0.78646779999E+03  0.78646780001E+03  0.50400001928E-02 0.  1.
    10030    2    1    2    0    0  0.00000000000E+00  0.00000000000E+00  0.23700717728E+03  0.18099427773E+04  0.17943579506E+04 0.  0.
        5    1    3    3  502    0 -0.36258225285E+03  0.32310951861E+03 -0.64239725295E+03  0.80533345373E+03  0.46999998093E+01 0.  1.
       -5    1    3    3    0  502  0.36258225285E+03 -0.32310951861E+03  0.87940443023E+03  0.10046093236E+04  0.46999998093E+01 0. -1.
</event>
<event>
 5   0  0.2393421E-04  0.1856691E+04  0.7818609E-02  0.8676720E-01
        2   -1    0    0  501    0  0.00000000000E+00  0.00000000000E+00  0.89334279686E+03  0.89334279687E+03  0.25500000920E-02 0.  1.
       -2   -1    0    0    0  501  0.00000000000E+00  0.00000000000E+00 -0.96471928900E+03  0.96471928900E+03  0.25500000920E-02 0. -1.
    10030    2    1    2    0    0  0.00000000000E+00  0.00000000000E+00 -0.71376492137E+02  0.18580620859E+04  0.18566906342E+04 0.  0.
        5    1    3    3  502    0  0.12804510598E+03 -0.44286201789E+03  0.77068645793E+03  0.89805457656E+03  0.46999998093E+01 0.  1.
       -5    1    3    3    0  502 -0.12804510598E+03  0.44286201789E+03 -0.84206295006E+03  0.96000750931E+03  0.46999998093E+01 0. -1.
</event>
<event>
 5   0  0.2417106E-04  0.1796272E+04  0.7818609E-02  0.8708285E-01
       -2   -1    0    0    0  501  0.00000000000E+00  0.00000000000E+00  0.69256577672E+03  0.69256577673E+03  0.25500000920E-02 0.  1.
        2   -1    0    0  501    0  0.00000000000E+00  0.00000000000E+00 -0.11647241550E+04  0.11647241550E+04  0.25500000920E-02 0. -1.
    10030    2    1    2    0    0  0.00000000000E+00  0.00000000000E+00 -0.47215837824E+03  0.18572899317E+04  0.17962717935E+04 0.  0.
        4    1    3    3  502    0  0.59034635722E+03 -0.56453892898E+03  0.15001311445E+03  0.83049296879E+03  0.12699999809E+01 0. -1.
       -4    1    3    3    0  502 -0.59034635722E+03  0.56453892898E+03 -0.62217149269E+03  0.10267969629E+04  0.12699999809E+01 0.  1.
</event>
<event>
 5   0  0.2569405E-04  0.1821216E+04  0.7818609E-02  0.8695098E-01
       -2   -1    0    0    0  501  0.00000000000E+00  0.00000000000E+00  0.70502450375E+03  0.70502450375E+03  0.25500000920E-02 0.  1.
        2   -1    0    0  501    0  0.00000000000E+00  0.00000000000E+00 -0.11761387188E+04  0.11761387188E+04  0.25500000920E-02 0. -1.
    10030    2    1    2    0    0  0.00000000000E+00  0.00000000000E+00 -0.47111421509E+03  0.18811632226E+04  0.18212156562E+04 0.  0.
        2    1    3    3  502    0 -0.44029300670E+03  0.15701681961E+03 -0.10427495264E+04  0.11427330346E+04  0.25500000920E-02 0. -1.
       -2    1    3    3    0  502  0.44029300670E+03 -0.15701681961E+03  0.57163531136E+03  0.73843018802E+03  0.25500000920E-02 0.  1.
</event>
<event>
 5   0  0.1253925E-04  0.1811827E+04  0.7818609E-02  0.8700035E-01
        1   -1    0    0  501    0  0.00000000000E+00  0.00000000000E+00  0.99832201722E+03  0.99832201724E+03  0.50400001928E-02 0.  1.
       -1   -1    0    0    0  501  0.00000000000E+00  0.00000000000E+00 -0.82205882661E+03  0.82205882662E+03  0.50400001928E-02 0. -1.
    10030    2    1    2    0    0  0.00000000000E+00  0.00000000000E+00  0.17626319062E+03  0.18203808439E+04  0.18118271729E+04 0.  0.
        2    1    3    3  502    0  0.48223219421E+03 -0.42426140746E+03  0.73000113548E+03  0.97234113808E+03  0.25500000920E-02 0.  1.
       -2    1    3    3    0  502 -0.48223219421E+03  0.42426140746E+03 -0.55373794486E+03  0.84803970578E+03  0.25500000920E-02 0. -1.
</event>
<event>
 5   0  0.2417106E-04  0.1823028E+04  0.7818609E-02  0.8694148E-01
        2   -1    0    0  501    0  0.00000000000E+00  0.00000000000E+00  0.11684988863E+04  0.11684988863E+04  0.25500000920E-02 0. -1.
       -2   -1    0    0    0  501  0.00000000000E+00  0.00000000000E+00 -0.71104727415E+03  0.71104727415E+03  0.25500000920E-02 0.  1.
    10030    2    1    2    0    0  0.00000000000E+00  0.00000000000E+00  0.45745161217E+03  0.18795461605E+04  0.18230281928E+04 0.  0.
        4    1    3    3  502    0  0.54796604173E+03 -0.72833958993E+03  0.23958779138E+03  0.94241671453E+03  0.12699999809E+01 0.  1.
       -4    1    3    3    0  502 -0.54796604173E+03  0.72833958993E+03  0.21786382080E+03  0.93712944595E+03  0.12699999809E+01 0. -1.
</event>
<event>
 5   0  0.2393421E-04  0.1750437E+04  0.7818609E-02  0.8733110E-01
       -2   -1    0    0    0  501  0.00000000000E+00  0.00000000000E+00  0.48281145094E+03  0.48281145095E+03  0.25500000920E-02 0.  1.
        2   -1    0    0  501    0  0.00000000000E+00  0.00000000000E+00 -0.15865555082E+04  0.15865555082E+04  0.25500000920E-02 0. -1.
    10030    2    1    2    0    0  0.00000000000E+00  0.00000000000E+00 -0.11037440573E+04  0.20693669592E+04  0.17504367077E+04 0.  0.
        5    1    3    3  502    0 -0.63114403205E+03 -0.12265208649E+03  0.15011887516E+03  0.66026062293E+03  0.46999998093E+01 0.  1.
       -5    1    3    3    0  502  0.63114403205E+03  0.12265208649E+03 -0.12538629324E+04  0.14091063362E+04  0.46999998093E+01 0. -1.
</event>
<event>
 5   0  0.2417106E-04  0.1793162E+04  0.7818609E-02  0.8709944E-01
        2   -1    0    0  501    0  0.00000000000E+00  0.00000000000E+00  0.12497169013E+04  0.12497169013E+04  0.25500000920E-02 0.  1.
       -2   -1    0    0    0  501  0.00000000000E+00  0.00000000000E+00 -0.64323154272E+03  0.64323154273E+03  0.25500000920E-02 0. -1.
    10030    2    1    2    0    0  0.00000000000E+00  0.00000000000E+00  0.60648535861E+03  0.18929484441E+04  0.17931618225E+04 0.  0.
        4    1    3    3  502    0  0.73814689391E+03  0.13408217920E+03 -0.21501172874E+03  0.78042970481E+03  0.12699999809E+01 0. -1.
       -4    1    3    3    0  502 -0.73814689391E+03 -0.13408217920E+03  0.82149708734E+03  0.11125187392E+04  0.12699999809E+01 0.  1.
</event>
<event>
 5   0  0.2569405E-04  0.1819025E+04  0.7818609E-02  0.8696247E-01
       -2   -1    0    0    0  501  0.00000000000E+00  0.00000000000E+00  0.10173952646E+04  0.10173952646E+04  0.25500000920E-02 0.  1.
        2   -1    0    0  501    0  0.00000000000E+00  0.00000000000E+00 -0.81306982512E+03  0.81306982512E+03  0.25500000920E-02 0. -1.
    10030    2    1    2    0    0  0.00000000000E+00  0.00000000000E+00  0.20432543945E+03  0.18304650897E+04  0.18190254422E+04 0.  0.
        2    1    3    3  502    0  0.43534923513E+03  0.42625425558E+03 -0.57735559463E+03  0.83938139697E+03  0.25500000920E-02 0. -1.
       -2    1    3    3    0  502 -0.43534923513E+03 -0.42625425558E+03  0.78168103408E+03  0.99108369272E+03  0.25500000920E-02 0.  1.
</event>
<event>
 5   0  0.2393421E-04  0.1789497E+04  0.7818609E-02  0.8711905E-01
        2   -1    0    0  501    0  0.00000000000E+00  0.00000000000E+00  0.10571811668E+04  0.10571811668E+04  0.25500000920E-02 0. -1.
       -2   -1    0    0    0  501  0.00000000000E+00  0.00000000000E+00 -0.75727284262E+03  0.75727284263E+03  0.25500000920E-02 0.  1.
    10030    2    1    2    0    0  0.00000000000E+00  0.00000000000E+00  0.29990832419E+03  0.18144540094E+04  0.17894966749E+04 0.  0.
        5    1    3    3  502    0 -0.74589087547E+03 -0.70340158669E+02  0.64590937483E+03  0.98920268222E+03  0.46999998093E+01 0. -1.
       -5    1    3    3    0  502  0.74589087547E+03  0.70340158669E+02 -0.34600105064E+03  0.82525132721E+03  0.46999998093E+01 0.  1.
</event>
<event>
 5   0  0.1214723E-04  0.1788961E+04  0.7818609E-02  0.8712192E-01
       -1   -1    0    0    0  501  0.00000000000E+00  0.00000000000E+00  0.39311155079E+03  0.39311155082E+03  0.50400001928E-02 0. -1.
        1   -1    0    0  501    0  0.00000000000E+00  0.00000000000E+00 -0.20352874877E+04  0.20352874877E+04  0.50400001928E-02 0.  1.
    10030    2    1    2    0    0  0.00000000000E+00  0.00000000000E+00 -0.16421759369E+04  0.24283990385E+04  0.17889606151E+04 0.  0.
        1    1    3    3  502    0  0.87888922333E+03 -0.16170435528E+03 -0.76850673252E+03  0.11786420845E+04  0.50400001928E-02 0. -1.
       -1    1    3    3    0  502 -0.87888922333E+03  0.16170435528E+03 -0.87366920437E+03  0.12497569540E+04  0.50400001928E-02 0.  1.
</event>
<event>
 5   0  0.2431811E-04  0.1762143E+04  0.7818609E-02  0.8726695E-01
        2   -1    0    0  501    0  0.00000000000E+00  0.00000000000E+00  0.12117255927E+04  0.12117255927E+04  0.25500000920E-02 0.  1.
       -2   -1    0    0    0  501  0.00000000000E+00  0.00000000000E+00 -0.64064563356E+03  0.64064563356E+03  0.25500000920E-02 0. -1.
    10030    2    1    2    0    0  0.00000000000E+00  0.00000000000E+00  0.57107995911E+03  0.18523712262E+04  0.17621426844E+04 0.  0.
        3    1    3    3  502    0  0.16365984857E+03  0.42504307974E+03  0.10783739003E+04  0.11706137043E+04  0.10100000352E+00 0.  1.
       -3    1    3    3    0  502 -0.16365984857E+03 -0.42504307974E+03 -0.50729394122E+03  0.68175752190E+03  0.10100000352E+00 0. -1.
</event>
<event>
 5   0  0.1214723E-04  0.1805525E+04  0.7818609E-02  0.8703367E-01
        1   -1    0    0  501    0  0.00000000000E+00  0.00000000000E+00  0.10543846309E+04  0.10543846309E+04  0.50400001928E-02 0. -1.
       -1   -1    0    0    0  501  0.00000000000E+00  0.00000000000E+00 -0.77294426718E+03  0.77294426719E+03  0.50400001928E-02 0.  1.
    10030    2    1    2    0    0  0.00000000000E+00  0.00000000000E+00  0.28144036374E+03  0.18273288981E+04  0.18055254702E+04 0.  0.
        1    1    3    3  502    0 -0.24133014535E+03 -0.79540220472E+03 -0.21577723042E+03  0.85875766053E+03  0.50400001928E-02 0.  1.
       -1    1    3    3    0  502  0.24133014535E+03  0.79540220472E+03  0.49721759416E+03  0.96857123759E+03  0.50400001928E-02 0. -1.
</event>
<event>
 5   0  0.2569405E-04  0.1798770E+04  0.7818609E-02  0.8706954E-01
       -2   -1    0    0    0  501  0.00000000000E+00  0.00000000000E+00  0.99096205748E+03  0.99096205749E+03  0.25500000920E-02 0. -1.
        2   -1    0    0  501    0  0.00000000000E+00  0.00000000000E+00 -0.81627073049E+03  0.81627073050E+03  0.25500000920E-02 0.  1.
    10030    2    1    2    0    0  0.00000000000E+00  0.00000000000E+00  0.17469132699E+03  0.18072327880E+04  0.17987699381E+04 0.  0.
        2    1    3    3  502    0 -0.33657403612E+03 -0.75118135382E+03 -0.27676497557E+03  0.86842061228E+03  0.25500000920E-02 0.  1.
       -2    1    3    3    0  502  0.33657403612E+03  0.75118135382E+03  0.45145630256E+03  0.93881217570E+03  0.25500000920E-02 0. -1.
</event>
<event>
 5   0  0.2393421E-04  0.1794755E+04  0.7818609E-02  0.8709094E-01
       -2   -1    0    0    0  501  0.00000000000E+00  0.00000000000E+00  0.56915409329E+03  0.56915409330E+03  0.25500000920E-02 0. -1.
        2   -1    0    0  501    0  0.00000000000E+00  0.00000000000E+00 -0.14148829143E+04  0.14148829143E+04  0.25500000920E-02 0.  1.
    10030    2    1    2    0    0  0.00000000000E+00  0.00000000000E+00 -0.84572882096E+03  0.19840370076E+04  0.17947550275E+04 0.  0.
        5    1    3    3  502    0  0.80277181068E+03 -0.35191194442E+03 -0.63544635395E+03  0.10826350980E+04  0.46999998093E+01 0.  1.
       -5    1    3    3    0  502 -0.80277181068E+03  0.35191194442E+03 -0.21028246701E+03  0.90140190957E+03  0.46999998093E+01 0. -1.
</event>
<event>
 5   0  0.1214723E-04  0.1802508E+04  0.7818609E-02  0.8704967E-01
       -1   -1    0    0    0  501  0.00000000000E+00  0.00000000000E+00  0.78937249845E+03  0.78937249847E+03  0.50400001928E-02 0. -1.
        1   -1    0    0  501    0  0.00000000000E+00  0.00000000000E+00 -0.10289929862E+04  0.10289929862E+04  0.50400001928E-02 0.  1.
    10030    2    1    2    0    0  0.00000000000E+00  0.00000000000E+00 -0.23962048775E+03  0.18183654847E+04  0.18025079910E+04 0.  0.
        1    1    3    3  502    0 -0.99609538082E+02 -0.15004140943E+02 -0.10232961322E+04  0.10282422664E+04  0.50400001928E-02 0.  1.
       -1    1    3    3    0  502  0.99609538082E+02  0.15004140943E+02  0.78367564443E+03  0.79012321825E+03  0.50400001928E-02 0. -1.
</event>
<event>
 5   0  0.1308893E-04  0.1797480E+04  0.7818609E-02  0.8707641E-01
       -1   -1    0    0    0  501  0.00000000000E+00  0.00000000000E+00  0.59949573902E+03  0.59949573904E+03  0.50400001928E-02 0. -1.
        1   -1    0    0  501    0  0.00000000000E+00  0.00000000000E+00 -0.13473543710E+04  0.13473543710E+04  0.50400001928E-02 0.  1.
    10030    2    1    2    0    0  0.00000000000E+00  0.00000000000E+00 -0.74785863197E+03  0.19468501100E+04  0.17974795736E+04 0.  0.
        4    1    3    3  502    0 -0.55287617821E+03 -0.46080970909E+03  0.20905013210E+03  0.74948063821E+03  0.12699999809E+01 0. -1.
       -4    1    3    3    0  502  0.55287617821E+03  0.46080970909E+03 -0.95690876407E+03  0.11973694718E+04  0.12699999809E+01 0.  1.
</event>
<event>
 5   0  0.1239119E-04  0.1804494E+04  0.7818609E-02  0.8703913E-01
       -1   -1    0    0    0  501  0.00000000000E+00  0.00000000000E+00  0.11798888887E+04  0.11798888887E+04  0.50400001928E-02 0.  1.
        1   -1    0    0  501    0  0.00000000000E+00  0.00000000000E+00 -0.68993752378E+03  0.68993752380E+03  0.50400001928E-02 0. -1.
    10030    2    1    2    0    0  0.00000000000E+00  0.00000000000E+00  0.48995136489E+03  0.18698264125E+04  0.18044939659E+04 0.  0.
        5    1    3    3  502    0  0.54306296915E+03 -0.46562293587E+03  0.81470533524E+03  0.10841996957E+04  0.46999998093E+01 0.  1.
       -5    1    3    3    0  502 -0.54306296915E+03  0.46562293587E+03 -0.32475397035E+03  0.78562671679E+03  0.46999998093E+01 0. -1.
</event>
<event>
 5   0  0.9144875E-05  0.1806699E+04  0.7818609E-02  0.8702745E-01
       -3   -1    0    0    0  501  0.00000000000E+00  0.00000000000E+00  0.10177673285E+04  0.10177673335E+04  0.10100000352E+00 0.  1.
        3   -1    0    0  501    0  0.00000000000E+00  0.00000000000E+00 -0.80179461844E+03  0.80179462480E+03  0.10100000352E+00 0. -1.
    10030    2    1    2    0    0  0.00000000000E+00  0.00000000000E+00  0.21597271002E+03  0.18195619583E+04  0.18066990642E+04 0.  0.
        1    1    3    3  502    0 -0.10878608133E+03 -0.87636281323E+03  0.29958852832E+03  0.93252317839E+03  0.50400001928E-02 0. -1.
       -1    1    3    3    0  502  0.10878608133E+03  0.87636281323E+03 -0.83615818296E+02  0.88703877988E+03  0.50400001928E-02 0.  1.
</event>
<event>
 5   0  0.9144875E-05  0.1813432E+04  0.7818609E-02  0.8699189E-01
        3   -1    0    0  501    0  0.00000000000E+00  0.00000000000E+00  0.98009133284E+03  0.98009133805E+03  0.10100000352E+00 0.  1.
       -3   -1    0    0    0  501  0.00000000000E+00  0.00000000000E+00 -0.83883395077E+03  0.83883395685E+03  0.10100000352E+00 0. -1.
    10030    2    1    2    0    0  0.00000000000E+00  0.00000000000E+00  0.14125738207E+03  0.18189252949E+04  0.18134319895E+04 0.  0.
        2    1    3    3  502    0  0.35798249612E+03  0.38729477055E+03  0.81041642696E+03  0.96691441809E+03  0.25500000920E-02 0.  1.
       -2    1    3    3    0  502 -0.35798249612E+03 -0.38729477055E+03 -0.66915904489E+03  0.85201087680E+03  0.25500000920E-02 0. -1.
</event>
<event>
 5   0  0.1330225E-04  0.1802582E+04  0.7818609E-02  0.8704928E-01
       -1   -1    0    0    0  501  0.00000000000E+00  0.00000000000E+00  0.57201165450E+03  0.57201165453E+03  0.50400001928E-02 0.  1.
        1   -1    0    0  501    0  0.00000000000E+00  0.00000000000E+00 -0.14201204325E+04  0.14201204325E+04  0.50400001928E-02 0. -1.
    10030    2    1    2    0    0  0.00000000000E+00  0.00000000000E+00 -0.84810877798E+03  0.19921320870E+04  0.18025819684E+04 0.  0.
        3    1    3    3  502    0  0.49195533089E+03 -0.18217763912E+03  0.38589415921E+03  0.65124730487E+03  0.10100000352E+00 0.  1.
       -3    1    3    3    0  502 -0.49195533089E+03  0.18217763912E+03 -0.12340029372E+04  0.13408847821E+04  0.10100000352E+00 0. -1.
</event>
<event>
 5   0  0.2393421E-04  0.1796765E+04  0.7818609E-02  0.8708022E-01
        2   -1    0    0  501    0  0.00000000000E+00  0.00000000000E+00  0.19880989121E+04  0.19880989121E+04  0.25500000920E-02 0.  1.
       -2   -1    0    0    0  501  0.00000000000E+00  0.00000000000E+00 -0.40596110982E+03  0.40596110983E+03  0.25500000920E-02 0. -1.
    10030    2    1    2    0    0  0.00000000000E+00  0.00000000000E+00  0.15821378023E+04  0.23940600219E+04  0.17967646933E+04 0.  0.
        5    1    3    3  502    0 -0.72646336101E+03 -0.27898477601E+03  0.19297745211E+03  0.80177547179E+03  0.46999998093E+01 0. -1.
       -5    1    3    3    0  502  0.72646336101E+03  0.27898477601E+03  0.13891603502E+04  0.15922845501E+04  0.46999998093E+01 0.  1.
</event>
<event>
 5   0  0.1239119E-04  0.1798088E+04  0.7818609E-02  0.8707317E-01
        1   -1    0    0  501    0  0.00000000000E+00  0.00000000000E+00  0.97084036225E+03  0.97084036226E+03  0.50400001928E-02 0.  1.
       -1   -1    0    0    0  501  0.00000000000E+00  0.00000000000E+00 -0.83255747455E+03  0.83255747457E+03  0.50400001928E-02 0. -1.
    10030    2    1    2    0    0  0.00000000000E+00  0.00000000000E+00  0.13828288770E+03  0.18033978368E+04  0.17980883184E+04 0.  0.
        5    1    3    3  502    0 -0.51375663619E+02 -0.16552333321E+03 -0.81563176499E+03  0.83385532241E+03  0.46999998093E+01 0. -1.
       -5    1    3    3    0  502  0.51375663619E+02  0.16552333321E+03  0.95391465269E+03  0.96954251442E+03  0.46999998093E+01 0.  1.
</event>
<event>
 5   0  0.2393421E-04  0.1799064E+04  0.7818609E-02  0.8706797E-01
       -2   -1    0    0    0  501  0.00000000000E+00  0.00000000000E+00  0.79780556344E+03  0.79780556344E+03  0.25500000920E-02 0. -1.
        2   -1    0    0  501    0  0.00000000000E+00  0.00000000000E+00 -0.10142291995E+04  0.10142291995E+04  0.25500000920E-02 0.  1.
    10030    2    1    2    0    0  0.00000000000E+00  0.00000000000E+00 -0.21642363607E+03  0.18120347630E+04  0.17990638654E+04 0.  0.
        5    1    3    3  502    0  0.57407935262E+02  0.46330433451E+03  0.66621989308E+03  0.81352173502E+03  0.46999998093E+01 0. -1.
       -5    1    3    3    0  502 -0.57407935262E+02 -0.46330433451E+03 -0.88264352916E+03  0.99851302794E+03  0.46999998093E+01 0.  1.
</event>
<event>
 5   0  0.1308893E-04  0.1828850E+04  0.7818609E-02  0.8691106E-01
        1   -1    0    0  501    0  0.00000000000E+00  0.00000000000E+00  0.13308437335E+04  0.13308437335E+04  0.50400001928E-02 0. -1.
       -1   -1    0    0    0  501  0.00000000000E+00  0.00000000000E+00 -0.62830295792E+03  0.62830295794E+03  0.50400001928E-02 0.  1.
    10030    2    1    2    0    0  0.00000000000E+00  0.00000000000E+00  0.70254077561E+03  0.19591466915E+04  0.18288499712E+04 0.  0.
        4    1    3    3  502    0 -0.77443726638E+03 -0.35817121046E+03  0.70353213334E+03  0.11058927485E+04  0.12699999809E+01 0.  1.
       -4    1    3    3    0  502  0.77443726638E+03  0.35817121046E+03 -0.99135773938E+00  0.85325394301E+03  0.12699999809E+01 0. -1.
</event>
<event>
 5   0  0.1239119E-04  0.1811171E+04  0.7818609E-02  0.8700382E-01
       -1   -1    0    0    0  501  0.00000000000E+00  0.00000000000E+00  0.74876470418E+03  0.74876470420E+03  0.50400001928E-02 0.  1.
        1   -1    0    0  501    0  0.00000000000E+00  0.00000000000E+00 -0.10952502876E+04  0.10952502876E+04  0.50400001928E-02 0. -1.
    10030    2    1    2    0    0  0.00000000000E+00  0.00000000000E+00 -0.34648558339E+03  0.18440149918E+04  0.18111706243E+04 0.  0.
        5    1    3    3  502    0 -0.52379318081E+03 -0.33621002146E+03 -0.84294474080E+03  0.10478427367E+04  0.46999998093E+01 0. -1.
       -5    1    3    3    0  502  0.52379318081E+03  0.33621002146E+03  0.49645915741E+03  0.79617225509E+03  0.46999998093E+01 0.  1.
</event>
<event>
 5   0  0.2431811E-04  0.1821129E+04  0.7818609E-02  0.8695143E-01
        2   -1    0    0  501    0  0.00000000000E+00  0.00000000000E+00  0.13016966196E+04  0.13016966196E+04  0.25500000920E-02 0. -1.
       -2   -1    0    0    0  501  0.00000000000E+00  0.00000000000E+00 -0.63695927281E+03  0.63695927282E+03  0.25500000920E-02 0.  1.
    10030    2    1    2    0    0  0.00000000000E+00  0.00000000000E+00  0.66473734676E+03  0.19386558924E+04  0.18211290259E+04 0.  0.
        3    1    3    3  502    0  0.46523655847E+03 -0.16860689110E+03 -0.48132511872E+03  0.69032399580E+03  0.10100000352E+00 0.  1.
       -3    1    3    3    0  502 -0.46523655847E+03  0.16860689110E+03  0.11460624655E+04  0.12483318966E+04  0.10100000352E+00 0. -1.
</event>
<event>
 5   0  0.2393421E-04  0.1803644E+04  0.7818609E-02  0.8704364E-01
        2   -1    0    0  501    0  0.00000000000E+00  0.00000000000E+00  0.13578266202E+04  0.13578266202E+04  0.25500000920E-02 0.  1.
       -2   -1    0    0    0  501  0.00000000000E+00  0.00000000000E+00 -0.59895911118E+03  0.59895911118E+03  0.25500000920E-02 0. -1.
    10030    2    1    2    0    0  0.00000000000E+00  0.00000000000E+00  0.75886750900E+03  0.19567857314E+04  0.18036436739E+04 0.  0.
        5    1    3    3  502    0  0.34863712800E+02  0.94252059886E+02 -0.59285217265E+03  0.60132746309E+03  0.46999998093E+01 0. -1.
       -5    1    3    3    0  502 -0.34863712800E+02 -0.94252059886E+02  0.13517196816E+04  0.13554582683E+04  0.46999998093E+01 0.  1.
</event>
<event>
 5   0  0.9144875E-05  0.1818778E+04  0.7818609E-02  0.8696377E-01
        3   -1    0    0  501    0  0.00000000000E+00  0.00000000000E+00  0.39731649250E+03  0.39731650534E+03  0.10100000352E+00 0.  1.
       -3   -1    0    0    0  501  0.00000000000E+00  0.00000000000E+00 -0.20814341524E+04  0.20814341549E+04  0.10100000352E+00 0. -1.
    10030    2    1    2    0    0  0.00000000000E+00  0.00000000000E+00 -0.16841176599E+04  0.24787506602E+04  0.18187777608E+04 0.  0.
        4    1    3    3  502    0  0.49755643582E+03  0.31095665883E+02  0.19448772858E+03  0.53512282396E+03  0.12699999809E+01 0.  1.
       -4    1    3    3    0  502 -0.49755643582E+03 -0.31095665883E+02 -0.18786053885E+04  0.19436278362E+04  0.12699999809E+01 0. -1.
</event>
<event>
 5   0  0.2417106E-04  0.1871148E+04  0.7818609E-02  0.8669353E-01
       -2   -1    0    0    0  501  0.00000000000E+00  0.00000000000E+00  0.77667889406E+03  0.77667889406E+03  0.25500000920E-02 0. -1.
        2   -1    0    0  501    0  0.00000000000E+00  0.00000000000E+00 -0.11269757156E+04  0.11269757156E+04  0.25500000920E-02 0.  1.
    10030    2    1    2    0    0  0.00000000000E+00  0.00000000000E+00 -0.35029682155E+03  0.19036546097E+04  0.18711475115E+04 0.  0.
        4    1    3    3  502    0  0.55035834465E+03  0.41355350814E+03  0.46940028750E+03  0.83322209190E+03  0.12699999809E+01 0. -1.
       -4    1    3    3    0  502 -0.55035834465E+03 -0.41355350814E+03 -0.81969710905E+03  0.10704325178E+04  0.12699999809E+01 0.  1.
</event>
<event>
 5   0  0.1214723E-04  0.1891508E+04  0.7818609E-02  0.8659095E-01
        1   -1    0    0  501    0  0.00000000000E+00  0.00000000000E+00  0.25495905556E+04  0.25495905556E+04  0.50400001928E-02 0. -1.
       -1   -1    0    0    0  501  0.00000000000E+00  0.00000000000E+00 -0.35082135099E+03  0.35082135103E+03  0.50400001928E-02 0.  1.
    10030    2    1    2    0    0  0.00000000000E+00  0.00000000000E+00  0.21987692046E+04  0.29004119066E+04  0.18915081847E+04 0.  0.
        1    1    3    3  502    0 -0.66052570034E+01  0.51423100969E+03 -0.11767723328E+03  0.52756524905E+03  0.50400001928E-02 0.  1.
       -1    1    3    3    0  502  0.66052570034E+01 -0.51423100969E+03  0.23164464379E+04  0.23728466576E+04  0.50400001928E-02 0. -1.
</event>
<event>
 5   0  0.1253925E-04  0.1763448E+04  0.7818609E-02  0.8725982E-01
       -1   -1    0    0    0  501  0.00000000000E+00  0.00000000000E+00  0.61256811289E+03  0.61256811291E+03  0.50400001928E-02 0.  1.
        1   -1    0    0  501    0  0.00000000000E+00  0.00000000000E+00 -0.12691447388E+04  0.12691447388E+04  0.50400001928E-02 0. -1.
    10030    2    1    2    0    0  0.00000000000E+00  0.00000000000E+00 -0.65657662593E+03  0.18817128517E+04  0.17634484372E+04 0.  0.
        2    1    3    3  502    0 -0.42458441170E+03  0.13215920698E+03  0.48415317523E+03  0.65737529292E+03  0.25500000920E-02 0.  1.
       -2    1    3    3    0  502  0.42458441170E+03 -0.13215920698E+03 -0.11407298012E+04  0.12243375588E+04  0.25500000920E-02 0. -1.
</event>
<event>
 5   0  0.1308893E-04  0.1819930E+04  0.7818609E-02  0.8695772E-01
        1   -1    0    0  501    0  0.00000000000E+00  0.00000000000E+00  0.89347921446E+03  0.89347921447E+03  0.50400001928E-02 0.  1.
       -1   -1    0    0    0  501  0.00000000000E+00  0.00000000000E+00 -0.92675454986E+03  0.92675454987E+03  0.50400001928E-02 0. -1.
    10030    2    1    2    0    0  0.00000000000E+00  0.00000000000E+00 -0.33275335401E+02  0.18202337643E+04  0.18199295890E+04 0.  0.
        4    1    3    3  502    0  0.43553352272E+03 -0.75332036414E+02  0.77890079802E+03  0.89557379997E+03  0.12699999809E+01 0.  1.
       -4    1    3    3    0  502 -0.43553352272E+03  0.75332036414E+02 -0.81217613342E+03  0.92465996438E+03  0.12699999809E+01 0. -1.
</event>
<event>
 5   0  0.1308893E-04  0.1780228E+04  0.7818609E-02  0.8716885E-01
        1   -1    0    0  501    0  0.00000000000E+00  0.00000000000E+00  0.14586916453E+04  0.14586916453E+04  0.50400001928E-02 0.  1.
       -1   -1    0    0    0  501  0.00000000000E+00  0.00000000000E+00 -0.54315986381E+03  0.54315986384E+03  0.50400001928E-02 0. -1.
    10030    2    1    2    0    0  0.00000000000E+00  0.00000000000E+00  0.91553178150E+03  0.20018515092E+04  0.17802278005E+04 0.  0.
        4    1    3    3  502    0  0.42657284562E+03  0.45251766316E+03  0.11738866366E+04  0.13284382095E+04  0.12699999809E+01 0.  1.
       -4    1    3    3    0  502 -0.42657284562E+03 -0.45251766316E+03 -0.25835485507E+03  0.67341329964E+03  0.12699999809E+01 0. -1.
</event>
<event>
 5   0  0.1214723E-04  0.1793377E+04  0.7818609E-02  0.8709829E-01
       -1   -1    0    0    0  501  0.00000000000E+00  0.00000000000E+00  0.63907691960E+03  0.63907691962E+03  0.50400001928E-02 0. -1.
        1   -1    0    0  501    0  0.00000000000E+00  0.00000000000E+00 -0.12581431598E+04  0.12581431598E+04  0.50400001928E-02 0.  1.
    10030    2    1    2    0    0  0.00000000000E+00  0.00000000000E+00 -0.61906624022E+03  0.18972200794E+04  0.17933769877E+04 0.  0.
        1    1    3    3  502    0  0.18830767202E+03 -0.74087568236E+03  0.18632213499E+03  0.78681160011E+03  0.50400001928E-02 0. -1.
       -1    1    3    3    0  502 -0.18830767202E+03  0.74087568236E+03 -0.80538837521E+03  0.11104084793E+04  0.50400001928E-02 0.  1.
</event>
<event>
 5   0  0.1239119E-04  0.1792901E+04  0.7818609E-02  0.8710084E-01
        1   -1    0    0  501    0  0.00000000000E+00  0.00000000000E+00  0.10546898620E+04  0.10546898620E+04  0.50400001928E-02 0.  1.
       -1   -1    0    0    0  501  0.00000000000E+00  0.00000000000E+00 -0.76195241486E+03  0.76195241488E+03  0.50400001928E-02 0. -1.
    10030    2    1    2    0    0  0.00000000000E+00  0.00000000000E+00  0.29273744711E+03  0.18166422769E+04  0.17929009870E+04 0.  0.
        5    1    3    3  502    0  0.53796180468E+03 -0.46291937489E+03  0.70125546220E+03  0.99773672089E+03  0.46999998093E+01 0.  1.
       -5    1    3    3    0  502 -0.53796180468E+03  0.46291937489E+03 -0.40851801509E+03  0.81890555597E+03  0.46999998093E+01 0. -1.
</event>
<event>
 5   0  0.2417106E-04  0.1826464E+04  0.7818609E-02  0.8692351E-01
        2   -1    0    0  501    0  0.00000000000E+00  0.00000000000E+00  0.14718673887E+04  0.14718673887E+04  0.25500000920E-02 0. -1.
       -2   -1    0    0    0  501  0.00000000000E+00  0.00000000000E+00 -0.56662225963E+03  0.56662225964E+03  0.25500000920E-02 0.  1.
    10030    2    1    2    0    0  0.00000000000E+00  0.00000000000E+00  0.90524512911E+03  0.20384896484E+04  0.18264641532E+04 0.  0.
        4    1    3    3  502    0  0.45157569592E+03 -0.11902463463E+03 -0.42327592626E+03  0.63027898223E+03  0.12699999809E+01 0.  1.
       -4    1    3    3    0  502 -0.45157569592E+03  0.11902463463E+03  0.13285210554E+04  0.14082106662E+04  0.12699999809E+01 0. -1.
</event>
<event>
 5   0  0.1239119E-04  0.1787314E+04  0.7818609E-02  0.8713075E-01
       -1   -1    0    0    0  501  0.00000000000E+00  0.00000000000E+00  0.41037826784E+03  0.41037826787E+03  0.50400001928E-02 0.  1.
        1   -1    0    0  501    0  0.00000000000E+00  0.00000000000E+00 -0.19460660770E+04  0.19460660770E+04  0.50400001928E-02 0. -1.
    10030    2    1    2    0    0  0.00000000000E+00  0.00000000000E+00 -0.15356878091E+04  0.23564443448E+04  0.17873144388E+04 0.  0.
        5    1    3    3  502    0 -0.10043050953E+02  0.81238950537E+03 -0.12585461579E+04  0.14980113794E+04  0.46999998093E+01 0.  1.
       -5    1    3    3    0  502  0.10043050953E+02 -0.81238950537E+03 -0.27714165125E+03  0.85843296544E+03  0.46999998093E+01 0. -1.
</event>
<event>
 5   0  0.2417106E-04  0.1807671E+04  0.7818609E-02  0.8702230E-01
        2   -1    0    0  501    0  0.00000000000E+00  0.00000000000E+00  0.78890529052E+03  0.78890529052E+03  0.25500000920E-02 0. -1.
       -2   -1    0    0    0  501  0.00000000000E+00  0.00000000000E+00 -0.10355096340E+04  0.10355096340E+04  0.25500000920E-02 0.  1.
    10030    2    1    2    0    0  0.00000000000E+00  0.00000000000E+00 -0.24660434350E+03  0.18244149246E+04  0.18076714620E+04 0.  0.
        4    1    3    3  502    0  0.74721181400E+03  0.43616553351E+03 -0.38716504815E+03  0.94787354379E+03  0.12699999809E+01 0.  1.
       -4    1    3    3    0  502 -0.74721181400E+03 -0.43616553351E+03  0.14056070464E+03  0.87654138076E+03  0.12699999809E+01 0. -1.
</event>
<event>
 5   0  0.1214723E-04  0.1828794E+04  0.7818609E-02  0.8691135E-01
       -1   -1    0    0    0  501  0.00000000000E+00  0.00000000000E+00  0.12900752117E+04  0.12900752117E+04  0.50400001928E-02 0. -1.
        1   -1    0    0  501    0  0.00000000000E+00  0.00000000000E+00 -0.64811885699E+03  0.64811885701E+03  0.50400001928E-02 0.  1.
    10030    2    1    2    0    0  0.00000000000E+00  0.00000000000E+00  0.64195635473E+03  0.19381940687E+04  0.18287942166E+04 0.  0.
        1    1    3    3  502    0  0.70987994972E+03 -0.48203387454E+03 -0.13891427185E+02  0.85818364643E+03  0.50400001928E-02 0.  1.
       -1    1    3    3    0  502 -0.70987994972E+03  0.48203387454E+03  0.65584778191E+03  0.10800104223E+04  0.50400001928E-02 0. -1.
</event>
<event>
 5   0  0.2550616E-04  0.1774070E+04  0.7818609E-02  0.8720211E-01
       -2   -1    0    0    0  501  0.00000000000E+00  0.00000000000E+00  0.59085322415E+03  0.59085322416E+03  0.25500000920E-02 0. -1.
        2   -1    0    0  501    0  0.00000000000E+00  0.00000000000E+00 -0.13316864105E+04  0.13316864105E+04  0.25500000920E-02 0.  1.
    10030    2    1    2    0    0  0.00000000000E+00  0.00000000000E+00 -0.74083318630E+03  0.19225396346E+04  0.17740701330E+04 0.  0.
        1    1    3    3  502    0 -0.39751956979E+03  0.44176581749E+03 -0.10840503352E+04  0.12362620981E+04  0.50400001928E-02 0.  1.
       -1    1    3    3    0  502  0.39751956979E+03 -0.44176581749E+03  0.34321714887E+03  0.68627753655E+03  0.50400001928E-02 0. -1.
</event>
<event>
 5   0  0.1330225E-04  0.1688199E+04  0.7818609E-02  0.8768123E-01
        1   -1    0    0  501    0  0.00000000000E+00  0.00000000000E+00  0.89343315962E+03  0.89343315964E+03  0.50400001928E-02 0.  1.
       -1   -1    0    0    0  501  0.00000000000E+00  0.00000000000E+00 -0.79749020816E+03  0.79749020818E+03  0.50400001928E-02 0. -1.
    10030    2    1    2    0    0  0.00000000000E+00  0.00000000000E+00  0.95942951462E+02  0.16909233678E+04  0.16881992732E+04 0.  0.
        3    1    3    3  502    0 -0.60964120863E+03 -0.28803718054E+03  0.55660617832E+03  0.87432160477E+03  0.10100000352E+00 0.  1.
       -3    1    3    3    0  502  0.60964120863E+03  0.28803718054E+03 -0.46066322686E+03  0.81660176304E+03  0.10100000352E+00 0. -1.
</event>
<event>
 5   0  0.2569405E-04  0.1814595E+04  0.7818609E-02  0.8698577E-01
        2   -1    0    0  501    0  0.00000000000E+00  0.00000000000E+00  0.49554082140E+03  0.49554082140E+03  0.25500000920E-02 0. -1.
       -2   -1    0    0    0  501  0.00000000000E+00  0.00000000000E+00 -0.16611918764E+04  0.16611918764E+04  0.25500000920E-02 0.  1.
    10030    2    1    2    0    0  0.00000000000E+00  0.00000000000E+00 -0.11656510550E+04  0.21567326978E+04  0.18145945960E+04 0.  0.
        2    1    3    3  502    0  0.12169689809E+03  0.81952681701E+03 -0.14329726633E+03  0.84081415625E+03  0.25500000920E-02 0. -1.
       -2    1    3    3    0  502 -0.12169689809E+03 -0.81952681701E+03 -0.10223537887E+04  0.13159185416E+04  0.25500000920E-02 0.  1.
</event>
<event>
 5   0  0.1214723E-04  0.1810797E+04  0.7818609E-02  0.8700579E-01
        1   -1    0    0  501    0  0.00000000000E+00  0.00000000000E+00  0.15996412861E+04  0.15996412861E+04  0.50400001928E-02 0. -1.
       -1   -1    0    0    0  501  0.00000000000E+00  0.00000000000E+00 -0.51245639999E+03  0.51245640001E+03  0.50400001928E-02 0.  1.
    10030    2    1    2    0    0  0.00000000000E+00  0.00000000000E+00  0.10871848861E+04  0.21120976861E+04  0.18107969679E+04 0.  0.
        1    1    3    3  502    0 -0.33454358139E+03  0.23630149796E+03 -0.39821961454E+03  0.57125884433E+03  0.50400001928E-02 0.  1.
       -1    1    3    3    0  502  0.33454358139E+03 -0.23630149796E+03  0.14854045006E+04  0.15408388418E+04  0.50400001928E-02 0. -1.
</event>
<event>
 5   0  0.1330225E-04  0.1796092E+04  0.7818609E-02  0.8708380E-01
       -1   -1    0    0    0  501  0.00000000000E+00  0.00000000000E+00  0.51897117481E+03  0.51897117483E+03  0.50400001928E-02 0.  1.
        1   -1    0    0  501    0  0.00000000000E+00  0.00000000000E+00 -0.15540104672E+04  0.15540104672E+04  0.50400001928E-02 0. -1.
    10030    2    1    2    0    0  0.00000000000E+00  0.00000000000E+00 -0.10350392923E+04  0.20729816420E+04  0.17960920220E+04 0.  0.
        3    1    3    3  502    0 -0.34920746418E+03  0.35631858952E+03  0.34430641704E+03  0.60618125119E+03  0.10100000352E+00 0.  1.
       -3    1    3    3    0  502  0.34920746418E+03 -0.35631858952E+03 -0.13793457094E+04  0.14668003908E+04  0.10100000352E+00 0. -1.
</event>
<event>
 5   0  0.1214723E-04  0.1787346E+04  0.7818609E-02  0.8713058E-01
       -1   -1    0    0    0  501  0.00000000000E+00  0.00000000000E+00  0.46455752725E+03  0.46455752728E+03  0.50400001928E-02 0. -1.
        1   -1    0    0  501    0  0.00000000000E+00  0.00000000000E+00 -0.17191653511E+04  0.17191653511E+04  0.50400001928E-02 0.  1.
    10030    2    1    2    0    0  0.00000000000E+00  0.00000000000E+00 -0.12546078239E+04  0.21837228784E+04  0.17873457466E+04 0.  0.
        1    1    3    3  502    0  0.68370320396E+02  0.71906024678E+03  0.15640199184E+02  0.72247266735E+03  0.50400001928E-02 0. -1.
       -1    1    3    3    0  502 -0.68370320396E+02 -0.71906024678E+03 -0.12702480230E+04  0.14612502110E+04  0.50400001928E-02 0.  1.
</event>
<event>
 5   0  0.2393421E-04  0.1804173E+04  0.7818609E-02  0.8704084E-01
       -2   -1    0    0    0  501  0.00000000000E+00  0.00000000000E+00  0.74433358804E+03  0.74433358805E+03  0.25500000920E-02 0.  1.
        2   -1    0    0  501    0  0.00000000000E+00  0.00000000000E+00 -0.10932728155E+04  0.10932728155E+04  0.25500000920E-02 0. -1.
    10030    2    1    2    0    0  0.00000000000E+00  0.00000000000E+00 -0.34893922742E+03  0.18376064035E+04  0.18041725831E+04 0.  0.
        5    1    3    3  502    0 -0.73486919778E+03 -0.29265151237E+03  0.26722547018E+03  0.83493064829E+03  0.46999998093E+01 0.  1.
       -5    1    3    3    0  502  0.73486919778E+03  0.29265151237E+03 -0.61616469760E+03  0.10026757552E+04  0.46999998093E+01 0. -1.
</event>
<event>
 5   0  0.2431811E-04  0.1762612E+04  0.7818609E-02  0.8726438E-01
        2   -1    0    0  501    0  0.00000000000E+00  0.00000000000E+00  0.63553262898E+03  0.63553262898E+03  0.25500000920E-02 0. -1.
       -2   -1    0    0    0  501  0.00000000000E+00  0.00000000000E+00 -0.12221252701E+04  0.12221252701E+04  0.25500000920E-02 0.  1.
    10030    2    1    2    0    0  0.00000000000E+00  0.00000000000E+00 -0.58659264116E+03  0.18576578991E+04  0.17626122499E+04 0.  0.
        3    1    3    3  502    0 -0.62093267331E+03 -0.23195158435E+03  0.31883397586E+03  0.73553656376E+03  0.10100000352E+00 0. -1.
       -3    1    3    3    0  502  0.62093267331E+03  0.23195158435E+03 -0.90542661702E+03  0.11221213354E+04  0.10100000352E+00 0.  1.
</event>
<event>
 5   0  0.2550616E-04  0.1634455E+04  0.7818609E-02  0.8799656E-01
        2   -1    0    0  501    0  0.00000000000E+00  0.00000000000E+00  0.14445761858E+04  0.14445761858E+04  0.25500000920E-02 0.  1.
       -2   -1    0    0    0  501  0.00000000000E+00  0.00000000000E+00 -0.46232283638E+03  0.46232283639E+03  0.25500000920E-02 0. -1.
    10030    2    1    2    0    0  0.00000000000E+00  0.00000000000E+00  0.98225334943E+03  0.19068990222E+04  0.16344547220E+04 0.  0.
        1    1    3    3  502    0 -0.57520026972E+03 -0.35841064415E+01 -0.18614799261E+03  0.60458189791E+03  0.50400001928E-02 0. -1.
       -1    1    3    3    0  502  0.57520026972E+03  0.35841064415E+01  0.11684013420E+04  0.13023171243E+04  0.50400001928E-02 0.  1.
</event>
<event>
 5   0  0.1253925E-04  0.1780186E+04  0.7818609E-02  0.8716908E-01
       -1   -1    0    0    0  501  0.00000000000E+00  0.00000000000E+00  0.84834939567E+03  0.84834939568E+03  0.50400001928E-02 0.  1.
        1   -1    0    0  501    0  0.00000000000E+00  0.00000000000E+00 -0.93389067850E+03  0.93389067851E+03  0.50400001928E-02 0. -1.
    10030    2    1    2    0    0  0.00000000000E+00  0.00000000000E+00 -0.85541282830E+02  0.17822400742E+04  0.17801860495E+04 0.  0.
        2    1    3    3  502    0 -0.73331899935E+03  0.39237063172E+03  0.27469794453E+03  0.87588265663E+03  0.25500000920E-02 0.  1.
       -2    1    3    3    0  502  0.73331899935E+03 -0.39237063172E+03 -0.36023922736E+03  0.90635741757E+03  0.25500000920E-02 0. -1.
</event>
<event>
 5   0  0.1214723E-04  0.1827696E+04  0.7818609E-02  0.8691708E-01
       -1   -1    0    0    0  501  0.00000000000E+00  0.00000000000E+00  0.55764115925E+03  0.55764115927E+03  0.50400001928E-02 0. -1.
        1   -1    0    0  501    0  0.00000000000E+00  0.00000000000E+00 -0.14975898712E+04  0.14975898712E+04  0.50400001928E-02 0.  1.
    10030    2    1    2    0    0  0.00000000000E+00  0.00000000000E+00 -0.93994871193E+03  0.20552310305E+04  0.18276955456E+04 0.  0.
        1    1    3    3  502    0  0.83490754073E+03 -0.98456062088E+02 -0.67108237302E+02  0.84336689126E+03  0.50400001928E-02 0. -1.
       -1    1    3    3    0  502 -0.83490754073E+03  0.98456062088E+02 -0.87284047463E+03  0.12118641392E+04  0.50400001928E-02 0.  1.
</event>
<event>
 5   0  0.2393421E-04  0.1805163E+04  0.7818609E-02  0.8703558E-01
        2   -1    0    0  501    0  0.00000000000E+00  0.00000000000E+00  0.10317844876E+04  0.10317844876E+04  0.25500000920E-02 0.  1.
       -2   -1    0    0    0  501  0.00000000000E+00  0.00000000000E+00 -0.78955805613E+03  0.78955805613E+03  0.25500000920E-02 0. -1.
    10030    2    1    2    0    0  0.00000000000E+00  0.00000000000E+00  0.24222643146E+03  0.18213425437E+04  0.18051634323E+04 0.  0.
        5    1    3    3  502    0 -0.38002576685E+03  0.81467950159E+03  0.20251712665E+03  0.92149745001E+03  0.46999998093E+01 0.  1.
       -5    1    3    3    0  502  0.38002576685E+03 -0.81467950159E+03  0.39709304806E+02  0.89984509371E+03  0.46999998093E+01 0. -1.
</event>
<event>
 5   0  0.1330225E-04  0.1790277E+04  0.7818609E-02  0.8711487E-01
        1   -1    0    0  501    0  0.00000000000E+00  0.00000000000E+00  0.16823812727E+04  0.16823812727E+04  0.50400001928E-02 0. -1.
       -1   -1    0    0    0  501  0.00000000000E+00  0.00000000000E+00 -0.47627315133E+03  0.47627315136E+03  0.50400001928E-02 0.  1.
    10030    2    1    2    0    0  0.00000000000E+00  0.00000000000E+00  0.12061081214E+04  0.21586544241E+04  0.17902771076E+04 0.  0.
        3    1    3    3  502    0 -0.46467241340E+03  0.62547111182E+03  0.11343281684E+04  0.13761667658E+04  0.10100000352E+00 0. -1.
       -3    1    3    3    0  502  0.46467241340E+03 -0.62547111182E+03  0.71779952981E+02  0.78248765827E+03  0.10100000352E+00 0.  1.
</event>
<event>
 5   0  0.1308893E-04  0.1792904E+04  0.7818609E-02  0.8710082E-01
       -1   -1    0    0    0  501  0.00000000000E+00  0.00000000000E+00  0.82335107367E+03  0.82335107369E+03  0.50400001928E-02 0.  1.
        1   -1    0    0  501    0  0.00000000000E+00  0.00000000000E+00 -0.97604341788E+03  0.97604341789E+03  0.50400001928E-02 0. -1.
    10030    2    1    2    0    0  0.00000000000E+00  0.00000000000E+00 -0.15269234421E+03  0.17993944916E+04  0.17929042318E+04 0.  0.
        4    1    3    3  502    0 -0.13995522540E+03  0.86434012189E+03  0.11658256329E+03  0.88332577138E+03  0.12699999809E+01 0.  1.
       -4    1    3    3    0  502  0.13995522540E+03 -0.86434012189E+03 -0.26927490749E+03  0.91606872020E+03  0.12699999809E+01 0. -1.
</event>
<event>
 5   0  0.2393421E-04  0.1814956E+04  0.7818609E-02  0.8698386E-01
        2   -1    0    0  501    0  0.00000000000E+00  0.00000000000E+00  0.72490113891E+03  0.72490113892E+03  0.25500000920E-02 0. -1.
       -2   -1    0    0    0  501  0.00000000000E+00  0.00000000000E+00 -0.11360400976E+04  0.11360400976E+04  0.25500000920E-02 0.  1.
    10030    2    1    2    0    0  0.00000000000E+00  0.00000000000E+00 -0.41113895870E+03  0.18609412365E+04  0.18149564850E+04 0.  0.
        5    1    3    3  502    0 -0.20492189455E+03  0.79205607068E+03 -0.60813503536E+03  0.10194096886E+04  0.46999998093E+01 0.  1.
       -5    1    3    3    0  502  0.20492189455E+03 -0.79205607068E+03  0.19699607666E+03  0.84153154794E+03  0.46999998093E+01 0. -1.
</event>
<event>
 5   0  0.1239119E-04  0.1811129E+04  0.7818609E-02  0.8700403E-01
       -1   -1    0    0    0  501  0.00000000000E+00  0.00000000000E+00  0.39677831492E+03  0.39677831496E+03  0.50400001928E-02 0. -1.
        1   -1    0    0  501    0  0.00000000000E+00  0.00000000000E+00 -0.20667643216E+04  0.20667643216E+04  0.50400001928E-02 0.  1.
    10030    2    1    2    0    0  0.00000000000E+00  0.00000000000E+00 -0.16699860066E+04  0.24635426365E+04  0.18111292222E+04 0.  0.
        5    1    3    3  502    0 -0.75107115744E+03 -0.50356222896E+03 -0.76916075848E+03  0.11871449635E+04  0.46999998093E+01 0. -1.
       -5    1    3    3    0  502  0.75107115744E+03  0.50356222896E+03 -0.90082524815E+03  0.12763976730E+04  0.46999998093E+01 0.  1.
</event>
<event>
 5   0  0.2393421E-04  0.1804417E+04  0.7818609E-02  0.8703954E-01
        2   -1    0    0  501    0  0.00000000000E+00  0.00000000000E+00  0.22558287470E+04  0.22558287471E+04  0.25500000920E-02 0.  1.
       -2   -1    0    0    0  501  0.00000000000E+00  0.00000000000E+00 -0.36083415979E+03  0.36083415980E+03  0.25500000920E-02 0. -1.
    10030    2    1    2    0    0  0.00000000000E+00  0.00000000000E+00  0.18949945873E+04  0.26166629069E+04  0.18044168815E+04 0.  0.
        5    1    3    3  502    0 -0.56990219178E+03 -0.69849714607E+03  0.99920073271E+03  0.13457752285E+04  0.46999998093E+01 0.  1.
       -5    1    3    3    0  502  0.56990219178E+03  0.69849714607E+03  0.89579385454E+03  0.12708876784E+04  0.46999998093E+01 0. -1.
</event>
<event>
 5   0  0.2417106E-04  0.1763463E+04  0.7818609E-02  0.8725974E-01
        2   -1    0    0  501    0  0.00000000000E+00  0.00000000000E+00  0.21509615412E+04  0.21509615412E+04  0.25500000920E-02 0.  1.
       -2   -1    0    0    0  501  0.00000000000E+00  0.00000000000E+00 -0.36144326734E+03  0.36144326735E+03  0.25500000920E-02 0. -1.
    10030    2    1    2    0    0  0.00000000000E+00  0.00000000000E+00  0.17895182738E+04  0.25124048085E+04  0.17634631466E+04 0.  0.
        4    1    3    3  502    0  0.18605612888E+03  0.66408027887E+02  0.21190244779E+04  0.21282136312E+04  0.12699999809E+01 0.  1.
       -4    1    3    3    0  502 -0.18605612888E+03 -0.66408027887E+02 -0.32950620409E+03  0.38419117728E+03  0.12699999809E+01 0. -1.
</event>
<event>
 5   0  0.2550616E-04  0.1801405E+04  0.7818609E-02  0.8705553E-01
        2   -1    0    0  501    0  0.00000000000E+00  0.00000000000E+00  0.84117810801E+03  0.84117810802E+03  0.25500000920E-02 0.  1.
       -2   -1    0    0    0  501  0.00000000000E+00  0.00000000000E+00 -0.96443898266E+03  0.96443898266E+03  0.25500000920E-02 0. -1.
    10030    2    1    2    0    0  0.00000000000E+00  0.00000000000E+00 -0.12326087464E+03  0.18056170907E+04  0.18014049614E+04 0.  0.
        1    1    3    3  502    0  0.37950143719E+03  0.63185062965E+03  0.45727533884E+03  0.86738532069E+03  0.50400001928E-02 0.  1.
       -1    1    3    3    0  502 -0.37950143719E+03 -0.63185062965E+03 -0.58053621348E+03  0.93823176999E+03  0.50400001928E-02 0. -1.
</event>
<event>
 5   0  0.2550616E-04  0.1791245E+04  0.7818609E-02  0.8710969E-01
        2   -1    0    0  501    0  0.00000000000E+00  0.00000000000E+00  0.10836163304E+04  0.10836163304E+04  0.25500000920E-02 0. -1.
       -2   -1    0    0    0  501  0.00000000000E+00  0.00000000000E+00 -0.74024323688E+03  0.74024323688E+03  0.25500000920E-02 0.  1.
    10030    2    1    2    0    0  0.00000000000E+00  0.00000000000E+00  0.34337309356E+03  0.18238595673E+04  0.17912449972E+04 0.  0.
        1    1    3    3  502    0  0.48015228591E+03 -0.32864204811E+03 -0.52158348335E+03  0.78140971557E+03  0.50400001928E-02 0.  1.
       -1    1    3    3    0  502 -0.48015228591E+03  0.32864204811E+03  0.86495657692E+03  0.10424498518E+04  0.50400001928E-02 0. -1.
</event>
<event>
 5   0  0.1253925E-04  0.1694122E+04  0.7818609E-02  0.8764724E-01
        1   -1    0    0  501    0  0.00000000000E+00  0.00000000000E+00  0.10974178417E+04  0.10974178417E+04  0.50400001928E-02 0.  1.
       -1   -1    0    0    0  501  0.00000000000E+00  0.00000000000E+00 -0.65381864804E+03  0.65381864805E+03  0.50400001928E-02 0. -1.
    10030    2    1    2    0    0  0.00000000000E+00  0.00000000000E+00  0.44359919369E+03  0.17512364898E+04  0.16941218960E+04 0.  0.
        2    1    3    3  502    0 -0.26210490255E+03  0.42559763045E+03  0.92872649593E+03  0.10546872651E+04  0.25500000920E-02 0.  1.
       -2    1    3    3    0  502  0.26210490255E+03 -0.42559763045E+03 -0.48512730224E+03  0.69654922466E+03  0.25500000920E-02 0. -1.
</event>
<event>
 5   0  0.2550616E-04  0.1770053E+04  0.7818609E-02  0.8722389E-01
       -2   -1    0    0    0  501  0.00000000000E+00  0.00000000000E+00  0.74267158720E+03  0.74267158721E+03  0.25500000920E-02 0. -1.
        2   -1    0    0  501    0  0.00000000000E+00  0.00000000000E+00 -0.10546684569E+04  0.10546684569E+04  0.25500000920E-02 0.  1.
    10030    2    1    2    0    0  0.00000000000E+00  0.00000000000E+00 -0.31199686969E+03  0.17973400441E+04  0.17700534420E+04 0.  0.
        1    1    3    3  502    0 -0.81307158495E+02 -0.34066896880E+03  0.66930786474E+03  0.75540665748E+03  0.50400001928E-02 0. -1.
       -1    1    3    3    0  502  0.81307158495E+02  0.34066896880E+03 -0.98130473443E+03  0.10419333866E+04  0.50400001928E-02 0.  1.
</event>
<event>
 5   0  0.1239119E-04  0.1492795E+04  0.7818609E-02  0.8889258E-01
        1   -1    0    0  501    0  0.00000000000E+00  0.00000000000E+00  0.71546452523E+03  0.71546452525E+03  0.50400001928E-02 0.  1.
       -1   -1    0    0    0  501  0.00000000000E+00  0.00000000000E+00 -0.77866808360E+03  0.77866808361E+03  0.50400001928E-02 0. -1.
    10030    2    1    2    0    0  0.00000000000E+00  0.00000000000E+00 -0.63203558362E+02  0.14941326089E+04  0.14927952181E+04 0.  0.
        5    1    3    3  502    0 -0.19350189398E+03  0.26625435921E+03 -0.70209217212E+03  0.77542883292E+03  0.46999998093E+01 0. -1.
       -5    1    3    3    0  502  0.19350189398E+03 -0.26625435921E+03  0.63888861376E+03  0.71870377595E+03  0.46999998093E+01 0.  1.
</event>
<event>
 5   0  0.1330225E-04  0.1795765E+04  0.7818609E-02  0.8708555E-01
       -1   -1    0    0    0  501  0.00000000000E+00  0.00000000000E+00  0.91140808273E+03  0.91140808274E+03  0.50400001928E-02 0.  1.
        1   -1    0    0  501    0  0.00000000000E+00  0.00000000000E+00 -0.88455775141E+03  0.88455775143E+03  0.50400001928E-02 0. -1.
    10030    2    1    2    0    0  0.00000000000E+00  0.00000000000E+00  0.26850331313E+02  0.17959658342E+04  0.17957651119E+04 0.  0.
        3    1    3    3  502    0  0.11954605392E+03 -0.76679615505E+03  0.46505672114E+03  0.90473497030E+03  0.10100000352E+00 0.  1.
       -3    1    3    3    0  502 -0.11954605392E+03  0.76679615505E+03 -0.43820638983E+03  0.89123086386E+03  0.10100000352E+00 0. -1.
</event>
<event>
 5   0  0.2417106E-04  0.1817869E+04  0.7818609E-02  0.8696855E-01
       -2   -1    0    0    0  501  0.00000000000E+00  0.00000000000E+00  0.73996768650E+03  0.73996768650E+03  0.25500000920E-02 0. -1.
        2   -1    0    0  501    0  0.00000000000E+00  0.00000000000E+00 -0.11164831931E+04  0.11164831931E+04  0.25500000920E-02 0.  1.
    10030    2    1    2    0    0  0.00000000000E+00  0.00000000000E+00 -0.37651550661E+03  0.18564508796E+04  0.18178685161E+04 0.  0.
        4    1    3    3  502    0 -0.19337712324E+03  0.81277586872E+03  0.17733549972E+03  0.85407775813E+03  0.12699999809E+01 0. -1.
       -4    1    3    3    0  502  0.19337712324E+03 -0.81277586872E+03 -0.55385100632E+03  0.10023731215E+04  0.12699999809E+01 0.  1.
</event>
<event>
 5   0  0.1308893E-04  0.1800779E+04  0.7818609E-02  0.8705885E-01
        1   -1    0    0  501    0  0.00000000000E+00  0.00000000000E+00  0.10242400101E+04  0.10242400102E+04  0.50400001928E-02 0.  1.
       -1   -1    0    0    0  501  0.00000000000E+00  0.00000000000E+00 -0.79151500799E+03  0.79151500800E+03  0.50400001928E-02 0. -1.
    10030    2    1    2    0    0  0.00000000000E+00  0.00000000000E+00  0.23272500216E+03  0.18157550182E+04  0.18007790979E+04 0.  0.
        4    1    3    3  502    0 -0.27136451334E+03  0.72724788315E+03 -0.34369010374E+03  0.84891264742E+03  0.12699999809E+01 0. -1.
       -4    1    3    3    0  502  0.27136451334E+03 -0.72724788315E+03  0.57641510590E+03  0.96684237074E+03  0.12699999809E+01 0.  1.
</event>
<event>
 5   0  0.2431811E-04  0.1806565E+04  0.7818609E-02  0.8702816E-01
        2   -1    0    0  501    0  0.00000000000E+00  0.00000000000E+00  0.16553505203E+04  0.16553505203E+04  0.25500000920E-02 0. -1.
       -2   -1    0    0    0  501  0.00000000000E+00  0.00000000000E+00 -0.49289808899E+03  0.49289808900E+03  0.25500000920E-02 0.  1.
    10030    2    1    2    0    0  0.00000000000E+00  0.00000000000E+00  0.11624524313E+04  0.21482486093E+04  0.18065648154E+04 0.  0.
        3    1    3    3  502    0 -0.88545728244E+03 -0.15799610263E+03  0.68015856702E+03  0.11276582168E+04  0.10100000352E+00 0. -1.
       -3    1    3    3    0  502  0.88545728244E+03  0.15799610263E+03  0.48229386427E+03  0.10205903925E+04  0.10100000352E+00 0.  1.
</event>
<event>
 5   0  0.2431811E-04  0.1852939E+04  0.7818609E-02  0.8678643E-01
       -2   -1    0    0    0  501  0.00000000000E+00  0.00000000000E+00  0.99260266665E+03  0.99260266666E+03  0.25500000920E-02 0. -1.
        2   -1    0    0  501    0  0.00000000000E+00  0.00000000000E+00 -0.86474226472E+03  0.86474226472E+03  0.25500000920E-02 0.  1.
    10030    2    1    2    0    0  0.00000000000E+00  0.00000000000E+00  0.12786040194E+03  0.18573449314E+04  0.18529387231E+04 0.  0.
        3    1    3    3  502    0  0.17675797201E+02 -0.63895228516E+02  0.99022204320E+03  0.99243878354E+03  0.10100000352E+00 0. -1.
       -3    1    3    3    0  502 -0.17675797201E+02  0.63895228516E+02 -0.86236164126E+03  0.86490614783E+03  0.10100000352E+00 0.  1.
</event>
<event>
 5   0  0.2431811E-04  0.1601170E+04  0.7818609E-02  0.8819830E-01
       -2   -1    0    0    0  501  0.00000000000E+00  0.00000000000E+00  0.39918422479E+03  0.39918422480E+03  0.25500000920E-02 0. -1.
        2   -1    0    0  501    0  0.00000000000E+00  0.00000000000E+00 -0.16056149599E+04  0.16056149599E+04  0.25500000920E-02 0.  1.
    10030    2    1    2    0    0  0.00000000000E+00  0.00000000000E+00 -0.12064307351E+04  0.20047991847E+04  0.16011697763E+04 0.  0.
        3    1    3    3  502    0  0.31972946356E+03 -0.58470269491E+03 -0.47718869196E+02  0.66811770817E+03  0.10100000352E+00 0. -1.
       -3    1    3    3    0  502 -0.31972946356E+03  0.58470269491E+03 -0.11587118659E+04  0.13366814766E+04  0.10100000352E+00 0.  1.
</event>
<event>
 5   0  0.1253925E-04  0.1792920E+04  0.7818609E-02  0.8710074E-01
       -1   -1    0    0    0  501  0.00000000000E+00  0.00000000000E+00  0.10884065421E+04  0.10884065421E+04  0.50400001928E-02 0.  1.
        1   -1    0    0  501    0  0.00000000000E+00  0.00000000000E+00 -0.73836430832E+03  0.73836430834E+03  0.50400001928E-02 0. -1.
    10030    2    1    2    0    0  0.00000000000E+00  0.00000000000E+00  0.35004223381E+03  0.18267708505E+04  0.17929200135E+04 0.  0.
        2    1    3    3  502    0 -0.14648554293E+03  0.38121067877E+03  0.98812393706E+03  0.10691905868E+04  0.25500000920E-02 0.  1.
       -2    1    3    3    0  502  0.14648554293E+03 -0.38121067877E+03 -0.63808170325E+03  0.75758026368E+03  0.25500000920E-02 0. -1.
</event>
<event>
 5   0  0.2393421E-04  0.1801436E+04  0.7818609E-02  0.8705536E-01
        2   -1    0    0  501    0  0.00000000000E+00  0.00000000000E+00  0.11587218467E+04  0.11587218467E+04  0.25500000920E-02 0.  1.
       -2   -1    0    0    0  501  0.00000000000E+00  0.00000000000E+00 -0.70016229887E+03  0.70016229888E+03  0.25500000920E-02 0. -1.
    10030    2    1    2    0    0  0.00000000000E+00  0.00000000000E+00  0.45855954778E+03  0.18588841455E+04  0.18014364845E+04 0.  0.
        5    1    3    3  502    0 -0.11528559223E+03  0.70605526400E+03  0.79396634815E+03  0.10687419967E+04  0.46999998093E+01 0.  1.
       -5    1    3    3    0  502  0.11528559223E+03 -0.70605526400E+03 -0.33540680036E+03  0.79014214881E+03  0.46999998093E+01 0. -1.
</event>
<event>
 5   0  0.2393421E-04  0.1802377E+04  0.7818609E-02  0.8705036E-01
       -2   -1    0    0    0  501  0.00000000000E+00  0.00000000000E+00  0.42668132712E+03  0.42668132712E+03  0.25500000920E-02 0.  1.
        2   -1    0    0  501    0  0.00000000000E+00  0.00000000000E+00 -0.19033902266E+04  0.19033902266E+04  0.25500000920E-02 0. -1.
    10030    2    1    2    0    0  0.00000000000E+00  0.00000000000E+00 -0.14767088995E+04  0.23300715537E+04  0.18023773943E+04 0.  0.
        5    1    3    3  502    0 -0.79540409412E+03 -0.17912620604E+02 -0.12855067459E+04  0.15117996622E+04  0.46999998093E+01 0. -1.
       -5    1    3    3    0  502  0.79540409412E+03  0.17912620604E+02 -0.19120215360E+03  0.81827189152E+03  0.46999998093E+01 0.  1.
</event>
<event>
 5   0  0.2417106E-04  0.1739571E+04  0.7818609E-02  0.8739112E-01
        2   -1    0    0  501    0  0.00000000000E+00  0.00000000000E+00  0.86898046506E+03  0.86898046507E+03  0.25500000920E-02 0.  1.
       -2   -1    0    0    0  501  0.00000000000E+00  0.00000000000E+00 -0.87059151487E+03  0.87059151488E+03  0.25500000920E-02 0. -1.
    10030    2    1    2    0    0  0.00000000000E+00  0.00000000000E+00 -0.16110498113E+01  0.17395719799E+04  0.17395712339E+04 0.  0.
        4    1    3    3  502    0 -0.99338732852E+02 -0.26311996890E+03 -0.82386426262E+03  0.87054823990E+03  0.12699999809E+01 0. -1.
       -4    1    3    3    0  502  0.99338732852E+02  0.26311996890E+03  0.82225321281E+03  0.86902374004E+03  0.12699999809E+01 0.  1.
</event>
<event>
 5   0  0.2417106E-04  0.1804296E+04  0.7818609E-02  0.8704018E-01
        2   -1    0    0  501    0  0.00000000000E+00  0.00000000000E+00  0.11714777194E+04  0.11714777194E+04  0.25500000920E-02 0.  1.
       -2   -1    0    0    0  501  0.00000000000E+00  0.00000000000E+00 -0.69473869934E+03  0.69473869935E+03  0.25500000920E-02 0. -1.
    10030    2    1    2    0    0  0.00000000000E+00  0.00000000000E+00  0.47673902004E+03  0.18662164187E+04  0.18042958816E+04 0.  0.
        4    1    3    3  502    0 -0.35458861448E+03 -0.60914881740E+03 -0.34404812140E+03  0.78432524504E+03  0.12699999809E+01 0.  1.
       -4    1    3    3    0  502  0.35458861448E+03  0.60914881740E+03  0.82078714144E+03  0.10818911737E+04  0.12699999809E+01 0. -1.
</event>
<event>
 5   0  0.1253925E-04  0.1843033E+04  0.7818609E-02  0.8683744E-01
       -1   -1    0    0    0  501  0.00000000000E+00  0.00000000000E+00  0.50932576652E+03  0.50932576655E+03  0.50400001928E-02 0. -1.
        1   -1    0    0  501    0  0.00000000000E+00  0.00000000000E+00 -0.16672870455E+04  0.16672870455E+04  0.50400001928E-02 0.  1.
    10030    2    1    2    0    0  0.00000000000E+00  0.00000000000E+00 -0.11579612789E+04  0.21766128120E+04  0.18430325580E+04 0.  0.
        2    1    3    3  502    0  0.50812423326E+03 -0.51699015481E+03  0.92966459841E+02  0.73082954186E+03  0.25500000920E-02 0. -1.
       -2    1    3    3    0  502 -0.50812423326E+03  0.51699015481E+03 -0.12509277388E+04  0.14457832702E+04  0.25500000920E-02 0.  1.
</event>
<event>
 5   0  0.2431811E-04  0.1862876E+04  0.7818609E-02  0.8673559E-01
        2   -1    0    0  501    0  0.00000000000E+00  0.00000000000E+00  0.99120617173E+03  0.99120617173E+03  0.25500000920E-02 0.  1.
       -2   -1    0    0    0  501  0.00000000000E+00  0.00000000000E+00 -0.87527402073E+03  0.87527402073E+03  0.25500000920E-02 0. -1.
    10030    2    1    2    0    0  0.00000000000E+00  0.00000000000E+00  0.11593215100E+03  0.18664801925E+04  0.18628762829E+04 0.  0.
        3    1    3    3  502    0  0.52225310340E+03  0.11328530813E+02 -0.71469400173E+03  0.88524808158E+03  0.10100000352E+00 0. -1.
       -3    1    3    3    0  502 -0.52225310340E+03 -0.11328530813E+02  0.83062615273E+03  0.98123211088E+03  0.10100000352E+00 0.  1.
</event>
<event>
 5   0  0.1308893E-04  0.1486102E+04  0.7818609E-02  0.8893748E-01
       -1   -1    0    0    0  501  0.00000000000E+00  0.00000000000E+00  0.58630593484E+03  0.58630593486E+03  0.50400001928E-02 0.  1.
        1   -1    0    0  501    0  0.00000000000E+00  0.00000000000E+00 -0.94170128024E+03  0.94170128025E+03  0.50400001928E-02 0. -1.
    10030    2    1    2    0    0  0.00000000000E+00  0.00000000000E+00 -0.35539534540E+03  0.15280072151E+04  0.14861023511E+04 0.  0.
        4    1    3    3  502    0 -0.62497239288E+03 -0.70783249176E+02 -0.58448303438E+03  0.85861678915E+03  0.12699999809E+01 0.  1.
       -4    1    3    3    0  502  0.62497239288E+03  0.70783249176E+02  0.22908768898E+03  0.66939042596E+03  0.12699999809E+01 0. -1.
</event>
<event>
 5   0  0.2550616E-04  0.1953432E+04  0.7818609E-02  0.8628708E-01
        2   -1    0    0  501    0  0.00000000000E+00  0.00000000000E+00  0.18408397684E+04  0.18408397684E+04  0.25500000920E-02 0. -1.
       -2   -1    0    0    0  501  0.00000000000E+00  0.00000000000E+00 -0.51822778788E+03  0.51822778788E+03  0.25500000920E-02 0.  1.
    10030    2    1    2    0    0  0.00000000000E+00  0.00000000000E+00  0.13226119806E+04  0.23590675563E+04  0.19534321806E+04 0.  0.
        1    1    3    3  502    0 -0.77267787183E+03  0.14223946854E+03 -0.39456417324E+02  0.78665111003E+03  0.50400001928E-02 0.  1.
       -1    1    3    3    0  502  0.77267787183E+03 -0.14223946854E+03  0.13620683979E+04  0.15724164463E+04  0.50400001928E-02 0. -1.
</event>
<event>
 5   0  0.2569405E-04  0.1808742E+04  0.7818609E-02  0.8701665E-01
        2   -1    0    0  501    0  0.00000000000E+00  0.00000000000E+00  0.13207468417E+04  0.13207468417E+04  0.25500000920E-02 0. -1.
       -2   -1    0    0    0  501  0.00000000000E+00  0.00000000000E+00 -0.61926071291E+03  0.61926071291E+03  0.25500000920E-02 0.  1.
    10030    2    1    2    0    0  0.00000000000E+00  0.00000000000E+00  0.70148612878E+03  0.19400075546E+04  0.18087416961E+04 0.  0.
        2    1    3    3  502    0 -0.69247486036E+03 -0.20030513689E+03 -0.23500658503E+03  0.75820292476E+03  0.25500000920E-02 0.  1.
       -2    1    3    3    0  502  0.69247486036E+03  0.20030513689E+03  0.93649271381E+03  0.11818046298E+04  0.25500000920E-02 0. -1.
</event>
<event>
 5   0  0.1308893E-04  0.1775988E+04  0.7818609E-02  0.8719174E-01
        1   -1    0    0  501    0  0.00000000000E+00  0.00000000000E+00  0.55565642545E+03  0.55565642547E+03  0.50400001928E-02 0.  1.
       -1   -1    0    0    0  501  0.00000000000E+00  0.00000000000E+00 -0.14191027088E+04  0.14191027088E+04  0.50400001928E-02 0. -1.
    10030    2    1    2    0    0  0.00000000000E+00  0.00000000000E+00 -0.86344628333E+03  0.19747591343E+04  0.17759882190E+04 0.  0.
        4    1    3    3  502    0  0.25943435413E+03 -0.32406731634E+01  0.51256926681E+03  0.57449591143E+03  0.12699999809E+01 0.  1.
       -4    1    3    3    0  502 -0.25943435413E+03  0.32406731634E+01 -0.13760155501E+04  0.14002632228E+04  0.12699999809E+01 0. -1.
</event>
<event>
 5   0  0.1253925E-04  0.1833246E+04  0.7818609E-02  0.8688817E-01
        1   -1    0    0  501    0  0.00000000000E+00  0.00000000000E+00  0.87380423664E+03  0.87380423665E+03  0.50400001928E-02 0.  1.
       -1   -1    0    0    0  501  0.00000000000E+00  0.00000000000E+00 -0.96154027272E+03  0.96154027273E+03  0.50400001928E-02 0. -1.
    10030    2    1    2    0    0  0.00000000000E+00  0.00000000000E+00 -0.87736036076E+02  0.18353445094E+04  0.18332462617E+04 0.  0.
        2    1    3    3  502    0  0.42861384918E+02  0.62017743130E+03  0.63050582095E+03  0.88543477167E+03  0.25500000920E-02 0.  1.
       -2    1    3    3    0  502 -0.42861384918E+02 -0.62017743130E+03 -0.71824185703E+03  0.94990973772E+03  0.25500000920E-02 0. -1.
</event>
<event>
 5   0  0.2417106E-04  0.1785737E+04  0.7818609E-02  0.8713921E-01
       -2   -1    0    0    0  501  0.00000000000E+00  0.00000000000E+00  0.67672931657E+03  0.67672931658E+03  0.25500000920E-02 0. -1.
        2   -1    0    0  501    0  0.00000000000E+00  0.00000000000E+00 -0.11780398073E+04  0.11780398073E+04  0.25500000920E-02 0.  1.
    10030    2    1    2    0    0  0.00000000000E+00  0.00000000000E+00 -0.50131049071E+03  0.18547691239E+04  0.17857369052E+04 0.  0.
        4    1    3    3  502    0 -0.56963477838E+03 -0.53907722245E+03  0.19260265428E+03  0.80757998231E+03  0.12699999809E+01 0. -1.
       -4    1    3    3    0  502  0.56963477838E+03  0.53907722245E+03 -0.69391314499E+03  0.10471891416E+04  0.12699999809E+01 0.  1.
</event>
<event>
 5   0  0.2417106E-04  0.1807287E+04  0.7818609E-02  0.8702434E-01
        2   -1    0    0  501    0  0.00000000000E+00  0.00000000000E+00  0.23481442148E+04  0.23481442148E+04  0.25500000920E-02 0. -1.
       -2   -1    0    0    0  501  0.00000000000E+00  0.00000000000E+00 -0.34775176142E+03  0.34775176143E+03  0.25500000920E-02 0.  1.
    10030    2    1    2    0    0  0.00000000000E+00  0.00000000000E+00  0.20003924534E+04  0.26958959762E+04  0.18072866809E+04 0.  0.
        4    1    3    3  502    0  0.80077036319E+03 -0.41733876998E+03  0.94928528190E+03  0.13101713563E+04  0.12699999809E+01 0.  1.
       -4    1    3    3    0  502 -0.80077036319E+03  0.41733876998E+03  0.10511071715E+04  0.13857246199E+04  0.12699999809E+01 0. -1.
</event>
<event>
 5   0  0.1308893E-04  0.1799156E+04  0.7818609E-02  0.8706748E-01
        1   -1    0    0  501    0  0.00000000000E+00  0.00000000000E+00  0.16399840698E+04  0.16399840698E+04  0.50400001928E-02 0. -1.
       -1   -1    0    0    0  501  0.00000000000E+00  0.00000000000E+00 -0.49344411221E+03  0.49344411223E+03  0.50400001928E-02 0.  1.
    10030    2    1    2    0    0  0.00000000000E+00  0.00000000000E+00  0.11465399576E+04  0.21334281820E+04  0.17991558947E+04 0.  0.
        4    1    3    3  502    0  0.50024913410E+03  0.58174355810E+03  0.11301692525E+04  0.13660010673E+04  0.12699999809E+01 0. -1.
       -4    1    3    3    0  502 -0.50024913410E+03 -0.58174355810E+03  0.16370705049E+02  0.76742711474E+03  0.12699999809E+01 0.  1.
</event>
<event>
 5   0  0.1253925E-04  0.1803432E+04  0.7818609E-02  0.8704477E-01
        1   -1    0    0  501    0  0.00000000000E+00  0.00000000000E+00  0.16476990078E+04  0.16476990078E+04  0.50400001928E-02 0.  1.
       -1   -1    0    0    0  501  0.00000000000E+00  0.00000000000E+00 -0.49347079852E+03  0.49347079855E+03  0.50400001928E-02 0. -1.
    10030    2    1    2    0    0  0.00000000000E+00  0.00000000000E+00  0.11542282093E+04  0.21411698063E+04  0.18034315569E+04 0.  0.
        2    1    3    3  502    0  0.92366113934E+02  0.31375536712E+03  0.15747909829E+04  0.16083968942E+04  0.25500000920E-02 0.  1.
       -2    1    3    3    0  502 -0.92366113934E+02 -0.31375536712E+03 -0.42056277361E+03  0.53277291218E+03  0.25500000920E-02 0. -1.
</event>
<event>
 5   0  0.2393421E-04  0.1745947E+04  0.7818609E-02  0.8735584E-01
        2   -1    0    0  501    0  0.00000000000E+00  0.00000000000E+00  0.24905337456E+04  0.24905337456E+04  0.25500000920E-02 0.  1.
       -2   -1    0    0    0  501  0.00000000000E+00  0.00000000000E+00 -0.30599179710E+03  0.30599179711E+03  0.25500000920E-02 0. -1.
    10030    2    1    2    0    0  0.00000000000E+00  0.00000000000E+00  0.21845419485E+04  0.27965255427E+04  0.17459471888E+04 0.  0.
        5    1    3    3  502    0 -0.73649369465E+03 -0.46088593245E+03  0.95615268670E+03  0.12919322178E+04  0.46999998093E+01 0.  1.
       -5    1    3    3    0  502  0.73649369465E+03  0.46088593245E+03  0.12283892618E+04  0.15045933250E+04  0.46999998093E+01 0. -1.
</event>
<event>
 5   0  0.2393421E-04  0.1803560E+04  0.7818609E-02  0.8704409E-01
        2   -1    0    0  501    0  0.00000000000E+00  0.00000000000E+00  0.45269493014E+03  0.45269493014E+03  0.25500000920E-02 0. -1.
       -2   -1    0    0    0  501  0.00000000000E+00  0.00000000000E+00 -0.17963682654E+04  0.17963682654E+04  0.25500000920E-02 0.  1.
    10030    2    1    2    0    0  0.00000000000E+00  0.00000000000E+00 -0.13436733352E+04  0.22490631955E+04  0.18035595986E+04 0.  0.
        5    1    3    3  502    0 -0.42972773864E+02  0.48704301025E+03 -0.16167135160E+04  0.16890358895E+04  0.46999998093E+01 0.  1.
       -5    1    3    3    0  502  0.42972773864E+02 -0.48704301025E+03  0.27304018081E+03  0.56002730600E+03  0.46999998093E+01 0. -1.
</event>
<event>
 5   0  0.1239119E-04  0.1825703E+04  0.7818609E-02  0.8692749E-01
       -1   -1    0    0    0  501  0.00000000000E+00  0.00000000000E+00  0.85147767779E+03  0.85147767780E+03  0.50400001928E-02 0.  1.
        1   -1    0    0  501    0  0.00000000000E+00  0.00000000000E+00 -0.97864885756E+03  0.97864885757E+03  0.50400001928E-02 0. -1.
    10030    2    1    2    0    0  0.00000000000E+00  0.00000000000E+00 -0.12717117977E+03  0.18301265354E+04  0.18257027761E+04 0.  0.
        5    1    3    3  502    0  0.26751506994E+03  0.85033736215E+03 -0.26062643018E+03  0.92875517130E+03  0.46999998093E+01 0. -1.
       -5    1    3    3    0  502 -0.26751506994E+03 -0.85033736215E+03  0.13345525040E+03  0.90137136407E+03  0.46999998093E+01 0.  1.
</event>
<event>
 5   0  0.2569405E-04  0.1770706E+04  0.7818609E-02  0.8722035E-01
       -2   -1    0    0    0  501  0.00000000000E+00  0.00000000000E+00  0.94027317078E+03  0.94027317079E+03  0.25500000920E-02 0.  1.
        2   -1    0    0  501    0  0.00000000000E+00  0.00000000000E+00 -0.83364087240E+03  0.83364087240E+03  0.25500000920E-02 0. -1.
    10030    2    1    2    0    0  0.00000000000E+00  0.00000000000E+00  0.10663229838E+03  0.17739140432E+04  0.17707062392E+04 0.  0.
        2    1    3    3  502    0 -0.40436672276E+03 -0.99813911842E+02  0.83599641037E+03  0.93400495803E+03  0.25500000920E-02 0.  1.
       -2    1    3    3    0  502  0.40436672276E+03  0.99813911842E+02 -0.72936411199E+03  0.83990908516E+03  0.25500000920E-02 0. -1.
</event>
<event>
 5   0  0.1308893E-04  0.1807544E+04  0.7818609E-02  0.8702298E-01
        1   -1    0    0  501    0  0.00000000000E+00  0.00000000000E+00  0.76435784303E+03  0.76435784305E+03  0.50400001928E-02 0.  1.
       -1   -1    0    0    0  501  0.00000000000E+00  0.00000000000E+00 -0.10686148897E+04  0.10686148897E+04  0.50400001928E-02 0. -1.
    10030    2    1    2    0    0  0.00000000000E+00  0.00000000000E+00 -0.30425704664E+03  0.18329727327E+04  0.18075443808E+04 0.  0.
        4    1    3    3  502    0 -0.72790262210E+03 -0.42497286333E+03  0.17858574118E+03  0.86159076230E+03  0.12699999809E+01 0.  1.
       -4    1    3    3    0  502  0.72790262210E+03  0.42497286333E+03 -0.48284278782E+03  0.97138197043E+03  0.12699999809E+01 0. -1.
</event>
<event>
 5   0  0.2431811E-04  0.1791089E+04  0.7818609E-02  0.8711053E-01
       -2   -1    0    0    0  501  0.00000000000E+00  0.00000000000E+00  0.37604218495E+03  0.37604218496E+03  0.25500000920E-02 0. -1.
        2   -1    0    0  501    0  0.00000000000E+00  0.00000000000E+00 -0.21327393485E+04  0.21327393485E+04  0.25500000920E-02 0.  1.
    10030    2    1    2    0    0  0.00000000000E+00  0.00000000000E+00 -0.17566971635E+04  0.25087815334E+04  0.17910890146E+04 0.  0.
        3    1    3    3  502    0 -0.23664303700E+03 -0.39392598887E+03  0.19830038819E+03  0.50050041540E+03  0.10100000352E+00 0. -1.
       -3    1    3    3    0  502  0.23664303700E+03  0.39392598887E+03 -0.19549975517E+04  0.20082811180E+04  0.10100000352E+00 0.  1.
</event>
<event>
 5   0  0.2393421E-04  0.1613736E+04  0.7818609E-02  0.8812154E-01
        2   -1    0    0  501    0  0.00000000000E+00  0.00000000000E+00  0.70949444488E+03  0.70949444489E+03  0.25500000920E-02 0. -1.
       -2   -1    0    0    0  501  0.00000000000E+00  0.00000000000E+00 -0.91760504706E+03  0.91760504707E+03  0.25500000920E-02 0.  1.
    10030    2    1    2    0    0  0.00000000000E+00  0.00000000000E+00 -0.20811060218E+03  0.16270994920E+04  0.16137356456E+04 0.  0.
        5    1    3    3  502    0 -0.80340885886E+03  0.37555660810E+02 -0.16891037645E+03  0.82184489256E+03  0.46999998093E+01 0.  1.
       -5    1    3    3    0  502  0.80340885886E+03 -0.37555660810E+02 -0.39200225737E+02  0.80525459940E+03  0.46999998093E+01 0. -1.
</event>
<event>
 5   0  0.2569405E-04  0.1831823E+04  0.7818609E-02  0.8689557E-01
       -2   -1    0    0    0  501  0.00000000000E+00  0.00000000000E+00  0.62104615409E+03  0.62104615410E+03  0.25500000920E-02 0.  1.
        2   -1    0    0  501    0  0.00000000000E+00  0.00000000000E+00 -0.13507756366E+04  0.13507756366E+04  0.25500000920E-02 0. -1.
    10030    2    1    2    0    0  0.00000000000E+00  0.00000000000E+00 -0.72972948255E+03  0.19718217907E+04  0.18318231511E+04 0.  0.
        2    1    3    3  502    0  0.54042555240E+03  0.73800433908E+03 -0.41516772312E+03  0.10045269636E+04  0.25500000920E-02 0.  1.
       -2    1    3    3    0  502 -0.54042555240E+03 -0.73800433908E+03 -0.31456175943E+03  0.96729482718E+03  0.25500000920E-02 0. -1.
</event>
<event>
 5   0  0.1330225E-04  0.1826538E+04  0.7818609E-02  0.8692313E-01
        1   -1    0    0  501    0  0.00000000000E+00  0.00000000000E+00  0.22243942658E+04  0.22243942658E+04  0.50400001928E-02 0.  1.
       -1   -1    0    0    0  501  0.00000000000E+00  0.00000000000E+00 -0.37496063601E+03  0.37496063604E+03  0.50400001928E-02 0. -1.
    10030    2    1    2    0    0  0.00000000000E+00  0.00000000000E+00  0.18494336298E+04  0.25993549018E+04  0.18265380244E+04 0.  0.
        3    1    3    3  502    0  0.73840231070E+03  0.39359559217E+03  0.40396000201E+03  0.92916045765E+03  0.10100000352E+00 0.  1.
       -3    1    3    3    0  502 -0.73840231070E+03 -0.39359559217E+03  0.14454736278E+04  0.16701944442E+04  0.10100000352E+00 0. -1.
</event>
<event>
 5   0  0.2569405E-04  0.1807677E+04  0.7818609E-02  0.8702228E-01
        2   -1    0    0  501    0  0.00000000000E+00  0.00000000000E+00  0.11656960268E+04  0.11656960268E+04  0.25500000920E-02 0.  1.
       -2   -1    0    0    0  501  0.00000000000E+00  0.00000000000E+00 -0.70080327775E+03  0.70080327776E+03  0.25500000920E-02 0. -1.
    10030    2    1    2    0    0  0.00000000000E+00  0.00000000000E+00  0.46489274901E+03  0.18664993045E+04  0.18076765158E+04 0.  0.
        2    1    3    3  502    0  0.33941423896E+03  0.46018814333E+03  0.95518673440E+03  0.11132640524E+04  0.25500000920E-02 0.  1.
       -2    1    3    3    0  502 -0.33941423896E+03 -0.46018814333E+03 -0.49029398539E+03  0.75323525209E+03  0.25500000920E-02 0. -1.
</event>
<event>
 5   0  0.1239119E-04  0.1811486E+04  0.7818609E-02  0.8700215E-01
        1   -1    0    0  501    0  0.00000000000E+00  0.00000000000E+00  0.25902575696E+04  0.25902575696E+04  0.50400001928E-02 0.  1.
       -1   -1    0    0    0  501  0.00000000000E+00  0.00000000000E+00 -0.31671382992E+03  0.31671382996E+03  0.50400001928E-02 0. -1.
    10030    2    1    2    0    0  0.00000000000E+00  0.00000000000E+00  0.22735437396E+04  0.29069713995E+04  0.18114860147E+04 0.  0.
        5    1    3    3  502    0  0.10336544820E+03  0.17376702189E+03 -0.28001711833E+03  0.34541434587E+03  0.46999998093E+01 0. -1.
       -5    1    3    3    0  502 -0.10336544820E+03 -0.17376702189E+03  0.25535608580E+04  0.25615570537E+04  0.46999998093E+01 0.  1.
</event>
<event>
 5   0  0.1308893E-04  0.1790716E+04  0.7818609E-02  0.8711252E-01
        1   -1    0    0  501    0  0.00000000000E+00  0.00000000000E+00  0.17792048966E+04  0.17792048966E+04  0.50400001928E-02 0. -1.
       -1   -1    0    0    0  501  0.00000000000E+00  0.00000000000E+00 -0.45057559085E+03  0.45057559088E+03  0.50400001928E-02 0.  1.
    10030    2    1    2    0    0  0.00000000000E+00  0.00000000000E+00  0.13286293057E+04  0.22297804875E+04  0.17907163902E+04 0.  0.
        4    1    3    3  502    0 -0.28326732249E+03 -0.79202632274E+02  0.17173289155E+04  0.17423356881E+04  0.12699999809E+01 0. -1.
       -4    1    3    3    0  502  0.28326732249E+03  0.79202632274E+02 -0.38869960977E+03  0.48744479942E+03  0.12699999809E+01 0.  1.
</event>
<event>
 5   0  0.2431811E-04  0.1813470E+04  0.7818609E-02  0.8699169E-01
       -2   -1    0    0    0  501  0.00000000000E+00  0.00000000000E+00  0.41913692703E+03  0.41913692704E+03  0.25500000920E-02 0.  1.
        2   -1    0    0  501    0  0.00000000000E+00  0.00000000000E+00 -0.19615736707E+04  0.19615736707E+04  0.25500000920E-02 0. -1.
    10030    2    1    2    0    0  0.00000000000E+00  0.00000000000E+00 -0.15424367437E+04  0.23807105977E+04  0.18134695591E+04 0.  0.
        3    1    3    3  502    0  0.52943159878E+03  0.61616935016E+03 -0.24249430951E+03  0.84780067599E+03  0.10100000352E+00 0.  1.
       -3    1    3    3    0  502 -0.52943159878E+03 -0.61616935016E+03 -0.12999424341E+04  0.15329099217E+04  0.10100000352E+00 0. -1.
</event>
<event>
 5   0  0.1330225E-04  0.1679479E+04  0.7818609E-02  0.8773156E-01
       -1   -1    0    0    0  501  0.00000000000E+00  0.00000000000E+00  0.49573635118E+03  0.49573635120E+03  0.50400001928E-02 0. -1.
        1   -1    0    0  501    0  0.00000000000E+00  0.00000000000E+00 -0.14224542167E+04  0.14224542167E+04  0.50400001928E-02 0.  1.
    10030    2    1    2    0    0  0.00000000000E+00  0.00000000000E+00 -0.92671786554E+03  0.19181905679E+04  0.16794788039E+04 0.  0.
        3    1    3    3  502    0  0.79871184349E+03 -0.21796519148E+03 -0.62371728862E+03  0.10365677498E+04  0.10100000352E+00 0. -1.
       -3    1    3    3    0  502 -0.79871184349E+03  0.21796519148E+03 -0.30300057692E+03  0.88162281813E+03  0.10100000352E+00 0.  1.
</event>
<event>
 5   0  0.1253925E-04  0.1857561E+04  0.7818609E-02  0.8676274E-01
       -1   -1    0    0    0  501  0.00000000000E+00  0.00000000000E+00  0.51402054351E+03  0.51402054354E+03  0.50400001928E-02 0.  1.
        1   -1    0    0  501    0  0.00000000000E+00  0.00000000000E+00 -0.16782084936E+04  0.16782084937E+04  0.50400001928E-02 0. -1.
    10030    2    1    2    0    0  0.00000000000E+00  0.00000000000E+00 -0.11641879501E+04  0.21922290372E+04  0.18575614575E+04 0.  0.
        2    1    3    3  502    0  0.27163496470E+03 -0.76369290577E+03 -0.46942514767E+02  0.81192118341E+03  0.25500000920E-02 0.  1.
       -2    1    3    3    0  502 -0.27163496470E+03  0.76369290577E+03 -0.11172454354E+04  0.13803078538E+04  0.25500000920E-02 0. -1.
</event>
<event>
 5   0  0.1253925E-04  0.1806019E+04  0.7818609E-02  0.8703105E-01
        1   -1    0    0  501    0  0.00000000000E+00  0.00000000000E+00  0.86414199523E+03  0.86414199525E+03  0.50400001928E-02 0.  1.
       -1   -1    0    0    0  501  0.00000000000E+00  0.00000000000E+00 -0.94362484619E+03  0.94362484620E+03  0.50400001928E-02 0. -1.
    10030    2    1    2    0    0  0.00000000000E+00  0.00000000000E+00 -0.79482850959E+02  0.18077668415E+04  0.18060186681E+04 0.  0.
        2    1    3    3  502    0  0.78620131564E+03 -0.11730703291E+03  0.38910345021E+03  0.88502821631E+03  0.25500000920E-02 0.  1.
       -2    1    3    3    0  502 -0.78620131564E+03  0.11730703291E+03 -0.46858630116E+03  0.92273862514E+03  0.25500000920E-02 0. -1.
</event>
<event>
 5   0  0.2417106E-04  0.1790346E+04  0.7818609E-02  0.8711450E-01
       -2   -1    0    0    0  501  0.00000000000E+00  0.00000000000E+00  0.57297724316E+03  0.57297724316E+03  0.25500000920E-02 0.  1.
        2   -1    0    0  501    0  0.00000000000E+00  0.00000000000E+00 -0.13985461705E+04  0.13985461705E+04  0.25500000920E-02 0. -1.
    10030    2    1    2    0    0  0.00000000000E+00  0.00000000000E+00 -0.82556892731E+03  0.19715234136E+04  0.17903464795E+04 0.  0.
        4    1    3    3  502    0 -0.18824875639E+03  0.87357335129E+03 -0.35487448490E+03  0.96151209420E+03  0.12699999809E+01 0. -1.
       -4    1    3    3    0  502  0.18824875639E+03 -0.87357335129E+03 -0.47069444242E+03  0.10100113194E+04  0.12699999809E+01 0.  1.
</event>
<event>
 5   0  0.1308893E-04  0.1796557E+04  0.7818609E-02  0.8708133E-01
        1   -1    0    0  501    0  0.00000000000E+00  0.00000000000E+00  0.71191505830E+03  0.71191505831E+03  0.50400001928E-02 0.  1.
       -1   -1    0    0    0  501  0.00000000000E+00  0.00000000000E+00 -0.11334274992E+04  0.11334274992E+04  0.50400001928E-02 0. -1.
    10030    2    1    2    0    0  0.00000000000E+00  0.00000000000E+00 -0.42151244094E+03  0.18453425576E+04  0.17965568226E+04 0.  0.
        4    1    3    3  502    0 -0.54978041279E+03  0.38871699715E+03 -0.82149741397E+03  0.10621765485E+04  0.12699999809E+01 0. -1.
       -4    1    3    3    0  502  0.54978041279E+03 -0.38871699715E+03  0.39998497303E+03  0.78316600904E+03  0.12699999809E+01 0.  1.
</event>
<event>
 5   0  0.1214723E-04  0.1788613E+04  0.7818609E-02  0.8712379E-01
       -1   -1    0    0    0  501  0.00000000000E+00  0.00000000000E+00  0.14737449903E+04  0.14737449903E+04  0.50400001928E-02 0. -1.
        1   -1    0    0  501    0  0.00000000000E+00  0.00000000000E+00 -0.54268800949E+03  0.54268800951E+03  0.50400001928E-02 0.  1.
    10030    2    1    2    0    0  0.00000000000E+00  0.00000000000E+00  0.93105698080E+03  0.20164329998E+04  0.17886125744E+04 0.  0.
        1    1    3    3  502    0  0.73869225041E+03  0.37478298041E+03  0.84559726876E+03  0.11837074234E+04  0.50400001928E-02 0. -1.
       -1    1    3    3    0  502 -0.73869225041E+03 -0.37478298041E+03  0.85459712039E+02  0.83272557642E+03  0.50400001928E-02 0.  1.
</event>
<event>
 5   0  0.2393421E-04  0.1870812E+04  0.7818609E-02  0.8669523E-01
        2   -1    0    0  501    0  0.00000000000E+00  0.00000000000E+00  0.15130804162E+04  0.15130804162E+04  0.25500000920E-02 0. -1.
       -2   -1    0    0    0  501  0.00000000000E+00  0.00000000000E+00 -0.57828032204E+03  0.57828032205E+03  0.25500000920E-02 0.  1.
    10030    2    1    2    0    0  0.00000000000E+00  0.00000000000E+00  0.93480009419E+03  0.20913607383E+04  0.18708122625E+04 0.  0.
        5    1    3    3  502    0 -0.67741269306E+03  0.34164057355E+03 -0.14423582061E+03  0.77229029526E+03  0.46999998093E+01 0.  1.
       -5    1    3    3    0  502  0.67741269306E+03 -0.34164057355E+03  0.10790359148E+04  0.13190704430E+04  0.46999998093E+01 0. -1.
</event>
<event>
 5   0  0.2550616E-04  0.1802221E+04  0.7818609E-02  0.8705119E-01
       -2   -1    0    0    0  501  0.00000000000E+00  0.00000000000E+00  0.73695874397E+03  0.73695874397E+03  0.25500000920E-02 0.  1.
        2   -1    0    0  501    0  0.00000000000E+00  0.00000000000E+00 -0.11018253186E+04  0.11018253187E+04  0.25500000920E-02 0. -1.
    10030    2    1    2    0    0  0.00000000000E+00  0.00000000000E+00 -0.36486657468E+03  0.18387840626E+04  0.18022206335E+04 0.  0.
        1    1    3    3  502    0 -0.45812020235E+03  0.75137131054E+03  0.15320626397E+02  0.88015208215E+03  0.50400001928E-02 0.  1.
       -1    1    3    3    0  502  0.45812020235E+03 -0.75137131054E+03 -0.38018720108E+03  0.95863198047E+03  0.50400001928E-02 0. -1.
</event>
<event>
 5   0  0.2550616E-04  0.1880753E+04  0.7818609E-02  0.8664496E-01
        2   -1    0    0  501    0  0.00000000000E+00  0.00000000000E+00  0.10310200802E+04  0.10310200802E+04  0.25500000920E-02 0.  1.
       -2   -1    0    0    0  501  0.00000000000E+00  0.00000000000E+00 -0.85770222551E+03  0.85770222552E+03  0.25500000920E-02 0. -1.
    10030    2    1    2    0    0  0.00000000000E+00  0.00000000000E+00  0.17331785470E+03  0.18887223057E+04  0.18807532718E+04 0.  0.
        1    1    3    3  502    0  0.28097681705E+03  0.67398286425E+03  0.68171273745E+03  0.99896603018E+03  0.50400001928E-02 0.  1.
       -1    1    3    3    0  502 -0.28097681705E+03 -0.67398286425E+03 -0.50839488276E+03  0.88975627554E+03  0.50400001928E-02 0. -1.
</event>
<event>
 5   0  0.1330225E-04  0.1797813E+04  0.7818609E-02  0.8707463E-01
       -1   -1    0    0    0  501  0.00000000000E+00  0.00000000000E+00  0.84498664920E+03  0.84498664921E+03  0.50400001928E-02 0.  1.
        1   -1    0    0  501    0  0.00000000000E+00  0.00000000000E+00 -0.95626679414E+03  0.95626679416E+03  0.50400001928E-02 0. -1.
    10030    2    1    2    0    0  0.00000000000E+00  0.00000000000E+00 -0.11128014495E+03  0.18012534434E+04  0.17978127535E+04 0.  0.
        3    1    3    3  502    0  0.58016693865E+03 -0.59080798807E+03 -0.40614513962E+03  0.92228067317E+03  0.10100000352E+00 0. -1.
       -3    1    3    3    0  502 -0.58016693865E+03  0.59080798807E+03  0.29486499467E+03  0.87897277020E+03  0.10100000352E+00 0.  1.
</event>
<event>
 5   0  0.2393421E-04  0.1809868E+04  0.7818609E-02  0.8701069E-01
       -2   -1    0    0    0  501  0.00000000000E+00  0.00000000000E+00  0.15415593817E+04  0.15415593817E+04  0.25500000920E-02 0.  1.
        2   -1    0    0  501    0  0.00000000000E+00  0.00000000000E+00 -0.53121882258E+03  0.53121882258E+03  0.25500000920E-02 0. -1.
    10030    2    1    2    0    0  0.00000000000E+00  0.00000000000E+00  0.10103405592E+04  0.20727782043E+04  0.18098677960E+04 0.  0.
        5    1    3    3  502    0 -0.35766726309E+03 -0.26997586521E+03  0.14055484652E+04  0.14752631687E+04  0.46999998093E+01 0.  1.
       -5    1    3    3    0  502  0.35766726309E+03  0.26997586521E+03 -0.39520790600E+03  0.59751503566E+03  0.46999998093E+01 0. -1.
</event>
<event>
 5   0  0.2569405E-04  0.1806309E+04  0.7818609E-02  0.8702952E-01
        2   -1    0    0  501    0  0.00000000000E+00  0.00000000000E+00  0.33776233521E+04  0.33776233521E+04  0.25500000920E-02 0. -1.
       -2   -1    0    0    0  501  0.00000000000E+00  0.00000000000E+00 -0.24149764455E+03  0.24149764457E+03  0.25500000920E-02 0.  1.
    10030    2    1    2    0    0  0.00000000000E+00  0.00000000000E+00  0.31361257076E+04  0.36191209967E+04  0.18063090364E+04 0.  0.
        2    1    3    3  502    0 -0.72917844950E+03 -0.16395966001E+03  0.25839969862E+04  0.26899115982E+04  0.25500000920E-02 0. -1.
       -2    1    3    3    0  502  0.72917844950E+03  0.16395966001E+03  0.55212872137E+03  0.92920939851E+03  0.25500000920E-02 0.  1.
</event>
<event>
 5   0  0.1239119E-04  0.1792790E+04  0.7818609E-02  0.8710143E-01
        1   -1    0    0  501    0  0.00000000000E+00  0.00000000000E+00  0.17328146639E+04  0.17328146639E+04  0.50400001928E-02 0.  1.
       -1   -1    0    0    0  501  0.00000000000E+00  0.00000000000E+00 -0.46371012118E+03  0.46371012121E+03  0.50400001928E-02 0. -1.
    10030    2    1    2    0    0  0.00000000000E+00  0.00000000000E+00  0.12691045427E+04  0.21965247852E+04  0.17927896673E+04 0.  0.
        5    1    3    3  502    0  0.82716652319E+03  0.90101899881E+02  0.22602810206E+03  0.86222595784E+03  0.46999998093E+01 0. -1.
       -5    1    3    3    0  502 -0.82716652319E+03 -0.90101899881E+02  0.10430764407E+04  0.13342988273E+04  0.46999998093E+01 0.  1.
</event>
<event>
 5   0  0.2550616E-04  0.1791742E+04  0.7818609E-02  0.8710703E-01
       -2   -1    0    0    0  501  0.00000000000E+00  0.00000000000E+00  0.82960694010E+03  0.82960694010E+03  0.25500000920E-02 0.  1.
        2   -1    0    0  501    0  0.00000000000E+00  0.00000000000E+00 -0.96742779163E+03  0.96742779163E+03  0.25500000920E-02 0. -1.
    10030    2    1    2    0    0  0.00000000000E+00  0.00000000000E+00 -0.13782085153E+03  0.17970347317E+04  0.17917419569E+04 0.  0.
        1    1    3    3  502    0  0.97092184047E+02 -0.16414291950E+03 -0.94683324566E+03  0.96584832419E+03  0.50400001928E-02 0. -1.
       -1    1    3    3    0  502 -0.97092184047E+02  0.16414291950E+03  0.80901239412E+03  0.83118640755E+03  0.50400001928E-02 0.  1.
</event>
<event>
 5   0  0.2417106E-04  0.1860061E+04  0.7818609E-02  0.8674996E-01
       -2   -1    0    0    0  501  0.00000000000E+00  0.00000000000E+00  0.59457690709E+03  0.59457690710E+03  0.25500000920E-02 0. -1.
        2   -1    0    0  501    0  0.00000000000E+00  0.00000000000E+00 -0.14547427663E+04  0.14547427663E+04  0.25500000920E-02 0.  1.
    10030    2    1    2    0    0  0.00000000000E+00  0.00000000000E+00 -0.86016585917E+03  0.20493196734E+04  0.18600607029E+04 0.  0.
        4    1    3    3  502    0 -0.19525487783E+03 -0.50506908393E+03 -0.12631504590E+04  0.13743252679E+04  0.12699999809E+01 0.  1.
       -4    1    3    3    0  502  0.19525487783E+03  0.50506908393E+03  0.40298459985E+03  0.67499440551E+03  0.12699999809E+01 0. -1.
</event>
<event>
 5   0  0.2550616E-04  0.1768003E+04  0.7818609E-02  0.8723503E-01
       -2   -1    0    0    0  501  0.00000000000E+00  0.00000000000E+00  0.93138469760E+03  0.93138469760E+03  0.25500000920E-02 0.  1.
        2   -1    0    0  501    0  0.00000000000E+00  0.00000000000E+00 -0.83902873361E+03  0.83902873362E+03  0.25500000920E-02 0. -1.
    10030    2    1    2    0    0  0.00000000000E+00  0.00000000000E+00  0.92355963986E+02  0.17704134312E+04  0.17680028545E+04 0.  0.
        1    1    3    3  502    0 -0.51732905964E+03  0.23651893824E+02  0.76358326553E+03  0.92263111342E+03  0.50400001928E-02 0.  1.
       -1    1    3    3    0  502  0.51732905964E+03 -0.23651893824E+02 -0.67122730154E+03  0.84778231781E+03  0.50400001928E-02 0. -1.
</event>
<event>
 5   0  0.2569405E-04  0.1831478E+04  0.7818609E-02  0.8689737E-01
       -2   -1    0    0    0  501  0.00000000000E+00  0.00000000000E+00  0.56518847147E+03  0.56518847147E+03  0.25500000920E-02 0.  1.
        2   -1    0    0  501    0  0.00000000000E+00  0.00000000000E+00 -0.14837137813E+04  0.14837137813E+04  0.25500000920E-02 0. -1.
    10030    2    1    2    0    0  0.00000000000E+00  0.00000000000E+00 -0.91852530981E+03  0.20489022528E+04  0.18314780088E+04 0.  0.
        2    1    3    3  502    0 -0.78980092816E+03  0.35986257538E+02 -0.97617372649E+03  0.12561829728E+04  0.25500000920E-02 0. -1.
       -2    1    3    3    0  502  0.78980092816E+03 -0.35986257538E+02  0.57648416678E+02  0.79271927995E+03  0.25500000920E-02 0.  1.
</event>
<event>
 5   0  0.1253925E-04  0.1801766E+04  0.7818609E-02  0.8705361E-01
       -1   -1    0    0    0  501  0.00000000000E+00  0.00000000000E+00  0.56364832154E+03  0.56364832156E+03  0.50400001928E-02 0. -1.
        1   -1    0    0  501    0  0.00000000000E+00  0.00000000000E+00 -0.14398869589E+04  0.14398869589E+04  0.50400001928E-02 0.  1.
    10030    2    1    2    0    0  0.00000000000E+00  0.00000000000E+00 -0.87623863734E+03  0.20035352804E+04  0.18017656536E+04 0.  0.
        2    1    3    3  502    0 -0.10377593557E+02 -0.29669008656E+03  0.50769329542E+03  0.58812004228E+03  0.25500000920E-02 0. -1.
       -2    1    3    3    0  502  0.10377593557E+02  0.29669008656E+03 -0.13839319328E+04  0.14154152382E+04  0.25500000920E-02 0.  1.
</event>
<event>
 5   0  0.1253925E-04  0.1807346E+04  0.7818609E-02  0.8702403E-01
       -1   -1    0    0    0  501  0.00000000000E+00  0.00000000000E+00  0.67866080600E+03  0.67866080601E+03  0.50400001928E-02 0. -1.
        1   -1    0    0  501    0  0.00000000000E+00  0.00000000000E+00 -0.12032881830E+04  0.12032881830E+04  0.50400001928E-02 0.  1.
    10030    2    1    2    0    0  0.00000000000E+00  0.00000000000E+00 -0.52462737697E+03  0.18819489890E+04  0.18073455985E+04 0.  0.
        2    1    3    3  502    0 -0.45961781677E+03  0.40146753235E+03  0.43168048850E+03  0.74751104419E+03  0.25500000920E-02 0. -1.
       -2    1    3    3    0  502  0.45961781677E+03 -0.40146753235E+03 -0.95630786548E+03  0.11344379448E+04  0.25500000920E-02 0.  1.
</event>
<event>
 5   0  0.2550616E-04  0.1803903E+04  0.7818609E-02  0.8704226E-01
        2   -1    0    0  501    0  0.00000000000E+00  0.00000000000E+00  0.12551204026E+04  0.12551204026E+04  0.25500000920E-02 0.  1.
       -2   -1    0    0    0  501  0.00000000000E+00  0.00000000000E+00 -0.64815848251E+03  0.64815848252E+03  0.25500000920E-02 0. -1.
    10030    2    1    2    0    0  0.00000000000E+00  0.00000000000E+00  0.60696192005E+03  0.19032788851E+04  0.18039034736E+04 0.  0.
        1    1    3    3  502    0 -0.48537496836E+03  0.75527553129E+03  0.39477481070E+03  0.98075335292E+03  0.50400001928E-02 0. -1.
       -1    1    3    3    0  502  0.48537496836E+03 -0.75527553129E+03  0.21218710935E+03  0.92252553216E+03  0.50400001928E-02 0.  1.
</event>
<event>
 5   0  0.1214723E-04  0.1789583E+04  0.7818609E-02  0.8711859E-01
        1   -1    0    0  501    0  0.00000000000E+00  0.00000000000E+00  0.10612152645E+04  0.10612152645E+04  0.50400001928E-02 0. -1.
       -1   -1    0    0    0  501  0.00000000000E+00  0.00000000000E+00 -0.75446716079E+03  0.75446716081E+03  0.50400001928E-02 0.  1.
    10030    2    1    2    0    0  0.00000000000E+00  0.00000000000E+00  0.30674810371E+03  0.18156824253E+04  0.17895832673E+04 0.  0.
        1    1    3    3  502    0 -0.48144117165E+03 -0.24122803400E+03  0.87841158855E+03  0.10303317354E+04  0.50400001928E-02 0. -1.
       -1    1    3    3    0  502  0.48144117165E+03  0.24122803400E+03 -0.57166348485E+03  0.78535068987E+03  0.50400001928E-02 0.  1.
</event>
<event>
 5   0  0.1239119E-04  0.1739983E+04  0.7818609E-02  0.8738883E-01
        1   -1    0    0  501    0  0.00000000000E+00  0.00000000000E+00  0.18373459766E+04  0.18373459766E+04  0.50400001928E-02 0. -1.
       -1   -1    0    0    0  501  0.00000000000E+00  0.00000000000E+00 -0.41194488937E+03  0.41194488940E+03  0.50400001928E-02 0.  1.
    10030    2    1    2    0    0  0.00000000000E+00  0.00000000000E+00  0.14254010872E+04  0.22492908660E+04  0.17399830862E+04 0.  0.
        5    1    3    3  502    0 -0.57162774120E+03 -0.52346686999E+03  0.12234224140E+04  0.14482956645E+04  0.46999998093E+01 0. -1.
       -5    1    3    3    0  502  0.57162774120E+03  0.52346686999E+03  0.20197867317E+03  0.80099520154E+03  0.46999998093E+01 0.  1.
</event>
<event>
 5   0  0.2550616E-04  0.1741575E+04  0.7818609E-02  0.8738001E-01
       -2   -1    0    0    0  501  0.00000000000E+00  0.00000000000E+00  0.85671316864E+03  0.85671316865E+03  0.25500000920E-02 0. -1.
        2   -1    0    0  501    0  0.00000000000E+00  0.00000000000E+00 -0.88509315015E+03  0.88509315015E+03  0.25500000920E-02 0.  1.
    10030    2    1    2    0    0  0.00000000000E+00  0.00000000000E+00 -0.28379981505E+02  0.17418063188E+04  0.17415751000E+04 0.  0.
        1    1    3    3  502    0 -0.73723080355E+03  0.34687464497E+03  0.29316120617E+03  0.86589535733E+03  0.50400001928E-02 0. -1.
       -1    1    3    3    0  502  0.73723080355E+03 -0.34687464497E+03 -0.32154118768E+03  0.87591096147E+03  0.50400001928E-02 0.  1.
</event>
<event>
 5   0  0.1308893E-04  0.1787708E+04  0.7818609E-02  0.8712863E-01
        1   -1    0    0  501    0  0.00000000000E+00  0.00000000000E+00  0.13154613705E+04  0.13154613705E+04  0.50400001928E-02 0.  1.
       -1   -1    0    0    0  501  0.00000000000E+00  0.00000000000E+00 -0.60737267866E+03  0.60737267868E+03  0.50400001928E-02 0. -1.
    10030    2    1    2    0    0  0.00000000000E+00  0.00000000000E+00  0.70808869183E+03  0.19228340492E+04  0.17877083613E+04 0.  0.
        4    1    3    3  502    0 -0.38299665052E+03  0.43373793050E+03 -0.37874367273E+03  0.69156591096E+03  0.12699999809E+01 0. -1.
       -4    1    3    3    0  502  0.38299665052E+03 -0.43373793050E+03  0.10868323646E+04  0.12312681382E+04  0.12699999809E+01 0.  1.
</event>
<event>
 5   0  0.2569405E-04  0.1757761E+04  0.7818609E-02  0.8729090E-01
        2   -1    0    0  501    0  0.00000000000E+00  0.00000000000E+00  0.12633329874E+04  0.12633329874E+04  0.25500000920E-02 0.  1.
       -2   -1    0    0    0  501  0.00000000000E+00  0.00000000000E+00 -0.61142298069E+03  0.61142298070E+03  0.25500000920E-02 0. -1.
    10030    2    1    2    0    0  0.00000000000E+00  0.00000000000E+00  0.65191000672E+03  0.18747559681E+04  0.17577608720E+04 0.  0.
        2    1    3    3  502    0  0.57229598328E+03  0.60948553413E+02 -0.38247909515E+03  0.69103377405E+03  0.25500000920E-02 0. -1.
       -2    1    3    3    0  502 -0.57229598328E+03 -0.60948553413E+02  0.10343891019E+04  0.11837221941E+04  0.25500000920E-02 0.  1.
</event>
<event>
 5   0  0.1308893E-04  0.1790733E+04  0.7818609E-02  0.8711243E-01
        1   -1    0    0  501    0  0.00000000000E+00  0.00000000000E+00  0.10930215743E+04  0.10930215744E+04  0.50400001928E-02 0.  1.
       -1   -1    0    0    0  501  0.00000000000E+00  0.00000000000E+00 -0.73345449853E+03  0.73345449854E+03  0.50400001928E-02 0. -1.
    10030    2    1    2    0    0  0.00000000000E+00  0.00000000000E+00  0.35956707582E+03  0.18264760729E+04  0.17907334706E+04 0.  0.
        4    1    3    3  502    0 -0.63070394630E+02 -0.72954731595E+03  0.70529825796E+03  0.10166928772E+04  0.12699999809E+01 0.  1.
       -4    1    3    3    0  502  0.63070394630E+02  0.72954731595E+03 -0.34573118214E+03  0.80978319574E+03  0.12699999809E+01 0. -1.
</event>
<event>
 5   0  0.1214723E-04  0.1797272E+04  0.7818609E-02  0.8707751E-01
        1   -1    0    0  501    0  0.00000000000E+00  0.00000000000E+00  0.19247824007E+04  0.19247824007E+04  0.50400001928E-02 0. -1.
       -1   -1    0    0    0  501  0.00000000000E+00  0.00000000000E+00 -0.41955236936E+03  0.41955236939E+03  0.50400001928E-02 0.  1.
    10030    2    1    2    0    0  0.00000000000E+00  0.00000000000E+00  0.15052300314E+04  0.23443347701E+04  0.17972723965E+04 0.  0.
        1    1    3    3  502    0  0.83658091367E+03  0.26821062960E+03  0.50601228423E+03  0.10138308531E+04  0.50400001928E-02 0. -1.
       -1    1    3    3    0  502 -0.83658091367E+03 -0.26821062960E+03  0.99921774715E+03  0.13305039170E+04  0.50400001928E-02 0.  1.
</event>
<event>
 5   0  0.2393421E-04  0.1810026E+04  0.7818609E-02  0.8700986E-01
       -2   -1    0    0    0  501  0.00000000000E+00  0.00000000000E+00  0.76944590841E+03  0.76944590841E+03  0.25500000920E-02 0. -1.
        2   -1    0    0  501    0  0.00000000000E+00  0.00000000000E+00 -0.10644653674E+04  0.10644653674E+04  0.25500000920E-02 0.  1.
    10030    2    1    2    0    0  0.00000000000E+00  0.00000000000E+00 -0.29501945897E+03  0.18339112758E+04  0.18100259905E+04 0.  0.
        5    1    3    3  502    0  0.84808303019E+03  0.31566477244E+03 -0.13563513452E+03  0.91504538377E+03  0.46999998093E+01 0. -1.
       -5    1    3    3    0  502 -0.84808303019E+03 -0.31566477244E+03 -0.15938432445E+03  0.91886589203E+03  0.46999998093E+01 0.  1.
</event>
<event>
 5   0  0.1330225E-04  0.1823592E+04  0.7818609E-02  0.8693853E-01
        1   -1    0    0  501    0  0.00000000000E+00  0.00000000000E+00  0.11740175608E+04  0.11740175608E+04  0.50400001928E-02 0.  1.
       -1   -1    0    0    0  501  0.00000000000E+00  0.00000000000E+00 -0.70814279376E+03  0.70814279378E+03  0.50400001928E-02 0. -1.
    10030    2    1    2    0    0  0.00000000000E+00  0.00000000000E+00  0.46587476707E+03  0.18821603546E+04  0.18235921424E+04 0.  0.
        3    1    3    3  502    0 -0.40784297946E+03  0.16965669820E+03  0.10562101579E+04  0.11448577200E+04  0.10100000352E+00 0.  1.
       -3    1    3    3    0  502  0.40784297946E+03 -0.16965669820E+03 -0.59033539085E+03  0.73730263463E+03  0.10100000352E+00 0. -1.
</event>
<event>
 5   0  0.1330225E-04  0.1796309E+04  0.7818609E-02  0.8708265E-01
        1   -1    0    0  501    0  0.00000000000E+00  0.00000000000E+00  0.64054361811E+03  0.64054361813E+03  0.50400001928E-02 0. -1.
       -1   -1    0    0    0  501  0.00000000000E+00  0.00000000000E+00 -0.12593705633E+04  0.12593705633E+04  0.50400001928E-02 0.  1.
    10030    2    1    2    0    0  0.00000000000E+00  0.00000000000E+00 -0.61882694522E+03  0.18999141815E+04  0.17963093021E+04 0.  0.
        3    1    3    3  502    0  0.34203208463E+03  0.11774157274E+03  0.56009232021E+03  0.66674766008E+03  0.10100000352E+00 0. -1.
       -3    1    3    3    0  502 -0.34203208463E+03 -0.11774157274E+03 -0.11789192654E+04  0.12331665214E+04  0.10100000352E+00 0.  1.
</event>
<event>
 5   0  0.2569405E-04  0.1819309E+04  0.7818609E-02  0.8696098E-01
        2   -1    0    0  501    0  0.00000000000E+00  0.00000000000E+00  0.79350144826E+03  0.79350144826E+03  0.25500000920E-02 0.  1.
       -2   -1    0    0    0  501  0.00000000000E+00  0.00000000000E+00 -0.10428104168E+04  0.10428104168E+04  0.25500000920E-02 0. -1.
    10030    2    1    2    0    0  0.00000000000E+00  0.00000000000E+00 -0.24930896852E+03  0.18363118650E+04  0.18193092931E+04 0.  0.
        2    1    3    3  502    0 -0.68551061931E+03 -0.17545926807E+03 -0.70162668098E+03  0.99648921891E+03  0.25500000920E-02 0. -1.
       -2    1    3    3    0  502  0.68551061931E+03  0.17545926807E+03  0.45231771247E+03  0.83982264613E+03  0.25500000920E-02 0.  1.
</event>
<event>
 5   0  0.2417106E-04  0.1776105E+04  0.7818609E-02  0.8719111E-01
       -2   -1    0    0    0  501  0.00000000000E+00  0.00000000000E+00  0.46636072908E+03  0.46636072909E+03  0.25500000920E-02 0. -1.
        2   -1    0    0  501    0  0.00000000000E+00  0.00000000000E+00 -0.16910449462E+04  0.16910449462E+04  0.25500000920E-02 0.  1.
    10030    2    1    2    0    0  0.00000000000E+00  0.00000000000E+00 -0.12246842171E+04  0.21574056753E+04  0.17761046749E+04 0.  0.
        4    1    3    3  502    0  0.31550876317E+03 -0.65795972346E+03  0.24590153409E+01  0.72970160819E+03  0.12699999809E+01 0. -1.
       -4    1    3    3    0  502 -0.31550876317E+03  0.65795972346E+03 -0.12271432324E+04  0.14277040671E+04  0.12699999809E+01 0.  1.
</event>
<event>
 5   0  0.1330225E-04  0.1776633E+04  0.7818609E-02  0.8718826E-01
       -1   -1    0    0    0  501  0.00000000000E+00  0.00000000000E+00  0.72473571543E+03  0.72473571545E+03  0.50400001928E-02 0.  1.
        1   -1    0    0  501    0  0.00000000000E+00  0.00000000000E+00 -0.10888188817E+04  0.10888188817E+04  0.50400001928E-02 0. -1.
    10030    2    1    2    0    0  0.00000000000E+00  0.00000000000E+00 -0.36408316628E+03  0.18135545972E+04  0.17766326928E+04 0.  0.
        3    1    3    3  502    0 -0.28149594902E+03 -0.67949528103E+03 -0.69054277522E+03  0.10088623003E+04  0.10100000352E+00 0. -1.
       -3    1    3    3    0  502  0.28149594902E+03  0.67949528103E+03  0.32645960894E+03  0.80469229692E+03  0.10100000352E+00 0.  1.
</event>
<event>
 5   0  0.2569405E-04  0.1765624E+04  0.7818609E-02  0.8724797E-01
       -2   -1    0    0    0  501  0.00000000000E+00  0.00000000000E+00  0.35129877428E+03  0.35129877429E+03  0.25500000920E-02 0. -1.
        2   -1    0    0  501    0  0.00000000000E+00  0.00000000000E+00 -0.22185011995E+04  0.22185011995E+04  0.25500000920E-02 0.  1.
    10030    2    1    2    0    0  0.00000000000E+00  0.00000000000E+00 -0.18672024252E+04  0.25697999738E+04  0.17656236883E+04 0.  0.
        2    1    3    3  502    0 -0.71385081118E+03 -0.42886810929E+03 -0.13600442165E+04  0.15947511112E+04  0.25500000920E-02 0.  1.
       -2    1    3    3    0  502  0.71385081118E+03  0.42886810929E+03 -0.50715820868E+03  0.97504886258E+03  0.25500000920E-02 0. -1.
</event>
<event>
 5   0  0.2417106E-04  0.1792963E+04  0.7818609E-02  0.8710051E-01
       -2   -1    0    0    0  501  0.00000000000E+00  0.00000000000E+00  0.65595517668E+03  0.65595517669E+03  0.25500000920E-02 0. -1.
        2   -1    0    0  501    0  0.00000000000E+00  0.00000000000E+00 -0.12252037183E+04  0.12252037183E+04  0.25500000920E-02 0.  1.
    10030    2    1    2    0    0  0.00000000000E+00  0.00000000000E+00 -0.56924854157E+03  0.18811588949E+04  0.17929626003E+04 0.  0.
        4    1    3    3  502    0  0.67805338028E+03 -0.36203876514E+03 -0.76867369128E+03  0.10870553392E+04  0.12699999809E+01 0.  1.
       -4    1    3    3    0  502 -0.67805338028E+03  0.36203876514E+03  0.19942514970E+03  0.79410355572E+03  0.12699999809E+01 0. -1.
</event>
<event>
 5   0  0.2431811E-04  0.1798997E+04  0.7818609E-02  0.8706833E-01
       -2   -1    0    0    0  501  0.00000000000E+00  0.00000000000E+00  0.67510226113E+03  0.67510226114E+03  0.25500000920E-02 0.  1.
        2   -1    0    0  501    0  0.00000000000E+00  0.00000000000E+00 -0.11984811526E+04  0.11984811526E+04  0.25500000920E-02 0. -1.
    10030    2    1    2    0    0  0.00000000000E+00  0.00000000000E+00 -0.52337889147E+03  0.18735834138E+04  0.17989967605E+04 0.  0.
        3    1    3    3  502    0 -0.24710899557E+03  0.84836557260E+01 -0.11623944245E+04  0.11884004529E+04  0.10100000352E+00 0. -1.
       -3    1    3    3    0  502  0.24710899557E+03 -0.84836557260E+01  0.63901553307E+03  0.68518296083E+03  0.10100000352E+00 0.  1.
</event>
<event>
 5   0  0.1330225E-04  0.1758240E+04  0.7818609E-02  0.8728827E-01
       -1   -1    0    0    0  501  0.00000000000E+00  0.00000000000E+00  0.41737642780E+03  0.41737642783E+03  0.50400001928E-02 0. -1.
        1   -1    0    0  501    0  0.00000000000E+00  0.00000000000E+00 -0.18516912675E+04  0.18516912676E+04  0.50400001928E-02 0.  1.
    10030    2    1    2    0    0  0.00000000000E+00  0.00000000000E+00 -0.14343148397E+04  0.22690676954E+04  0.17582403552E+04 0.  0.
        3    1    3    3  502    0 -0.32158389136E+03  0.64167887909E+03 -0.13722658423E+04  0.15486386070E+04  0.10100000352E+00 0.  1.
       -3    1    3    3    0  502  0.32158389136E+03 -0.64167887909E+03 -0.62048997444E+02  0.72042908835E+03  0.10100000352E+00 0. -1.
</event>
<event>
 5   0  0.2569405E-04  0.1816575E+04  0.7818609E-02  0.8697534E-01
        2   -1    0    0  501    0  0.00000000000E+00  0.00000000000E+00  0.11751129905E+04  0.11751129905E+04  0.25500000920E-02 0. -1.
       -2   -1    0    0    0  501  0.00000000000E+00  0.00000000000E+00 -0.70204857712E+03  0.70204857713E+03  0.25500000920E-02 0.  1.
    10030    2    1    2    0    0  0.00000000000E+00  0.00000000000E+00  0.47306441334E+03  0.18771615676E+04  0.18165752425E+04 0.  0.
        2    1    3    3  502    0 -0.76881597372E+03  0.29536560235E+03 -0.15921266899E+03  0.83884892232E+03  0.25500000920E-02 0.  1.
       -2    1    3    3    0  502  0.76881597372E+03 -0.29536560235E+03  0.63227708232E+03  0.10383126453E+04  0.25500000920E-02 0. -1.
</event>
<event>
 5   0  0.1239119E-04  0.1789723E+04  0.7818609E-02  0.8711784E-01
       -1   -1    0    0    0  501  0.00000000000E+00  0.00000000000E+00  0.89625255607E+03  0.89625255609E+03  0.50400001928E-02 0.  1.
        1   -1    0    0  501    0  0.00000000000E+00  0.00000000000E+00 -0.89347269076E+03  0.89347269077E+03  0.50400001928E-02 0. -1.
    10030    2    1    2    0    0  0.00000000000E+00  0.00000000000E+00  0.27798653169E+01  0.17897252469E+04  0.17897230880E+04 0.  0.
        5    1    3    3  502    0  0.61393063253E+03  0.54007804375E+02 -0.64740005179E+03  0.89385489960E+03  0.46999998093E+01 0. -1.
       -5    1    3    3    0  502 -0.61393063253E+03 -0.54007804375E+02  0.65017991710E+03  0.89587034726E+03  0.46999998093E+01 0.  1.
</event>
<event>
 5   0  0.1308893E-04  0.1802889E+04  0.7818609E-02  0.8704765E-01
       -1   -1    0    0    0  501  0.00000000000E+00  0.00000000000E+00  0.86139614877E+03  0.86139614879E+03  0.50400001928E-02 0. -1.
        1   -1    0    0  501    0  0.00000000000E+00  0.00000000000E+00 -0.94335451603E+03  0.94335451604E+03  0.50400001928E-02 0.  1.
    10030    2    1    2    0    0  0.00000000000E+00  0.00000000000E+00 -0.81958367258E+02  0.18047506648E+04  0.18028887343E+04 0.  0.
        4    1    3    3  502    0 -0.13211913461E+03 -0.84991371568E+03 -0.31105689963E+03  0.91464025580E+03  0.12699999809E+01 0.  1.
       -4    1    3    3    0  502  0.13211913461E+03  0.84991371568E+03  0.22909853237E+03  0.89011040903E+03  0.12699999809E+01 0. -1.
</event>
<event>
 5   0  0.2569405E-04  0.1788812E+04  0.7818609E-02  0.8712272E-01
        2   -1    0    0  501    0  0.00000000000E+00  0.00000000000E+00  0.95636606868E+03  0.95636606868E+03  0.25500000920E-02 0.  1.
       -2   -1    0    0    0  501  0.00000000000E+00  0.00000000000E+00 -0.83646059808E+03  0.83646059808E+03  0.25500000920E-02 0. -1.
    10030    2    1    2    0    0  0.00000000000E+00  0.00000000000E+00  0.11990547060E+03  0.17928266668E+04  0.17888124930E+04 0.  0.
        2    1    3    3  502    0  0.40237438194E+02 -0.37957732148E+03 -0.75072860207E+03  0.84219441247E+03  0.25500000920E-02 0. -1.
       -2    1    3    3    0  502 -0.40237438194E+02  0.37957732148E+03  0.87063407267E+03  0.95063225430E+03  0.25500000920E-02 0.  1.
</event>
<event>
 5   0  0.1239119E-04  0.1800359E+04  0.7818609E-02  0.8706109E-01
       -1   -1    0    0    0  501  0.00000000000E+00  0.00000000000E+00  0.93604399790E+03  0.93604399791E+03  0.50400001928E-02 0. -1.
        1   -1    0    0  501    0  0.00000000000E+00  0.00000000000E+00 -0.86568899740E+03  0.86568899742E+03  0.50400001928E-02 0.  1.
    10030    2    1    2    0    0  0.00000000000E+00  0.00000000000E+00  0.70355000492E+02  0.18017329953E+04  0.18003588421E+04 0.  0.
        5    1    3    3  502    0 -0.45620917022E+03 -0.70062090223E+03  0.36905535090E+03  0.91390393241E+03  0.46999998093E+01 0. -1.
       -5    1    3    3    0  502  0.45620917022E+03  0.70062090223E+03 -0.29870035041E+03  0.88782906292E+03  0.46999998093E+01 0.  1.
</event>
<event>
 5   0  0.1330225E-04  0.1707960E+04  0.7818609E-02  0.8756837E-01
       -1   -1    0    0    0  501  0.00000000000E+00  0.00000000000E+00  0.83126973560E+03  0.83126973562E+03  0.50400001928E-02 0. -1.
        1   -1    0    0  501    0  0.00000000000E+00  0.00000000000E+00 -0.87731077446E+03  0.87731077447E+03  0.50400001928E-02 0.  1.
    10030    2    1    2    0    0  0.00000000000E+00  0.00000000000E+00 -0.46041038859E+02  0.17085805101E+04  0.17079600646E+04 0.  0.
        3    1    3    3  502    0 -0.98181090753E+01  0.76117618419E+03 -0.41019639494E+03  0.86472346520E+03  0.10100000352E+00 0.  1.
       -3    1    3    3    0  502  0.98181090753E+01 -0.76117618419E+03  0.36415535608E+03  0.84385704489E+03  0.10100000352E+00 0. -1.
</event>
<event>
 5   0  0.1330225E-04  0.1795731E+04  0.7818609E-02  0.8708573E-01
        1   -1    0    0  501    0  0.00000000000E+00  0.00000000000E+00  0.97292161310E+03  0.97292161311E+03  0.50400001928E-02 0.  1.
       -1   -1    0    0    0  501  0.00000000000E+00  0.00000000000E+00 -0.82859994095E+03  0.82859994096E+03  0.50400001928E-02 0. -1.
    10030    2    1    2    0    0  0.00000000000E+00  0.00000000000E+00  0.14432167215E+03  0.18015215541E+04  0.17957313732E+04 0.  0.
        3    1    3    3  502    0 -0.10751754439E+03  0.87192215814E+03 -0.11378650123E+03  0.88586435207E+03  0.10100000352E+00 0. -1.
       -3    1    3    3    0  502  0.10751754439E+03 -0.87192215814E+03  0.25810817338E+03  0.91565720200E+03  0.10100000352E+00 0.  1.
</event>
<event>
 5   0  0.1253925E-04  0.1799421E+04  0.7818609E-02  0.8706607E-01
       -1   -1    0    0    0  501  0.00000000000E+00  0.00000000000E+00  0.47674887856E+03  0.47674887858E+03  0.50400001928E-02 0.  1.
        1   -1    0    0  501    0  0.00000000000E+00  0.00000000000E+00 -0.16979151923E+04  0.16979151923E+04  0.50400001928E-02 0. -1.
    10030    2    1    2    0    0  0.00000000000E+00  0.00000000000E+00 -0.12211663138E+04  0.21746640709E+04  0.17994212001E+04 0.  0.
        2    1    3    3  502    0  0.25023215384E+03 -0.85518820394E+03 -0.46004326651E+03  0.10027974881E+04  0.25500000920E-02 0.  1.
       -2    1    3    3    0  502 -0.25023215384E+03  0.85518820394E+03 -0.76112304726E+03  0.11718665829E+04  0.25500000920E-02 0. -1.
</event>
<event>
 5   0  0.2393421E-04  0.1810305E+04  0.7818609E-02  0.8700838E-01
       -2   -1    0    0    0  501  0.00000000000E+00  0.00000000000E+00  0.76043832374E+03  0.76043832374E+03  0.25500000920E-02 0.  1.
        2   -1    0    0  501    0  0.00000000000E+00  0.00000000000E+00 -0.10774067156E+04  0.10774067156E+04  0.25500000920E-02 0. -1.
    10030    2    1    2    0    0  0.00000000000E+00  0.00000000000E+00 -0.31696839184E+03  0.18378450393E+04  0.18103053409E+04 0.  0.
        5    1    3    3  502    0  0.40997695065E+03 -0.31867753321E+03 -0.91114158225E+03  0.10487313970E+04  0.46999998093E+01 0. -1.
       -5    1    3    3    0  502 -0.40997695065E+03  0.31867753321E+03  0.59417319041E+03  0.78911364228E+03  0.46999998093E+01 0.  1.
</event>
<event>
 5   0  0.1308893E-04  0.1789303E+04  0.7818609E-02  0.8712009E-01
       -1   -1    0    0    0  501  0.00000000000E+00  0.00000000000E+00  0.32778685104E+03  0.32778685108E+03  0.50400001928E-02 0.  1.
        1   -1    0    0  501    0  0.00000000000E+00  0.00000000000E+00 -0.24418347009E+04  0.24418347009E+04  0.50400001928E-02 0. -1.
    10030    2    1    2    0    0  0.00000000000E+00  0.00000000000E+00 -0.21140478499E+04  0.27696215520E+04  0.17893030011E+04 0.  0.
        4    1    3    3  502    0  0.19377521479E+03  0.19215506530E+03 -0.23758365675E+04  0.23914584277E+04  0.12699999809E+01 0. -1.
       -4    1    3    3    0  502 -0.19377521479E+03 -0.19215506530E+03  0.26178871765E+03  0.37816312429E+03  0.12699999809E+01 0.  1.
</event>
<event>
 5   0  0.1330225E-04  0.1809016E+04  0.7818609E-02  0.8701519E-01
        1   -1    0    0  501    0  0.00000000000E+00  0.00000000000E+00  0.23310387353E+04  0.23310387354E+04  0.50400001928E-02 0.  1.
       -1   -1    0    0    0  501  0.00000000000E+00  0.00000000000E+00 -0.35097436736E+03  0.35097436740E+03  0.50400001928E-02 0. -1.
    10030    2    1    2    0    0  0.00000000000E+00  0.00000000000E+00  0.19800643680E+04  0.26820131028E+04  0.18090161365E+04 0.  0.
        3    1    3    3  502    0 -0.18508832646E+03  0.41616980848E+03 -0.16854572931E+03  0.48565694801E+03  0.10100000352E+00 0. -1.
       -3    1    3    3    0  502  0.18508832646E+03 -0.41616980848E+03  0.21486100973E+04  0.21963561547E+04  0.10100000352E+00 0.  1.
</event>
<event>
 5   0  0.2569405E-04  0.1794766E+04  0.7818609E-02  0.8709088E-01
        2   -1    0    0  501    0  0.00000000000E+00  0.00000000000E+00  0.71613658782E+03  0.71613658783E+03  0.25500000920E-02 0.  1.
       -2   -1    0    0    0  501  0.00000000000E+00  0.00000000000E+00 -0.11245005470E+04  0.11245005470E+04  0.25500000920E-02 0. -1.
    10030    2    1    2    0    0  0.00000000000E+00  0.00000000000E+00 -0.40836395913E+03  0.18406371348E+04  0.17947657058E+04 0.  0.
        2    1    3    3  502    0 -0.63585417078E+03 -0.22036375052E+03 -0.81300903161E+03  0.10553930048E+04  0.25500000920E-02 0. -1.
       -2    1    3    3    0  502  0.63585417078E+03  0.22036375052E+03  0.40464507248E+03  0.78524413002E+03  0.25500000920E-02 0.  1.
</event>
<event>
 5   0  0.9144875E-05  0.1814070E+04  0.7818609E-02  0.8698853E-01
        4   -1    0    0  501    0  0.00000000000E+00  0.00000000000E+00  0.96197977463E+03  0.96198061295E+03  0.12699999809E+01 0. -1.
       -4   -1    0    0    0  501  0.00000000000E+00  0.00000000000E+00 -0.85522713856E+03  0.85522808152E+03  0.12699999809E+01 0.  1.
    10030    2    1    2    0    0  0.00000000000E+00  0.00000000000E+00  0.10675263607E+03  0.18172086945E+04  0.18140703718E+04 0.  0.
        5    1    3    3  502    0 -0.61754356664E+03 -0.66413987422E+03  0.37572165920E+02  0.90767592614E+03  0.46999998093E+01 0.  1.
       -5    1    3    3    0  502  0.61754356664E+03  0.66413987422E+03  0.69180470150E+02  0.90953276834E+03  0.46999998093E+01 0. -1.
</event>
<event>
 5   0  0.2393421E-04  0.1868889E+04  0.7818609E-02  0.8670499E-01
        2   -1    0    0  501    0  0.00000000000E+00  0.00000000000E+00  0.12624796945E+04  0.12624796945E+04  0.25500000920E-02 0.  1.
       -2   -1    0    0    0  501  0.00000000000E+00  0.00000000000E+00 -0.69164391598E+03  0.69164391599E+03  0.25500000920E-02 0. -1.
    10030    2    1    2    0    0  0.00000000000E+00  0.00000000000E+00  0.57083577852E+03  0.19541236105E+04  0.18688888675E+04 0.  0.
        5    1    3    3  502    0  0.57804396512E+03  0.55560872366E+03 -0.21639559722E+03  0.83047277132E+03  0.46999998093E+01 0. -1.
       -5    1    3    3    0  502 -0.57804396512E+03 -0.55560872366E+03  0.78723137573E+03  0.11236508392E+04  0.46999998093E+01 0.  1.
</event>
<event>
 5   0  0.1214723E-04  0.1771056E+04  0.7818609E-02  0.8721845E-01
        1   -1    0    0  501    0  0.00000000000E+00  0.00000000000E+00  0.82105963089E+03  0.82105963091E+03  0.50400001928E-02 0.  1.
       -1   -1    0    0    0  501  0.00000000000E+00  0.00000000000E+00 -0.95505845105E+03  0.95505845107E+03  0.50400001928E-02 0. -1.
    10030    2    1    2    0    0  0.00000000000E+00  0.00000000000E+00 -0.13399882016E+03  0.17761180820E+04  0.17710561135E+04 0.  0.
        1    1    3    3  502    0 -0.43579531423E+03  0.14031374776E+03  0.69316075103E+03  0.83070893248E+03  0.50400001928E-02 0.  1.
       -1    1    3    3    0  502  0.43579531423E+03 -0.14031374776E+03 -0.82715957118E+03  0.94540914949E+03  0.50400001928E-02 0. -1.
</event>
<event>
 5   0  0.2431811E-04  0.1807723E+04  0.7818609E-02  0.8702203E-01
        2   -1    0    0  501    0  0.00000000000E+00  0.00000000000E+00  0.10315664165E+04  0.10315664165E+04  0.25500000920E-02 0. -1.
       -2   -1    0    0    0  501  0.00000000000E+00  0.00000000000E+00 -0.79196613103E+03  0.79196613103E+03  0.25500000920E-02 0.  1.
    10030    2    1    2    0    0  0.00000000000E+00  0.00000000000E+00  0.23960028545E+03  0.18235325475E+04  0.18077230582E+04 0.  0.
        3    1    3    3  502    0 -0.61019944743E+03  0.50153332496E+03  0.56305928589E+03  0.97000763467E+03  0.10100000352E+00 0. -1.
       -3    1    3    3    0  502  0.61019944743E+03 -0.50153332496E+03 -0.32345900044E+03  0.85352491285E+03  0.10100000352E+00 0.  1.
</event>
<event>
 5   0  0.2393421E-04  0.1787032E+04  0.7818609E-02  0.8713226E-01
       -2   -1    0    0    0  501  0.00000000000E+00  0.00000000000E+00  0.71237280292E+03  0.71237280292E+03  0.25500000920E-02 0.  1.
        2   -1    0    0  501    0  0.00000000000E+00  0.00000000000E+00 -0.11207209427E+04  0.11207209427E+04  0.25500000920E-02 0. -1.
    10030    2    1    2    0    0  0.00000000000E+00  0.00000000000E+00 -0.40834813982E+03  0.18330937457E+04  0.17870323100E+04 0.  0.
        5    1    3    3  502    0  0.65384172977E+03  0.26142402178E+03 -0.76834819958E+03  0.10422248186E+04  0.46999998093E+01 0. -1.
       -5    1    3    3    0  502 -0.65384172977E+03 -0.26142402178E+03  0.36000005975E+03  0.79086892705E+03  0.46999998093E+01 0.  1.
</event>
<event>
 5   0  0.1214723E-04  0.1802777E+04  0.7818609E-02  0.8704824E-01
        1   -1    0    0  501    0  0.00000000000E+00  0.00000000000E+00  0.15011113815E+04  0.15011113815E+04  0.50400001928E-02 0.  1.
       -1   -1    0    0    0  501  0.00000000000E+00  0.00000000000E+00 -0.54126648697E+03  0.54126648699E+03  0.50400001928E-02 0. -1.
    10030    2    1    2    0    0  0.00000000000E+00  0.00000000000E+00  0.95984489448E+03  0.20423778685E+04  0.18027770622E+04 0.  0.
        1    1    3    3  502    0 -0.34883456959E+03 -0.43129030920E+03 -0.32500296057E+03  0.64290264594E+03  0.50400001928E-02 0. -1.
       -1    1    3    3    0  502  0.34883456959E+03  0.43129030920E+03  0.12848478551E+04  0.13994752225E+04  0.50400001928E-02 0.  1.
</event>
<event>
 5   0  0.2569405E-04  0.1931502E+04  0.7818609E-02  0.8639333E-01
       -2   -1    0    0    0  501  0.00000000000E+00  0.00000000000E+00  0.10683081252E+04  0.10683081252E+04  0.25500000920E-02 0.  1.
        2   -1    0    0  501    0  0.00000000000E+00  0.00000000000E+00 -0.87303950406E+03  0.87303950406E+03  0.25500000920E-02 0. -1.
    10030    2    1    2    0    0  0.00000000000E+00  0.00000000000E+00  0.19526862109E+03  0.19413476292E+04  0.19315022089E+04 0.  0.
        2    1    3    3  502    0 -0.26116326382E+03 -0.24758861351E+03  0.99839934949E+03  0.10612764169E+04  0.25500000920E-02 0.  1.
       -2    1    3    3    0  502  0.26116326382E+03  0.24758861351E+03 -0.80313072840E+03  0.88007121236E+03  0.25500000920E-02 0. -1.
</event>
<event>
 5   0  0.2393421E-04  0.1814925E+04  0.7818609E-02  0.8698403E-01
       -2   -1    0    0    0  501  0.00000000000E+00  0.00000000000E+00  0.12460080470E+04  0.12460080470E+04  0.25500000920E-02 0.  1.
        2   -1    0    0  501    0  0.00000000000E+00  0.00000000000E+00 -0.66090086881E+03  0.66090086882E+03  0.25500000920E-02 0. -1.
    10030    2    1    2    0    0  0.00000000000E+00  0.00000000000E+00  0.58510717823E+03  0.19069089159E+04  0.18149245724E+04 0.  0.
        5    1    3    3  502    0 -0.13331911372E+03 -0.89532825830E+03  0.22544933308E+03  0.93286449605E+03  0.46999998093E+01 0.  1.
       -5    1    3    3    0  502  0.13331911372E+03  0.89532825830E+03  0.35965784514E+03  0.97404441981E+03  0.46999998093E+01 0. -1.
</event>
<event>
 5   0  0.1253925E-04  0.1797492E+04  0.7818609E-02  0.8707634E-01
       -1   -1    0    0    0  501  0.00000000000E+00  0.00000000000E+00  0.13462637839E+04  0.13462637839E+04  0.50400001928E-02 0.  1.
        1   -1    0    0  501    0  0.00000000000E+00  0.00000000000E+00 -0.59998959043E+03  0.59998959045E+03  0.50400001928E-02 0. -1.
    10030    2    1    2    0    0  0.00000000000E+00  0.00000000000E+00  0.74627419350E+03  0.19462533744E+04  0.17974918708E+04 0.  0.
        2    1    3    3  502    0 -0.30222443724E+03  0.84633627934E+03  0.38497579282E+03  0.97766613384E+03  0.25500000920E-02 0. -1.
       -2    1    3    3    0  502  0.30222443724E+03 -0.84633627934E+03  0.36129840068E+03  0.96858724054E+03  0.25500000920E-02 0.  1.
</event>
<event>
 5   0  0.2393421E-04  0.1799682E+04  0.7818609E-02  0.8706469E-01
       -2   -1    0    0    0  501  0.00000000000E+00  0.00000000000E+00  0.33793006428E+03  0.33793006429E+03  0.25500000920E-02 0.  1.
        2   -1    0    0  501    0  0.00000000000E+00  0.00000000000E+00 -0.23960975669E+04  0.23960975669E+04  0.25500000920E-02 0. -1.
    10030    2    1    2    0    0  0.00000000000E+00  0.00000000000E+00 -0.20581675026E+04  0.27340276312E+04  0.17996815328E+04 0.  0.
        5    1    3    3  502    0 -0.76767205034E+03  0.46647665702E+03 -0.94912174471E+03  0.13068186656E+04  0.46999998093E+01 0. -1.
       -5    1    3    3    0  502  0.76767205034E+03 -0.46647665702E+03 -0.11090457579E+04  0.14272089656E+04  0.46999998093E+01 0.  1.
</event>
<event>
 5   0  0.1308893E-04  0.1812362E+04  0.7818609E-02  0.8699753E-01
        1   -1    0    0  501    0  0.00000000000E+00  0.00000000000E+00  0.13167753750E+04  0.13167753750E+04  0.50400001928E-02 0. -1.
       -1   -1    0    0    0  501  0.00000000000E+00  0.00000000000E+00 -0.62361758255E+03  0.62361758257E+03  0.50400001928E-02 0.  1.
    10030    2    1    2    0    0  0.00000000000E+00  0.00000000000E+00  0.69315779244E+03  0.19403929576E+04  0.18123622995E+04 0.  0.
        4    1    3    3  502    0  0.32424958130E+03 -0.30995974174E+03 -0.49641211379E+03  0.66905861634E+03  0.12699999809E+01 0.  1.
       -4    1    3    3    0  502 -0.32424958130E+03  0.30995974174E+03  0.11895699062E+04  0.12713343412E+04  0.12699999809E+01 0. -1.
</event>
<event>
 5   0  0.1239119E-04  0.1801036E+04  0.7818609E-02  0.8705749E-01
        1   -1    0    0  501    0  0.00000000000E+00  0.00000000000E+00  0.13961887960E+04  0.13961887960E+04  0.50400001928E-02 0. -1.
       -1   -1    0    0    0  501  0.00000000000E+00  0.00000000000E+00 -0.58081848343E+03  0.58081848345E+03  0.50400001928E-02 0.  1.
    10030    2    1    2    0    0  0.00000000000E+00  0.00000000000E+00  0.81537031257E+03  0.19770072795E+04  0.18010355456E+04 0.  0.
        5    1    3    3  502    0  0.43907314713E+03  0.15690997824E+03  0.12533492327E+04  0.13372779662E+04  0.46999998093E+01 0. -1.
       -5    1    3    3    0  502 -0.43907314713E+03 -0.15690997824E+03 -0.43797892011E+03  0.63972931327E+03  0.46999998093E+01 0.  1.
</event>
<event>
 5   0  0.1239119E-04  0.1690445E+04  0.7818609E-02  0.8766833E-01
        1   -1    0    0  501    0  0.00000000000E+00  0.00000000000E+00  0.72257234639E+03  0.72257234641E+03  0.50400001928E-02 0.  1.
       -1   -1    0    0    0  501  0.00000000000E+00  0.00000000000E+00 -0.98869155159E+03  0.98869155160E+03  0.50400001928E-02 0. -1.
    10030    2    1    2    0    0  0.00000000000E+00  0.00000000000E+00 -0.26611920519E+03  0.17112638980E+04  0.16904451181E+04 0.  0.
        5    1    3    3  502    0  0.69144943431E+03 -0.41898490592E+03  0.11640669274E+03  0.81683736430E+03  0.46999998093E+01 0. -1.
       -5    1    3    3    0  502 -0.69144943431E+03  0.41898490592E+03 -0.38252589794E+03  0.89442653371E+03  0.46999998093E+01 0.  1.
</event>
<event>
 5   0  0.9144875E-05  0.1799684E+04  0.7818609E-02  0.8706468E-01
        3   -1    0    0  501    0  0.00000000000E+00  0.00000000000E+00  0.77576144483E+03  0.77576145141E+03  0.10100000352E+00 0.  1.
       -3   -1    0    0    0  501  0.00000000000E+00  0.00000000000E+00 -0.10437683287E+04  0.10437683335E+04  0.10100000352E+00 0. -1.
    10030    2    1    2    0    0  0.00000000000E+00  0.00000000000E+00 -0.26800688382E+03  0.18195297850E+04  0.17996835690E+04 0.  0.
        2    1    3    3  502    0  0.55142324421E+03 -0.40729379741E+03  0.45531327621E+03  0.82296173129E+03  0.25500000920E-02 0.  1.
       -2    1    3    3    0  502 -0.55142324421E+03  0.40729379741E+03 -0.72332016003E+03  0.99656805366E+03  0.25500000920E-02 0. -1.
</event>
<event>
 5   0  0.2431811E-04  0.1806705E+04  0.7818609E-02  0.8702742E-01
       -2   -1    0    0    0  501  0.00000000000E+00  0.00000000000E+00  0.53124540375E+03  0.53124540375E+03  0.25500000920E-02 0. -1.
        2   -1    0    0  501    0  0.00000000000E+00  0.00000000000E+00 -0.15360991097E+04  0.15360991097E+04  0.25500000920E-02 0.  1.
    10030    2    1    2    0    0  0.00000000000E+00  0.00000000000E+00 -0.10048537059E+04  0.20673445134E+04  0.18067048367E+04 0.  0.
        3    1    3    3  502    0 -0.45396481195E+03  0.93156102213E+02  0.38486252322E+03  0.60239628307E+03  0.10100000352E+00 0. -1.
       -3    1    3    3    0  502  0.45396481195E+03 -0.93156102213E+02 -0.13897162291E+04  0.14649482303E+04  0.10100000352E+00 0.  1.
</event>
<event>
 5   0  0.1239119E-04  0.1806707E+04  0.7818609E-02  0.8702741E-01
       -1   -1    0    0    0  501  0.00000000000E+00  0.00000000000E+00  0.66472007340E+03  0.66472007342E+03  0.50400001928E-02 0.  1.
        1   -1    0    0  501    0  0.00000000000E+00  0.00000000000E+00 -0.12276555056E+04  0.12276555056E+04  0.50400001928E-02 0. -1.
    10030    2    1    2    0    0  0.00000000000E+00  0.00000000000E+00 -0.56293543223E+03  0.18923755791E+04  0.18067066810E+04 0.  0.
        5    1    3    3  502    0  0.52945006563E+03  0.24804743849E+03  0.43979157623E+03  0.73163079778E+03  0.46999998093E+01 0.  1.
       -5    1    3    3    0  502 -0.52945006563E+03 -0.24804743849E+03 -0.10027270085E+04  0.11607447813E+04  0.46999998093E+01 0. -1.
</event>
<event>
 5   0  0.1239119E-04  0.1745142E+04  0.7818609E-02  0.8736029E-01
        1   -1    0    0  501    0  0.00000000000E+00  0.00000000000E+00  0.79816080533E+03  0.79816080534E+03  0.50400001928E-02 0.  1.
       -1   -1    0    0    0  501  0.00000000000E+00  0.00000000000E+00 -0.95391789387E+03  0.95391789388E+03  0.50400001928E-02 0. -1.
    10030    2    1    2    0    0  0.00000000000E+00  0.00000000000E+00 -0.15575708854E+03  0.17520786992E+04  0.17451416841E+04 0.  0.
        5    1    3    3  502    0 -0.31092064341E+03  0.36548940141E+03  0.65378691757E+03  0.81099542084E+03  0.46999998093E+01 0.  1.
       -5    1    3    3    0  502  0.31092064341E+03 -0.36548940141E+03 -0.80954400611E+03  0.94108327839E+03  0.46999998093E+01 0. -1.
</event>
<event>
 5   0  0.2431811E-04  0.1852370E+04  0.7818609E-02  0.8678935E-01
        2   -1    0    0  501    0  0.00000000000E+00  0.00000000000E+00  0.39242456532E+03  0.39242456533E+03  0.25500000920E-02 0. -1.
       -2   -1    0    0    0  501  0.00000000000E+00  0.00000000000E+00 -0.21859443291E+04  0.21859443291E+04  0.25500000920E-02 0.  1.
    10030    2    1    2    0    0  0.00000000000E+00  0.00000000000E+00 -0.17935197638E+04  0.25783688944E+04  0.18523695670E+04 0.  0.
        3    1    3    3  502    0  0.53327629747E+02  0.41016340722E+03  0.25672978959E+03  0.48681418609E+03  0.10100000352E+00 0. -1.
       -3    1    3    3    0  502 -0.53327629747E+02 -0.41016340722E+03 -0.20502495534E+04  0.20915547083E+04  0.10100000352E+00 0.  1.
</event>
<event>
 5   0  0.2550616E-04  0.1805013E+04  0.7818609E-02  0.8703638E-01
        2   -1    0    0  501    0  0.00000000000E+00  0.00000000000E+00  0.12568596277E+04  0.12568596277E+04  0.25500000920E-02 0.  1.
       -2   -1    0    0    0  501  0.00000000000E+00  0.00000000000E+00 -0.64805801497E+03  0.64805801498E+03  0.25500000920E-02 0. -1.
    10030    2    1    2    0    0  0.00000000000E+00  0.00000000000E+00  0.60880161269E+03  0.19049176426E+04  0.18050129699E+04 0.  0.
        1    1    3    3  502    0  0.14491470834E+03 -0.41230428723E+03 -0.52893888333E+03  0.68612786001E+03  0.50400001928E-02 0. -1.
       -1    1    3    3    0  502 -0.14491470834E+03  0.41230428723E+03  0.11377404960E+04  0.12187897826E+04  0.50400001928E-02 0.  1.
</event>
<event>
 5   0  0.2417106E-04  0.1595076E+04  0.7818609E-02  0.8823579E-01
       -2   -1    0    0    0  501  0.00000000000E+00  0.00000000000E+00  0.50316095416E+03  0.50316095417E+03  0.25500000920E-02 0. -1.
        2   -1    0    0  501    0  0.00000000000E+00  0.00000000000E+00 -0.12641414320E+04  0.12641414320E+04  0.25500000920E-02 0.  1.
    10030    2    1    2    0    0  0.00000000000E+00  0.00000000000E+00 -0.76098047785E+03  0.17673023862E+04  0.15950756836E+04 0.  0.
        4    1    3    3  502    0 -0.39712655701E+03  0.32365528351E+03 -0.10577177659E+04  0.11752577292E+04  0.12699999809E+01 0.  1.
       -4    1    3    3    0  502  0.39712655701E+03 -0.32365528351E+03  0.29673728807E+03  0.59204465698E+03  0.12699999809E+01 0. -1.
</event>
<event>
 5   0  0.1253925E-04  0.1807536E+04  0.7818609E-02  0.8702302E-01
       -1   -1    0    0    0  501  0.00000000000E+00  0.00000000000E+00  0.74662052568E+03  0.74662052570E+03  0.50400001928E-02 0.  1.
        1   -1    0    0  501    0  0.00000000000E+00  0.00000000000E+00 -0.10939912148E+04  0.10939912148E+04  0.50400001928E-02 0. -1.
    10030    2    1    2    0    0  0.00000000000E+00  0.00000000000E+00 -0.34737068907E+03  0.18406117405E+04  0.18075356659E+04 0.  0.
        2    1    3    3  502    0 -0.30969357171E+03  0.51215861332E+03 -0.86326230911E+03  0.10504467468E+04  0.25500000920E-02 0. -1.
       -2    1    3    3    0  502  0.30969357171E+03 -0.51215861332E+03  0.51589162004E+03  0.79016499365E+03  0.25500000920E-02 0.  1.
</event>
<event>
 5   0  0.2393421E-04  0.1822646E+04  0.7818609E-02  0.8694349E-01
       -2   -1    0    0    0  501  0.00000000000E+00  0.00000000000E+00  0.61173052622E+03  0.61173052623E+03  0.25500000920E-02 0. -1.
        2   -1    0    0  501    0  0.00000000000E+00  0.00000000000E+00 -0.13576392852E+04  0.13576392852E+04  0.25500000920E-02 0.  1.
    10030    2    1    2    0    0  0.00000000000E+00  0.00000000000E+00 -0.74590875901E+03  0.19693698115E+04  0.18226457630E+04 0.  0.
        5    1    3    3  502    0  0.20124622789E+03 -0.88772888651E+03 -0.32555149752E+03  0.96673082485E+03  0.46999998093E+01 0. -1.
       -5    1    3    3    0  502 -0.20124622789E+03  0.88772888651E+03 -0.42035726149E+03  0.10026389866E+04  0.46999998093E+01 0.  1.
</event>
<event>
 5   0  0.1308893E-04  0.1806101E+04  0.7818609E-02  0.8703062E-01
        1   -1    0    0  501    0  0.00000000000E+00  0.00000000000E+00  0.86054026918E+03  0.86054026920E+03  0.50400001928E-02 0.  1.
       -1   -1    0    0    0  501  0.00000000000E+00  0.00000000000E+00 -0.94766114940E+03  0.94766114942E+03  0.50400001928E-02 0. -1.
    10030    2    1    2    0    0  0.00000000000E+00  0.00000000000E+00 -0.87120880217E+02  0.18082014186E+04  0.18061014153E+04 0.  0.
        4    1    3    3  502    0 -0.34178134778E+03  0.67973437145E+03 -0.53058845874E+03  0.92756618679E+03  0.12699999809E+01 0.  1.
       -4    1    3    3    0  502  0.34178134778E+03 -0.67973437145E+03  0.44346757853E+03  0.88063523182E+03  0.12699999809E+01 0. -1.
</event>
<event>
 5   0  0.2550616E-04  0.1877227E+04  0.7818609E-02  0.8666276E-01
        2   -1    0    0  501    0  0.00000000000E+00  0.00000000000E+00  0.42082343805E+03  0.42082343806E+03  0.25500000920E-02 0. -1.
       -2   -1    0    0    0  501  0.00000000000E+00  0.00000000000E+00 -0.20935043165E+04  0.20935043165E+04  0.25500000920E-02 0.  1.
    10030    2    1    2    0    0  0.00000000000E+00  0.00000000000E+00 -0.16726808785E+04  0.25143277546E+04  0.18772274066E+04 0.  0.
        1    1    3    3  502    0  0.46265049854E+03 -0.25420518204E+03 -0.18758350060E+04  0.19486977006E+04  0.50400001928E-02 0.  1.
       -1    1    3    3    0  502 -0.46265049854E+03  0.25420518204E+03  0.20315412759E+03  0.56563005397E+03  0.50400001928E-02 0. -1.
</event>
<event>
 5   0  0.2393421E-04  0.1820702E+04  0.7818609E-02  0.8695367E-01
        2   -1    0    0  501    0  0.00000000000E+00  0.00000000000E+00  0.20559335766E+04  0.20559335766E+04  0.25500000920E-02 0.  1.
       -2   -1    0    0    0  501  0.00000000000E+00  0.00000000000E+00 -0.40309628187E+03  0.40309628188E+03  0.25500000920E-02 0. -1.
    10030    2    1    2    0    0  0.00000000000E+00  0.00000000000E+00  0.16528372948E+04  0.24590298585E+04  0.18207022607E+04 0.  0.
        5    1    3    3  502    0  0.30568245749E+03  0.68656036457E+03  0.13258884299E+03  0.76315712032E+03  0.46999998093E+01 0. -1.
       -5    1    3    3    0  502 -0.30568245749E+03 -0.68656036457E+03  0.15202484518E+04  0.16958727382E+04  0.46999998093E+01 0.  1.
</event>
<event>
 5   0  0.2569405E-04  0.1919497E+04  0.7818609E-02  0.8645212E-01
       -2   -1    0    0    0  501  0.00000000000E+00  0.00000000000E+00  0.75802729513E+03  0.75802729514E+03  0.25500000920E-02 0. -1.
        2   -1    0    0  501    0  0.00000000000E+00  0.00000000000E+00 -0.12151502539E+04  0.12151502539E+04  0.25500000920E-02 0.  1.
    10030    2    1    2    0    0  0.00000000000E+00  0.00000000000E+00 -0.45712295875E+03  0.19731775490E+04  0.19194968717E+04 0.  0.
        2    1    3    3  502    0  0.24285537627E+02  0.29031644847E+02  0.75725977027E+03  0.75820510642E+03  0.25500000920E-02 0. -1.
       -2    1    3    3    0  502 -0.24285537627E+02 -0.29031644847E+02 -0.12143827290E+04  0.12149724426E+04  0.25500000920E-02 0.  1.
</event>
<event>
 5   0  0.1214723E-04  0.1803314E+04  0.7818609E-02  0.8704539E-01
        1   -1    0    0  501    0  0.00000000000E+00  0.00000000000E+00  0.57874411195E+03  0.57874411198E+03  0.50400001928E-02 0. -1.
       -1   -1    0    0    0  501  0.00000000000E+00  0.00000000000E+00 -0.14047400461E+04  0.14047400462E+04  0.50400001928E-02 0.  1.
    10030    2    1    2    0    0  0.00000000000E+00  0.00000000000E+00 -0.82599593419E+03  0.19834841581E+04  0.18033136506E+04 0.  0.
        1    1    3    3  502    0  0.77280179580E+03 -0.21055946361E+03 -0.86840238523E+03  0.11813892695E+04  0.50400001928E-02 0.  1.
       -1    1    3    3    0  502 -0.77280179580E+03  0.21055946361E+03  0.42406451036E+02  0.80209488867E+03  0.50400001928E-02 0. -1.
</event>
<event>
 5   0  0.1308893E-04  0.1812738E+04  0.7818609E-02  0.8699555E-01
       -1   -1    0    0    0  501  0.00000000000E+00  0.00000000000E+00  0.68070210208E+03  0.68070210209E+03  0.50400001928E-02 0. -1.
        1   -1    0    0  501    0  0.00000000000E+00  0.00000000000E+00 -0.12068494792E+04  0.12068494792E+04  0.50400001928E-02 0.  1.
    10030    2    1    2    0    0  0.00000000000E+00  0.00000000000E+00 -0.52614737708E+03  0.18875515813E+04  0.18127382352E+04 0.  0.
        4    1    3    3  502    0 -0.81910296622E+03 -0.14253823111E+03 -0.63887952037E+03  0.10485301479E+04  0.12699999809E+01 0.  1.
       -4    1    3    3    0  502  0.81910296622E+03  0.14253823111E+03  0.11273214329E+03  0.83902143336E+03  0.12699999809E+01 0. -1.
</event>
<event>
 5   0  0.2569405E-04  0.1786664E+04  0.7818609E-02  0.8713424E-01
        2   -1    0    0  501    0  0.00000000000E+00  0.00000000000E+00  0.10737376809E+04  0.10737376809E+04  0.25500000920E-02 0. -1.
       -2   -1    0    0    0  501  0.00000000000E+00  0.00000000000E+00 -0.74323710198E+03  0.74323710199E+03  0.25500000920E-02 0.  1.
    10030    2    1    2    0    0  0.00000000000E+00  0.00000000000E+00  0.33050057894E+03  0.18169747829E+04  0.17866635747E+04 0.  0.
        2    1    3    3  502    0 -0.59761113807E+03 -0.18295263635E+03  0.81438244207E+03  0.10265619813E+04  0.25500000920E-02 0. -1.
       -2    1    3    3    0  502  0.59761113807E+03  0.18295263635E+03 -0.48388186313E+03  0.79041280162E+03  0.25500000920E-02 0.  1.
</event>
<event>
 5   0  0.2393421E-04  0.1815804E+04  0.7818609E-02  0.8697940E-01
        2   -1    0    0  501    0  0.00000000000E+00  0.00000000000E+00  0.10468224857E+04  0.10468224857E+04  0.25500000920E-02 0.  1.
       -2   -1    0    0    0  501  0.00000000000E+00  0.00000000000E+00 -0.78741735079E+03  0.78741735079E+03  0.25500000920E-02 0. -1.
    10030    2    1    2    0    0  0.00000000000E+00  0.00000000000E+00  0.25940513493E+03  0.18342398365E+04  0.18158041617E+04 0.  0.
        5    1    3    3  502    0  0.22889871512E+03 -0.77350177019E+03 -0.29113795411E+03  0.85760306004E+03  0.46999998093E+01 0. -1.
       -5    1    3    3    0  502 -0.22889871512E+03  0.77350177019E+03  0.55054308904E+03  0.97663677647E+03  0.46999998093E+01 0.  1.
</event>
<event>
 5   0  0.1308893E-04  0.1803875E+04  0.7818609E-02  0.8704242E-01
        1   -1    0    0  501    0  0.00000000000E+00  0.00000000000E+00  0.11520091489E+04  0.11520091489E+04  0.50400001928E-02 0. -1.
       -1   -1    0    0    0  501  0.00000000000E+00  0.00000000000E+00 -0.70614961163E+03  0.70614961164E+03  0.50400001928E-02 0.  1.
    10030    2    1    2    0    0  0.00000000000E+00  0.00000000000E+00  0.44585953726E+03  0.18581587605E+04  0.18038745113E+04 0.  0.
        4    1    3    3  502    0 -0.21611682650E+03 -0.55995197482E+03  0.91641774452E+03  0.10954797087E+04  0.12699999809E+01 0. -1.
       -4    1    3    3    0  502  0.21611682650E+03  0.55995197482E+03 -0.47055820726E+03  0.76267905184E+03  0.12699999809E+01 0.  1.
</event>
<event>
 5   0  0.1253925E-04  0.1799762E+04  0.7818609E-02  0.8706426E-01
        1   -1    0    0  501    0  0.00000000000E+00  0.00000000000E+00  0.85220164979E+03  0.85220164981E+03  0.50400001928E-02 0.  1.
       -1   -1    0    0    0  501  0.00000000000E+00  0.00000000000E+00 -0.95022795432E+03  0.95022795433E+03  0.50400001928E-02 0. -1.
    10030    2    1    2    0    0  0.00000000000E+00  0.00000000000E+00 -0.98026304529E+02  0.18024296041E+04  0.17997620180E+04 0.  0.
        2    1    3    3  502    0 -0.68500893628E+03  0.25953605221E+02  0.53483893696E+03  0.86946162704E+03  0.25500000920E-02 0.  1.
       -2    1    3    3    0  502  0.68500893628E+03 -0.25953605221E+02 -0.63286524148E+03  0.93296797710E+03  0.25500000920E-02 0. -1.
</event>
<event>
 5   0  0.2417106E-04  0.1809901E+04  0.7818609E-02  0.8701052E-01
        2   -1    0    0  501    0  0.00000000000E+00  0.00000000000E+00  0.85092765230E+03  0.85092765230E+03  0.25500000920E-02 0.  1.
       -2   -1    0    0    0  501  0.00000000000E+00  0.00000000000E+00 -0.96240330685E+03  0.96240330685E+03  0.25500000920E-02 0. -1.
    10030    2    1    2    0    0  0.00000000000E+00  0.00000000000E+00 -0.11147565455E+03  0.18133309592E+04  0.18099011978E+04 0.  0.
        4    1    3    3  502    0  0.38190285629E+03  0.42057081891E+03 -0.76149044956E+03  0.95005206332E+03  0.12699999809E+01 0. -1.
       -4    1    3    3    0  502 -0.38190285629E+03 -0.42057081891E+03  0.65001479501E+03  0.86327889583E+03  0.12699999809E+01 0.  1.
</event>
<event>
 5   0  0.1239119E-04  0.1771544E+04  0.7818609E-02  0.8721580E-01
        1   -1    0    0  501    0  0.00000000000E+00  0.00000000000E+00  0.10340763972E+04  0.10340763972E+04  0.50400001928E-02 0. -1.
       -1   -1    0    0    0  501  0.00000000000E+00  0.00000000000E+00 -0.75873718893E+03  0.75873718894E+03  0.50400001928E-02 0.  1.
    10030    2    1    2    0    0  0.00000000000E+00  0.00000000000E+00  0.27533920829E+03  0.17928135862E+04  0.17715442064E+04 0.  0.
        5    1    3    3  502    0  0.50370626545E+03 -0.17659340868E+03  0.85302615702E+03  0.10062708127E+04  0.46999998093E+01 0. -1.
       -5    1    3    3    0  502 -0.50370626545E+03  0.17659340868E+03 -0.57768694873E+03  0.78654277352E+03  0.46999998093E+01 0.  1.
</event>
<event>
 5   0  0.2417106E-04  0.1806783E+04  0.7818609E-02  0.8702701E-01
        2   -1    0    0  501    0  0.00000000000E+00  0.00000000000E+00  0.14628748361E+04  0.14628748361E+04  0.25500000920E-02 0.  1.
       -2   -1    0    0    0  501  0.00000000000E+00  0.00000000000E+00 -0.55788533258E+03  0.55788533259E+03  0.25500000920E-02 0. -1.
    10030    2    1    2    0    0  0.00000000000E+00  0.00000000000E+00  0.90498950349E+03  0.20207601687E+04  0.18067832349E+04 0.  0.
        4    1    3    3  502    0  0.17295429719E+03 -0.72817704890E+03 -0.11334649274E+03  0.75697030575E+03  0.12699999809E+01 0. -1.
       -4    1    3    3    0  502 -0.17295429719E+03  0.72817704890E+03  0.10183359962E+04  0.12637898629E+04  0.12699999809E+01 0.  1.
</event>
<event>
 5   0  0.2417106E-04  0.1773609E+04  0.7818609E-02  0.8720461E-01
       -2   -1    0    0    0  501  0.00000000000E+00  0.00000000000E+00  0.80001801484E+03  0.80001801484E+03  0.25500000920E-02 0. -1.
        2   -1    0    0  501    0  0.00000000000E+00  0.00000000000E+00 -0.98300542345E+03  0.98300542345E+03  0.25500000920E-02 0.  1.
    10030    2    1    2    0    0  0.00000000000E+00  0.00000000000E+00 -0.18298740861E+03  0.17830234383E+04  0.17736088040E+04 0.  0.
        4    1    3    3  502    0 -0.76251405516E+03  0.19236332306E+03 -0.50353407641E+03  0.93379843188E+03  0.12699999809E+01 0.  1.
       -4    1    3    3    0  502  0.76251405516E+03 -0.19236332306E+03  0.32054666780E+03  0.84922500641E+03  0.12699999809E+01 0. -1.
</event>
<event>
 5   0  0.2431811E-04  0.1840120E+04  0.7818609E-02  0.8685250E-01
        2   -1    0    0  501    0  0.00000000000E+00  0.00000000000E+00  0.11495328034E+04  0.11495328034E+04  0.25500000920E-02 0. -1.
       -2   -1    0    0    0  501  0.00000000000E+00  0.00000000000E+00 -0.73639520034E+03  0.73639520034E+03  0.25500000920E-02 0.  1.
    10030    2    1    2    0    0  0.00000000000E+00  0.00000000000E+00  0.41313760306E+03  0.18859280037E+04  0.18401200385E+04 0.  0.
        3    1    3    3  502    0  0.28854435371E+03  0.18401355280E+03 -0.66873604364E+03  0.75121683816E+03  0.10100000352E+00 0.  1.
       -3    1    3    3    0  502 -0.28854435371E+03 -0.18401355280E+03  0.10818736467E+04  0.11347111656E+04  0.10100000352E+00 0. -1.
</event>
<event>
 5   0  0.1253925E-04  0.1731354E+04  0.7818609E-02  0.8743681E-01
        1   -1    0    0  501    0  0.00000000000E+00  0.00000000000E+00  0.14954263339E+04  0.14954263339E+04  0.50400001928E-02 0.  1.
       -1   -1    0    0    0  501  0.00000000000E+00  0.00000000000E+00 -0.50112563883E+03  0.50112563886E+03  0.50400001928E-02 0. -1.
    10030    2    1    2    0    0  0.00000000000E+00  0.00000000000E+00  0.99430069505E+03  0.19965519727E+04  0.17313537789E+04 0.  0.
        2    1    3    3  502    0 -0.21865655152E+03  0.58650404264E+03  0.11867433176E+04  0.13416994378E+04  0.25500000920E-02 0.  1.
       -2    1    3    3    0  502  0.21865655152E+03 -0.58650404264E+03 -0.19244262253E+03  0.65485253495E+03  0.25500000920E-02 0. -1.
</event>
<event>
 5   0  0.1308893E-04  0.1818562E+04  0.7818609E-02  0.8696490E-01
        1   -1    0    0  501    0  0.00000000000E+00  0.00000000000E+00  0.19888283544E+04  0.19888283544E+04  0.50400001928E-02 0.  1.
       -1   -1    0    0    0  501  0.00000000000E+00  0.00000000000E+00 -0.41571819842E+03  0.41571819845E+03  0.50400001928E-02 0. -1.
    10030    2    1    2    0    0  0.00000000000E+00  0.00000000000E+00  0.15731101560E+04  0.24045465528E+04  0.18185622238E+04 0.  0.
        4    1    3    3  502    0 -0.40636581845E+03 -0.80847853578E+03  0.66814546390E+03  0.11248069590E+04  0.12699999809E+01 0. -1.
       -4    1    3    3    0  502  0.40636581845E+03  0.80847853578E+03  0.90496469207E+03  0.12797395938E+04  0.12699999809E+01 0.  1.
</event>
<event>
 5   0  0.1239119E-04  0.1798489E+04  0.7818609E-02  0.8707103E-01
       -1   -1    0    0    0  501  0.00000000000E+00  0.00000000000E+00  0.49984870837E+03  0.49984870840E+03  0.50400001928E-02 0.  1.
        1   -1    0    0  501    0  0.00000000000E+00  0.00000000000E+00 -0.16177707537E+04  0.16177707537E+04  0.50400001928E-02 0. -1.
    10030    2    1    2    0    0  0.00000000000E+00  0.00000000000E+00 -0.11179220453E+04  0.21176194621E+04  0.17984889454E+04 0.  0.
        5    1    3    3  502    0 -0.52774834208E+03 -0.24338943572E+02 -0.14157548762E+04  0.15111236403E+04  0.46999998093E+01 0. -1.
       -5    1    3    3    0  502  0.52774834208E+03  0.24338943572E+02  0.29783283087E+03  0.60649582182E+03  0.46999998093E+01 0.  1.
</event>
<event>
 5   0  0.2550616E-04  0.1778287E+04  0.7818609E-02  0.8717932E-01
       -2   -1    0    0    0  501  0.00000000000E+00  0.00000000000E+00  0.43087669514E+03  0.43087669515E+03  0.25500000920E-02 0. -1.
        2   -1    0    0  501    0  0.00000000000E+00  0.00000000000E+00 -0.18348087112E+04  0.18348087112E+04  0.25500000920E-02 0.  1.
    10030    2    1    2    0    0  0.00000000000E+00  0.00000000000E+00 -0.14039320160E+04  0.22656854063E+04  0.17782871688E+04 0.  0.
        1    1    3    3  502    0  0.84538114751E+03 -0.24758903925E+03 -0.85594934210E+03  0.12282584798E+04  0.50400001928E-02 0.  1.
       -1    1    3    3    0  502 -0.84538114751E+03  0.24758903925E+03 -0.54798267394E+03  0.10374269265E+04  0.50400001928E-02 0. -1.
</event>
<event>
 5   0  0.2393421E-04  0.1798188E+04  0.7818609E-02  0.8707264E-01
       -2   -1    0    0    0  501  0.00000000000E+00  0.00000000000E+00  0.69362208125E+03  0.69362208126E+03  0.25500000920E-02 0.  1.
        2   -1    0    0  501    0  0.00000000000E+00  0.00000000000E+00 -0.11654324923E+04  0.11654324923E+04  0.25500000920E-02 0. -1.
    10030    2    1    2    0    0  0.00000000000E+00  0.00000000000E+00 -0.47181041103E+03  0.18590545735E+04  0.17981876552E+04 0.  0.
        5    1    3    3  502    0 -0.56064781053E+03  0.65627799664E+03  0.24248775673E+02  0.86350267483E+03  0.46999998093E+01 0.  1.
       -5    1    3    3    0  502  0.56064781053E+03 -0.65627799664E+03 -0.49605918670E+03  0.99555189871E+03  0.46999998093E+01 0. -1.
</event>
<event>
 5   0  0.2417106E-04  0.1797044E+04  0.7818609E-02  0.8707873E-01
        2   -1    0    0  501    0  0.00000000000E+00  0.00000000000E+00  0.12608986768E+04  0.12608986768E+04  0.25500000920E-02 0. -1.
       -2   -1    0    0    0  501  0.00000000000E+00  0.00000000000E+00 -0.64029062728E+03  0.64029062728E+03  0.25500000920E-02 0.  1.
    10030    2    1    2    0    0  0.00000000000E+00  0.00000000000E+00  0.62060804951E+03  0.19011893041E+04  0.17970437999E+04 0.  0.
        4    1    3    3  502    0  0.10907266679E+03 -0.89187592114E+03  0.31104189704E+03  0.95083551678E+03  0.12699999809E+01 0. -1.
       -4    1    3    3    0  502 -0.10907266679E+03  0.89187592114E+03  0.30956615247E+03  0.95035378729E+03  0.12699999809E+01 0.  1.
</event>
<event>
 5   0  0.1239119E-04  0.1752078E+04  0.7818609E-02  0.8732207E-01
        1   -1    0    0  501    0  0.00000000000E+00  0.00000000000E+00  0.10335183050E+04  0.10335183050E+04  0.50400001928E-02 0.  1.
       -1   -1    0    0    0  501  0.00000000000E+00  0.00000000000E+00 -0.74255520533E+03  0.74255520535E+03  0.50400001928E-02 0. -1.
    10030    2    1    2    0    0  0.00000000000E+00  0.00000000000E+00  0.29096309967E+03  0.17760735104E+04  0.17520780773E+04 0.  0.
        5    1    3    3  502    0 -0.36606913767E+03 -0.79544725918E+03  0.17190288489E+03  0.89236519852E+03  0.46999998093E+01 0. -1.
       -5    1    3    3    0  502  0.36606913767E+03  0.79544725918E+03  0.11906021478E+03  0.88370831185E+03  0.46999998093E+01 0.  1.
</event>
<event>
 5   0  0.1214723E-04  0.1804295E+04  0.7818609E-02  0.8704019E-01
        1   -1    0    0  501    0  0.00000000000E+00  0.00000000000E+00  0.20930041377E+04  0.20930041377E+04  0.50400001928E-02 0.  1.
       -1   -1    0    0    0  501  0.00000000000E+00  0.00000000000E+00 -0.38885239331E+03  0.38885239334E+03  0.50400001928E-02 0. -1.
    10030    2    1    2    0    0  0.00000000000E+00  0.00000000000E+00  0.17041517444E+04  0.24818565311E+04  0.18042945083E+04 0.  0.
        1    1    3    3  502    0  0.12134063074E+03  0.59858711830E+03  0.17653676251E+04  0.18680345121E+04  0.50400001928E-02 0.  1.
       -1    1    3    3    0  502 -0.12134063074E+03 -0.59858711830E+03 -0.61215880645E+02  0.61382201894E+03  0.50400001928E-02 0. -1.
</event>
<event>
 5   0  0.1253925E-04  0.1752806E+04  0.7818609E-02  0.8731807E-01
       -1   -1    0    0    0  501  0.00000000000E+00  0.00000000000E+00  0.86207221637E+03  0.86207221639E+03  0.50400001928E-02 0. -1.
        1   -1    0    0  501    0  0.00000000000E+00  0.00000000000E+00 -0.89097181996E+03  0.89097181998E+03  0.50400001928E-02 0.  1.
    10030    2    1    2    0    0  0.00000000000E+00  0.00000000000E+00 -0.28899603588E+02  0.17530440364E+04  0.17528058097E+04 0.  0.
        2    1    3    3  502    0 -0.59867553477E+03  0.33291517006E+03 -0.56118408973E+03  0.88553514270E+03  0.25500000920E-02 0.  1.
       -2    1    3    3    0  502  0.59867553477E+03 -0.33291517006E+03  0.53228448614E+03  0.86750889366E+03  0.25500000920E-02 0. -1.
</event>
<event>
 5   0  0.1253925E-04  0.1804740E+04  0.7818609E-02  0.8703783E-01
       -1   -1    0    0    0  501  0.00000000000E+00  0.00000000000E+00  0.86694427941E+03  0.86694427942E+03  0.50400001928E-02 0. -1.
        1   -1    0    0  501    0  0.00000000000E+00  0.00000000000E+00 -0.93924302088E+03  0.93924302090E+03  0.50400001928E-02 0.  1.
    10030    2    1    2    0    0  0.00000000000E+00  0.00000000000E+00 -0.72298741476E+02  0.18061873003E+04  0.18047397197E+04 0.  0.
        2    1    3    3  502    0 -0.14492045809E+03  0.53027178797E+02  0.85364054978E+03  0.86747680609E+03  0.25500000920E-02 0. -1.
       -2    1    3    3    0  502  0.14492045809E+03 -0.53027178797E+02 -0.92593929126E+03  0.93871049423E+03  0.25500000920E-02 0.  1.
</event>
<event>
 5   0  0.1239119E-04  0.1794067E+04  0.7818609E-02  0.8709461E-01
        1   -1    0    0  501    0  0.00000000000E+00  0.00000000000E+00  0.99739582873E+03  0.99739582875E+03  0.50400001928E-02 0. -1.
       -1   -1    0    0    0  501  0.00000000000E+00  0.00000000000E+00 -0.80676990290E+03  0.80676990292E+03  0.50400001928E-02 0.  1.
    10030    2    1    2    0    0  0.00000000000E+00  0.00000000000E+00  0.19062592583E+03  0.18041657317E+04  0.17940668170E+04 0.  0.
        5    1    3    3  502    0  0.37274474243E+03  0.98589758986E+02 -0.71917721285E+03  0.81602483851E+03  0.46999998093E+01 0.  1.
       -5    1    3    3    0  502 -0.37274474243E+03 -0.98589758986E+02  0.90980313868E+03  0.98814089316E+03  0.46999998093E+01 0. -1.
</event>
<event>
 5   0  0.2550616E-04  0.1801610E+04  0.7818609E-02  0.8705444E-01
        2   -1    0    0  501    0  0.00000000000E+00  0.00000000000E+00  0.67709056696E+03  0.67709056696E+03  0.25500000920E-02 0.  1.
       -2   -1    0    0    0  501  0.00000000000E+00  0.00000000000E+00 -0.11984353755E+04  0.11984353755E+04  0.25500000920E-02 0. -1.
    10030    2    1    2    0    0  0.00000000000E+00  0.00000000000E+00 -0.52134480858E+03  0.18755259425E+04  0.18016096002E+04 0.  0.
        1    1    3    3  502    0  0.35322285792E+03 -0.10475216080E+03  0.59506895890E+03  0.69989032600E+03  0.50400001928E-02 0.  1.
       -1    1    3    3    0  502 -0.35322285792E+03  0.10475216080E+03 -0.11164137675E+04  0.11756356165E+04  0.50400001928E-02 0. -1.
</event>
<event>
 5   0  0.1253925E-04  0.1849050E+04  0.7818609E-02  0.8680642E-01
       -1   -1    0    0    0  501  0.00000000000E+00  0.00000000000E+00  0.11508223012E+04  0.11508223012E+04  0.50400001928E-02 0. -1.
        1   -1    0    0  501    0  0.00000000000E+00  0.00000000000E+00 -0.74272658960E+03  0.74272658962E+03  0.50400001928E-02 0.  1.
    10030    2    1    2    0    0  0.00000000000E+00  0.00000000000E+00  0.40809571156E+03  0.18935488908E+04  0.18490498349E+04 0.  0.
        2    1    3    3  502    0 -0.25459588737E+03  0.15445562785E+03  0.11003663083E+04  0.11399480774E+04  0.25500000920E-02 0. -1.
       -2    1    3    3    0  502  0.25459588737E+03 -0.15445562785E+03 -0.69227059671E+03  0.75360081337E+03  0.25500000920E-02 0.  1.
</event>
<event>
 5   0  0.1214723E-04  0.1809256E+04  0.7818609E-02  0.8701393E-01
        1   -1    0    0  501    0  0.00000000000E+00  0.00000000000E+00  0.10176164715E+04  0.10176164716E+04  0.50400001928E-02 0.  1.
       -1   -1    0    0    0  501  0.00000000000E+00  0.00000000000E+00 -0.80418501348E+03  0.80418501350E+03  0.50400001928E-02 0. -1.
    10030    2    1    2    0    0  0.00000000000E+00  0.00000000000E+00  0.21343145807E+03  0.18218014851E+04  0.18092561078E+04 0.  0.
        1    1    3    3  502    0  0.49286778081E+03  0.31091582167E+03  0.80344174607E+03  0.99252503086E+03  0.50400001928E-02 0.  1.
       -1    1    3    3    0  502 -0.49286778081E+03 -0.31091582167E+03 -0.59001028800E+03  0.82927645421E+03  0.50400001928E-02 0. -1.
</event>
<event>
 5   0  0.2417106E-04  0.1706569E+04  0.7818609E-02  0.8757627E-01
        2   -1    0    0  501    0  0.00000000000E+00  0.00000000000E+00  0.11758386834E+04  0.11758386834E+04  0.25500000920E-02 0. -1.
       -2   -1    0    0    0  501  0.00000000000E+00  0.00000000000E+00 -0.61921270946E+03  0.61921270946E+03  0.25500000920E-02 0.  1.
    10030    2    1    2    0    0  0.00000000000E+00  0.00000000000E+00  0.55662597392E+03  0.17950513929E+04  0.17065687880E+04 0.  0.
        4    1    3    3  502    0  0.34192758388E+03 -0.76571165786E+03  0.44417124118E+03  0.94895654273E+03  0.12699999809E+01 0. -1.
       -4    1    3    3    0  502 -0.34192758388E+03  0.76571165786E+03  0.11245473274E+03  0.84609485012E+03  0.12699999809E+01 0.  1.
</event>
<event>
 5   0  0.1239119E-04  0.1805251E+04  0.7818609E-02  0.8703512E-01
       -1   -1    0    0    0  501  0.00000000000E+00  0.00000000000E+00  0.89422518039E+03  0.89422518040E+03  0.50400001928E-02 0. -1.
        1   -1    0    0  501    0  0.00000000000E+00  0.00000000000E+00 -0.91110489933E+03  0.91110489934E+03  0.50400001928E-02 0.  1.
    10030    2    1    2    0    0  0.00000000000E+00  0.00000000000E+00 -0.16879718939E+02  0.18053300797E+04  0.18052511659E+04 0.  0.
        5    1    3    3  502    0 -0.40766784231E+03  0.80343156638E+03  0.46476122760E+02  0.90215157901E+03  0.46999998093E+01 0. -1.
       -5    1    3    3    0  502  0.40766784231E+03 -0.80343156638E+03 -0.63355841699E+02  0.90317850074E+03  0.46999998093E+01 0.  1.
</event>
<event>
 5   0  0.1239119E-04  0.1799689E+04  0.7818609E-02  0.8706465E-01
        1   -1    0    0  501    0  0.00000000000E+00  0.00000000000E+00  0.16039437759E+04  0.16039437759E+04  0.50400001928E-02 0. -1.
       -1   -1    0    0    0  501  0.00000000000E+00  0.00000000000E+00 -0.50483098212E+03  0.50483098214E+03  0.50400001928E-02 0.  1.
    10030    2    1    2    0    0  0.00000000000E+00  0.00000000000E+00  0.10991127938E+04  0.21087747581E+04  0.17996894306E+04 0.  0.
        5    1    3    3  502    0 -0.43045254575E+03  0.46019415593E+03 -0.20312853360E+03  0.66208107242E+03  0.46999998093E+01 0.  1.
       -5    1    3    3    0  502  0.43045254575E+03 -0.46019415593E+03  0.13022413274E+04  0.14466936856E+04  0.46999998093E+01 0. -1.
</event>
<event>
 5   0  0.1253925E-04  0.1959293E+04  0.7818609E-02  0.8625893E-01
       -1   -1    0    0    0  501  0.00000000000E+00  0.00000000000E+00  0.46573626001E+03  0.46573626004E+03  0.50400001928E-02 0.  1.
        1   -1    0    0  501    0  0.00000000000E+00  0.00000000000E+00 -0.20606238555E+04  0.20606238555E+04  0.50400001928E-02 0. -1.
    10030    2    1    2    0    0  0.00000000000E+00  0.00000000000E+00 -0.15948875955E+04  0.25263601156E+04  0.19592929825E+04 0.  0.
        2    1    3    3  502    0 -0.48803777874E+03  0.13747852873E+03 -0.18782752903E+04  0.19455074622E+04  0.25500000920E-02 0. -1.
       -2    1    3    3    0  502  0.48803777874E+03 -0.13747852873E+03  0.28338769480E+03  0.58085265335E+03  0.25500000920E-02 0.  1.
</event>
<event>
 5   0  0.2550616E-04  0.1782402E+04  0.7818609E-02  0.8715714E-01
        2   -1    0    0  501    0  0.00000000000E+00  0.00000000000E+00  0.11620343233E+04  0.11620343233E+04  0.25500000920E-02 0. -1.
       -2   -1    0    0    0  501  0.00000000000E+00  0.00000000000E+00 -0.68349041352E+03  0.68349041352E+03  0.25500000920E-02 0.  1.
    10030    2    1    2    0    0  0.00000000000E+00  0.00000000000E+00  0.47854390980E+03  0.18455247368E+04  0.17824021097E+04 0.  0.
        1    1    3    3  502    0  0.50230432526E+03  0.31120060018E+03 -0.45150065947E+03  0.74364527448E+03  0.50400001928E-02 0.  1.
       -1    1    3    3    0  502 -0.50230432526E+03 -0.31120060018E+03  0.93004456927E+03  0.11018794624E+04  0.50400001928E-02 0. -1.
</event>
<event>
 5   0  0.1253925E-04  0.1810612E+04  0.7818609E-02  0.8700677E-01
        1   -1    0    0  501    0  0.00000000000E+00  0.00000000000E+00  0.19985939459E+04  0.19985939459E+04  0.50400001928E-02 0.  1.
       -1   -1    0    0    0  501  0.00000000000E+00  0.00000000000E+00 -0.41007765352E+03  0.41007765355E+03  0.50400001928E-02 0. -1.
    10030    2    1    2    0    0  0.00000000000E+00  0.00000000000E+00  0.15885162923E+04  0.24086715994E+04  0.18106117372E+04 0.  0.
        2    1    3    3  502    0  0.87484874833E+03 -0.71377403770E+02  0.49941056284E+03  0.10098841401E+04  0.25500000920E-02 0. -1.
       -2    1    3    3    0  502 -0.87484874833E+03  0.71377403770E+02  0.10891057295E+04  0.13987874593E+04  0.25500000920E-02 0.  1.
</event>
<event>
 5   0  0.2550616E-04  0.1798198E+04  0.7818609E-02  0.8707259E-01
       -2   -1    0    0    0  501  0.00000000000E+00  0.00000000000E+00  0.82735966973E+03  0.82735966973E+03  0.25500000920E-02 0.  1.
        2   -1    0    0  501    0  0.00000000000E+00  0.00000000000E+00 -0.97705842588E+03  0.97705842589E+03  0.25500000920E-02 0. -1.
    10030    2    1    2    0    0  0.00000000000E+00  0.00000000000E+00 -0.14969875615E+03  0.18044180956E+04  0.17981976939E+04 0.  0.
        1    1    3    3  502    0  0.33331176958E+03  0.68606605655E+03  0.40281763457E+03  0.86258067242E+03  0.50400001928E-02 0.  1.
       -1    1    3    3    0  502 -0.33331176958E+03 -0.68606605655E+03 -0.55251639072E+03  0.94183742320E+03  0.50400001928E-02 0. -1.
</event>
<event>
 5   0  0.2431811E-04  0.1907853E+04  0.7818609E-02  0.8650957E-01
       -2   -1    0    0    0  501  0.00000000000E+00  0.00000000000E+00  0.81477133558E+03  0.81477133559E+03  0.25500000920E-02 0.  1.
        2   -1    0    0  501    0  0.00000000000E+00  0.00000000000E+00 -0.11168485382E+04  0.11168485382E+04  0.25500000920E-02 0. -1.
    10030    2    1    2    0    0  0.00000000000E+00  0.00000000000E+00 -0.30207720259E+03  0.19316198738E+04  0.19078534274E+04 0.  0.
        3    1    3    3  502    0 -0.10105260795E+03  0.30013243872E+03  0.75999568134E+03  0.82333744977E+03  0.10100000352E+00 0.  1.
       -3    1    3    3    0  502  0.10105260795E+03 -0.30013243872E+03 -0.10620728839E+04  0.11082824240E+04  0.10100000352E+00 0. -1.
</event>
<event>
 5   0  0.2431811E-04  0.1799186E+04  0.7818609E-02  0.8706732E-01
        2   -1    0    0  501    0  0.00000000000E+00  0.00000000000E+00  0.55892772918E+03  0.55892772919E+03  0.25500000920E-02 0.  1.
       -2   -1    0    0    0  501  0.00000000000E+00  0.00000000000E+00 -0.14478934740E+04  0.14478934740E+04  0.25500000920E-02 0. -1.
    10030    2    1    2    0    0  0.00000000000E+00  0.00000000000E+00 -0.88896574486E+03  0.20068212032E+04  0.17991862733E+04 0.  0.
        3    1    3    3  502    0 -0.14910691498E+03  0.17030452533E+03  0.52664433262E+03  0.57322837223E+03  0.10100000352E+00 0.  1.
       -3    1    3    3    0  502  0.14910691498E+03 -0.17030452533E+03 -0.14156100775E+04  0.14335928310E+04  0.10100000352E+00 0. -1.
</event>
<event>
 5   0  0.1214723E-04  0.1797948E+04  0.7818609E-02  0.8707392E-01
        1   -1    0    0  501    0  0.00000000000E+00  0.00000000000E+00  0.71546661884E+03  0.71546661885E+03  0.50400001928E-02 0. -1.
       -1   -1    0    0    0  501  0.00000000000E+00  0.00000000000E+00 -0.11295479648E+04  0.11295479648E+04  0.50400001928E-02 0.  1.
    10030    2    1    2    0    0  0.00000000000E+00  0.00000000000E+00 -0.41408134594E+03  0.18450145836E+04  0.17979475668E+04 0.  0.
        1    1    3    3  502    0  0.69028096296E+01  0.23125897434E+03 -0.10984732880E+04  0.11225737955E+04  0.50400001928E-02 0.  1.
       -1    1    3    3    0  502 -0.69028096296E+01 -0.23125897434E+03  0.68439194203E+03  0.72244078812E+03  0.50400001928E-02 0. -1.
</event>
<event>
 5   0  0.1239119E-04  0.1799042E+04  0.7818609E-02  0.8706809E-01
       -1   -1    0    0    0  501  0.00000000000E+00  0.00000000000E+00  0.48021146776E+03  0.48021146778E+03  0.50400001928E-02 0.  1.
        1   -1    0    0  501    0  0.00000000000E+00  0.00000000000E+00 -0.16849611234E+04  0.16849611234E+04  0.50400001928E-02 0. -1.
    10030    2    1    2    0    0  0.00000000000E+00  0.00000000000E+00 -0.12047496556E+04  0.21651725912E+04  0.17990415829E+04 0.  0.
        5    1    3    3  502    0  0.64906447481E+03  0.30945586845E+03 -0.12527938898E+04  0.14444937685E+04  0.46999998093E+01 0. -1.
       -5    1    3    3    0  502 -0.64906447481E+03 -0.30945586845E+03  0.48044234177E+02  0.72067882265E+03  0.46999998093E+01 0.  1.
</event>
<event>
 5   0  0.2431811E-04  0.1798407E+04  0.7818609E-02  0.8707147E-01
       -2   -1    0    0    0  501  0.00000000000E+00  0.00000000000E+00  0.38681108895E+03  0.38681108895E+03  0.25500000920E-02 0.  1.
        2   -1    0    0  501    0  0.00000000000E+00  0.00000000000E+00 -0.20903397262E+04  0.20903397262E+04  0.25500000920E-02 0. -1.
    10030    2    1    2    0    0  0.00000000000E+00  0.00000000000E+00 -0.17035286372E+04  0.24771508151E+04  0.17984066123E+04 0.  0.
        3    1    3    3  502    0  0.64412581806E+03  0.62742135438E+03 -0.84720631940E+03  0.12354408862E+04  0.10100000352E+00 0.  1.
       -3    1    3    3    0  502 -0.64412581806E+03 -0.62742135438E+03 -0.85632231783E+03  0.12417099289E+04  0.10100000352E+00 0. -1.
</event>
<event>
 5   0  0.1239119E-04  0.1796260E+04  0.7818609E-02  0.8708291E-01
        1   -1    0    0  501    0  0.00000000000E+00  0.00000000000E+00  0.83514318418E+03  0.83514318419E+03  0.50400001928E-02 0.  1.
       -1   -1    0    0    0  501  0.00000000000E+00  0.00000000000E+00 -0.96586687560E+03  0.96586687562E+03  0.50400001928E-02 0. -1.
    10030    2    1    2    0    0  0.00000000000E+00  0.00000000000E+00 -0.13072369143E+03  0.18010100598E+04  0.17962596004E+04 0.  0.
        5    1    3    3  502    0 -0.40532982748E+03  0.42532438587E+03 -0.74643875955E+03  0.94994000548E+03  0.46999998093E+01 0. -1.
       -5    1    3    3    0  502  0.40532982748E+03 -0.42532438587E+03  0.61571506812E+03  0.85107005432E+03  0.46999998093E+01 0.  1.
</event>
<event>
 5   0  0.2569405E-04  0.1935588E+04  0.7818609E-02  0.8637342E-01
        2   -1    0    0  501    0  0.00000000000E+00  0.00000000000E+00  0.17363950595E+04  0.17363950595E+04  0.25500000920E-02 0. -1.
       -2   -1    0    0    0  501  0.00000000000E+00  0.00000000000E+00 -0.53940808641E+03  0.53940808642E+03  0.25500000920E-02 0.  1.
    10030    2    1    2    0    0  0.00000000000E+00  0.00000000000E+00  0.11969869731E+04  0.22758031459E+04  0.19355883202E+04 0.  0.
        2    1    3    3  502    0  0.16226365233E+03  0.27297289968E+03 -0.47640676800E+03  0.57254441350E+03  0.25500000920E-02 0.  1.
       -2    1    3    3    0  502 -0.16226365233E+03 -0.27297289968E+03  0.16733937411E+04  0.17032587324E+04  0.25500000920E-02 0. -1.
</event>
<event>
 5   0  0.1214723E-04  0.1816506E+04  0.7818609E-02  0.8697571E-01
       -1   -1    0    0    0  501  0.00000000000E+00  0.00000000000E+00  0.47413162605E+03  0.47413162608E+03  0.50400001928E-02 0.  1.
        1   -1    0    0  501    0  0.00000000000E+00  0.00000000000E+00 -0.17398609245E+04  0.17398609245E+04  0.50400001928E-02 0. -1.
    10030    2    1    2    0    0  0.00000000000E+00  0.00000000000E+00 -0.12657292985E+04  0.22139925506E+04  0.18165055346E+04 0.  0.
        1    1    3    3  502    0 -0.60376957352E+03  0.62642681109E+03 -0.31509418218E+03  0.92532836941E+03  0.50400001928E-02 0. -1.
       -1    1    3    3    0  502  0.60376957352E+03 -0.62642681109E+03 -0.95063511630E+03  0.12886641812E+04  0.50400001928E-02 0.  1.
</event>
<event>
 5   0  0.1214723E-04  0.1814169E+04  0.7818609E-02  0.8698801E-01
       -1   -1    0    0    0  501  0.00000000000E+00  0.00000000000E+00  0.74514665411E+03  0.74514665412E+03  0.50400001928E-02 0. -1.
        1   -1    0    0  501    0  0.00000000000E+00  0.00000000000E+00 -0.11042155308E+04  0.11042155308E+04  0.50400001928E-02 0.  1.
    10030    2    1    2    0    0  0.00000000000E+00  0.00000000000E+00 -0.35906887669E+03  0.18493621849E+04  0.18141692404E+04 0.  0.
        1    1    3    3  502    0  0.57657834838E+03  0.47214228920E+03 -0.70671408499E+03  0.10270373562E+04  0.50400001928E-02 0.  1.
       -1    1    3    3    0  502 -0.57657834838E+03 -0.47214228920E+03  0.34764520830E+03  0.82232482874E+03  0.50400001928E-02 0. -1.
</event>
<event>
 5   0  0.1253925E-04  0.1751981E+04  0.7818609E-02  0.8732261E-01
       -1   -1    0    0    0  501  0.00000000000E+00  0.00000000000E+00  0.16195067793E+04  0.16195067793E+04  0.50400001928E-02 0. -1.
        1   -1    0    0  501    0  0.00000000000E+00  0.00000000000E+00 -0.47382261240E+03  0.47382261243E+03  0.50400001928E-02 0.  1.
    10030    2    1    2    0    0  0.00000000000E+00  0.00000000000E+00  0.11456841669E+04  0.20933293917E+04  0.17519805170E+04 0.  0.
        2    1    3    3  502    0  0.83498214271E+03 -0.11054741024E+03  0.28522884036E+03  0.88925328222E+03  0.25500000920E-02 0. -1.
       -2    1    3    3    0  502 -0.83498214271E+03  0.11054741024E+03  0.86045532654E+03  0.12040761095E+04  0.25500000920E-02 0.  1.
</event>
<event>
 5   0  0.2417106E-04  0.1789062E+04  0.7818609E-02  0.8712138E-01
       -2   -1    0    0    0  501  0.00000000000E+00  0.00000000000E+00  0.83491008868E+03  0.83491008869E+03  0.25500000920E-02 0.  1.
        2   -1    0    0  501    0  0.00000000000E+00  0.00000000000E+00 -0.95840925323E+03  0.95840925324E+03  0.25500000920E-02 0. -1.
    10030    2    1    2    0    0  0.00000000000E+00  0.00000000000E+00 -0.12349916455E+03  0.17933193419E+04  0.17890618263E+04 0.  0.
        4    1    3    3  502    0 -0.48138687622E+03 -0.45814978039E+03 -0.66196449421E+03  0.93799421660E+03  0.12699999809E+01 0. -1.
       -4    1    3    3    0  502  0.48138687622E+03  0.45814978039E+03  0.53846532966E+03  0.85532512533E+03  0.12699999809E+01 0.  1.
</event>
<event>
 5   0  0.1330225E-04  0.1808200E+04  0.7818609E-02  0.8701951E-01
        1   -1    0    0  501    0  0.00000000000E+00  0.00000000000E+00  0.16634350581E+04  0.16634350581E+04  0.50400001928E-02 0.  1.
       -1   -1    0    0    0  501  0.00000000000E+00  0.00000000000E+00 -0.49139085082E+03  0.49139085085E+03  0.50400001928E-02 0. -1.
    10030    2    1    2    0    0  0.00000000000E+00  0.00000000000E+00  0.11720442073E+04  0.21548259090E+04  0.18081999541E+04 0.  0.
        3    1    3    3  502    0 -0.74533329492E+03 -0.15882001201E+03  0.62996408618E+01  0.76209265342E+03  0.10100000352E+00 0. -1.
       -3    1    3    3    0  502  0.74533329492E+03  0.15882001201E+03  0.11657445664E+04  0.13927332555E+04  0.10100000352E+00 0.  1.
</event>
<event>
 5   0  0.1239119E-04  0.1786315E+04  0.7818609E-02  0.8713611E-01
        1   -1    0    0  501    0  0.00000000000E+00  0.00000000000E+00  0.94977404627E+03  0.94977404628E+03  0.50400001928E-02 0.  1.
       -1   -1    0    0    0  501  0.00000000000E+00  0.00000000000E+00 -0.83991549639E+03  0.83991549640E+03  0.50400001928E-02 0. -1.
    10030    2    1    2    0    0  0.00000000000E+00  0.00000000000E+00  0.10985854988E+03  0.17896895427E+04  0.17863145743E+04 0.  0.
        5    1    3    3  502    0  0.69759875988E+02 -0.58734299995E+03 -0.61556574427E+03  0.85368701255E+03  0.46999998093E+01 0. -1.
       -5    1    3    3    0  502 -0.69759875988E+02  0.58734299995E+03  0.72542429415E+03  0.93600253014E+03  0.46999998093E+01 0.  1.
</event>
<event>
 5   0  0.1253925E-04  0.1803065E+04  0.7818609E-02  0.8704671E-01
        1   -1    0    0  501    0  0.00000000000E+00  0.00000000000E+00  0.20149701256E+04  0.20149701256E+04  0.50400001928E-02 0. -1.
       -1   -1    0    0    0  501  0.00000000000E+00  0.00000000000E+00 -0.40336133121E+03  0.40336133124E+03  0.50400001928E-02 0.  1.
    10030    2    1    2    0    0  0.00000000000E+00  0.00000000000E+00  0.16116087943E+04  0.24183314568E+04  0.18030652037E+04 0.  0.
        2    1    3    3  502    0 -0.17278710717E+03 -0.87761068545E+03  0.65462451800E+03  0.11084174120E+04  0.25500000920E-02 0.  1.
       -2    1    3    3    0  502  0.17278710717E+03  0.87761068545E+03  0.95698427634E+03  0.13099140448E+04  0.25500000920E-02 0. -1.
</event>
<event>
 5   0  0.2569405E-04  0.1770741E+04  0.7818609E-02  0.8722016E-01
       -2   -1    0    0    0  501  0.00000000000E+00  0.00000000000E+00  0.60698491264E+03  0.60698491265E+03  0.25500000920E-02 0. -1.
        2   -1    0    0  501    0  0.00000000000E+00  0.00000000000E+00 -0.12914334115E+04  0.12914334115E+04  0.25500000920E-02 0.  1.
    10030    2    1    2    0    0  0.00000000000E+00  0.00000000000E+00 -0.68444849886E+03  0.18984183242E+04  0.17707406320E+04 0.  0.
        2    1    3    3  502    0 -0.75013439547E+02 -0.84194282639E+03 -0.62462929003E+03  0.10510263979E+04  0.25500000920E-02 0. -1.
       -2    1    3    3    0  502  0.75013439547E+02  0.84194282639E+03 -0.59819208834E+02  0.84739192631E+03  0.25500000920E-02 0.  1.
</event>
<event>
 5   0  0.2417106E-04  0.1775350E+04  0.7818609E-02  0.8719519E-01
       -2   -1    0    0    0  501  0.00000000000E+00  0.00000000000E+00  0.10001212224E+04  0.10001212224E+04  0.25500000920E-02 0. -1.
        2   -1    0    0  501    0  0.00000000000E+00  0.00000000000E+00 -0.78787173086E+03  0.78787173087E+03  0.25500000920E-02 0.  1.
    10030    2    1    2    0    0  0.00000000000E+00  0.00000000000E+00  0.21224949154E+03  0.17879929533E+04  0.17753503751E+04 0.  0.
        4    1    3    3  502    0 -0.55078300990E+03 -0.42900051502E+03  0.65826441442E+03  0.95954000337E+03  0.12699999809E+01 0.  1.
       -4    1    3    3    0  502  0.55078300990E+03  0.42900051502E+03 -0.44601492288E+03  0.82845294991E+03  0.12699999809E+01 0. -1.
</event>
<event>
 5   0  0.2417106E-04  0.1731278E+04  0.7818609E-02  0.8743724E-01
        2   -1    0    0  501    0  0.00000000000E+00  0.00000000000E+00  0.37233494555E+03  0.37233494555E+03  0.25500000920E-02 0.  1.
       -2   -1    0    0    0  501  0.00000000000E+00  0.00000000000E+00 -0.20125175774E+04  0.20125175774E+04  0.25500000920E-02 0. -1.
    10030    2    1    2    0    0  0.00000000000E+00  0.00000000000E+00 -0.16401826318E+04  0.23848525229E+04  0.17312777046E+04 0.  0.
        4    1    3    3  502    0 -0.12938379185E+03 -0.34503766141E+03  0.25889384988E+03  0.45035407380E+03  0.12699999809E+01 0.  1.
       -4    1    3    3    0  502  0.12938379185E+03  0.34503766141E+03 -0.18990764817E+04  0.19344984491E+04  0.12699999809E+01 0. -1.
</event>
<event>
 5   0  0.1308893E-04  0.1778890E+04  0.7818609E-02  0.8717607E-01
        1   -1    0    0  501    0  0.00000000000E+00  0.00000000000E+00  0.77729292772E+03  0.77729292774E+03  0.50400001928E-02 0. -1.
       -1   -1    0    0    0  501  0.00000000000E+00  0.00000000000E+00 -0.10177788387E+04  0.10177788387E+04  0.50400001928E-02 0.  1.
    10030    2    1    2    0    0  0.00000000000E+00  0.00000000000E+00 -0.24048591098E+03  0.17950717665E+04  0.17788898711E+04 0.  0.
        4    1    3    3  502    0  0.53064822363E+03 -0.61334496502E+03 -0.48870985525E+03  0.94689942384E+03  0.12699999809E+01 0.  1.
       -4    1    3    3    0  502 -0.53064822363E+03  0.61334496502E+03  0.24822394428E+03  0.84817234261E+03  0.12699999809E+01 0. -1.
</event>
<event>
 5   0  0.2569405E-04  0.1800812E+04  0.7818609E-02  0.8705868E-01
        2   -1    0    0  501    0  0.00000000000E+00  0.00000000000E+00  0.16753473899E+04  0.16753473899E+04  0.25500000920E-02 0. -1.
       -2   -1    0    0    0  501  0.00000000000E+00  0.00000000000E+00 -0.48391825005E+03  0.48391825006E+03  0.25500000920E-02 0.  1.
    10030    2    1    2    0    0  0.00000000000E+00  0.00000000000E+00  0.11914291399E+04  0.21592656400E+04  0.18008122358E+04 0.  0.
        2    1    3    3  502    0  0.87353722567E+03  0.16721046803E+03  0.76402883415E+03  0.11725044497E+04  0.25500000920E-02 0. -1.
       -2    1    3    3    0  502 -0.87353722567E+03 -0.16721046803E+03  0.42740030574E+03  0.98676119026E+03  0.25500000920E-02 0.  1.
</event>
<event>
 5   0  0.2417106E-04  0.1763887E+04  0.7818609E-02  0.8725743E-01
       -2   -1    0    0    0  501  0.00000000000E+00  0.00000000000E+00  0.74175069618E+03  0.74175069618E+03  0.25500000920E-02 0.  1.
        2   -1    0    0  501    0  0.00000000000E+00  0.00000000000E+00 -0.10486336680E+04  0.10486336680E+04  0.25500000920E-02 0. -1.
    10030    2    1    2    0    0  0.00000000000E+00  0.00000000000E+00 -0.30688297180E+03  0.17903843642E+04  0.17638874718E+04 0.  0.
        4    1    3    3  502    0 -0.46449016841E+03 -0.64763356961E+03  0.22991278233E+03  0.82948288555E+03  0.12699999809E+01 0.  1.
       -4    1    3    3    0  502  0.46449016841E+03  0.64763356961E+03 -0.53679575413E+03  0.96090147861E+03  0.12699999809E+01 0. -1.
</event>
<event>
 5   0  0.2393421E-04  0.1771413E+04  0.7818609E-02  0.8721651E-01
        2   -1    0    0  501    0  0.00000000000E+00  0.00000000000E+00  0.23370253611E+04  0.23370253611E+04  0.25500000920E-02 0. -1.
       -2   -1    0    0    0  501  0.00000000000E+00  0.00000000000E+00 -0.33567269924E+03  0.33567269925E+03  0.25500000920E-02 0.  1.
    10030    2    1    2    0    0  0.00000000000E+00  0.00000000000E+00  0.20013526618E+04  0.26726980603E+04  0.17714125563E+04 0.  0.
        5    1    3    3  502    0 -0.80626115377E+03 -0.36386274752E+03  0.10681579954E+04  0.13868802184E+04  0.46999998093E+01 0. -1.
       -5    1    3    3    0  502  0.80626115377E+03  0.36386274752E+03  0.93319466645E+03  0.12858178419E+04  0.46999998093E+01 0.  1.
</event>
<event>
 5   0  0.9144875E-05  0.1810844E+04  0.7818609E-02  0.8700554E-01
       -4   -1    0    0    0  501  0.00000000000E+00  0.00000000000E+00  0.85100372866E+03  0.85100467631E+03  0.12699999809E+01 0. -1.
        4   -1    0    0  501    0  0.00000000000E+00  0.00000000000E+00 -0.96331813451E+03  0.96331897166E+03  0.12699999809E+01 0.  1.
    10030    2    1    2    0    0  0.00000000000E+00  0.00000000000E+00 -0.11231440584E+03  0.18143236480E+04  0.18108439397E+04 0.  0.
        2    1    3    3  502    0  0.62437167490E+03 -0.28071192304E+02  0.60020542157E+03  0.86653016586E+03  0.25500000920E-02 0. -1.
       -2    1    3    3    0  502 -0.62437167490E+03  0.28071192304E+02 -0.71251982742E+03  0.94779348211E+03  0.25500000920E-02 0.  1.
</event>
<event>
 5   0  0.2393421E-04  0.1839311E+04  0.7818609E-02  0.8685669E-01
       -2   -1    0    0    0  501  0.00000000000E+00  0.00000000000E+00  0.50117152066E+03  0.50117152067E+03  0.25500000920E-02 0.  1.
        2   -1    0    0  501    0  0.00000000000E+00  0.00000000000E+00 -0.16875792736E+04  0.16875792736E+04  0.25500000920E-02 0. -1.
    10030    2    1    2    0    0  0.00000000000E+00  0.00000000000E+00 -0.11864077530E+04  0.21887507943E+04  0.18393114699E+04 0.  0.
        5    1    3    3  502    0 -0.66196698199E+03 -0.36394757461E+03 -0.12173347178E+04  0.14326842037E+04  0.46999998093E+01 0. -1.
       -5    1    3    3    0  502  0.66196698199E+03  0.36394757461E+03  0.30926964826E+02  0.75606659063E+03  0.46999998093E+01 0.  1.
</event>
<event>
 5   0  0.1239119E-04  0.1836043E+04  0.7818609E-02  0.8687364E-01
        1   -1    0    0  501    0  0.00000000000E+00  0.00000000000E+00  0.15338267058E+04  0.15338267058E+04  0.50400001928E-02 0. -1.
       -1   -1    0    0    0  501  0.00000000000E+00  0.00000000000E+00 -0.54945150225E+03  0.54945150227E+03  0.50400001928E-02 0.  1.
    10030    2    1    2    0    0  0.00000000000E+00  0.00000000000E+00  0.98437520358E+03  0.20832782081E+04  0.18360429055E+04 0.  0.
        5    1    3    3  502    0  0.18402323898E+03 -0.71436308579E+03  0.11121734882E+04  0.13345902475E+04  0.46999998093E+01 0. -1.
       -5    1    3    3    0  502 -0.18402323898E+03  0.71436308579E+03 -0.12779828464E+03  0.74868796062E+03  0.46999998093E+01 0.  1.
</event>
<event>
 5   0  0.1253925E-04  0.1802819E+04  0.7818609E-02  0.8704802E-01
        1   -1    0    0  501    0  0.00000000000E+00  0.00000000000E+00  0.11341265890E+04  0.11341265890E+04  0.50400001928E-02 0.  1.
       -1   -1    0    0    0  501  0.00000000000E+00  0.00000000000E+00 -0.71644509396E+03  0.71644509398E+03  0.50400001928E-02 0. -1.
    10030    2    1    2    0    0  0.00000000000E+00  0.00000000000E+00  0.41768149506E+03  0.18505716830E+04  0.18028193816E+04 0.  0.
        2    1    3    3  502    0 -0.56340070736E+03  0.69570256684E+03  0.31707076615E+03  0.94971379337E+03  0.25500000920E-02 0.  1.
       -2    1    3    3    0  502  0.56340070736E+03 -0.69570256684E+03  0.10061072891E+03  0.90085788965E+03  0.25500000920E-02 0. -1.
</event>
<event>
 5   0  0.2550616E-04  0.1798872E+04  0.7818609E-02  0.8706900E-01
        2   -1    0    0  501    0  0.00000000000E+00  0.00000000000E+00  0.11040391439E+04  0.11040391439E+04  0.25500000920E-02 0. -1.
       -2   -1    0    0    0  501  0.00000000000E+00  0.00000000000E+00 -0.73275008628E+03  0.73275008628E+03  0.25500000920E-02 0.  1.
    10030    2    1    2    0    0  0.00000000000E+00  0.00000000000E+00  0.37128905760E+03  0.18367892302E+04  0.17988716218E+04 0.  0.
        1    1    3    3  502    0  0.62576170692E+03 -0.63133091573E+03  0.45535811495E+02  0.89007300215E+03  0.50400001928E-02 0.  1.
       -1    1    3    3    0  502 -0.62576170692E+03  0.63133091573E+03  0.32575324611E+03  0.94671622801E+03  0.50400001928E-02 0. -1.
</event>
<event>
 5   0  0.1308893E-04  0.1823411E+04  0.7818609E-02  0.8693948E-01
       -1   -1    0    0    0  501  0.00000000000E+00  0.00000000000E+00  0.81389515603E+03  0.81389515605E+03  0.50400001928E-02 0. -1.
        1   -1    0    0  501    0  0.00000000000E+00  0.00000000000E+00 -0.10212699901E+04  0.10212699901E+04  0.50400001928E-02 0.  1.
    10030    2    1    2    0    0  0.00000000000E+00  0.00000000000E+00 -0.20737483402E+03  0.18351651461E+04  0.18234107578E+04 0.  0.
        4    1    3    3  502    0 -0.13874779514E+03  0.42252239424E+03 -0.90470047791E+03  0.10080975607E+04  0.12699999809E+01 0.  1.
       -4    1    3    3    0  502  0.13874779514E+03 -0.42252239424E+03  0.69732564389E+03  0.82706758540E+03  0.12699999809E+01 0. -1.
</event>
<event>
 5   0  0.2431811E-04  0.1785620E+04  0.7818609E-02  0.8713984E-01
        2   -1    0    0  501    0  0.00000000000E+00  0.00000000000E+00  0.22052388790E+04  0.22052388790E+04  0.25500000920E-02 0. -1.
       -2   -1    0    0    0  501  0.00000000000E+00  0.00000000000E+00 -0.36146180305E+03  0.36146180306E+03  0.25500000920E-02 0.  1.
    10030    2    1    2    0    0  0.00000000000E+00  0.00000000000E+00  0.18437770760E+04  0.25667006821E+04  0.17856199163E+04 0.  0.
        3    1    3    3  502    0  0.11962767188E+03 -0.75043543255E+03  0.15955587630E+04  0.17672781033E+04  0.10100000352E+00 0. -1.
       -3    1    3    3    0  502 -0.11962767188E+03  0.75043543255E+03  0.24821831302E+03  0.79942257875E+03  0.10100000352E+00 0.  1.
</event>
<event>
 5   0  0.1239119E-04  0.1776615E+04  0.7818609E-02  0.8718835E-01
       -1   -1    0    0    0  501  0.00000000000E+00  0.00000000000E+00  0.34092017494E+03  0.34092017497E+03  0.50400001928E-02 0. -1.
        1   -1    0    0  501    0  0.00000000000E+00  0.00000000000E+00 -0.23145900009E+04  0.23145900009E+04  0.50400001928E-02 0.  1.
    10030    2    1    2    0    0  0.00000000000E+00  0.00000000000E+00 -0.19736698260E+04  0.26555101759E+04  0.17766152404E+04 0.  0.
        5    1    3    3  502    0  0.55959724485E+03 -0.23742221036E+03 -0.18676493890E+02  0.60818523810E+03  0.46999998093E+01 0. -1.
       -5    1    3    3    0  502 -0.55959724485E+03  0.23742221036E+03 -0.19549933321E+04  0.20473249378E+04  0.46999998093E+01 0.  1.
</event>
<event>
 5   0  0.1330225E-04  0.1769001E+04  0.7818609E-02  0.8722960E-01
       -1   -1    0    0    0  501  0.00000000000E+00  0.00000000000E+00  0.76731630116E+03  0.76731630118E+03  0.50400001928E-02 0. -1.
        1   -1    0    0  501    0  0.00000000000E+00  0.00000000000E+00 -0.10195806709E+04  0.10195806709E+04  0.50400001928E-02 0.  1.
    10030    2    1    2    0    0  0.00000000000E+00  0.00000000000E+00 -0.25226436974E+03  0.17868969721E+04  0.17690007000E+04 0.  0.
        3    1    3    3  502    0  0.31158635263E+02  0.58308158794E+03  0.54495773630E+03  0.79870767074E+03  0.10100000352E+00 0. -1.
       -3    1    3    3    0  502 -0.31158635263E+02 -0.58308158794E+03 -0.79722210604E+03  0.98818930136E+03  0.10100000352E+00 0.  1.
</event>
<event>
 5   0  0.9144875E-05  0.1788274E+04  0.7818609E-02  0.8712560E-01
        3   -1    0    0  501    0  0.00000000000E+00  0.00000000000E+00  0.10083173466E+04  0.10083173516E+04  0.10100000352E+00 0.  1.
       -3   -1    0    0    0  501  0.00000000000E+00  0.00000000000E+00 -0.79288629768E+03  0.79288630411E+03  0.10100000352E+00 0. -1.
    10030    2    1    2    0    0  0.00000000000E+00  0.00000000000E+00  0.21543104889E+03  0.18012036557E+04  0.17882740485E+04 0.  0.
        2    1    3    3  502    0  0.50707417023E+03 -0.73051651225E+03  0.20167682065E+03  0.91183996884E+03  0.25500000920E-02 0. -1.
       -2    1    3    3    0  502 -0.50707417023E+03  0.73051651225E+03  0.13754228243E+02  0.88936368690E+03  0.25500000920E-02 0.  1.
</event>
<event>
 5   0  0.2569405E-04  0.1691944E+04  0.7818609E-02  0.8765972E-01
        2   -1    0    0  501    0  0.00000000000E+00  0.00000000000E+00  0.15403726102E+04  0.15403726102E+04  0.25500000920E-02 0. -1.
       -2   -1    0    0    0  501  0.00000000000E+00  0.00000000000E+00 -0.46460741109E+03  0.46460741110E+03  0.25500000920E-02 0.  1.
    10030    2    1    2    0    0  0.00000000000E+00  0.00000000000E+00  0.10757651992E+04  0.20049800213E+04  0.16919438886E+04 0.  0.
        2    1    3    3  502    0  0.63737202564E+03 -0.51801046603E+03  0.77809491774E+03  0.11313751115E+04  0.25500000920E-02 0. -1.
       -2    1    3    3    0  502 -0.63737202564E+03  0.51801046603E+03  0.29767028141E+03  0.87360490980E+03  0.25500000920E-02 0.  1.
</event>
<event>
 5   0  0.2393421E-04  0.1788634E+04  0.7818609E-02  0.8712367E-01
       -2   -1    0    0    0  501  0.00000000000E+00  0.00000000000E+00  0.66805159143E+03  0.66805159144E+03  0.25500000920E-02 0.  1.
        2   -1    0    0  501    0  0.00000000000E+00  0.00000000000E+00 -0.11972168807E+04  0.11972168807E+04  0.25500000920E-02 0. -1.
    10030    2    1    2    0    0  0.00000000000E+00  0.00000000000E+00 -0.52916528927E+03  0.18652684721E+04  0.17886337159E+04 0.  0.
        5    1    3    3  502    0 -0.23064646105E+03  0.83955026855E+03 -0.47763499086E+03  0.99307588729E+03  0.46999998093E+01 0. -1.
       -5    1    3    3    0  502  0.23064646105E+03 -0.83955026855E+03 -0.51530298404E+02  0.87219258485E+03  0.46999998093E+01 0.  1.
</event>
<event>
 5   0  0.1308893E-04  0.1797018E+04  0.7818609E-02  0.8707887E-01
        1   -1    0    0  501    0  0.00000000000E+00  0.00000000000E+00  0.94884691583E+03  0.94884691584E+03  0.50400001928E-02 0. -1.
       -1   -1    0    0    0  501  0.00000000000E+00  0.00000000000E+00 -0.85084113445E+03  0.85084113447E+03  0.50400001928E-02 0.  1.
    10030    2    1    2    0    0  0.00000000000E+00  0.00000000000E+00  0.98005781378E+02  0.17996880503E+04  0.17970175139E+04 0.  0.
        4    1    3    3  502    0 -0.46723890934E+03 -0.59711385066E+03 -0.43385386873E+03  0.87354904920E+03  0.12699999809E+01 0.  1.
       -4    1    3    3    0  502  0.46723890934E+03  0.59711385066E+03  0.53185965011E+03  0.92613900110E+03  0.12699999809E+01 0. -1.
</event>
<event>
 5   0  0.2417106E-04  0.1813996E+04  0.7818609E-02  0.8698892E-01
        2   -1    0    0  501    0  0.00000000000E+00  0.00000000000E+00  0.12898657413E+04  0.12898657413E+04  0.25500000920E-02 0.  1.
       -2   -1    0    0    0  501  0.00000000000E+00  0.00000000000E+00 -0.63777607054E+03  0.63777607054E+03  0.25500000920E-02 0. -1.
    10030    2    1    2    0    0  0.00000000000E+00  0.00000000000E+00  0.65208967071E+03  0.19276418118E+04  0.18139961455E+04 0.  0.
        4    1    3    3  502    0  0.12082113430E+03 -0.83932620738E+03  0.66804241319E+03  0.10795130882E+04  0.12699999809E+01 0. -1.
       -4    1    3    3    0  502 -0.12082113430E+03  0.83932620738E+03 -0.15952742475E+02  0.84812872359E+03  0.12699999809E+01 0.  1.
</event>
<event>
 5   0  0.1239119E-04  0.1813467E+04  0.7818609E-02  0.8699171E-01
        1   -1    0    0  501    0  0.00000000000E+00  0.00000000000E+00  0.12897060579E+04  0.12897060579E+04  0.50400001928E-02 0. -1.
       -1   -1    0    0    0  501  0.00000000000E+00  0.00000000000E+00 -0.63748281784E+03  0.63748281786E+03  0.50400001928E-02 0.  1.
    10030    2    1    2    0    0  0.00000000000E+00  0.00000000000E+00  0.65222324006E+03  0.19271888758E+04  0.18134667926E+04 0.  0.
        5    1    3    3  502    0 -0.56770455809E+02 -0.88812645034E+03  0.14157952568E+03  0.90114279032E+03  0.46999998093E+01 0. -1.
       -5    1    3    3    0  502  0.56770455809E+02  0.88812645034E+03  0.51064371438E+03  0.10260460855E+04  0.46999998093E+01 0.  1.
</event>
<event>
 5   0  0.2569405E-04  0.1794004E+04  0.7818609E-02  0.8709494E-01
       -2   -1    0    0    0  501  0.00000000000E+00  0.00000000000E+00  0.57259969664E+03  0.57259969665E+03  0.25500000920E-02 0.  1.
        2   -1    0    0  501    0  0.00000000000E+00  0.00000000000E+00 -0.14051927009E+04  0.14051927009E+04  0.25500000920E-02 0. -1.
    10030    2    1    2    0    0  0.00000000000E+00  0.00000000000E+00 -0.83259300423E+03  0.19777923975E+04  0.17940043637E+04 0.  0.
        2    1    3    3  502    0  0.71882994991E+02  0.31380952847E+03 -0.13393071604E+04  0.13774568070E+04  0.25500000920E-02 0. -1.
       -2    1    3    3    0  502 -0.71882994991E+02 -0.31380952847E+03  0.50671415622E+03  0.60033559052E+03  0.25500000920E-02 0.  1.
</event>
<event>
 5   0  0.2431811E-04  0.1809415E+04  0.7818609E-02  0.8701309E-01
       -2   -1    0    0    0  501  0.00000000000E+00  0.00000000000E+00  0.14166989221E+04  0.14166989221E+04  0.25500000920E-02 0.  1.
        2   -1    0    0  501    0  0.00000000000E+00  0.00000000000E+00 -0.57774845455E+03  0.57774845456E+03  0.25500000920E-02 0. -1.
    10030    2    1    2    0    0  0.00000000000E+00  0.00000000000E+00  0.83895046755E+03  0.19944473767E+04  0.18094149472E+04 0.  0.
        3    1    3    3  502    0 -0.43173330788E+03  0.66417933717E+03 -0.62211224518E+02  0.79460561772E+03  0.10100000352E+00 0. -1.
       -3    1    3    3    0  502  0.43173330788E+03 -0.66417933717E+03  0.90116169207E+03  0.11998417589E+04  0.10100000352E+00 0.  1.
</event>
<event>
 5   0  0.1253925E-04  0.1802552E+04  0.7818609E-02  0.8704944E-01
        1   -1    0    0  501    0  0.00000000000E+00  0.00000000000E+00  0.12493632800E+04  0.12493632800E+04  0.50400001928E-02 0. -1.
       -1   -1    0    0    0  501  0.00000000000E+00  0.00000000000E+00 -0.65016965740E+03  0.65016965742E+03  0.50400001928E-02 0.  1.
    10030    2    1    2    0    0  0.00000000000E+00  0.00000000000E+00  0.59919362260E+03  0.18995329374E+04  0.18025516312E+04 0.  0.
        2    1    3    3  502    0 -0.22500520850E+03  0.59783267035E+03  0.96962516412E+03  0.11611219594E+04  0.25500000920E-02 0. -1.
       -2    1    3    3    0  502  0.22500520850E+03 -0.59783267035E+03 -0.37043154152E+03  0.73841097808E+03  0.25500000920E-02 0.  1.
</event>
<event>
 5   0  0.1239119E-04  0.1872781E+04  0.7818609E-02  0.8668525E-01
       -1   -1    0    0    0  501  0.00000000000E+00  0.00000000000E+00  0.86867559643E+03  0.86867559644E+03  0.50400001928E-02 0. -1.
        1   -1    0    0  501    0  0.00000000000E+00  0.00000000000E+00 -0.10093843307E+04  0.10093843307E+04  0.50400001928E-02 0.  1.
    10030    2    1    2    0    0  0.00000000000E+00  0.00000000000E+00 -0.14070873424E+03  0.18780599271E+04  0.18727813919E+04 0.  0.
        5    1    3    3  502    0 -0.15492790350E+03 -0.63931583587E+03 -0.73862444418E+03  0.98909835346E+03  0.46999998093E+01 0.  1.
       -5    1    3    3    0  502  0.15492790350E+03  0.63931583587E+03  0.59791570994E+03  0.88896157367E+03  0.46999998093E+01 0. -1.
</event>
<event>
 5   0  0.2431811E-04  0.1795070E+04  0.7818609E-02  0.8708926E-01
        2   -1    0    0  501    0  0.00000000000E+00  0.00000000000E+00  0.60818190776E+03  0.60818190777E+03  0.25500000920E-02 0.  1.
       -2   -1    0    0    0  501  0.00000000000E+00  0.00000000000E+00 -0.13245525021E+04  0.13245525021E+04  0.25500000920E-02 0. -1.
    10030    2    1    2    0    0  0.00000000000E+00  0.00000000000E+00 -0.71637059430E+03  0.19327344098E+04  0.17950697676E+04 0.  0.
        3    1    3    3  502    0  0.50568386848E+03  0.28047514995E+03  0.38088748198E+03  0.69242889072E+03  0.10100000352E+00 0.  1.
       -3    1    3    3    0  502 -0.50568386848E+03 -0.28047514995E+03 -0.10972580763E+04  0.12403055191E+04  0.10100000352E+00 0. -1.
</event>
<event>
 5   0  0.2431811E-04  0.1796660E+04  0.7818609E-02  0.8708078E-01
        2   -1    0    0  501    0  0.00000000000E+00  0.00000000000E+00  0.10608669609E+04  0.10608669609E+04  0.25500000920E-02 0. -1.
       -2   -1    0    0    0  501  0.00000000000E+00  0.00000000000E+00 -0.76069563759E+03  0.76069563760E+03  0.25500000920E-02 0.  1.
    10030    2    1    2    0    0  0.00000000000E+00  0.00000000000E+00  0.30017132328E+03  0.18215625985E+04  0.17966600894E+04 0.  0.
        3    1    3    3  502    0 -0.78746958428E+03 -0.21444519784E+03 -0.23048596296E+03  0.84806773218E+03  0.10100000352E+00 0.  1.
       -3    1    3    3    0  502  0.78746958428E+03  0.21444519784E+03  0.53065728624E+03  0.97349486629E+03  0.10100000352E+00 0. -1.
</event>
<event>
 5   0  0.2569405E-04  0.1808190E+04  0.7818609E-02  0.8701956E-01
       -2   -1    0    0    0  501  0.00000000000E+00  0.00000000000E+00  0.64529849099E+03  0.64529849099E+03  0.25500000920E-02 0.  1.
        2   -1    0    0  501    0  0.00000000000E+00  0.00000000000E+00 -0.12666821178E+04  0.12666821178E+04  0.25500000920E-02 0. -1.
    10030    2    1    2    0    0  0.00000000000E+00  0.00000000000E+00 -0.62138362683E+03  0.19119806088E+04  0.18081903210E+04 0.  0.
        2    1    3    3  502    0  0.29062616597E+03  0.16599244863E+03  0.57738011576E+03  0.66737160520E+03  0.25500000920E-02 0.  1.
       -2    1    3    3    0  502 -0.29062616597E+03 -0.16599244863E+03 -0.11987637426E+04  0.12446090036E+04  0.25500000920E-02 0. -1.
</event>
<event>
 5   0  0.1214723E-04  0.1836951E+04  0.7818609E-02  0.8686892E-01
       -1   -1    0    0    0  501  0.00000000000E+00  0.00000000000E+00  0.92462208777E+03  0.92462208779E+03  0.50400001928E-02 0.  1.
        1   -1    0    0  501    0  0.00000000000E+00  0.00000000000E+00 -0.91237020477E+03  0.91237020478E+03  0.50400001928E-02 0. -1.
    10030    2    1    2    0    0  0.00000000000E+00  0.00000000000E+00  0.12251883003E+02  0.18369922926E+04  0.18369514349E+04 0.  0.
        1    1    3    3  502    0  0.22104816192E+03  0.37785731158E+03  0.81358380910E+03  0.92388151418E+03  0.50400001928E-02 0.  1.
       -1    1    3    3    0  502 -0.22104816192E+03 -0.37785731158E+03 -0.80133192609E+03  0.91311077839E+03  0.50400001928E-02 0. -1.
</event>
<event>
 5   0  0.2417106E-04  0.1796230E+04  0.7818609E-02  0.8708307E-01
       -2   -1    0    0    0  501  0.00000000000E+00  0.00000000000E+00  0.65944114751E+03  0.65944114752E+03  0.25500000920E-02 0.  1.
        2   -1    0    0  501    0  0.00000000000E+00  0.00000000000E+00 -0.12231735719E+04  0.12231735719E+04  0.25500000920E-02 0. -1.
    10030    2    1    2    0    0  0.00000000000E+00  0.00000000000E+00 -0.56373242440E+03  0.18826147194E+04  0.17962304795E+04 0.  0.
        4    1    3    3  502    0  0.81442997919E+03 -0.18348939065E+03 -0.62891733583E+03  0.10452287672E+04  0.12699999809E+01 0. -1.
       -4    1    3    3    0  502 -0.81442997919E+03  0.18348939065E+03  0.65184911424E+02  0.83738595227E+03  0.12699999809E+01 0.  1.
</event>
<event>
 5   0  0.2431811E-04  0.1807224E+04  0.7818609E-02  0.8702467E-01
        2   -1    0    0  501    0  0.00000000000E+00  0.00000000000E+00  0.18619870019E+04  0.18619870019E+04  0.25500000920E-02 0. -1.
       -2   -1    0    0    0  501  0.00000000000E+00  0.00000000000E+00 -0.43851784177E+03  0.43851784177E+03  0.25500000920E-02 0.  1.
    10030    2    1    2    0    0  0.00000000000E+00  0.00000000000E+00  0.14234691601E+04  0.23005048437E+04  0.18072238616E+04 0.  0.
        3    1    3    3  502    0  0.60288014068E+03  0.34928380498E+03  0.14441518349E+04  0.16034457187E+04  0.10100000352E+00 0. -1.
       -3    1    3    3    0  502 -0.60288014068E+03 -0.34928380498E+03 -0.20682674757E+02  0.69705912496E+03  0.10100000352E+00 0.  1.
</event>
<event>
 5   0  0.1253925E-04  0.1827389E+04  0.7818609E-02  0.8691868E-01
       -1   -1    0    0    0  501  0.00000000000E+00  0.00000000000E+00  0.10626551771E+04  0.10626551771E+04  0.50400001928E-02 0. -1.
        1   -1    0    0  501    0  0.00000000000E+00  0.00000000000E+00 -0.78561508295E+03  0.78561508297E+03  0.50400001928E-02 0.  1.
    10030    2    1    2    0    0  0.00000000000E+00  0.00000000000E+00  0.27704009419E+03  0.18482702601E+04  0.18273893238E+04 0.  0.
        2    1    3    3  502    0 -0.41796001681E+03 -0.63633510775E+03  0.64949073822E+03  0.10007253190E+04  0.25500000920E-02 0. -1.
       -2    1    3    3    0  502  0.41796001681E+03  0.63633510775E+03 -0.37245064403E+03  0.84754494114E+03  0.25500000920E-02 0.  1.
</event>
<event>
 5   0  0.1214723E-04  0.1789103E+04  0.7818609E-02  0.8712116E-01
       -1   -1    0    0    0  501  0.00000000000E+00  0.00000000000E+00  0.13429375938E+04  0.13429375938E+04  0.50400001928E-02 0. -1.
        1   -1    0    0  501    0  0.00000000000E+00  0.00000000000E+00 -0.59587471146E+03  0.59587471148E+03  0.50400001928E-02 0.  1.
    10030    2    1    2    0    0  0.00000000000E+00  0.00000000000E+00  0.74706288230E+03  0.19388123053E+04  0.17891031845E+04 0.  0.
        1    1    3    3  502    0 -0.11990676241E+03 -0.88120570726E+03  0.26890500294E+03  0.92909150830E+03  0.50400001928E-02 0.  1.
       -1    1    3    3    0  502  0.11990676241E+03  0.88120570726E+03  0.47815787936E+03  0.10097207969E+04  0.50400001928E-02 0. -1.
</event>
<event>
 5   0  0.2550616E-04  0.1827581E+04  0.7818609E-02  0.8691768E-01
        2   -1    0    0  501    0  0.00000000000E+00  0.00000000000E+00  0.31187175850E+04  0.31187175850E+04  0.25500000920E-02 0. -1.
       -2   -1    0    0    0  501  0.00000000000E+00  0.00000000000E+00 -0.26774251698E+03  0.26774251699E+03  0.25500000920E-02 0.  1.
    10030    2    1    2    0    0  0.00000000000E+00  0.00000000000E+00  0.28509750680E+04  0.33864601020E+04  0.18275812387E+04 0.  0.
        1    1    3    3  502    0  0.55614192210E+03 -0.71126040894E+03  0.16864089359E+04  0.19128931769E+04  0.50400001928E-02 0. -1.
       -1    1    3    3    0  502 -0.55614192210E+03  0.71126040894E+03  0.11645661321E+04  0.14735669252E+04  0.50400001928E-02 0.  1.
</event>
<event>
 5   0  0.1239119E-04  0.1753517E+04  0.7818609E-02  0.8731417E-01
       -1   -1    0    0    0  501  0.00000000000E+00  0.00000000000E+00  0.79928453855E+03  0.79928453857E+03  0.50400001928E-02 0. -1.
        1   -1    0    0  501    0  0.00000000000E+00  0.00000000000E+00 -0.96174241586E+03  0.96174241587E+03  0.50400001928E-02 0.  1.
    10030    2    1    2    0    0  0.00000000000E+00  0.00000000000E+00 -0.16245787731E+03  0.17610269544E+04  0.17535174286E+04 0.  0.
        5    1    3    3  502    0  0.24861604447E+03 -0.76397003379E+03 -0.43376444808E+03  0.91303550671E+03  0.46999998093E+01 0.  1.
       -5    1    3    3    0  502 -0.24861604447E+03  0.76397003379E+03  0.27130657077E+03  0.84799144774E+03  0.46999998093E+01 0. -1.
</event>
<event>
 5   0  0.1308893E-04  0.1801333E+04  0.7818609E-02  0.8705591E-01
       -1   -1    0    0    0  501  0.00000000000E+00  0.00000000000E+00  0.13246602292E+04  0.13246602292E+04  0.50400001928E-02 0. -1.
        1   -1    0    0  501    0  0.00000000000E+00  0.00000000000E+00 -0.61238343442E+03  0.61238343444E+03  0.50400001928E-02 0.  1.
    10030    2    1    2    0    0  0.00000000000E+00  0.00000000000E+00  0.71227679476E+03  0.19370436636E+04  0.18013328184E+04 0.  0.
        4    1    3    3  502    0  0.51149001421E+02 -0.68733077666E+03 -0.26733442981E+03  0.73926255630E+03  0.12699999809E+01 0.  1.
       -4    1    3    3    0  502 -0.51149001421E+02  0.68733077666E+03  0.97961122457E+03  0.11977811073E+04  0.12699999809E+01 0. -1.
</event>
<event>
 5   0  0.2431811E-04  0.1793391E+04  0.7818609E-02  0.8709822E-01
        2   -1    0    0  501    0  0.00000000000E+00  0.00000000000E+00  0.41994760187E+03  0.41994760188E+03  0.25500000920E-02 0.  1.
       -2   -1    0    0    0  501  0.00000000000E+00  0.00000000000E+00 -0.19146740438E+04  0.19146740438E+04  0.25500000920E-02 0. -1.
    10030    2    1    2    0    0  0.00000000000E+00  0.00000000000E+00 -0.14947264419E+04  0.23346216457E+04  0.17933909480E+04 0.  0.
        3    1    3    3  502    0 -0.87681708152E+03  0.10454758042E+03 -0.95039421998E+03  0.12973001097E+04  0.10100000352E+00 0. -1.
       -3    1    3    3    0  502  0.87681708152E+03 -0.10454758042E+03 -0.54433222196E+03  0.10373215360E+04  0.10100000352E+00 0.  1.
</event>
<event>
 5   0  0.1308893E-04  0.1814133E+04  0.7818609E-02  0.8698820E-01
        1   -1    0    0  501    0  0.00000000000E+00  0.00000000000E+00  0.84207040078E+03  0.84207040079E+03  0.50400001928E-02 0. -1.
       -1   -1    0    0    0  501  0.00000000000E+00  0.00000000000E+00 -0.97707944224E+03  0.97707944225E+03  0.50400001928E-02 0.  1.
    10030    2    1    2    0    0  0.00000000000E+00  0.00000000000E+00 -0.13500904146E+03  0.18191498430E+04  0.18141330464E+04 0.  0.
        4    1    3    3  502    0 -0.35960239189E+03  0.21276275229E+03 -0.87483105680E+03  0.96949103135E+03  0.12699999809E+01 0.  1.
       -4    1    3    3    0  502  0.35960239189E+03 -0.21276275229E+03  0.73982201534E+03  0.84965881170E+03  0.12699999809E+01 0. -1.
</event>
<event>
 5   0  0.1214723E-04  0.1805063E+04  0.7818609E-02  0.8703612E-01
       -1   -1    0    0    0  501  0.00000000000E+00  0.00000000000E+00  0.74907031789E+03  0.74907031791E+03  0.50400001928E-02 0.  1.
        1   -1    0    0  501    0  0.00000000000E+00  0.00000000000E+00 -0.10874319900E+04  0.10874319900E+04  0.50400001928E-02 0. -1.
    10030    2    1    2    0    0  0.00000000000E+00  0.00000000000E+00 -0.33836167214E+03  0.18365023079E+04  0.18050629091E+04 0.  0.
        1    1    3    3  502    0 -0.87860208467E+02 -0.48847820399E+03 -0.93612232088E+03  0.10595543269E+04  0.50400001928E-02 0. -1.
       -1    1    3    3    0  502  0.87860208467E+02  0.48847820399E+03  0.59776064874E+03  0.77694798103E+03  0.50400001928E-02 0.  1.
</event>
<event>
 5   0  0.1253925E-04  0.1783249E+04  0.7818609E-02  0.8715258E-01
        1   -1    0    0  501    0  0.00000000000E+00  0.00000000000E+00  0.16422479815E+04  0.16422479815E+04  0.50400001928E-02 0.  1.
       -1   -1    0    0    0  501  0.00000000000E+00  0.00000000000E+00 -0.48408922901E+03  0.48408922904E+03  0.50400001928E-02 0. -1.
    10030    2    1    2    0    0  0.00000000000E+00  0.00000000000E+00  0.11581587524E+04  0.21263372105E+04  0.17832493479E+04 0.  0.
        2    1    3    3  502    0 -0.37130826168E+03 -0.73007981188E+03  0.99914806186E+03  0.12919687328E+04  0.25500000920E-02 0.  1.
       -2    1    3    3    0  502  0.37130826168E+03  0.73007981188E+03  0.15901069059E+03  0.83436847774E+03  0.25500000920E-02 0. -1.
</event>
<event>
 5   0  0.2550616E-04  0.1781439E+04  0.7818609E-02  0.8716233E-01
       -2   -1    0    0    0  501  0.00000000000E+00  0.00000000000E+00  0.32780044716E+03  0.32780044717E+03  0.25500000920E-02 0.  1.
        2   -1    0    0  501    0  0.00000000000E+00  0.00000000000E+00 -0.24203180614E+04  0.24203180614E+04  0.25500000920E-02 0. -1.
    10030    2    1    2    0    0  0.00000000000E+00  0.00000000000E+00 -0.20925176142E+04  0.27481185085E+04  0.17814391292E+04 0.  0.
        1    1    3    3  502    0  0.44926262936E+03  0.25368728238E+03 -0.21663332720E+04  0.22269247838E+04  0.50400001928E-02 0. -1.
       -1    1    3    3    0  502 -0.44926262936E+03 -0.25368728238E+03  0.73815657740E+02  0.52119372476E+03  0.50400001928E-02 0.  1.
</event>
<event>
 5   0  0.9144875E-05  0.1812141E+04  0.7818609E-02  0.8699869E-01
       -3   -1    0    0    0  501  0.00000000000E+00  0.00000000000E+00  0.10332769842E+04  0.10332769891E+04  0.10100000352E+00 0.  1.
        3   -1    0    0  501    0  0.00000000000E+00  0.00000000000E+00 -0.79452457707E+03  0.79452458349E+03  0.10100000352E+00 0. -1.
    10030    2    1    2    0    0  0.00000000000E+00  0.00000000000E+00  0.23875240714E+03  0.18278015726E+04  0.18121412409E+04 0.  0.
        2    1    3    3  502    0 -0.84241677359E+02 -0.53794596856E+03 -0.61109326127E+03  0.81848488030E+03  0.25500000920E-02 0. -1.
       -2    1    3    3    0  502  0.84241677359E+02  0.53794596856E+03  0.84984566842E+03  0.10093166923E+04  0.25500000920E-02 0.  1.
</event>
<event>
 5   0  0.2431811E-04  0.1878740E+04  0.7818609E-02  0.8665512E-01
       -2   -1    0    0    0  501  0.00000000000E+00  0.00000000000E+00  0.56876984329E+03  0.56876984330E+03  0.25500000920E-02 0.  1.
        2   -1    0    0  501    0  0.00000000000E+00  0.00000000000E+00 -0.15514462934E+04  0.15514462934E+04  0.25500000920E-02 0. -1.
    10030    2    1    2    0    0  0.00000000000E+00  0.00000000000E+00 -0.98267645007E+03  0.21202161367E+04  0.18787398598E+04 0.  0.
        3    1    3    3  502    0 -0.25588684889E+03 -0.55548241812E+03  0.31331074189E+03  0.68716986798E+03  0.10100000352E+00 0.  1.
       -3    1    3    3    0  502  0.25588684889E+03  0.55548241812E+03 -0.12959871920E+04  0.14330462687E+04  0.10100000352E+00 0. -1.
</event>
<event>
 5   0  0.2569405E-04  0.1803036E+04  0.7818609E-02  0.8704687E-01
       -2   -1    0    0    0  501  0.00000000000E+00  0.00000000000E+00  0.80494208463E+03  0.80494208464E+03  0.25500000920E-02 0.  1.
        2   -1    0    0  501    0  0.00000000000E+00  0.00000000000E+00 -0.10096808425E+04  0.10096808425E+04  0.25500000920E-02 0. -1.
    10030    2    1    2    0    0  0.00000000000E+00  0.00000000000E+00 -0.20473875788E+03  0.18146229272E+04  0.18030358867E+04 0.  0.
        2    1    3    3  502    0  0.23769400850E+03 -0.83607578647E+03  0.13836108489E+03  0.88015052815E+03  0.25500000920E-02 0. -1.
       -2    1    3    3    0  502 -0.23769400850E+03  0.83607578647E+03 -0.34309984277E+03  0.93447239901E+03  0.25500000920E-02 0.  1.
</event>
<event>
 5   0  0.2417106E-04  0.1791350E+04  0.7818609E-02  0.8710913E-01
        2   -1    0    0  501    0  0.00000000000E+00  0.00000000000E+00  0.11866765505E+04  0.11866765505E+04  0.25500000920E-02 0. -1.
       -2   -1    0    0    0  501  0.00000000000E+00  0.00000000000E+00 -0.67603376930E+03  0.67603376930E+03  0.25500000920E-02 0.  1.
    10030    2    1    2    0    0  0.00000000000E+00  0.00000000000E+00  0.51064278123E+03  0.18627103198E+04  0.17913496827E+04 0.  0.
        4    1    3    3  502    0  0.63440584950E+03  0.45971606507E+03  0.70668957703E+03  0.10550930829E+04  0.12699999809E+01 0. -1.
       -4    1    3    3    0  502 -0.63440584950E+03 -0.45971606507E+03 -0.19604679581E+03  0.80761723694E+03  0.12699999809E+01 0.  1.
</event>
<event>
 5   0  0.2431811E-04  0.1755020E+04  0.7818609E-02  0.8730592E-01
       -2   -1    0    0    0  501  0.00000000000E+00  0.00000000000E+00  0.26041513244E+03  0.26041513246E+03  0.25500000920E-02 0.  1.
        2   -1    0    0  501    0  0.00000000000E+00  0.00000000000E+00 -0.29569100715E+04  0.29569100715E+04  0.25500000920E-02 0. -1.
    10030    2    1    2    0    0  0.00000000000E+00  0.00000000000E+00 -0.26964949390E+04  0.32173252039E+04  0.17550203736E+04 0.  0.
        3    1    3    3  502    0 -0.80897216941E+03 -0.57341944825E+02 -0.73391598990E+03  0.10937809470E+04  0.10100000352E+00 0.  1.
       -3    1    3    3    0  502  0.80897216941E+03  0.57341944825E+02 -0.19625789491E+04  0.21235442570E+04  0.10100000352E+00 0. -1.
</event>
<event>
 5   0  0.1214723E-04  0.1573570E+04  0.7818609E-02  0.8836951E-01
        1   -1    0    0  501    0  0.00000000000E+00  0.00000000000E+00  0.14023303582E+04  0.14023303582E+04  0.50400001928E-02 0. -1.
       -1   -1    0    0    0  501  0.00000000000E+00  0.00000000000E+00 -0.44143008308E+03  0.44143008311E+03  0.50400001928E-02 0.  1.
    10030    2    1    2    0    0  0.00000000000E+00  0.00000000000E+00  0.96090027510E+03  0.18437604413E+04  0.15735702165E+04 0.  0.
        1    1    3    3  502    0  0.26491176112E+03 -0.70246909698E+03  0.20468903794E+03  0.77816365610E+03  0.50400001928E-02 0.  1.
       -1    1    3    3    0  502 -0.26491176112E+03  0.70246909698E+03  0.75621123716E+03  0.10655967852E+04  0.50400001928E-02 0. -1.
</event>
<event>
 5   0  0.1239119E-04  0.1810459E+04  0.7818609E-02  0.8700757E-01
       -1   -1    0    0    0  501  0.00000000000E+00  0.00000000000E+00  0.11516838226E+04  0.11516838226E+04  0.50400001928E-02 0. -1.
        1   -1    0    0  501    0  0.00000000000E+00  0.00000000000E+00 -0.71151483514E+03  0.71151483516E+03  0.50400001928E-02 0.  1.
    10030    2    1    2    0    0  0.00000000000E+00  0.00000000000E+00  0.44016898749E+03  0.18631986578E+04  0.18104586438E+04 0.  0.
        5    1    3    3  502    0  0.16263961245E+03 -0.78495133368E+03  0.65283096950E+03  0.10338329674E+04  0.46999998093E+01 0. -1.
       -5    1    3    3    0  502 -0.16263961245E+03  0.78495133368E+03 -0.21266198200E+03  0.82936569038E+03  0.46999998093E+01 0.  1.
</event>
<event>
 5   0  0.9144875E-05  0.1784397E+04  0.7818609E-02  0.8714641E-01
        3   -1    0    0  501    0  0.00000000000E+00  0.00000000000E+00  0.14216762306E+04  0.14216762342E+04  0.10100000352E+00 0. -1.
       -3   -1    0    0    0  501  0.00000000000E+00  0.00000000000E+00 -0.55991539801E+03  0.55991540712E+03  0.10100000352E+00 0.  1.
    10030    2    1    2    0    0  0.00000000000E+00  0.00000000000E+00  0.86176083259E+03  0.19815916413E+04  0.17843972933E+04 0.  0.
        1    1    3    3  502    0  0.12318009499E+03 -0.19550031822E+03 -0.52610937545E+03  0.57461707700E+03  0.50400001928E-02 0.  1.
       -1    1    3    3    0  502 -0.12318009499E+03  0.19550031822E+03  0.13878702080E+04  0.14069745643E+04  0.50400001928E-02 0. -1.
</event>
<event>
 5   0  0.2417106E-04  0.1662782E+04  0.7818609E-02  0.8782880E-01
        2   -1    0    0  501    0  0.00000000000E+00  0.00000000000E+00  0.19562159621E+04  0.19562159621E+04  0.25500000920E-02 0. -1.
       -2   -1    0    0    0  501  0.00000000000E+00  0.00000000000E+00 -0.35334089380E+03  0.35334089381E+03  0.25500000920E-02 0.  1.
    10030    2    1    2    0    0  0.00000000000E+00  0.00000000000E+00  0.16028750683E+04  0.23095568559E+04  0.16627821223E+04 0.  0.
        4    1    3    3  502    0 -0.60009819826E+03  0.55938444021E+03  0.61415450617E+03  0.10248005513E+04  0.12699999809E+01 0. -1.
       -4    1    3    3    0  502  0.60009819826E+03 -0.55938444021E+03  0.98872056215E+03  0.12847563047E+04  0.12699999809E+01 0.  1.
</event>
<event>
 5   0  0.2569405E-04  0.1791619E+04  0.7818609E-02  0.8710769E-01
        2   -1    0    0  501    0  0.00000000000E+00  0.00000000000E+00  0.23081958905E+04  0.23081958905E+04  0.25500000920E-02 0.  1.
       -2   -1    0    0    0  501  0.00000000000E+00  0.00000000000E+00 -0.34766300481E+03  0.34766300482E+03  0.25500000920E-02 0. -1.
    10030    2    1    2    0    0  0.00000000000E+00  0.00000000000E+00  0.19605328857E+04  0.26558588954E+04  0.17916186190E+04 0.  0.
        2    1    3    3  502    0  0.57986936274E+02 -0.28745546607E+03  0.22350297977E+04  0.22541852910E+04  0.25500000920E-02 0.  1.
       -2    1    3    3    0  502 -0.57986936274E+02  0.28745546607E+03 -0.27449691194E+03  0.40167360434E+03  0.25500000920E-02 0. -1.
</event>
<event>
 5   0  0.1253925E-04  0.1762635E+04  0.7818609E-02  0.8726426E-01
        1   -1    0    0  501    0  0.00000000000E+00  0.00000000000E+00  0.62740940621E+03  0.62740940623E+03  0.50400001928E-02 0.  1.
       -1   -1    0    0    0  501  0.00000000000E+00  0.00000000000E+00 -0.12379806996E+04  0.12379806996E+04  0.50400001928E-02 0. -1.
    10030    2    1    2    0    0  0.00000000000E+00  0.00000000000E+00 -0.61057129337E+03  0.18653901058E+04  0.17626352268E+04 0.  0.
        2    1    3    3  502    0  0.58725540260E+02 -0.17333754072E+03  0.60707745396E+03  0.63406437151E+03  0.25500000920E-02 0.  1.
       -2    1    3    3    0  502 -0.58725540260E+02  0.17333754072E+03 -0.12176487473E+04  0.12313257343E+04  0.25500000920E-02 0. -1.
</event>
<event>
 5   0  0.9144875E-05  0.1787726E+04  0.7818609E-02  0.8712854E-01
        4   -1    0    0  501    0  0.00000000000E+00  0.00000000000E+00  0.11530061934E+04  0.11530068928E+04  0.12699999809E+01 0. -1.
       -4   -1    0    0    0  501  0.00000000000E+00  0.00000000000E+00 -0.69296208647E+03  0.69296325024E+03  0.12699999809E+01 0.  1.
    10030    2    1    2    0    0  0.00000000000E+00  0.00000000000E+00  0.46004410695E+03  0.18459701431E+04  0.17877262623E+04 0.  0.
        4    1    3    3  502    0 -0.66028301017E+02  0.36258100907E+03 -0.61085874938E+03  0.71342466264E+03  0.12699999809E+01 0.  1.
       -4    1    3    3    0  502  0.66028301017E+02 -0.36258100907E+03  0.10709028563E+04  0.11325454804E+04  0.12699999809E+01 0. -1.
</event>
<event>
 5   0  0.2550616E-04  0.1798275E+04  0.7818609E-02  0.8707217E-01
       -2   -1    0    0    0  501  0.00000000000E+00  0.00000000000E+00  0.13707154462E+04  0.13707154462E+04  0.25500000920E-02 0. -1.
        2   -1    0    0  501    0  0.00000000000E+00  0.00000000000E+00 -0.58980019433E+03  0.58980019433E+03  0.25500000920E-02 0.  1.
    10030    2    1    2    0    0  0.00000000000E+00  0.00000000000E+00  0.78091525187E+03  0.19605156405E+04  0.17982749918E+04 0.  0.
        1    1    3    3  502    0 -0.49268375212E+03  0.67214945530E+03  0.75843893358E+03  0.11268326344E+04  0.50400001928E-02 0. -1.
       -1    1    3    3    0  502  0.49268375212E+03 -0.67214945530E+03  0.22476318294E+02  0.83368300617E+03  0.50400001928E-02 0.  1.
</event>
<event>
 5   0  0.1308893E-04  0.1783751E+04  0.7818609E-02  0.8714989E-01
       -1   -1    0    0    0  501  0.00000000000E+00  0.00000000000E+00  0.32915088995E+03  0.32915088999E+03  0.50400001928E-02 0.  1.
        1   -1    0    0  501    0  0.00000000000E+00  0.00000000000E+00 -0.24166470245E+04  0.24166470245E+04  0.50400001928E-02 0. -1.
    10030    2    1    2    0    0  0.00000000000E+00  0.00000000000E+00 -0.20874961346E+04  0.27457979145E+04  0.17837505643E+04 0.  0.
        4    1    3    3  502    0 -0.34542139995E+01  0.78339996290E+03 -0.38756228500E+03  0.87403293481E+03  0.12699999809E+01 0.  1.
       -4    1    3    3    0  502  0.34542139995E+01 -0.78339996290E+03 -0.16999338496E+04  0.18717649797E+04  0.12699999809E+01 0. -1.
</event>
<event>
 5   0  0.1239119E-04  0.1812111E+04  0.7818609E-02  0.8699885E-01
        1   -1    0    0  501    0  0.00000000000E+00  0.00000000000E+00  0.13439471019E+04  0.13439471019E+04  0.50400001928E-02 0.  1.
       -1   -1    0    0    0  501  0.00000000000E+00  0.00000000000E+00 -0.61083980898E+03  0.61083980900E+03  0.50400001928E-02 0. -1.
    10030    2    1    2    0    0  0.00000000000E+00  0.00000000000E+00  0.73310729292E+03  0.19547869109E+04  0.18121108035E+04 0.  0.
        5    1    3    3  502    0  0.23156905932E+03 -0.76965901520E+03  0.81771125877E+03  0.11465919159E+04  0.46999998093E+01 0.  1.
       -5    1    3    3    0  502 -0.23156905932E+03  0.76965901520E+03 -0.84603965848E+02  0.80819499500E+03  0.46999998093E+01 0. -1.
</event>
<event>
 5   0  0.1214723E-04  0.1923089E+04  0.7818609E-02  0.8643448E-01
       -1   -1    0    0    0  501  0.00000000000E+00  0.00000000000E+00  0.76535843695E+03  0.76535843697E+03  0.50400001928E-02 0. -1.
        1   -1    0    0  501    0  0.00000000000E+00  0.00000000000E+00 -0.12080189233E+04  0.12080189233E+04  0.50400001928E-02 0.  1.
    10030    2    1    2    0    0  0.00000000000E+00  0.00000000000E+00 -0.44266048637E+03  0.19733773603E+04  0.19230886355E+04 0.  0.
        1    1    3    3  502    0 -0.89453881358E+03  0.59799283273E+02  0.13530940563E+03  0.90668863375E+03  0.50400001928E-02 0. -1.
       -1    1    3    3    0  502  0.89453881358E+03 -0.59799283273E+02 -0.57796989200E+03  0.10666887266E+04  0.50400001928E-02 0.  1.
</event>
<event>
 5   0  0.1330225E-04  0.1798100E+04  0.7818609E-02  0.8707310E-01
       -1   -1    0    0    0  501  0.00000000000E+00  0.00000000000E+00  0.10438939262E+04  0.10438939262E+04  0.50400001928E-02 0.  1.
        1   -1    0    0  501    0  0.00000000000E+00  0.00000000000E+00 -0.77430389721E+03  0.77430389723E+03  0.50400001928E-02 0. -1.
    10030    2    1    2    0    0  0.00000000000E+00  0.00000000000E+00  0.26959002901E+03  0.18181978235E+04  0.17981002590E+04 0.  0.
        3    1    3    3  502    0  0.44494592411E+03 -0.44879818707E+03 -0.51180071358E+03  0.81322608709E+03  0.10100000352E+00 0. -1.
       -3    1    3    3    0  502 -0.44494592411E+03  0.44879818707E+03  0.78139074259E+03  0.10049717364E+04  0.10100000352E+00 0.  1.
</event>
<event>
 5   0  0.2431811E-04  0.1770088E+04  0.7818609E-02  0.8722370E-01
       -2   -1    0    0    0  501  0.00000000000E+00  0.00000000000E+00  0.34481019086E+03  0.34481019087E+03  0.25500000920E-02 0.  1.
        2   -1    0    0  501    0  0.00000000000E+00  0.00000000000E+00 -0.22716917520E+04  0.22716917520E+04  0.25500000920E-02 0. -1.
    10030    2    1    2    0    0  0.00000000000E+00  0.00000000000E+00 -0.19268815611E+04  0.26165019429E+04  0.17700875307E+04 0.  0.
        3    1    3    3  502    0 -0.22843637821E+03  0.15315149445E+03 -0.22069237418E+04  0.22239943731E+04  0.10100000352E+00 0. -1.
       -3    1    3    3    0  502  0.22843637821E+03 -0.15315149445E+03  0.28004218071E+03  0.39250756976E+03  0.10100000352E+00 0.  1.
</event>
<event>
 5   0  0.2550616E-04  0.1765444E+04  0.7818609E-02  0.8724895E-01
       -2   -1    0    0    0  501  0.00000000000E+00  0.00000000000E+00  0.82399880301E+03  0.82399880302E+03  0.25500000920E-02 0.  1.
        2   -1    0    0  501    0  0.00000000000E+00  0.00000000000E+00 -0.94563069810E+03  0.94563069810E+03  0.25500000920E-02 0. -1.
    10030    2    1    2    0    0  0.00000000000E+00  0.00000000000E+00 -0.12163189509E+03  0.17696295011E+04  0.17654444917E+04 0.  0.
        1    1    3    3  502    0 -0.19447137658E+03 -0.73658670330E+03 -0.50776471543E+03  0.91553486774E+03  0.50400001928E-02 0. -1.
       -1    1    3    3    0  502  0.19447137658E+03  0.73658670330E+03  0.38613282034E+03  0.85409463338E+03  0.50400001928E-02 0.  1.
</event>
<event>
 5   0  0.9144875E-05  0.1797034E+04  0.7818609E-02  0.8707878E-01
       -3   -1    0    0    0  501  0.00000000000E+00  0.00000000000E+00  0.32907449972E+03  0.32907451522E+03  0.10100000352E+00 0.  1.
        3   -1    0    0  501    0  0.00000000000E+00  0.00000000000E+00 -0.24533446150E+04  0.24533446171E+04  0.10100000352E+00 0. -1.
    10030    2    1    2    0    0  0.00000000000E+00  0.00000000000E+00 -0.21242701153E+04  0.27824191323E+04  0.17970344196E+04 0.  0.
        4    1    3    3  502    0 -0.33543056588E+03  0.18814440546E+03 -0.23194586804E+04  0.23511278495E+04  0.12699999809E+01 0. -1.
       -4    1    3    3    0  502  0.33543056588E+03 -0.18814440546E+03  0.19518856505E+03  0.43129128284E+03  0.12699999809E+01 0.  1.
</event>
<event>
 5   0  0.2417106E-04  0.1734534E+04  0.7818609E-02  0.8741910E-01
       -2   -1    0    0    0  501  0.00000000000E+00  0.00000000000E+00  0.29248788045E+03  0.29248788046E+03  0.25500000920E-02 0.  1.
        2   -1    0    0  501    0  0.00000000000E+00  0.00000000000E+00 -0.25715676497E+04  0.25715676497E+04  0.25500000920E-02 0. -1.
    10030    2    1    2    0    0  0.00000000000E+00  0.00000000000E+00 -0.22790797692E+04  0.28640555301E+04  0.17345343713E+04 0.  0.
        4    1    3    3  502    0 -0.60147382837E+03 -0.49193998964E+03 -0.17755718557E+04  0.19381518896E+04  0.12699999809E+01 0. -1.
       -4    1    3    3    0  502  0.60147382837E+03  0.49193998964E+03 -0.50350791353E+03  0.92590364051E+03  0.12699999809E+01 0.  1.
</event>
<event>
 5   0  0.1253925E-04  0.1796254E+04  0.7818609E-02  0.8708294E-01
       -1   -1    0    0    0  501  0.00000000000E+00  0.00000000000E+00  0.51008782713E+03  0.51008782715E+03  0.50400001928E-02 0.  1.
        1   -1    0    0  501    0  0.00000000000E+00  0.00000000000E+00 -0.15813598564E+04  0.15813598564E+04  0.50400001928E-02 0. -1.
    10030    2    1    2    0    0  0.00000000000E+00  0.00000000000E+00 -0.10712720292E+04  0.20914476835E+04  0.17962543395E+04 0.  0.
        2    1    3    3  502    0 -0.59644517775E+03 -0.32843234616E+03  0.14629034212E+03  0.69643055667E+03  0.25500000920E-02 0.  1.
       -2    1    3    3    0  502  0.59644517775E+03  0.32843234616E+03 -0.12175623714E+04  0.13950171269E+04  0.25500000920E-02 0. -1.
</event>
<event>
 5   0  0.2393421E-04  0.1747381E+04  0.7818609E-02  0.8734793E-01
       -2   -1    0    0    0  501  0.00000000000E+00  0.00000000000E+00  0.10421921948E+04  0.10421921948E+04  0.25500000920E-02 0.  1.
        2   -1    0    0  501    0  0.00000000000E+00  0.00000000000E+00 -0.73243254143E+03  0.73243254143E+03  0.25500000920E-02 0. -1.
    10030    2    1    2    0    0  0.00000000000E+00  0.00000000000E+00  0.30975965336E+03  0.17746247362E+04  0.17473814442E+04 0.  0.
        5    1    3    3  502    0  0.22875032707E+03  0.56163183011E+03 -0.48385853329E+03  0.77582098126E+03  0.46999998093E+01 0. -1.
       -5    1    3    3    0  502 -0.22875032707E+03 -0.56163183011E+03  0.79361818664E+03  0.99880375495E+03  0.46999998093E+01 0.  1.
</event>
<event>
 5   0  0.2393421E-04  0.1814162E+04  0.7818609E-02  0.8698804E-01
        2   -1    0    0  501    0  0.00000000000E+00  0.00000000000E+00  0.10076784629E+04  0.10076784629E+04  0.25500000920E-02 0. -1.
       -2   -1    0    0    0  501  0.00000000000E+00  0.00000000000E+00 -0.81652661463E+03  0.81652661463E+03  0.25500000920E-02 0.  1.
    10030    2    1    2    0    0  0.00000000000E+00  0.00000000000E+00  0.19115184827E+03  0.18242050775E+04  0.18141623786E+04 0.  0.
        5    1    3    3  502    0 -0.44754178003E+03  0.14922812525E+03 -0.68344597360E+03  0.83047165339E+03  0.46999998093E+01 0.  1.
       -5    1    3    3    0  502  0.44754178003E+03 -0.14922812525E+03  0.87459782188E+03  0.99373342415E+03  0.46999998093E+01 0. -1.
</event>
<event>
 5   0  0.2431811E-04  0.1783252E+04  0.7818609E-02  0.8715257E-01
       -2   -1    0    0    0  501  0.00000000000E+00  0.00000000000E+00  0.98149843153E+03  0.98149843154E+03  0.25500000920E-02 0.  1.
        2   -1    0    0  501    0  0.00000000000E+00  0.00000000000E+00 -0.80998284647E+03  0.80998284648E+03  0.25500000920E-02 0. -1.
    10030    2    1    2    0    0  0.00000000000E+00  0.00000000000E+00  0.17151558506E+03  0.17914812780E+04  0.17832519658E+04 0.  0.
        3    1    3    3  502    0  0.47745845670E+03  0.67318530389E+03 -0.25321872381E+03  0.86328718485E+03  0.10100000352E+00 0. -1.
       -3    1    3    3    0  502 -0.47745845670E+03 -0.67318530389E+03  0.42473430887E+03  0.92819409316E+03  0.10100000352E+00 0.  1.
</event>
<event>
 5   0  0.2393421E-04  0.1813362E+04  0.7818609E-02  0.8699226E-01
       -2   -1    0    0    0  501  0.00000000000E+00  0.00000000000E+00  0.91363430590E+03  0.91363430591E+03  0.25500000920E-02 0.  1.
        2   -1    0    0  501    0  0.00000000000E+00  0.00000000000E+00 -0.89978102432E+03  0.89978102433E+03  0.25500000920E-02 0. -1.
    10030    2    1    2    0    0  0.00000000000E+00  0.00000000000E+00  0.13853281579E+02  0.18134153302E+04  0.18133624146E+04 0.  0.
        5    1    3    3  502    0  0.35668503275E+03  0.65662440249E+03  0.52042862866E+03  0.91063047723E+03  0.46999998093E+01 0.  1.
       -5    1    3    3    0  502 -0.35668503275E+03 -0.65662440249E+03 -0.50657534708E+03  0.90278485300E+03  0.46999998093E+01 0. -1.
</event>
<event>
 5   0  0.2569405E-04  0.1774777E+04  0.7818609E-02  0.8719829E-01
        2   -1    0    0  501    0  0.00000000000E+00  0.00000000000E+00  0.99328820320E+03  0.99328820320E+03  0.25500000920E-02 0.  1.
       -2   -1    0    0    0  501  0.00000000000E+00  0.00000000000E+00 -0.79277955669E+03  0.79277955670E+03  0.25500000920E-02 0. -1.
    10030    2    1    2    0    0  0.00000000000E+00  0.00000000000E+00  0.20050864650E+03  0.17860677599E+04  0.17747772608E+04 0.  0.
        2    1    3    3  502    0 -0.32237715691E+03 -0.73451510334E+03  0.48216705924E+03  0.93590840436E+03  0.25500000920E-02 0.  1.
       -2    1    3    3    0  502  0.32237715691E+03  0.73451510334E+03 -0.28165841273E+03  0.85015935554E+03  0.25500000920E-02 0. -1.
</event>
<event>
 5   0  0.2393421E-04  0.1812270E+04  0.7818609E-02  0.8699801E-01
        2   -1    0    0  501    0  0.00000000000E+00  0.00000000000E+00  0.16123099071E+04  0.16123099071E+04  0.25500000920E-02 0.  1.
       -2   -1    0    0    0  501  0.00000000000E+00  0.00000000000E+00 -0.50925760352E+03  0.50925760353E+03  0.25500000920E-02 0. -1.
    10030    2    1    2    0    0  0.00000000000E+00  0.00000000000E+00  0.11030523036E+04  0.21215675106E+04  0.18122704869E+04 0.  0.
        5    1    3    3  502    0  0.38431719273E+03 -0.71678161950E+03  0.10191834193E+04  0.13039296480E+04  0.46999998093E+01 0.  1.
       -5    1    3    3    0  502 -0.38431719273E+03  0.71678161950E+03  0.83868884253E+02  0.81763786264E+03  0.46999998093E+01 0. -1.
</event>
<event>
 5   0  0.2569405E-04  0.1824099E+04  0.7818609E-02  0.8693588E-01
        2   -1    0    0  501    0  0.00000000000E+00  0.00000000000E+00  0.71889365421E+03  0.71889365421E+03  0.25500000920E-02 0. -1.
       -2   -1    0    0    0  501  0.00000000000E+00  0.00000000000E+00 -0.11571034384E+04  0.11571034384E+04  0.25500000920E-02 0.  1.
    10030    2    1    2    0    0  0.00000000000E+00  0.00000000000E+00 -0.43820978423E+03  0.18759970926E+04  0.18240990315E+04 0.  0.
        2    1    3    3  502    0 -0.10283788535E+03 -0.36079767037E+03  0.63586157683E+03  0.73828892345E+03  0.25500000920E-02 0. -1.
       -2    1    3    3    0  502  0.10283788535E+03  0.36079767037E+03 -0.10740713611E+04  0.11377081692E+04  0.25500000920E-02 0.  1.
</event>
<event>
 5   0  0.2417106E-04  0.1819798E+04  0.7818609E-02  0.8695841E-01
        2   -1    0    0  501    0  0.00000000000E+00  0.00000000000E+00  0.12852576451E+04  0.12852576451E+04  0.25500000920E-02 0. -1.
       -2   -1    0    0    0  501  0.00000000000E+00  0.00000000000E+00 -0.64416369012E+03  0.64416369012E+03  0.25500000920E-02 0.  1.
    10030    2    1    2    0    0  0.00000000000E+00  0.00000000000E+00  0.64109395493E+03  0.19294213352E+04  0.18197981288E+04 0.  0.
        4    1    3    3  502    0 -0.33968596083E+03 -0.26257066420E+03  0.11711104890E+04  0.12473296661E+04  0.12699999809E+01 0. -1.
       -4    1    3    3    0  502  0.33968596083E+03  0.26257066420E+03 -0.53001653407E+03  0.68209166904E+03  0.12699999809E+01 0.  1.
</event>
<event>
 5   0  0.2550616E-04  0.1787808E+04  0.7818609E-02  0.8712810E-01
       -2   -1    0    0    0  501  0.00000000000E+00  0.00000000000E+00  0.82413984418E+03  0.82413984418E+03  0.25500000920E-02 0.  1.
        2   -1    0    0  501    0  0.00000000000E+00  0.00000000000E+00 -0.96957359246E+03  0.96957359247E+03  0.25500000920E-02 0. -1.
    10030    2    1    2    0    0  0.00000000000E+00  0.00000000000E+00 -0.14543374828E+03  0.17937134367E+04  0.17878078526E+04 0.  0.
        1    1    3    3  502    0  0.42165065125E+03  0.76435185940E+03 -0.26581350763E+03  0.91251293554E+03  0.50400001928E-02 0.  1.
       -1    1    3    3    0  502 -0.42165065125E+03 -0.76435185940E+03  0.12037975934E+03  0.88120050111E+03  0.50400001928E-02 0. -1.
</event>
<event>
 5   0  0.1214723E-04  0.1768314E+04  0.7818609E-02  0.8723334E-01
        1   -1    0    0  501    0  0.00000000000E+00  0.00000000000E+00  0.15563262053E+04  0.15563262053E+04  0.50400001928E-02 0. -1.
       -1   -1    0    0    0  501  0.00000000000E+00  0.00000000000E+00 -0.50229418847E+03  0.50229418850E+03  0.50400001928E-02 0.  1.
    10030    2    1    2    0    0  0.00000000000E+00  0.00000000000E+00  0.10540320168E+04  0.20586203938E+04  0.17683140087E+04 0.  0.
        1    1    3    3  502    0  0.38492348383E+03  0.24234354460E+03  0.14096675584E+04  0.14812356690E+04  0.50400001928E-02 0. -1.
       -1    1    3    3    0  502 -0.38492348383E+03 -0.24234354460E+03 -0.35563554153E+03  0.57738472480E+03  0.50400001928E-02 0.  1.
</event>
<event>
 5   0  0.1239119E-04  0.1787811E+04  0.7818609E-02  0.8712808E-01
        1   -1    0    0  501    0  0.00000000000E+00  0.00000000000E+00  0.13609079553E+04  0.13609079553E+04  0.50400001928E-02 0. -1.
       -1   -1    0    0    0  501  0.00000000000E+00  0.00000000000E+00 -0.58715753765E+03  0.58715753767E+03  0.50400001928E-02 0.  1.
    10030    2    1    2    0    0  0.00000000000E+00  0.00000000000E+00  0.77375041765E+03  0.19480654930E+04  0.17878113592E+04 0.  0.
        5    1    3    3  502    0  0.83069375016E+03  0.16153751390E+03  0.73145258427E+02  0.84942262377E+03  0.46999998093E+01 0.  1.
       -5    1    3    3    0  502 -0.83069375016E+03 -0.16153751390E+03  0.70060515923E+03  0.10986428692E+04  0.46999998093E+01 0. -1.
</event>
<event>
 5   0  0.1253925E-04  0.1886346E+04  0.7818609E-02  0.8661683E-01
        1   -1    0    0  501    0  0.00000000000E+00  0.00000000000E+00  0.12293060562E+04  0.12293060562E+04  0.50400001928E-02 0. -1.
       -1   -1    0    0    0  501  0.00000000000E+00  0.00000000000E+00 -0.72364017502E+03  0.72364017504E+03  0.50400001928E-02 0.  1.
    10030    2    1    2    0    0  0.00000000000E+00  0.00000000000E+00  0.50566588114E+03  0.19529462312E+04  0.18863459382E+04 0.  0.
        2    1    3    3  502    0 -0.70416017010E+03 -0.62732513655E+03  0.23830623786E+03  0.97271179448E+03  0.25500000920E-02 0. -1.
       -2    1    3    3    0  502  0.70416017010E+03  0.62732513655E+03  0.26735964328E+03  0.98023443674E+03  0.25500000920E-02 0.  1.
</event>
<event>
 5   0  0.1239119E-04  0.1788800E+04  0.7818609E-02  0.8712278E-01
       -1   -1    0    0    0  501  0.00000000000E+00  0.00000000000E+00  0.80601571436E+03  0.80601571437E+03  0.50400001928E-02 0. -1.
        1   -1    0    0  501    0  0.00000000000E+00  0.00000000000E+00 -0.99247589874E+03  0.99247589876E+03  0.50400001928E-02 0.  1.
    10030    2    1    2    0    0  0.00000000000E+00  0.00000000000E+00 -0.18646018439E+03  0.17984916131E+04  0.17887997882E+04 0.  0.
        5    1    3    3  502    0 -0.86251790127E+02 -0.33725085904E+03 -0.92155763975E+03  0.98512338649E+03  0.46999998093E+01 0.  1.
       -5    1    3    3    0  502  0.86251790127E+02  0.33725085904E+03  0.73509745537E+03  0.81336822664E+03  0.46999998093E+01 0. -1.
</event>
<event>
 5   0  0.2550616E-04  0.1804544E+04  0.7818609E-02  0.8703887E-01
       -2   -1    0    0    0  501  0.00000000000E+00  0.00000000000E+00  0.86596693223E+03  0.86596693223E+03  0.25500000920E-02 0. -1.
        2   -1    0    0  501    0  0.00000000000E+00  0.00000000000E+00 -0.94009899100E+03  0.94009899100E+03  0.25500000920E-02 0.  1.
    10030    2    1    2    0    0  0.00000000000E+00  0.00000000000E+00 -0.74132058768E+02  0.18060659232E+04  0.18045438640E+04 0.  0.
        1    1    3    3  502    0 -0.32683838487E+03  0.78644031061E+02  0.80094924509E+03  0.86863565819E+03  0.50400001928E-02 0. -1.
       -1    1    3    3    0  502  0.32683838487E+03 -0.78644031061E+02 -0.87508130386E+03  0.93743026505E+03  0.50400001928E-02 0.  1.
</event>
<event>
 5   0  0.2417106E-04  0.1784467E+04  0.7818609E-02  0.8714603E-01
       -2   -1    0    0    0  501  0.00000000000E+00  0.00000000000E+00  0.52318405278E+03  0.52318405279E+03  0.25500000920E-02 0.  1.
        2   -1    0    0  501    0  0.00000000000E+00  0.00000000000E+00 -0.15216076944E+04  0.15216076944E+04  0.25500000920E-02 0. -1.
    10030    2    1    2    0    0  0.00000000000E+00  0.00000000000E+00 -0.99842364161E+03  0.20447917472E+04  0.17844672934E+04 0.  0.
        4    1    3    3  502    0  0.28976103860E+03  0.20129788953E+03 -0.14382750917E+04  0.14809183475E+04  0.12699999809E+01 0. -1.
       -4    1    3    3    0  502 -0.28976103860E+03 -0.20129788953E+03  0.43985145006E+03  0.56387339965E+03  0.12699999809E+01 0.  1.
</event>
<event>
 5   0  0.1308893E-04  0.1795441E+04  0.7818609E-02  0.8708728E-01
       -1   -1    0    0    0  501  0.00000000000E+00  0.00000000000E+00  0.10661921463E+04  0.10661921463E+04  0.50400001928E-02 0. -1.
        1   -1    0    0  501    0  0.00000000000E+00  0.00000000000E+00 -0.75586920341E+03  0.75586920343E+03  0.50400001928E-02 0.  1.
    10030    2    1    2    0    0  0.00000000000E+00  0.00000000000E+00  0.31032294290E+03  0.18220613498E+04  0.17954406794E+04 0.  0.
        4    1    3    3  502    0 -0.16686536052E+03  0.45791721069E+03  0.92024126978E+03  0.10413346378E+04  0.12699999809E+01 0. -1.
       -4    1    3    3    0  502  0.16686536052E+03 -0.45791721069E+03 -0.60991832688E+03  0.78072671195E+03  0.12699999809E+01 0.  1.
</event>
<event>
 5   0  0.1253925E-04  0.1805112E+04  0.7818609E-02  0.8703586E-01
        1   -1    0    0  501    0  0.00000000000E+00  0.00000000000E+00  0.11842079328E+04  0.11842079328E+04  0.50400001928E-02 0. -1.
       -1   -1    0    0    0  501  0.00000000000E+00  0.00000000000E+00 -0.68789226244E+03  0.68789226245E+03  0.50400001928E-02 0.  1.
    10030    2    1    2    0    0  0.00000000000E+00  0.00000000000E+00  0.49631567039E+03  0.18721001953E+04  0.18051121562E+04 0.  0.
        2    1    3    3  502    0 -0.85560386333E+03 -0.19735377480E+02 -0.49114955874E+02  0.85723960184E+03  0.25500000920E-02 0.  1.
       -2    1    3    3    0  502  0.85560386333E+03  0.19735377480E+02  0.54543062626E+03  0.10148605934E+04  0.25500000920E-02 0. -1.
</event>
<event>
 5   0  0.1253925E-04  0.1776604E+04  0.7818609E-02  0.8718841E-01
       -1   -1    0    0    0  501  0.00000000000E+00  0.00000000000E+00  0.74339109253E+03  0.74339109254E+03  0.50400001928E-02 0.  1.
        1   -1    0    0  501    0  0.00000000000E+00  0.00000000000E+00 -0.10614610949E+04  0.10614610950E+04  0.50400001928E-02 0. -1.
    10030    2    1    2    0    0  0.00000000000E+00  0.00000000000E+00 -0.31807000242E+03  0.18048521875E+04  0.17766043151E+04 0.  0.
        2    1    3    3  502    0  0.60795302046E+03  0.35970169287E+03 -0.70619736086E+03  0.99885278967E+03  0.25500000920E-02 0. -1.
       -2    1    3    3    0  502 -0.60795302046E+03 -0.35970169287E+03  0.38812735844E+03  0.80599939784E+03  0.25500000920E-02 0.  1.
</event>
<event>
 5   0  0.2569405E-04  0.1797654E+04  0.7818609E-02  0.8707548E-01
       -2   -1    0    0    0  501  0.00000000000E+00  0.00000000000E+00  0.11378926954E+04  0.11378926954E+04  0.25500000920E-02 0. -1.
        2   -1    0    0  501    0  0.00000000000E+00  0.00000000000E+00 -0.70998746290E+03  0.70998746291E+03  0.25500000920E-02 0.  1.
    10030    2    1    2    0    0  0.00000000000E+00  0.00000000000E+00  0.42790523252E+03  0.18478801583E+04  0.17976535238E+04 0.  0.
        2    1    3    3  502    0  0.69986946388E+03  0.74370108904E+01 -0.36573358296E+03  0.78970477351E+03  0.25500000920E-02 0.  1.
       -2    1    3    3    0  502 -0.69986946388E+03 -0.74370108904E+01  0.79363881548E+03  0.10581753848E+04  0.25500000920E-02 0. -1.
</event>
<event>
 5   0  0.1214723E-04  0.1794602E+04  0.7818609E-02  0.8709175E-01
       -1   -1    0    0    0  501  0.00000000000E+00  0.00000000000E+00  0.10868462534E+04  0.10868462534E+04  0.50400001928E-02 0. -1.
        1   -1    0    0  501    0  0.00000000000E+00  0.00000000000E+00 -0.74081221926E+03  0.74081221927E+03  0.50400001928E-02 0.  1.
    10030    2    1    2    0    0  0.00000000000E+00  0.00000000000E+00  0.34603403411E+03  0.18276584727E+04  0.17946018890E+04 0.  0.
        1    1    3    3  502    0  0.52349881610E+03 -0.43081481953E+03 -0.42559963124E+03  0.80049201452E+03  0.50400001928E-02 0. -1.
       -1    1    3    3    0  502 -0.52349881610E+03  0.43081481953E+03  0.77163366535E+03  0.10271664581E+04  0.50400001928E-02 0.  1.
</event>
<event>
 5   0  0.1253925E-04  0.1807523E+04  0.7818609E-02  0.8702309E-01
        1   -1    0    0  501    0  0.00000000000E+00  0.00000000000E+00  0.15210801256E+04  0.15210801256E+04  0.50400001928E-02 0. -1.
       -1   -1    0    0    0  501  0.00000000000E+00  0.00000000000E+00 -0.53697706272E+03  0.53697706274E+03  0.50400001928E-02 0.  1.
    10030    2    1    2    0    0  0.00000000000E+00  0.00000000000E+00  0.98410306291E+03  0.20580571884E+04  0.18075233200E+04 0.  0.
        2    1    3    3  502    0  0.40688667620E+03 -0.52323681068E+03 -0.20747496784E+03  0.69453537678E+03  0.25500000920E-02 0.  1.
       -2    1    3    3    0  502 -0.40688667620E+03  0.52323681068E+03  0.11915780308E+04  0.13635218116E+04  0.25500000920E-02 0. -1.
</event>
<event>
 5   0  0.1330225E-04  0.1785987E+04  0.7818609E-02  0.8713787E-01
       -1   -1    0    0    0  501  0.00000000000E+00  0.00000000000E+00  0.98199914667E+03  0.98199914668E+03  0.50400001928E-02 0.  1.
        1   -1    0    0  501    0  0.00000000000E+00  0.00000000000E+00 -0.81205464308E+03  0.81205464310E+03  0.50400001928E-02 0. -1.
    10030    2    1    2    0    0  0.00000000000E+00  0.00000000000E+00  0.16994450358E+03  0.17940537898E+04  0.17859865247E+04 0.  0.
        3    1    3    3  502    0  0.42003261116E+03 -0.12553685514E+03 -0.69652004730E+03  0.82299883532E+03  0.10100000352E+00 0. -1.
       -3    1    3    3    0  502 -0.42003261116E+03  0.12553685514E+03  0.86646455089E+03  0.97105495446E+03  0.10100000352E+00 0.  1.
</event>
<event>
 5   0  0.1308893E-04  0.1795543E+04  0.7818609E-02  0.8708673E-01
       -1   -1    0    0    0  501  0.00000000000E+00  0.00000000000E+00  0.47095076013E+03  0.47095076016E+03  0.50400001928E-02 0.  1.
        1   -1    0    0  501    0  0.00000000000E+00  0.00000000000E+00 -0.17114172143E+04  0.17114172143E+04  0.50400001928E-02 0. -1.
    10030    2    1    2    0    0  0.00000000000E+00  0.00000000000E+00 -0.12404664542E+04  0.21823679745E+04  0.17955425230E+04 0.  0.
        4    1    3    3  502    0  0.27462809381E+03  0.80282931478E+03 -0.97674404281E+03  0.12938261230E+04  0.12699999809E+01 0. -1.
       -4    1    3    3    0  502 -0.27462809381E+03 -0.80282931478E+03 -0.26372241135E+03  0.88854185142E+03  0.12699999809E+01 0.  1.
</event>
<event>
 5   0  0.2417106E-04  0.1775161E+04  0.7818609E-02  0.8719621E-01
        2   -1    0    0  501    0  0.00000000000E+00  0.00000000000E+00  0.83442490080E+03  0.83442490080E+03  0.25500000920E-02 0.  1.
       -2   -1    0    0    0  501  0.00000000000E+00  0.00000000000E+00 -0.94412261089E+03  0.94412261090E+03  0.25500000920E-02 0. -1.
    10030    2    1    2    0    0  0.00000000000E+00  0.00000000000E+00 -0.10969771010E+03  0.17785475117E+04  0.17751613064E+04 0.  0.
        4    1    3    3  502    0 -0.16340319312E+03  0.45250613198E+03  0.69245288943E+03  0.84318148697E+03  0.12699999809E+01 0.  1.
       -4    1    3    3    0  502  0.16340319312E+03 -0.45250613198E+03 -0.80215059952E+03  0.93536602473E+03  0.12699999809E+01 0. -1.
</event>
<event>
 5   0  0.2569405E-04  0.1812497E+04  0.7818609E-02  0.8699682E-01
        2   -1    0    0  501    0  0.00000000000E+00  0.00000000000E+00  0.10283656779E+04  0.10283656779E+04  0.25500000920E-02 0. -1.
       -2   -1    0    0    0  501  0.00000000000E+00  0.00000000000E+00 -0.79863286113E+03  0.79863286114E+03  0.25500000920E-02 0.  1.
    10030    2    1    2    0    0  0.00000000000E+00  0.00000000000E+00  0.22973281673E+03  0.18269985390E+04  0.18124973088E+04 0.  0.
        2    1    3    3  502    0  0.21222497018E+02  0.27288737879E+03  0.98570474800E+03  0.10230013520E+04  0.25500000920E-02 0. -1.
       -2    1    3    3    0  502 -0.21222497018E+02 -0.27288737879E+03 -0.75597193127E+03  0.80399718704E+03  0.25500000920E-02 0.  1.
</event>
<event>
 5   0  0.2393421E-04  0.1799421E+04  0.7818609E-02  0.8706608E-01
        2   -1    0    0  501    0  0.00000000000E+00  0.00000000000E+00  0.12332602671E+04  0.12332602671E+04  0.25500000920E-02 0.  1.
       -2   -1    0    0    0  501  0.00000000000E+00  0.00000000000E+00 -0.65637294160E+03  0.65637294161E+03  0.25500000920E-02 0. -1.
    10030    2    1    2    0    0  0.00000000000E+00  0.00000000000E+00  0.57688732551E+03  0.18896332087E+04  0.17994206504E+04 0.  0.
        5    1    3    3  502    0 -0.17943316083E+03  0.86355384687E+02 -0.63292753331E+03  0.66353060524E+03  0.46999998093E+01 0. -1.
       -5    1    3    3    0  502  0.17943316083E+03 -0.86355384687E+02  0.12098148588E+04  0.12261026035E+04  0.46999998093E+01 0.  1.
</event>
<event>
 5   0  0.2431811E-04  0.1791964E+04  0.7818609E-02  0.8710585E-01
        2   -1    0    0  501    0  0.00000000000E+00  0.00000000000E+00  0.15422642415E+04  0.15422642415E+04  0.25500000920E-02 0.  1.
       -2   -1    0    0    0  501  0.00000000000E+00  0.00000000000E+00 -0.52052285824E+03  0.52052285825E+03  0.25500000920E-02 0. -1.
    10030    2    1    2    0    0  0.00000000000E+00  0.00000000000E+00  0.10217413832E+04  0.20627870997E+04  0.17919640522E+04 0.  0.
        3    1    3    3  502    0 -0.25958697718E+03  0.55594371535E+02  0.14959515915E+04  0.15193246220E+04  0.10100000352E+00 0.  1.
       -3    1    3    3    0  502  0.25958697718E+03 -0.55594371535E+02 -0.47421020824E+03  0.54346247770E+03  0.10100000352E+00 0. -1.
</event>
<event>
 5   0  0.2550616E-04  0.1752297E+04  0.7818609E-02  0.8732087E-01
        2   -1    0    0  501    0  0.00000000000E+00  0.00000000000E+00  0.10484856981E+04  0.10484856981E+04  0.25500000920E-02 0. -1.
       -2   -1    0    0    0  501  0.00000000000E+00  0.00000000000E+00 -0.73213786213E+03  0.73213786213E+03  0.25500000920E-02 0.  1.
    10030    2    1    2    0    0  0.00000000000E+00  0.00000000000E+00  0.31634783592E+03  0.17806235602E+04  0.17522968669E+04 0.  0.
        1    1    3    3  502    0  0.47958175262E+03 -0.30161141857E+03 -0.52096221507E+03  0.76965559493E+03  0.50400001928E-02 0.  1.
       -1    1    3    3    0  502 -0.47958175262E+03  0.30161141857E+03  0.83731005099E+03  0.10109679653E+04  0.50400001928E-02 0. -1.
</event>
<event>
 5   0  0.1330225E-04  0.1808610E+04  0.7818609E-02  0.8701734E-01
       -1   -1    0    0    0  501  0.00000000000E+00  0.00000000000E+00  0.10335803462E+04  0.10335803462E+04  0.50400001928E-02 0. -1.
        1   -1    0    0  501    0  0.00000000000E+00  0.00000000000E+00 -0.79119873208E+03  0.79119873209E+03  0.50400001928E-02 0.  1.
    10030    2    1    2    0    0  0.00000000000E+00  0.00000000000E+00  0.24238161414E+03  0.18247790783E+04  0.18086099186E+04 0.  0.
        3    1    3    3  502    0 -0.50844339617E+03 -0.67511864841E+03  0.44573027155E+03  0.95549744203E+03  0.10100000352E+00 0. -1.
       -3    1    3    3    0  502  0.50844339617E+03  0.67511864841E+03 -0.20334865741E+03  0.86928163630E+03  0.10100000352E+00 0.  1.
</event>
<event>
 5   0  0.1330225E-04  0.1786257E+04  0.7818609E-02  0.8713642E-01
        1   -1    0    0  501    0  0.00000000000E+00  0.00000000000E+00  0.13393548750E+04  0.13393548750E+04  0.50400001928E-02 0. -1.
       -1   -1    0    0    0  501  0.00000000000E+00  0.00000000000E+00 -0.59556928154E+03  0.59556928157E+03  0.50400001928E-02 0.  1.
    10030    2    1    2    0    0  0.00000000000E+00  0.00000000000E+00  0.74378559344E+03  0.19349241566E+04  0.17862571155E+04 0.  0.
        3    1    3    3  502    0 -0.11539414231E+03  0.85165223885E+03  0.10866328214E+03  0.86627655116E+03  0.10100000352E+00 0.  1.
       -3    1    3    3    0  502  0.11539414231E+03 -0.85165223885E+03  0.63512231130E+03  0.10686476054E+04  0.10100000352E+00 0. -1.
</event>
<event>
 5   0  0.2393421E-04  0.1793935E+04  0.7818609E-02  0.8709531E-01
       -2   -1    0    0    0  501  0.00000000000E+00  0.00000000000E+00  0.88713120224E+03  0.88713120225E+03  0.25500000920E-02 0. -1.
        2   -1    0    0  501    0  0.00000000000E+00  0.00000000000E+00 -0.90691278548E+03  0.90691278548E+03  0.25500000920E-02 0.  1.
    10030    2    1    2    0    0  0.00000000000E+00  0.00000000000E+00 -0.19781583233E+02  0.17940439877E+04  0.17939349260E+04 0.  0.
        5    1    3    3  502    0 -0.82627665392E+03 -0.26740423459E+03  0.21437806756E+03  0.89454914864E+03  0.46999998093E+01 0.  1.
       -5    1    3    3    0  502  0.82627665392E+03  0.26740423459E+03 -0.23415965079E+03  0.89949483909E+03  0.46999998093E+01 0. -1.
</event>
<event>
 5   0  0.1308893E-04  0.1676914E+04  0.7818609E-02  0.8774642E-01
       -1   -1    0    0    0  501  0.00000000000E+00  0.00000000000E+00  0.11089688037E+04  0.11089688037E+04  0.50400001928E-02 0.  1.
        1   -1    0    0  501    0  0.00000000000E+00  0.00000000000E+00 -0.63393137287E+03  0.63393137289E+03  0.50400001928E-02 0. -1.
    10030    2    1    2    0    0  0.00000000000E+00  0.00000000000E+00  0.47503743085E+03  0.17429001766E+04  0.16769139707E+04 0.  0.
        4    1    3    3  502    0 -0.39588080274E+03  0.73765845913E+03  0.28567652581E+03  0.88457577550E+03  0.12699999809E+01 0.  1.
       -4    1    3    3    0  502  0.39588080274E+03 -0.73765845913E+03  0.18936090503E+03  0.85832440112E+03  0.12699999809E+01 0. -1.
</event>
<event>
 5   0  0.2550616E-04  0.1791114E+04  0.7818609E-02  0.8711039E-01
       -2   -1    0    0    0  501  0.00000000000E+00  0.00000000000E+00  0.76849318567E+03  0.76849318567E+03  0.25500000920E-02 0. -1.
        2   -1    0    0  501    0  0.00000000000E+00  0.00000000000E+00 -0.10436297466E+04  0.10436297466E+04  0.25500000920E-02 0.  1.
    10030    2    1    2    0    0  0.00000000000E+00  0.00000000000E+00 -0.27513656097E+03  0.18121229323E+04  0.17911140094E+04 0.  0.
        1    1    3    3  502    0 -0.93986441375E+02 -0.81051430020E+03 -0.51102595907E+03  0.96276394451E+03  0.50400001928E-02 0.  1.
       -1    1    3    3    0  502  0.93986441375E+02  0.81051430020E+03  0.23588939809E+03  0.84935898780E+03  0.50400001928E-02 0. -1.
</event>
<event>
 5   0  0.2431811E-04  0.1776261E+04  0.7818609E-02  0.8719026E-01
        2   -1    0    0  501    0  0.00000000000E+00  0.00000000000E+00  0.20249577781E+04  0.20249577781E+04  0.25500000920E-02 0.  1.
       -2   -1    0    0    0  501  0.00000000000E+00  0.00000000000E+00 -0.38952721330E+03  0.38952721331E+03  0.25500000920E-02 0. -1.
    10030    2    1    2    0    0  0.00000000000E+00  0.00000000000E+00  0.16354305648E+04  0.24144849914E+04  0.17762614226E+04 0.  0.
        3    1    3    3  502    0 -0.81597879991E+03  0.24865017107E+03  0.48163955001E+03  0.97960449969E+03  0.10100000352E+00 0.  1.
       -3    1    3    3    0  502  0.81597879991E+03 -0.24865017107E+03  0.11537910147E+04  0.14348804917E+04  0.10100000352E+00 0. -1.
</event>
<event>
 5   0  0.1214723E-04  0.1792227E+04  0.7818609E-02  0.8710444E-01
       -1   -1    0    0    0  501  0.00000000000E+00  0.00000000000E+00  0.76664310402E+03  0.76664310404E+03  0.50400001928E-02 0.  1.
        1   -1    0    0  501    0  0.00000000000E+00  0.00000000000E+00 -0.10474491985E+04  0.10474491985E+04  0.50400001928E-02 0. -1.
    10030    2    1    2    0    0  0.00000000000E+00  0.00000000000E+00 -0.28080609450E+03  0.18140923026E+04  0.17922273348E+04 0.  0.
        1    1    3    3  502    0 -0.18091240993E+03 -0.85627444719E+03 -0.33532571941E+03  0.93721852687E+03  0.50400001928E-02 0. -1.
       -1    1    3    3    0  502  0.18091240993E+03  0.85627444719E+03  0.54519624915E+02  0.87687377570E+03  0.50400001928E-02 0.  1.
</event>
<event>
 5   0  0.2431811E-04  0.1732392E+04  0.7818609E-02  0.8743103E-01
        2   -1    0    0  501    0  0.00000000000E+00  0.00000000000E+00  0.86457055967E+03  0.86457055967E+03  0.25500000920E-02 0.  1.
       -2   -1    0    0    0  501  0.00000000000E+00  0.00000000000E+00 -0.86782433837E+03  0.86782433838E+03  0.25500000920E-02 0. -1.
    10030    2    1    2    0    0  0.00000000000E+00  0.00000000000E+00 -0.32537787068E+01  0.17323948981E+04  0.17323918424E+04 0.  0.
        3    1    3    3  502    0 -0.11583470338E+02  0.61166352402E+03  0.61158616238E+03  0.86504571418E+03  0.10100000352E+00 0.  1.
       -3    1    3    3    0  502  0.11583470338E+02 -0.61166352402E+03 -0.61483994109E+03  0.86734918387E+03  0.10100000352E+00 0. -1.
</event>
<event>
 5   0  0.2550616E-04  0.1816102E+04  0.7818609E-02  0.8697783E-01
        2   -1    0    0  501    0  0.00000000000E+00  0.00000000000E+00  0.10792908127E+04  0.10792908127E+04  0.25500000920E-02 0.  1.
       -2   -1    0    0    0  501  0.00000000000E+00  0.00000000000E+00 -0.76398030528E+03  0.76398030528E+03  0.25500000920E-02 0. -1.
    10030    2    1    2    0    0  0.00000000000E+00  0.00000000000E+00  0.31531050740E+03  0.18432711180E+04  0.18161023369E+04 0.  0.
        1    1    3    3  502    0 -0.53587121564E+03  0.35737724178E+03 -0.49198291357E+03  0.81050826026E+03  0.50400001928E-02 0. -1.
       -1    1    3    3    0  502  0.53587121564E+03 -0.35737724178E+03  0.80729342096E+03  0.10327628577E+04  0.50400001928E-02 0.  1.
</event>
<event>
 5   0  0.1253925E-04  0.1784053E+04  0.7818609E-02  0.8714826E-01
       -1   -1    0    0    0  501  0.00000000000E+00  0.00000000000E+00  0.40629707199E+03  0.40629707203E+03  0.50400001928E-02 0. -1.
        1   -1    0    0  501    0  0.00000000000E+00  0.00000000000E+00 -0.19584471540E+04  0.19584471540E+04  0.50400001928E-02 0.  1.
    10030    2    1    2    0    0  0.00000000000E+00  0.00000000000E+00 -0.15521500820E+04  0.23647442260E+04  0.17840530758E+04 0.  0.
        2    1    3    3  502    0 -0.52722833817E+03 -0.29247147292E+03  0.95329502649E+02  0.61040723876E+03  0.25500000920E-02 0. -1.
       -2    1    3    3    0  502  0.52722833817E+03  0.29247147292E+03 -0.16474795846E+04  0.17543369872E+04  0.25500000920E-02 0.  1.
</event>
<event>
 5   0  0.2417106E-04  0.1799842E+04  0.7818609E-02  0.8706383E-01
        2   -1    0    0  501    0  0.00000000000E+00  0.00000000000E+00  0.10556728604E+04  0.10556728604E+04  0.25500000920E-02 0.  1.
       -2   -1    0    0    0  501  0.00000000000E+00  0.00000000000E+00 -0.76714855260E+03  0.76714855260E+03  0.25500000920E-02 0. -1.
    10030    2    1    2    0    0  0.00000000000E+00  0.00000000000E+00  0.28852430777E+03  0.18228214130E+04  0.17998421118E+04 0.  0.
        4    1    3    3  502    0  0.85041948511E+03  0.84099638421E+02 -0.14142128032E+03  0.86619145763E+03  0.12699999809E+01 0. -1.
       -4    1    3    3    0  502 -0.85041948511E+03 -0.84099638421E+02  0.42994558809E+03  0.95662995535E+03  0.12699999809E+01 0.  1.
</event>
<event>
 5   0  0.2569405E-04  0.1795741E+04  0.7818609E-02  0.8708568E-01
        2   -1    0    0  501    0  0.00000000000E+00  0.00000000000E+00  0.92726483288E+03  0.92726483288E+03  0.25500000920E-02 0. -1.
       -2   -1    0    0    0  501  0.00000000000E+00  0.00000000000E+00 -0.86940752256E+03  0.86940752256E+03  0.25500000920E-02 0.  1.
    10030    2    1    2    0    0  0.00000000000E+00  0.00000000000E+00  0.57857310316E+02  0.17966723554E+04  0.17957405393E+04 0.  0.
        2    1    3    3  502    0  0.86004542643E+03  0.25768173620E+03  0.19279563860E+02  0.89802545303E+03  0.25500000920E-02 0.  1.
       -2    1    3    3    0  502 -0.86004542643E+03 -0.25768173620E+03  0.38577746456E+02  0.89864690242E+03  0.25500000920E-02 0. -1.
</event>
<event>
 5   0  0.1330225E-04  0.1825739E+04  0.7818609E-02  0.8692730E-01
        1   -1    0    0  501    0  0.00000000000E+00  0.00000000000E+00  0.16739065021E+04  0.16739065021E+04  0.50400001928E-02 0. -1.
       -1   -1    0    0    0  501  0.00000000000E+00  0.00000000000E+00 -0.49783609260E+03  0.49783609263E+03  0.50400001928E-02 0.  1.
    10030    2    1    2    0    0  0.00000000000E+00  0.00000000000E+00  0.11760704095E+04  0.21717425947E+04  0.18257393816E+04 0.  0.
        3    1    3    3  502    0  0.93140734073E+02 -0.69457794395E+03  0.12838931254E+04  0.14627013654E+04  0.10100000352E+00 0. -1.
       -3    1    3    3    0  502 -0.93140734073E+02  0.69457794395E+03 -0.10782271598E+03  0.70904122930E+03  0.10100000352E+00 0.  1.
</event>
<event>
 5   0  0.1308893E-04  0.1809262E+04  0.7818609E-02  0.8701389E-01
       -1   -1    0    0    0  501  0.00000000000E+00  0.00000000000E+00  0.96418996095E+03  0.96418996096E+03  0.50400001928E-02 0.  1.
        1   -1    0    0  501    0  0.00000000000E+00  0.00000000000E+00 -0.84875116365E+03  0.84875116367E+03  0.50400001928E-02 0. -1.
    10030    2    1    2    0    0  0.00000000000E+00  0.00000000000E+00  0.11543879730E+03  0.18129411246E+04  0.18092621163E+04 0.  0.
        4    1    3    3  502    0  0.28773613928E+03 -0.57401784564E+03  0.69624916541E+03  0.94712886462E+03  0.12699999809E+01 0.  1.
       -4    1    3    3    0  502 -0.28773613928E+03  0.57401784564E+03 -0.58081036812E+03  0.86581226001E+03  0.12699999809E+01 0. -1.
</event>
<event>
 5   0  0.1239119E-04  0.1693005E+04  0.7818609E-02  0.8765364E-01
        1   -1    0    0  501    0  0.00000000000E+00  0.00000000000E+00  0.10893920596E+04  0.10893920596E+04  0.50400001928E-02 0. -1.
       -1   -1    0    0    0  501  0.00000000000E+00  0.00000000000E+00 -0.65776696668E+03  0.65776696670E+03  0.50400001928E-02 0.  1.
    10030    2    1    2    0    0  0.00000000000E+00  0.00000000000E+00  0.43162509295E+03  0.17471590263E+04  0.16930045607E+04 0.  0.
        5    1    3    3  502    0 -0.64224809273E+03  0.10910246227E+03 -0.34199353492E+03  0.73577688725E+03  0.46999998093E+01 0.  1.
       -5    1    3    3    0  502  0.64224809273E+03 -0.10910246227E+03  0.77361862787E+03  0.10113821391E+04  0.46999998093E+01 0. -1.
</event>
<event>
 5   0  0.1308893E-04  0.1840377E+04  0.7818609E-02  0.8685117E-01
        1   -1    0    0  501    0  0.00000000000E+00  0.00000000000E+00  0.13960075306E+04  0.13960075306E+04  0.50400001928E-02 0.  1.
       -1   -1    0    0    0  501  0.00000000000E+00  0.00000000000E+00 -0.60654894492E+03  0.60654894494E+03  0.50400001928E-02 0. -1.
    10030    2    1    2    0    0  0.00000000000E+00  0.00000000000E+00  0.78945858567E+03  0.20025564755E+04  0.18403770210E+04 0.  0.
        4    1    3    3  502    0  0.63216036010E+03  0.42047929013E+03 -0.17100646311E+03  0.77825084493E+03  0.12699999809E+01 0. -1.
       -4    1    3    3    0  502 -0.63216036010E+03 -0.42047929013E+03  0.96046504878E+03  0.12243056306E+04  0.12699999809E+01 0.  1.
</event>
<event>
 5   0  0.1214723E-04  0.1771932E+04  0.7818609E-02  0.8721370E-01
        1   -1    0    0  501    0  0.00000000000E+00  0.00000000000E+00  0.17738695007E+04  0.17738695007E+04  0.50400001928E-02 0. -1.
       -1   -1    0    0    0  501  0.00000000000E+00  0.00000000000E+00 -0.44249936139E+03  0.44249936142E+03  0.50400001928E-02 0.  1.
    10030    2    1    2    0    0  0.00000000000E+00  0.00000000000E+00  0.13313701393E+04  0.22163688622E+04  0.17719324155E+04 0.  0.
        1    1    3    3  502    0 -0.20780383719E+03 -0.19309031294E+03  0.17155322409E+04  0.17388263782E+04  0.50400001928E-02 0. -1.
       -1    1    3    3    0  502  0.20780383719E+03  0.19309031294E+03 -0.38416210159E+03  0.47754248400E+03  0.50400001928E-02 0.  1.
</event>
<event>
 5   0  0.2393421E-04  0.1795312E+04  0.7818609E-02  0.8708796E-01
        2   -1    0    0  501    0  0.00000000000E+00  0.00000000000E+00  0.68470598718E+03  0.68470598719E+03  0.25500000920E-02 0. -1.
       -2   -1    0    0    0  501  0.00000000000E+00  0.00000000000E+00 -0.11768354159E+04  0.11768354159E+04  0.25500000920E-02 0.  1.
    10030    2    1    2    0    0  0.00000000000E+00  0.00000000000E+00 -0.49212942873E+03  0.18615414031E+04  0.17953119564E+04 0.  0.
        5    1    3    3  502    0  0.11508878695E+03  0.43220497269E+03 -0.10530541928E+04  0.11441117910E+04  0.46999998093E+01 0.  1.
       -5    1    3    3    0  502 -0.11508878695E+03 -0.43220497269E+03  0.56092476411E+03  0.71742961208E+03  0.46999998093E+01 0. -1.
</event>
<event>
 5   0  0.1308893E-04  0.1777801E+04  0.7818609E-02  0.8718195E-01
        1   -1    0    0  501    0  0.00000000000E+00  0.00000000000E+00  0.85085467206E+03  0.85085467208E+03  0.50400001928E-02 0.  1.
       -1   -1    0    0    0  501  0.00000000000E+00  0.00000000000E+00 -0.92864702002E+03  0.92864702003E+03  0.50400001928E-02 0. -1.
    10030    2    1    2    0    0  0.00000000000E+00  0.00000000000E+00 -0.77792347957E+02  0.17795016921E+04  0.17778005014E+04 0.  0.
        4    1    3    3  502    0  0.16756835594E+03  0.85409896699E+03  0.14176987509E+03  0.88185288439E+03  0.12699999809E+01 0.  1.
       -4    1    3    3    0  502 -0.16756835594E+03 -0.85409896699E+03 -0.21956222305E+03  0.89764880772E+03  0.12699999809E+01 0. -1.
</event>
<event>
 5   0  0.2393421E-04  0.1802362E+04  0.7818609E-02  0.8705044E-01
        2   -1    0    0  501    0  0.00000000000E+00  0.00000000000E+00  0.11290948231E+04  0.11290948231E+04  0.25500000920E-02 0.  1.
       -2   -1    0    0    0  501  0.00000000000E+00  0.00000000000E+00 -0.71927276418E+03  0.71927276419E+03  0.25500000920E-02 0. -1.
    10030    2    1    2    0    0  0.00000000000E+00  0.00000000000E+00  0.40982205892E+03  0.18483675873E+04  0.18023619553E+04 0.  0.
        5    1    3    3  502    0  0.91851372878E+02  0.71106883903E+03 -0.35496326530E+03  0.80004785998E+03  0.46999998093E+01 0. -1.
       -5    1    3    3    0  502 -0.91851372878E+02 -0.71106883903E+03  0.76478532422E+03  0.10483197273E+04  0.46999998093E+01 0.  1.
</event>
<event>
 5   0  0.2431811E-04  0.1801224E+04  0.7818609E-02  0.8705649E-01
       -2   -1    0    0    0  501  0.00000000000E+00  0.00000000000E+00  0.98112671737E+03  0.98112671737E+03  0.25500000920E-02 0. -1.
        2   -1    0    0  501    0  0.00000000000E+00  0.00000000000E+00 -0.82670446721E+03  0.82670446721E+03  0.25500000920E-02 0.  1.
    10030    2    1    2    0    0  0.00000000000E+00  0.00000000000E+00  0.15442225016E+03  0.18078311846E+04  0.18012238508E+04 0.  0.
        3    1    3    3  502    0 -0.23657251938E+03  0.86252708588E+03 -0.28923169513E+02  0.89484975875E+03  0.10100000352E+00 0. -1.
       -3    1    3    3    0  502  0.23657251938E+03 -0.86252708588E+03  0.18334541967E+03  0.91298142583E+03  0.10100000352E+00 0.  1.
</event>
<event>
 5   0  0.2431811E-04  0.1789197E+04  0.7818609E-02  0.8712066E-01
        2   -1    0    0  501    0  0.00000000000E+00  0.00000000000E+00  0.13132544965E+04  0.13132544965E+04  0.25500000920E-02 0. -1.
       -2   -1    0    0    0  501  0.00000000000E+00  0.00000000000E+00 -0.60940687916E+03  0.60940687917E+03  0.25500000920E-02 0.  1.
    10030    2    1    2    0    0  0.00000000000E+00  0.00000000000E+00  0.70384761730E+03  0.19226613756E+04  0.17891968301E+04 0.  0.
        3    1    3    3  502    0  0.64305689905E+03  0.16469060162E+03 -0.29252947766E+03  0.72540931561E+03  0.10100000352E+00 0.  1.
       -3    1    3    3    0  502 -0.64305689905E+03 -0.16469060162E+03  0.99637709496E+03  0.11972520600E+04  0.10100000352E+00 0. -1.
</event>
<event>
 5   0  0.1239119E-04  0.1814037E+04  0.7818609E-02  0.8698870E-01
        1   -1    0    0  501    0  0.00000000000E+00  0.00000000000E+00  0.11831379273E+04  0.11831379274E+04  0.50400001928E-02 0.  1.
       -1   -1    0    0    0  501  0.00000000000E+00  0.00000000000E+00 -0.69533962147E+03  0.69533962149E+03  0.50400001928E-02 0. -1.
    10030    2    1    2    0    0  0.00000000000E+00  0.00000000000E+00  0.48779830587E+03  0.18784775488E+04  0.18140371315E+04 0.  0.
        5    1    3    3  502    0 -0.36682761172E+03  0.39982796300E+03  0.99651560487E+03  0.11346763140E+04  0.46999998093E+01 0.  1.
       -5    1    3    3    0  502  0.36682761172E+03 -0.39982796300E+03 -0.50871729899E+03  0.74380123488E+03  0.46999998093E+01 0. -1.
</event>
<event>
 5   0  0.2393421E-04  0.1518216E+04  0.7818609E-02  0.8872429E-01
        2   -1    0    0  501    0  0.00000000000E+00  0.00000000000E+00  0.13648547735E+04  0.13648547735E+04  0.25500000920E-02 0.  1.
       -2   -1    0    0    0  501  0.00000000000E+00  0.00000000000E+00 -0.42220233835E+03  0.42220233836E+03  0.25500000920E-02 0. -1.
    10030    2    1    2    0    0  0.00000000000E+00  0.00000000000E+00  0.94265243510E+03  0.17870571118E+04  0.15182158962E+04 0.  0.
        5    1    3    3  502    0 -0.64534061853E+03 -0.36884944361E+03  0.65256688906E+03  0.98913096234E+03  0.46999998093E+01 0. -1.
       -5    1    3    3    0  502  0.64534061853E+03  0.36884944361E+03  0.29008554605E+03  0.79792614947E+03  0.46999998093E+01 0.  1.
</event>
<event>
 5   0  0.2431811E-04  0.1795757E+04  0.7818609E-02  0.8708559E-01
        2   -1    0    0  501    0  0.00000000000E+00  0.00000000000E+00  0.12349285153E+04  0.12349285153E+04  0.25500000920E-02 0. -1.
       -2   -1    0    0    0  501  0.00000000000E+00  0.00000000000E+00 -0.65282012759E+03  0.65282012760E+03  0.25500000920E-02 0.  1.
    10030    2    1    2    0    0  0.00000000000E+00  0.00000000000E+00  0.58210838772E+03  0.18877486429E+04  0.17957574345E+04 0.  0.
        3    1    3    3  502    0  0.65997103472E+03  0.52077887164E+01 -0.34889812192E+03  0.74653787406E+03  0.10100000352E+00 0.  1.
       -3    1    3    3    0  502 -0.65997103472E+03 -0.52077887164E+01  0.93100650964E+03  0.11412107688E+04  0.10100000352E+00 0. -1.
</event>
<event>
 5   0  0.1330225E-04  0.1837518E+04  0.7818609E-02  0.8686598E-01
        1   -1    0    0  501    0  0.00000000000E+00  0.00000000000E+00  0.61407320665E+03  0.61407320667E+03  0.50400001928E-02 0. -1.
       -1   -1    0    0    0  501  0.00000000000E+00  0.00000000000E+00 -0.13746210911E+04  0.13746210911E+04  0.50400001928E-02 0.  1.
    10030    2    1    2    0    0  0.00000000000E+00  0.00000000000E+00 -0.76054788448E+03  0.19886942978E+04  0.18375178708E+04 0.  0.
        3    1    3    3  502    0 -0.31620299240E+03 -0.22179952504E+03  0.52194029772E+03  0.64930812893E+03  0.10100000352E+00 0. -1.
       -3    1    3    3    0  502  0.31620299240E+03  0.22179952504E+03 -0.12824881822E+04  0.13393861689E+04  0.10100000352E+00 0.  1.
</event>
<event>
 5   0  0.1330225E-04  0.1720687E+04  0.7818609E-02  0.8749653E-01
        1   -1    0    0  501    0  0.00000000000E+00  0.00000000000E+00  0.18114979203E+04  0.18114979203E+04  0.50400001928E-02 0. -1.
       -1   -1    0    0    0  501  0.00000000000E+00  0.00000000000E+00 -0.40860717383E+03  0.40860717386E+03  0.50400001928E-02 0.  1.
    10030    2    1    2    0    0  0.00000000000E+00  0.00000000000E+00  0.14028907464E+04  0.22201050941E+04  0.17206871251E+04 0.  0.
        3    1    3    3  502    0 -0.18158500213E+03  0.62303136056E+03  0.14302328378E+04  0.15705754263E+04  0.10100000352E+00 0. -1.
       -3    1    3    3    0  502  0.18158500213E+03 -0.62303136056E+03 -0.27342091327E+02  0.64952966784E+03  0.10100000352E+00 0.  1.
</event>
<event>
 5   0  0.1308893E-04  0.1711770E+04  0.7818609E-02  0.8754680E-01
        1   -1    0    0  501    0  0.00000000000E+00  0.00000000000E+00  0.94897831628E+03  0.94897831629E+03  0.50400001928E-02 0.  1.
       -1   -1    0    0    0  501  0.00000000000E+00  0.00000000000E+00 -0.77192428833E+03  0.77192428834E+03  0.50400001928E-02 0. -1.
    10030    2    1    2    0    0  0.00000000000E+00  0.00000000000E+00  0.17705402795E+03  0.17209026046E+04  0.17117703251E+04 0.  0.
        4    1    3    3  502    0 -0.69956422756E+01 -0.38027570643E+03  0.85935036606E+03  0.93975699862E+03  0.12699999809E+01 0.  1.
       -4    1    3    3    0  502  0.69956422756E+01  0.38027570643E+03 -0.68229633810E+03  0.78114560602E+03  0.12699999809E+01 0. -1.
</event>
<event>
 5   0  0.2550616E-04  0.1721699E+04  0.7818609E-02  0.8749085E-01
       -2   -1    0    0    0  501  0.00000000000E+00  0.00000000000E+00  0.48542454438E+03  0.48542454439E+03  0.25500000920E-02 0. -1.
        2   -1    0    0  501    0  0.00000000000E+00  0.00000000000E+00 -0.15266260276E+04  0.15266260276E+04  0.25500000920E-02 0.  1.
    10030    2    1    2    0    0  0.00000000000E+00  0.00000000000E+00 -0.10412014833E+04  0.20120505720E+04  0.17216988632E+04 0.  0.
        1    1    3    3  502    0 -0.34362069359E+03  0.78862399843E+03 -0.55862658056E+03  0.10257030021E+04  0.50400001928E-02 0.  1.
       -1    1    3    3    0  502  0.34362069359E+03 -0.78862399843E+03 -0.48257490270E+03  0.98634756993E+03  0.50400001928E-02 0. -1.
</event>
<event>
 5   0  0.2393421E-04  0.1811177E+04  0.7818609E-02  0.8700378E-01
        2   -1    0    0  501    0  0.00000000000E+00  0.00000000000E+00  0.19700641655E+04  0.19700641655E+04  0.25500000920E-02 0. -1.
       -2   -1    0    0    0  501  0.00000000000E+00  0.00000000000E+00 -0.41627614374E+03  0.41627614375E+03  0.25500000920E-02 0.  1.
    10030    2    1    2    0    0  0.00000000000E+00  0.00000000000E+00  0.15537880217E+04  0.23863403092E+04  0.18111772014E+04 0.  0.
        5    1    3    3  502    0 -0.70230775895E+03  0.14841760601E+03  0.15043089706E+04  0.16668027907E+04  0.46999998093E+01 0. -1.
       -5    1    3    3    0  502  0.70230775895E+03 -0.14841760601E+03  0.49479051119E+02  0.71953751852E+03  0.46999998093E+01 0.  1.
</event>
<event>
 5   0  0.2569405E-04  0.1776092E+04  0.7818609E-02  0.8719118E-01
        2   -1    0    0  501    0  0.00000000000E+00  0.00000000000E+00  0.77957538869E+03  0.77957538870E+03  0.25500000920E-02 0. -1.
       -2   -1    0    0    0  501  0.00000000000E+00  0.00000000000E+00 -0.10116091445E+04  0.10116091445E+04  0.25500000920E-02 0.  1.
    10030    2    1    2    0    0  0.00000000000E+00  0.00000000000E+00 -0.23203375578E+03  0.17911845332E+04  0.17760918805E+04 0.  0.
        2    1    3    3  502    0 -0.40542397914E+03  0.79009489649E+03 -0.11869342500E+03  0.89593899205E+03  0.25500000920E-02 0. -1.
       -2    1    3    3    0  502  0.40542397914E+03 -0.79009489649E+03 -0.11334033077E+03  0.89524554113E+03  0.25500000920E-02 0.  1.
</event>
<event>
 5   0  0.2431811E-04  0.1786051E+04  0.7818609E-02  0.8713753E-01
       -2   -1    0    0    0  501  0.00000000000E+00  0.00000000000E+00  0.81633926177E+03  0.81633926177E+03  0.25500000920E-02 0.  1.
        2   -1    0    0  501    0  0.00000000000E+00  0.00000000000E+00 -0.97691529254E+03  0.97691529254E+03  0.25500000920E-02 0. -1.
    10030    2    1    2    0    0  0.00000000000E+00  0.00000000000E+00 -0.16057603077E+03  0.17932545543E+04  0.17860507369E+04 0.  0.
        3    1    3    3  502    0  0.20180484914E+03 -0.86072947986E+03 -0.20694699065E+03  0.90796888812E+03  0.10100000352E+00 0. -1.
       -3    1    3    3    0  502 -0.20180484914E+03  0.86072947986E+03  0.46370959883E+02  0.88528566619E+03  0.10100000352E+00 0.  1.
</event>
<event>
 5   0  0.1253925E-04  0.1837907E+04  0.7818609E-02  0.8686397E-01
       -1   -1    0    0    0  501  0.00000000000E+00  0.00000000000E+00  0.65213951428E+03  0.65213951430E+03  0.50400001928E-02 0. -1.
        1   -1    0    0  501    0  0.00000000000E+00  0.00000000000E+00 -0.12949301435E+04  0.12949301435E+04  0.50400001928E-02 0.  1.
    10030    2    1    2    0    0  0.00000000000E+00  0.00000000000E+00 -0.64279062923E+03  0.19470696578E+04  0.18379065426E+04 0.  0.
        2    1    3    3  502    0  0.43316551436E+03 -0.73670511627E+03 -0.67925825656E+03  0.10916769533E+04  0.25500000920E-02 0.  1.
       -2    1    3    3    0  502 -0.43316551436E+03  0.73670511627E+03  0.36467627322E+02  0.85539270456E+03  0.25500000920E-02 0. -1.
</event>
<event>
 5   0  0.1214723E-04  0.1782166E+04  0.7818609E-02  0.8715841E-01
        1   -1    0    0  501    0  0.00000000000E+00  0.00000000000E+00  0.73467548436E+03  0.73467548438E+03  0.50400001928E-02 0. -1.
       -1   -1    0    0    0  501  0.00000000000E+00  0.00000000000E+00 -0.10807884452E+04  0.10807884452E+04  0.50400001928E-02 0.  1.
    10030    2    1    2    0    0  0.00000000000E+00  0.00000000000E+00 -0.34611296084E+03  0.18154639296E+04  0.17821658447E+04 0.  0.
        1    1    3    3  502    0 -0.85855207045E+02  0.48523836742E+03 -0.92935745216E+03  0.10519185632E+04  0.50400001928E-02 0.  1.
       -1    1    3    3    0  502  0.85855207045E+02 -0.48523836742E+03  0.58324449132E+03  0.76354536635E+03  0.50400001928E-02 0. -1.
</event>
<event>
 5   0  0.2431811E-04  0.1788435E+04  0.7818609E-02  0.8712474E-01
        2   -1    0    0  501    0  0.00000000000E+00  0.00000000000E+00  0.27782285312E+04  0.27782285312E+04  0.25500000920E-02 0. -1.
       -2   -1    0    0    0  501  0.00000000000E+00  0.00000000000E+00 -0.28781828894E+03  0.28781828895E+03  0.25500000920E-02 0.  1.
    10030    2    1    2    0    0  0.00000000000E+00  0.00000000000E+00  0.24904102423E+04  0.30660468201E+04  0.17884350501E+04 0.  0.
        3    1    3    3  502    0  0.71864472480E+03 -0.22700643631E+03  0.42008909684E+03  0.86281922909E+03  0.10100000352E+00 0.  1.
       -3    1    3    3    0  502 -0.71864472480E+03  0.22700643631E+03  0.20703211454E+04  0.22032275910E+04  0.10100000352E+00 0. -1.
</event>
<event>
 5   0  0.2393421E-04  0.1799155E+04  0.7818609E-02  0.8706749E-01
       -2   -1    0    0    0  501  0.00000000000E+00  0.00000000000E+00  0.32326810949E+03  0.32326810950E+03  0.25500000920E-02 0.  1.
        2   -1    0    0  501    0  0.00000000000E+00  0.00000000000E+00 -0.25033080920E+04  0.25033080920E+04  0.25500000920E-02 0. -1.
    10030    2    1    2    0    0  0.00000000000E+00  0.00000000000E+00 -0.21800399825E+04  0.28265762015E+04  0.17991549954E+04 0.  0.
        5    1    3    3  502    0 -0.86415782809E+03  0.23929023286E+03 -0.12031908642E+04  0.15005728617E+04  0.46999998093E+01 0.  1.
       -5    1    3    3    0  502  0.86415782809E+03 -0.23929023286E+03 -0.97684911826E+03  0.13260033398E+04  0.46999998093E+01 0. -1.
</event>
<event>
 5   0  0.1330225E-04  0.1471723E+04  0.7818609E-02  0.8903478E-01
        1   -1    0    0  501    0  0.00000000000E+00  0.00000000000E+00  0.61128340818E+03  0.61128340821E+03  0.50400001928E-02 0. -1.
       -1   -1    0    0    0  501  0.00000000000E+00  0.00000000000E+00 -0.88582802542E+03  0.88582802544E+03  0.50400001928E-02 0.  1.
    10030    2    1    2    0    0  0.00000000000E+00  0.00000000000E+00 -0.27454461724E+03  0.14971114336E+04  0.14717227653E+04 0.  0.
        3    1    3    3  502    0 -0.14313172573E+03  0.33001736851E+03 -0.79029183079E+03  0.86830832223E+03  0.10100000352E+00 0.  1.
       -3    1    3    3    0  502  0.14313172573E+03 -0.33001736851E+03  0.51574721356E+03  0.62880311141E+03  0.10100000352E+00 0. -1.
</event>
<event>
 5   0  0.1253925E-04  0.1795792E+04  0.7818609E-02  0.8708540E-01
        1   -1    0    0  501    0  0.00000000000E+00  0.00000000000E+00  0.13208054877E+04  0.13208054877E+04  0.50400001928E-02 0.  1.
       -1   -1    0    0    0  501  0.00000000000E+00  0.00000000000E+00 -0.61039845233E+03  0.61039845235E+03  0.50400001928E-02 0. -1.
    10030    2    1    2    0    0  0.00000000000E+00  0.00000000000E+00  0.71040703534E+03  0.19312039400E+04  0.17957924441E+04 0.  0.
        2    1    3    3  502    0  0.27754421222E+03 -0.23016853822E+03  0.12395298603E+04  0.12909076730E+04  0.25500000920E-02 0.  1.
       -2    1    3    3    0  502 -0.27754421222E+03  0.23016853822E+03 -0.52912282491E+03  0.64029626703E+03  0.25500000920E-02 0. -1.
</event>
<event>
 5   0  0.1253925E-04  0.1787539E+04  0.7818609E-02  0.8712954E-01
       -1   -1    0    0    0  501  0.00000000000E+00  0.00000000000E+00  0.17325982407E+04  0.17325982407E+04  0.50400001928E-02 0.  1.
        1   -1    0    0  501    0  0.00000000000E+00  0.00000000000E+00 -0.46105554990E+03  0.46105554992E+03  0.50400001928E-02 0. -1.
    10030    2    1    2    0    0  0.00000000000E+00  0.00000000000E+00  0.12715426908E+04  0.21936537906E+04  0.17875391292E+04 0.  0.
        2    1    3    3  502    0  0.40015216990E+02  0.20783852031E+03  0.17013994860E+04  0.17145140067E+04  0.25500000920E-02 0.  1.
       -2    1    3    3    0  502 -0.40015216990E+02 -0.20783852031E+03 -0.42985679524E+03  0.47913978392E+03  0.25500000920E-02 0. -1.
</event>
<event>
 5   0  0.2417106E-04  0.1787220E+04  0.7818609E-02  0.8713125E-01
        2   -1    0    0  501    0  0.00000000000E+00  0.00000000000E+00  0.83454448372E+03  0.83454448372E+03  0.25500000920E-02 0. -1.
       -2   -1    0    0    0  501  0.00000000000E+00  0.00000000000E+00 -0.95685645693E+03  0.95685645693E+03  0.25500000920E-02 0.  1.
    10030    2    1    2    0    0  0.00000000000E+00  0.00000000000E+00 -0.12231197321E+03  0.17914009407E+04  0.17872204988E+04 0.  0.
        4    1    3    3  502    0  0.59001148990E+03  0.13911364735E+03  0.59694011203E+03  0.85076746256E+03  0.12699999809E+01 0. -1.
       -4    1    3    3    0  502 -0.59001148990E+03 -0.13911364735E+03 -0.71925208524E+03  0.94063347810E+03  0.12699999809E+01 0.  1.
</event>
<event>
 5   0  0.1239119E-04  0.1754188E+04  0.7818609E-02  0.8731048E-01
        1   -1    0    0  501    0  0.00000000000E+00  0.00000000000E+00  0.53746226515E+03  0.53746226517E+03  0.50400001928E-02 0. -1.
       -1   -1    0    0    0  501  0.00000000000E+00  0.00000000000E+00 -0.14313457085E+04  0.14313457085E+04  0.50400001928E-02 0.  1.
    10030    2    1    2    0    0  0.00000000000E+00  0.00000000000E+00 -0.89388344336E+03  0.19688079737E+04  0.17541884810E+04 0.  0.
        5    1    3    3  502    0 -0.28871403693E+03 -0.24360796713E+03  0.44146625828E+03  0.58104662805E+03  0.46999998093E+01 0. -1.
       -5    1    3    3    0  502  0.28871403693E+03  0.24360796713E+03 -0.13353497016E+04  0.13877613456E+04  0.46999998093E+01 0.  1.
</event>
<event>
 5   0  0.2393421E-04  0.1787166E+04  0.7818609E-02  0.8713154E-01
        2   -1    0    0  501    0  0.00000000000E+00  0.00000000000E+00  0.63709922027E+03  0.63709922027E+03  0.25500000920E-02 0.  1.
       -2   -1    0    0    0  501  0.00000000000E+00  0.00000000000E+00 -0.12533219792E+04  0.12533219792E+04  0.25500000920E-02 0. -1.
    10030    2    1    2    0    0  0.00000000000E+00  0.00000000000E+00 -0.61622275892E+03  0.18904211995E+04  0.17871658632E+04 0.  0.
        5    1    3    3  502    0  0.39420835038E+03 -0.58048748731E+03  0.27711931959E+03  0.75444227991E+03  0.46999998093E+01 0.  1.
       -5    1    3    3    0  502 -0.39420835038E+03  0.58048748731E+03 -0.89334207851E+03  0.11359789195E+04  0.46999998093E+01 0. -1.
</event>
<event>
 5   0  0.1253925E-04  0.1807048E+04  0.7818609E-02  0.8702561E-01
        1   -1    0    0  501    0  0.00000000000E+00  0.00000000000E+00  0.29390492004E+04  0.29390492004E+04  0.50400001928E-02 0.  1.
       -1   -1    0    0    0  501  0.00000000000E+00  0.00000000000E+00 -0.27776170238E+03  0.27776170242E+03  0.50400001928E-02 0. -1.
    10030    2    1    2    0    0  0.00000000000E+00  0.00000000000E+00  0.26612874980E+04  0.32168109028E+04  0.18070476578E+04 0.  0.
        2    1    3    3  502    0  0.77299944386E+03  0.46631622272E+03  0.13966857617E+04  0.16630424158E+04  0.25500000920E-02 0. -1.
       -2    1    3    3    0  502 -0.77299944386E+03 -0.46631622272E+03  0.12646017363E+04  0.15537684870E+04  0.25500000920E-02 0.  1.
</event>
<event>
 5   0  0.2550616E-04  0.1793094E+04  0.7818609E-02  0.8709981E-01
        2   -1    0    0  501    0  0.00000000000E+00  0.00000000000E+00  0.13783550450E+04  0.13783550450E+04  0.25500000920E-02 0.  1.
       -2   -1    0    0    0  501  0.00000000000E+00  0.00000000000E+00 -0.58315607932E+03  0.58315607932E+03  0.25500000920E-02 0. -1.
    10030    2    1    2    0    0  0.00000000000E+00  0.00000000000E+00  0.79519896569E+03  0.19615111243E+04  0.17930935547E+04 0.  0.
        1    1    3    3  502    0 -0.72707732026E+03 -0.36242317031E+03 -0.17233730388E+02  0.81258167929E+03  0.50400001928E-02 0. -1.
       -1    1    3    3    0  502  0.72707732026E+03  0.36242317031E+03  0.81243269608E+03  0.11489294450E+04  0.50400001928E-02 0.  1.
</event>
<event>
 5   0  0.1239119E-04  0.1813663E+04  0.7818609E-02  0.8699067E-01
        1   -1    0    0  501    0  0.00000000000E+00  0.00000000000E+00  0.70651706172E+03  0.70651706174E+03  0.50400001928E-02 0.  1.
       -1   -1    0    0    0  501  0.00000000000E+00  0.00000000000E+00 -0.11639393307E+04  0.11639393307E+04  0.50400001928E-02 0. -1.
    10030    2    1    2    0    0  0.00000000000E+00  0.00000000000E+00 -0.45742226901E+03  0.18704563925E+04  0.18136625882E+04 0.  0.
        5    1    3    3  502    0  0.24782890888E+03  0.26630665012E+03  0.62795210827E+03  0.72573021175E+03  0.46999998093E+01 0.  1.
       -5    1    3    3    0  502 -0.24782890888E+03 -0.26630665012E+03 -0.10853743773E+04  0.11447261807E+04  0.46999998093E+01 0. -1.
</event>
<event>
 5   0  0.9144875E-05  0.1807130E+04  0.7818609E-02  0.8702517E-01
       -4   -1    0    0    0  501  0.00000000000E+00  0.00000000000E+00  0.16293346278E+04  0.16293351227E+04  0.12699999809E+01 0.  1.
        4   -1    0    0  501    0  0.00000000000E+00  0.00000000000E+00 -0.50108032938E+03  0.50108193880E+03  0.12699999809E+01 0. -1.
    10030    2    1    2    0    0  0.00000000000E+00  0.00000000000E+00  0.11282542984E+04  0.21304170615E+04  0.18071300712E+04 0.  0.
        3    1    3    3  502    0 -0.40913848504E+03  0.72578615502E+03  0.97635282041E+03  0.12835204256E+04  0.10100000352E+00 0.  1.
       -3    1    3    3    0  502  0.40913848504E+03 -0.72578615502E+03  0.15190147798E+03  0.84689663594E+03  0.10100000352E+00 0. -1.
</event>
<event>
 5   0  0.2569405E-04  0.1796646E+04  0.7818609E-02  0.8708085E-01
       -2   -1    0    0    0  501  0.00000000000E+00  0.00000000000E+00  0.74916441332E+03  0.74916441333E+03  0.25500000920E-02 0.  1.
        2   -1    0    0  501    0  0.00000000000E+00  0.00000000000E+00 -0.10771787649E+04  0.10771787649E+04  0.25500000920E-02 0. -1.
    10030    2    1    2    0    0  0.00000000000E+00  0.00000000000E+00 -0.32801435159E+03  0.18263431782E+04  0.17966457608E+04 0.  0.
        2    1    3    3  502    0  0.40350757858E+03 -0.51583536660E+03 -0.78905248205E+03  0.10254307928E+04  0.25500000920E-02 0. -1.
       -2    1    3    3    0  502 -0.40350757858E+03  0.51583536660E+03  0.46103813046E+03  0.80091238544E+03  0.25500000920E-02 0.  1.
</event>
<event>
 5   0  0.2569405E-04  0.1803706E+04  0.7818609E-02  0.8704331E-01
       -2   -1    0    0    0  501  0.00000000000E+00  0.00000000000E+00  0.12883508856E+04  0.12883508856E+04  0.25500000920E-02 0.  1.
        2   -1    0    0  501    0  0.00000000000E+00  0.00000000000E+00 -0.63130220747E+03  0.63130220748E+03  0.25500000920E-02 0. -1.
    10030    2    1    2    0    0  0.00000000000E+00  0.00000000000E+00  0.65704867809E+03  0.19196530930E+04  0.18037059162E+04 0.  0.
        2    1    3    3  502    0  0.56777544674E+03 -0.49145283716E+02 -0.41537393391E+03  0.70520899159E+03  0.25500000920E-02 0. -1.
       -2    1    3    3    0  502 -0.56777544674E+03  0.49145283716E+02  0.10724226120E+04  0.12144441015E+04  0.25500000920E-02 0.  1.
</event>
<event>
 5   0  0.2417106E-04  0.1746938E+04  0.7818609E-02  0.8735037E-01
        2   -1    0    0  501    0  0.00000000000E+00  0.00000000000E+00  0.63011473802E+03  0.63011473803E+03  0.25500000920E-02 0. -1.
       -2   -1    0    0    0  501  0.00000000000E+00  0.00000000000E+00 -0.12108083635E+04  0.12108083635E+04  0.25500000920E-02 0.  1.
    10030    2    1    2    0    0  0.00000000000E+00  0.00000000000E+00 -0.58069362545E+03  0.18409231015E+04  0.17469381154E+04 0.  0.
        4    1    3    3  502    0 -0.63143007590E+03  0.58357363403E+03 -0.12816960348E+03  0.86930500243E+03  0.12699999809E+01 0.  1.
       -4    1    3    3    0  502  0.63143007590E+03 -0.58357363403E+03 -0.45252402197E+03  0.97161809907E+03  0.12699999809E+01 0. -1.
</event>
<event>
 5   0  0.2569405E-04  0.1773673E+04  0.7818609E-02  0.8720427E-01
        2   -1    0    0  501    0  0.00000000000E+00  0.00000000000E+00  0.13581865334E+04  0.13581865334E+04  0.25500000920E-02 0. -1.
       -2   -1    0    0    0  501  0.00000000000E+00  0.00000000000E+00 -0.57906543712E+03  0.57906543712E+03  0.25500000920E-02 0.  1.
    10030    2    1    2    0    0  0.00000000000E+00  0.00000000000E+00  0.77912109630E+03  0.19372519705E+04  0.17736728883E+04 0.  0.
        2    1    3    3  502    0  0.25258031830E+03 -0.79394083256E+03  0.57660316040E+02  0.83514284697E+03  0.25500000920E-02 0.  1.
       -2    1    3    3    0  502 -0.25258031830E+03  0.79394083256E+03  0.72146078026E+03  0.11021091236E+04  0.25500000920E-02 0. -1.
</event>
<event>
 5   0  0.2569405E-04  0.1790873E+04  0.7818609E-02  0.8711168E-01
        2   -1    0    0  501    0  0.00000000000E+00  0.00000000000E+00  0.18372915578E+04  0.18372915578E+04  0.25500000920E-02 0. -1.
       -2   -1    0    0    0  501  0.00000000000E+00  0.00000000000E+00 -0.43640678729E+03  0.43640678730E+03  0.25500000920E-02 0.  1.
    10030    2    1    2    0    0  0.00000000000E+00  0.00000000000E+00  0.14008847705E+04  0.22736983451E+04  0.17908729782E+04 0.  0.
        2    1    3    3  502    0  0.67520265292E+03 -0.51271920767E+03  0.10662708271E+04  0.13622456038E+04  0.25500000920E-02 0. -1.
       -2    1    3    3    0  502 -0.67520265292E+03  0.51271920767E+03  0.33461394341E+03  0.91145274126E+03  0.25500000920E-02 0.  1.
</event>
<event>
 5   0  0.2431811E-04  0.1785871E+04  0.7818609E-02  0.8713850E-01
       -2   -1    0    0    0  501  0.00000000000E+00  0.00000000000E+00  0.13277868057E+04  0.13277868057E+04  0.25500000920E-02 0.  1.
        2   -1    0    0  501    0  0.00000000000E+00  0.00000000000E+00 -0.60049818450E+03  0.60049818451E+03  0.25500000920E-02 0. -1.
    10030    2    1    2    0    0  0.00000000000E+00  0.00000000000E+00  0.72728862117E+03  0.19282849902E+04  0.17858707302E+04 0.  0.
        3    1    3    3  502    0 -0.44305666144E+03  0.62706460327E+03  0.85587580776E+03  0.11497967779E+04  0.10100000352E+00 0.  1.
       -3    1    3    3    0  502  0.44305666144E+03 -0.62706460327E+03 -0.12858718659E+03  0.77848821229E+03  0.10100000352E+00 0. -1.
</event>
<event>
 5   0  0.1308893E-04  0.1804563E+04  0.7818609E-02  0.8703877E-01
       -1   -1    0    0    0  501  0.00000000000E+00  0.00000000000E+00  0.70339251204E+03  0.70339251205E+03  0.50400001928E-02 0. -1.
        1   -1    0    0  501    0  0.00000000000E+00  0.00000000000E+00 -0.11574078345E+04  0.11574078345E+04  0.50400001928E-02 0.  1.
    10030    2    1    2    0    0  0.00000000000E+00  0.00000000000E+00 -0.45401532248E+03  0.18608003466E+04  0.18045631097E+04 0.  0.
        4    1    3    3  502    0 -0.38652139168E+03  0.76752753159E+03  0.56540089154E+02  0.86121756400E+03  0.12699999809E+01 0. -1.
       -4    1    3    3    0  502  0.38652139168E+03 -0.76752753159E+03 -0.51055541163E+03  0.99958278257E+03  0.12699999809E+01 0.  1.
</event>
<event>
 5   0  0.1214723E-04  0.1826233E+04  0.7818609E-02  0.8692472E-01
        1   -1    0    0  501    0  0.00000000000E+00  0.00000000000E+00  0.17420779484E+04  0.17420779484E+04  0.50400001928E-02 0. -1.
       -1   -1    0    0    0  501  0.00000000000E+00  0.00000000000E+00 -0.47861341749E+03  0.47861341752E+03  0.50400001928E-02 0.  1.
    10030    2    1    2    0    0  0.00000000000E+00  0.00000000000E+00  0.12634645309E+04  0.22206913659E+04  0.18262331510E+04 0.  0.
        1    1    3    3  502    0 -0.42630152649E+03 -0.79921828460E+03  0.49150197217E+03  0.10305615200E+04  0.50400001928E-02 0.  1.
       -1    1    3    3    0  502  0.42630152649E+03  0.79921828460E+03  0.77196255873E+03  0.11901298459E+04  0.50400001928E-02 0. -1.
</event>
<event>
 5   0  0.1330225E-04  0.1806396E+04  0.7818609E-02  0.8702905E-01
        1   -1    0    0  501    0  0.00000000000E+00  0.00000000000E+00  0.66879773941E+03  0.66879773943E+03  0.50400001928E-02 0.  1.
       -1   -1    0    0    0  501  0.00000000000E+00  0.00000000000E+00 -0.12197510995E+04  0.12197510995E+04  0.50400001928E-02 0. -1.
    10030    2    1    2    0    0  0.00000000000E+00  0.00000000000E+00 -0.55095336004E+03  0.18885488389E+04  0.18063961670E+04 0.  0.
        3    1    3    3  502    0  0.65304852936E+03 -0.61753752680E+03 -0.36864631457E+03  0.97145514263E+03  0.10100000352E+00 0. -1.
       -3    1    3    3    0  502 -0.65304852936E+03  0.61753752680E+03 -0.18230704547E+03  0.91709369627E+03  0.10100000352E+00 0.  1.
</event>
<event>
 5   0  0.1253925E-04  0.1842223E+04  0.7818609E-02  0.8684162E-01
       -1   -1    0    0    0  501  0.00000000000E+00  0.00000000000E+00  0.60746601686E+03  0.60746601688E+03  0.50400001928E-02 0. -1.
        1   -1    0    0  501    0  0.00000000000E+00  0.00000000000E+00 -0.13966979016E+04  0.13966979016E+04  0.50400001928E-02 0.  1.
    10030    2    1    2    0    0  0.00000000000E+00  0.00000000000E+00 -0.78923188474E+03  0.20041639185E+04  0.18422231255E+04 0.  0.
        2    1    3    3  502    0 -0.52742046629E+03  0.28999724131E+03  0.36394008155E+03  0.70336557437E+03  0.25500000920E-02 0. -1.
       -2    1    3    3    0  502  0.52742046629E+03 -0.28999724131E+03 -0.11531719663E+04  0.13007983441E+04  0.25500000920E-02 0.  1.
</event>
<event>
 5   0  0.1214723E-04  0.1807744E+04  0.7818609E-02  0.8702192E-01
        1   -1    0    0  501    0  0.00000000000E+00  0.00000000000E+00  0.12746507812E+04  0.12746507812E+04  0.50400001928E-02 0.  1.
       -1   -1    0    0    0  501  0.00000000000E+00  0.00000000000E+00 -0.64094788214E+03  0.64094788216E+03  0.50400001928E-02 0. -1.
    10030    2    1    2    0    0  0.00000000000E+00  0.00000000000E+00  0.63370289905E+03  0.19155986634E+04  0.18077441397E+04 0.  0.
        1    1    3    3  502    0  0.82912661206E+03 -0.18983018354E+03  0.64086962840E+03  0.10649884122E+04  0.50400001928E-02 0.  1.
       -1    1    3    3    0  502 -0.82912661206E+03  0.18983018354E+03 -0.71667293505E+01  0.85061025120E+03  0.50400001928E-02 0. -1.
</event>
<event>
 5   0  0.2417106E-04  0.1788297E+04  0.7818609E-02  0.8712548E-01
        2   -1    0    0  501    0  0.00000000000E+00  0.00000000000E+00  0.89854132788E+03  0.89854132788E+03  0.25500000920E-02 0. -1.
       -2   -1    0    0    0  501  0.00000000000E+00  0.00000000000E+00 -0.88977739031E+03  0.88977739031E+03  0.25500000920E-02 0.  1.
    10030    2    1    2    0    0  0.00000000000E+00  0.00000000000E+00  0.87639375706E+01  0.17883187182E+04  0.17882972435E+04 0.  0.
        4    1    3    3  502    0  0.33900129833E+02  0.67795630872E+03 -0.57762688404E+03  0.89130713304E+03  0.12699999809E+01 0.  1.
       -4    1    3    3    0  502 -0.33900129833E+02 -0.67795630872E+03  0.58639082161E+03  0.89701158516E+03  0.12699999809E+01 0. -1.
</event>
<event>
 5   0  0.2417106E-04  0.1815263E+04  0.7818609E-02  0.8698225E-01
        2   -1    0    0  501    0  0.00000000000E+00  0.00000000000E+00  0.13072610153E+04  0.13072610153E+04  0.25500000920E-02 0.  1.
       -2   -1    0    0    0  501  0.00000000000E+00  0.00000000000E+00 -0.63016852751E+03  0.63016852752E+03  0.25500000920E-02 0. -1.
    10030    2    1    2    0    0  0.00000000000E+00  0.00000000000E+00  0.67709248783E+03  0.19374295429E+04  0.18152627899E+04 0.  0.
        4    1    3    3  502    0 -0.23787464408E+03  0.25557399669E+03  0.12327184436E+04  0.12812098923E+04  0.12699999809E+01 0.  1.
       -4    1    3    3    0  502  0.23787464408E+03 -0.25557399669E+03 -0.55562595579E+03  0.65621965052E+03  0.12699999809E+01 0. -1.
</event>
<event>
 5   0  0.2569405E-04  0.1796219E+04  0.7818609E-02  0.8708313E-01
        2   -1    0    0  501    0  0.00000000000E+00  0.00000000000E+00  0.19071322339E+04  0.19071322339E+04  0.25500000920E-02 0. -1.
       -2   -1    0    0    0  501  0.00000000000E+00  0.00000000000E+00 -0.42293910571E+03  0.42293910572E+03  0.25500000920E-02 0.  1.
    10030    2    1    2    0    0  0.00000000000E+00  0.00000000000E+00  0.14841931281E+04  0.23300713396E+04  0.17962191419E+04 0.  0.
        2    1    3    3  502    0  0.54483583719E+03 -0.72356779034E+02 -0.17930458725E+03  0.57812777824E+03  0.25500000920E-02 0.  1.
       -2    1    3    3    0  502 -0.54483583719E+03  0.72356779034E+02  0.16634977154E+04  0.17519435613E+04  0.25500000920E-02 0. -1.
</event>
<event>
 5   0  0.1239119E-04  0.1797583E+04  0.7818609E-02  0.8707586E-01
       -1   -1    0    0    0  501  0.00000000000E+00  0.00000000000E+00  0.87171265845E+03  0.87171265846E+03  0.50400001928E-02 0. -1.
        1   -1    0    0  501    0  0.00000000000E+00  0.00000000000E+00 -0.92671105008E+03  0.92671105009E+03  0.50400001928E-02 0.  1.
    10030    2    1    2    0    0  0.00000000000E+00  0.00000000000E+00 -0.54998391634E+02  0.17984237086E+04  0.17975825468E+04 0.  0.
        5    1    3    3  502    0 -0.39927443088E+03  0.75154891396E+03 -0.31669815910E+03  0.90805597581E+03  0.46999998093E+01 0.  1.
       -5    1    3    3    0  502  0.39927443088E+03 -0.75154891396E+03  0.26169976747E+03  0.89036773275E+03  0.46999998093E+01 0. -1.
</event>
<event>
 5   0  0.1308893E-04  0.1817392E+04  0.7818609E-02  0.8697105E-01
       -1   -1    0    0    0  501  0.00000000000E+00  0.00000000000E+00  0.52699177426E+03  0.52699177429E+03  0.50400001928E-02 0.  1.
        1   -1    0    0  501    0  0.00000000000E+00  0.00000000000E+00 -0.15668723354E+04  0.15668723354E+04  0.50400001928E-02 0. -1.
    10030    2    1    2    0    0  0.00000000000E+00  0.00000000000E+00 -0.10398805611E+04  0.20938641097E+04  0.18173924530E+04 0.  0.
        4    1    3    3  502    0  0.20629939405E+03  0.39974526026E+02  0.49861278936E+03  0.54108569500E+03  0.12699999809E+01 0.  1.
       -4    1    3    3    0  502 -0.20629939405E+03 -0.39974526026E+02 -0.15384933505E+04  0.15527784147E+04  0.12699999809E+01 0. -1.
</event>
<event>
 5   0  0.1330225E-04  0.1804511E+04  0.7818609E-02  0.8703904E-01
        1   -1    0    0  501    0  0.00000000000E+00  0.00000000000E+00  0.16184907495E+04  0.16184907496E+04  0.50400001928E-02 0.  1.
       -1   -1    0    0    0  501  0.00000000000E+00  0.00000000000E+00 -0.50297764909E+03  0.50297764912E+03  0.50400001928E-02 0. -1.
    10030    2    1    2    0    0  0.00000000000E+00  0.00000000000E+00  0.11155131005E+04  0.21214683987E+04  0.18045106509E+04 0.  0.
        3    1    3    3  502    0 -0.21208765981E+02  0.45801129998E+02 -0.50131659724E+03  0.50385106543E+03  0.10100000352E+00 0. -1.
       -3    1    3    3    0  502  0.21208765981E+02 -0.45801129998E+02  0.16168296977E+04  0.16176173332E+04  0.10100000352E+00 0.  1.
</event>
<event>
 5   0  0.1308893E-04  0.1796073E+04  0.7818609E-02  0.8708390E-01
       -1   -1    0    0    0  501  0.00000000000E+00  0.00000000000E+00  0.87180354608E+03  0.87180354610E+03  0.50400001928E-02 0.  1.
        1   -1    0    0  501    0  0.00000000000E+00  0.00000000000E+00 -0.92505925454E+03  0.92505925456E+03  0.50400001928E-02 0. -1.
    10030    2    1    2    0    0  0.00000000000E+00  0.00000000000E+00 -0.53255708461E+02  0.17968628007E+04  0.17960734266E+04 0.  0.
        4    1    3    3  502    0  0.60125330350E+03  0.61984478798E+03  0.21996623530E+03  0.89112280507E+03  0.12699999809E+01 0.  1.
       -4    1    3    3    0  502 -0.60125330350E+03 -0.61984478798E+03 -0.27322194376E+03  0.90573999558E+03  0.12699999809E+01 0. -1.
</event>
<event>
 5   0  0.1253925E-04  0.1801899E+04  0.7818609E-02  0.8705290E-01
        1   -1    0    0  501    0  0.00000000000E+00  0.00000000000E+00  0.93329134581E+03  0.93329134582E+03  0.50400001928E-02 0. -1.
       -1   -1    0    0    0  501  0.00000000000E+00  0.00000000000E+00 -0.86972811309E+03  0.86972811311E+03  0.50400001928E-02 0.  1.
    10030    2    1    2    0    0  0.00000000000E+00  0.00000000000E+00  0.63563232715E+02  0.18030194589E+04  0.18018986888E+04 0.  0.
        2    1    3    3  502    0  0.23463544768E+03 -0.57322947884E+03  0.68645448457E+03  0.92458941597E+03  0.25500000920E-02 0. -1.
       -2    1    3    3    0  502 -0.23463544768E+03  0.57322947884E+03 -0.62289125186E+03  0.87843004296E+03  0.25500000920E-02 0.  1.
</event>
<event>
 5   0  0.2550616E-04  0.1802232E+04  0.7818609E-02  0.8705114E-01
       -2   -1    0    0    0  501  0.00000000000E+00  0.00000000000E+00  0.11210558103E+04  0.11210558103E+04  0.25500000920E-02 0. -1.
        2   -1    0    0  501    0  0.00000000000E+00  0.00000000000E+00 -0.72432577599E+03  0.72432577600E+03  0.25500000920E-02 0.  1.
    10030    2    1    2    0    0  0.00000000000E+00  0.00000000000E+00  0.39673003431E+03  0.18453815863E+04  0.18022315276E+04 0.  0.
        1    1    3    3  502    0 -0.55019790386E+03  0.17493832075E+03  0.90680340086E+03  0.10749946778E+04  0.50400001928E-02 0. -1.
       -1    1    3    3    0  502  0.55019790386E+03 -0.17493832075E+03 -0.51007336655E+03  0.77038690849E+03  0.50400001928E-02 0.  1.
</event>
<event>
 5   0  0.2569405E-04  0.1735184E+04  0.7818609E-02  0.8741548E-01
       -2   -1    0    0    0  501  0.00000000000E+00  0.00000000000E+00  0.63515841220E+03  0.63515841221E+03  0.25500000920E-02 0.  1.
        2   -1    0    0  501    0  0.00000000000E+00  0.00000000000E+00 -0.11850833323E+04  0.11850833323E+04  0.25500000920E-02 0. -1.
    10030    2    1    2    0    0  0.00000000000E+00  0.00000000000E+00 -0.54992492010E+03  0.18202417445E+04  0.17351837340E+04 0.  0.
        2    1    3    3  502    0 -0.74571785488E+03  0.43464163412E+03 -0.36705645447E+03  0.93794398019E+03  0.25500000920E-02 0.  1.
       -2    1    3    3    0  502  0.74571785488E+03 -0.43464163412E+03 -0.18286846563E+03  0.88229776432E+03  0.25500000920E-02 0. -1.
</event>
<event>
 5   0  0.2431811E-04  0.1788690E+04  0.7818609E-02  0.8712337E-01
        2   -1    0    0  501    0  0.00000000000E+00  0.00000000000E+00  0.12161860270E+04  0.12161860270E+04  0.25500000920E-02 0. -1.
       -2   -1    0    0    0  501  0.00000000000E+00  0.00000000000E+00 -0.65767317288E+03  0.65767317289E+03  0.25500000920E-02 0.  1.
    10030    2    1    2    0    0  0.00000000000E+00  0.00000000000E+00  0.55851285410E+03  0.18738591999E+04  0.17886899376E+04 0.  0.
        3    1    3    3  502    0 -0.67007529003E+03  0.84575452755E+02  0.89342986926E+03  0.11199869834E+04  0.10100000352E+00 0. -1.
       -3    1    3    3    0  502  0.67007529003E+03 -0.84575452755E+02 -0.33491701516E+03  0.75387221647E+03  0.10100000352E+00 0.  1.
</event>
<event>
 5   0  0.2393421E-04  0.1799876E+04  0.7818609E-02  0.8706366E-01
       -2   -1    0    0    0  501  0.00000000000E+00  0.00000000000E+00  0.45465314279E+03  0.45465314280E+03  0.25500000920E-02 0.  1.
        2   -1    0    0  501    0  0.00000000000E+00  0.00000000000E+00 -0.17813320078E+04  0.17813320078E+04  0.25500000920E-02 0. -1.
    10030    2    1    2    0    0  0.00000000000E+00  0.00000000000E+00 -0.13266788650E+04  0.22359851506E+04  0.17998757687E+04 0.  0.
        5    1    3    3  502    0 -0.77074568117E+03 -0.28698742409E+03 -0.11171707810E+04  0.13872646937E+04  0.46999998093E+01 0. -1.
       -5    1    3    3    0  502  0.77074568117E+03  0.28698742409E+03 -0.20950808403E+03  0.84872045686E+03  0.46999998093E+01 0.  1.
</event>
<event>
 5   0  0.1239119E-04  0.1782528E+04  0.7818609E-02  0.8715647E-01
       -1   -1    0    0    0  501  0.00000000000E+00  0.00000000000E+00  0.14187062014E+04  0.14187062014E+04  0.50400001928E-02 0. -1.
        1   -1    0    0  501    0  0.00000000000E+00  0.00000000000E+00 -0.55991238119E+03  0.55991238121E+03  0.50400001928E-02 0.  1.
    10030    2    1    2    0    0  0.00000000000E+00  0.00000000000E+00  0.85879382022E+03  0.19786185826E+04  0.17825276070E+04 0.  0.
        5    1    3    3  502    0 -0.27327824215E+03  0.82736886328E+03  0.63738290083E+03  0.10795829222E+04  0.46999998093E+01 0. -1.
       -5    1    3    3    0  502  0.27327824215E+03 -0.82736886328E+03  0.22141091938E+03  0.89903566046E+03  0.46999998093E+01 0.  1.
</event>
<event>
 5   0  0.1253925E-04  0.1814880E+04  0.7818609E-02  0.8698426E-01
        1   -1    0    0  501    0  0.00000000000E+00  0.00000000000E+00  0.17023503759E+04  0.17023503759E+04  0.50400001928E-02 0. -1.
       -1   -1    0    0    0  501  0.00000000000E+00  0.00000000000E+00 -0.48371214928E+03  0.48371214931E+03  0.50400001928E-02 0.  1.
    10030    2    1    2    0    0  0.00000000000E+00  0.00000000000E+00  0.12186382266E+04  0.21860625252E+04  0.18148802266E+04 0.  0.
        2    1    3    3  502    0 -0.11158101572E+03 -0.82682494243E+03  0.10391793768E+04  0.13326603414E+04  0.25500000920E-02 0. -1.
       -2    1    3    3    0  502  0.11158101572E+03  0.82682494243E+03  0.17945884985E+03  0.85340218379E+03  0.25500000920E-02 0.  1.
</event>
<event>
 5   0  0.1239119E-04  0.1787663E+04  0.7818609E-02  0.8712888E-01
       -1   -1    0    0    0  501  0.00000000000E+00  0.00000000000E+00  0.75805457128E+03  0.75805457129E+03  0.50400001928E-02 0.  1.
        1   -1    0    0  501    0  0.00000000000E+00  0.00000000000E+00 -0.10539282451E+04  0.10539282451E+04  0.50400001928E-02 0. -1.
    10030    2    1    2    0    0  0.00000000000E+00  0.00000000000E+00 -0.29587367378E+03  0.18119828164E+04  0.17876634180E+04 0.  0.
        5    1    3    3  502    0  0.76489625394E+03  0.12305878944E+03 -0.59976245327E+03  0.97976876623E+03  0.46999998093E+01 0. -1.
       -5    1    3    3    0  502 -0.76489625394E+03 -0.12305878944E+03  0.30388877948E+03  0.83221405013E+03  0.46999998093E+01 0.  1.
</event>
<event>
 5   0  0.2569405E-04  0.1813074E+04  0.7818609E-02  0.8699378E-01
       -2   -1    0    0    0  501  0.00000000000E+00  0.00000000000E+00  0.84882761640E+03  0.84882761641E+03  0.25500000920E-02 0. -1.
        2   -1    0    0  501    0  0.00000000000E+00  0.00000000000E+00 -0.96816977142E+03  0.96816977142E+03  0.25500000920E-02 0.  1.
    10030    2    1    2    0    0  0.00000000000E+00  0.00000000000E+00 -0.11934215502E+03  0.18169973878E+04  0.18130738974E+04 0.  0.
        2    1    3    3  502    0  0.24753129680E+03 -0.28431976101E+02  0.81383953107E+03  0.85112566787E+03  0.25500000920E-02 0. -1.
       -2    1    3    3    0  502 -0.24753129680E+03  0.28431976101E+02 -0.93318168609E+03  0.96587171996E+03  0.25500000920E-02 0.  1.
</event>
<event>
 5   0  0.2550616E-04  0.1854487E+04  0.7818609E-02  0.8677849E-01
       -2   -1    0    0    0  501  0.00000000000E+00  0.00000000000E+00  0.48349991721E+03  0.48349991722E+03  0.25500000920E-02 0. -1.
        2   -1    0    0  501    0  0.00000000000E+00  0.00000000000E+00 -0.17782438742E+04  0.17782438742E+04  0.25500000920E-02 0.  1.
    10030    2    1    2    0    0  0.00000000000E+00  0.00000000000E+00 -0.12947439570E+04  0.22617437914E+04  0.18544872779E+04 0.  0.
        1    1    3    3  502    0 -0.77794108965E+03  0.33189963298E+03 -0.18387186086E+03  0.86553946563E+03  0.50400001928E-02 0. -1.
       -1    1    3    3    0  502  0.77794108965E+03 -0.33189963298E+03 -0.11108720961E+04  0.13962043258E+04  0.50400001928E-02 0.  1.
</event>
<event>
 5   0  0.2550616E-04  0.1822276E+04  0.7818609E-02  0.8694542E-01
        2   -1    0    0  501    0  0.00000000000E+00  0.00000000000E+00  0.94251595043E+03  0.94251595043E+03  0.25500000920E-02 0. -1.
       -2   -1    0    0    0  501  0.00000000000E+00  0.00000000000E+00 -0.88080496021E+03  0.88080496021E+03  0.25500000920E-02 0.  1.
    10030    2    1    2    0    0  0.00000000000E+00  0.00000000000E+00  0.61710990219E+02  0.18233209106E+04  0.18222762954E+04 0.  0.
        1    1    3    3  502    0 -0.89717604304E+03  0.85328961337E+02 -0.10326178620E+03  0.90712120489E+03  0.50400001928E-02 0.  1.
       -1    1    3    3    0  502  0.89717604304E+03 -0.85328961337E+02  0.16497277642E+03  0.91619970576E+03  0.50400001928E-02 0. -1.
</event>
<event>
 5   0  0.2431811E-04  0.1804154E+04  0.7818609E-02  0.8704094E-01
        2   -1    0    0  501    0  0.00000000000E+00  0.00000000000E+00  0.10527089196E+04  0.10527089196E+04  0.25500000920E-02 0.  1.
       -2   -1    0    0    0  501  0.00000000000E+00  0.00000000000E+00 -0.77299872783E+03  0.77299872783E+03  0.25500000920E-02 0. -1.
    10030    2    1    2    0    0  0.00000000000E+00  0.00000000000E+00  0.27971019175E+03  0.18257076474E+04  0.18041537136E+04 0.  0.
        3    1    3    3  502    0  0.51471946589E+03  0.15118213262E+03 -0.59403347757E+03  0.80041735892E+03  0.10100000352E+00 0. -1.
       -3    1    3    3    0  502 -0.51471946589E+03 -0.15118213262E+03  0.87374366932E+03  0.10252902885E+04  0.10100000352E+00 0.  1.
</event>
<event>
 5   0  0.1308893E-04  0.1799864E+04  0.7818609E-02  0.8706372E-01
       -1   -1    0    0    0  501  0.00000000000E+00  0.00000000000E+00  0.33323593402E+03  0.33323593406E+03  0.50400001928E-02 0. -1.
        1   -1    0    0  501    0  0.00000000000E+00  0.00000000000E+00 -0.24303435929E+04  0.24303435929E+04  0.50400001928E-02 0.  1.
    10030    2    1    2    0    0  0.00000000000E+00  0.00000000000E+00 -0.20971076589E+04  0.27635795269E+04  0.17998642362E+04 0.  0.
        4    1    3    3  502    0 -0.33060115629E+02  0.58682256910E+03 -0.20949324261E+04  0.21758210362E+04  0.12699999809E+01 0.  1.
       -4    1    3    3    0  502  0.33060115629E+02 -0.58682256910E+03 -0.21752327324E+01  0.58775849070E+03  0.12699999809E+01 0. -1.
</event>
<event>
 5   0  0.2431811E-04  0.1779812E+04  0.7818609E-02  0.8717109E-01
        2   -1    0    0  501    0  0.00000000000E+00  0.00000000000E+00  0.20138439571E+04  0.20138439571E+04  0.25500000920E-02 0.  1.
       -2   -1    0    0    0  501  0.00000000000E+00  0.00000000000E+00 -0.39324433038E+03  0.39324433039E+03  0.25500000920E-02 0. -1.
    10030    2    1    2    0    0  0.00000000000E+00  0.00000000000E+00  0.16205996267E+04  0.24070882875E+04  0.17798120332E+04 0.  0.
        3    1    3    3  502    0 -0.83907335433E+03 -0.39656218729E+02  0.41295867598E+03  0.93602969392E+03  0.10100000352E+00 0. -1.
       -3    1    3    3    0  502  0.83907335433E+03  0.39656218729E+02  0.12076409508E+04  0.14710585936E+04  0.10100000352E+00 0.  1.
</event>
<event>
 5   0  0.1253925E-04  0.1792030E+04  0.7818609E-02  0.8710549E-01
       -1   -1    0    0    0  501  0.00000000000E+00  0.00000000000E+00  0.44699812143E+03  0.44699812145E+03  0.50400001928E-02 0.  1.
        1   -1    0    0  501    0  0.00000000000E+00  0.00000000000E+00 -0.17960768164E+04  0.17960768164E+04  0.50400001928E-02 0. -1.
    10030    2    1    2    0    0  0.00000000000E+00  0.00000000000E+00 -0.13490786950E+04  0.22430749379E+04  0.17920300923E+04 0.  0.
        2    1    3    3  502    0  0.29692779483E+03 -0.59388129725E+03 -0.14276206826E+04  0.15744719508E+04  0.25500000920E-02 0. -1.
       -2    1    3    3    0  502 -0.29692779483E+03  0.59388129725E+03  0.78541987539E+02  0.66860298711E+03  0.25500000920E-02 0.  1.
</event>
<event>
 5   0  0.2393421E-04  0.1789362E+04  0.7818609E-02  0.8711977E-01
        2   -1    0    0  501    0  0.00000000000E+00  0.00000000000E+00  0.18762695374E+04  0.18762695374E+04  0.25500000920E-02 0.  1.
       -2   -1    0    0    0  501  0.00000000000E+00  0.00000000000E+00 -0.42661995257E+03  0.42661995258E+03  0.25500000920E-02 0. -1.
    10030    2    1    2    0    0  0.00000000000E+00  0.00000000000E+00  0.14496495848E+04  0.23028894900E+04  0.17893619210E+04 0.  0.
        5    1    3    3  502    0 -0.35117614929E+03  0.37127078771E+03  0.16699212224E+04  0.17463750068E+04  0.46999998093E+01 0.  1.
       -5    1    3    3    0  502  0.35117614929E+03 -0.37127078771E+03 -0.22027163753E+03  0.55651448313E+03  0.46999998093E+01 0. -1.
</event>
<event>
 5   0  0.2431811E-04  0.1817306E+04  0.7818609E-02  0.8697150E-01
       -2   -1    0    0    0  501  0.00000000000E+00  0.00000000000E+00  0.12142109058E+04  0.12142109058E+04  0.25500000920E-02 0. -1.
        2   -1    0    0  501    0  0.00000000000E+00  0.00000000000E+00 -0.67998943566E+03  0.67998943566E+03  0.25500000920E-02 0.  1.
    10030    2    1    2    0    0  0.00000000000E+00  0.00000000000E+00  0.53422147015E+03  0.18942003415E+04  0.18173063458E+04 0.  0.
        3    1    3    3  502    0  0.73570667673E+03 -0.52695940991E+03  0.35242793863E+03  0.97116218831E+03  0.10100000352E+00 0.  1.
       -3    1    3    3    0  502 -0.73570667673E+03  0.52695940991E+03  0.18179353152E+03  0.92303815316E+03  0.10100000352E+00 0. -1.
</event>
<event>
 5   0  0.1253925E-04  0.1808298E+04  0.7818609E-02  0.8701899E-01
       -1   -1    0    0    0  501  0.00000000000E+00  0.00000000000E+00  0.88157741696E+03  0.88157741698E+03  0.50400001928E-02 0. -1.
        1   -1    0    0  501    0  0.00000000000E+00  0.00000000000E+00 -0.92729876236E+03  0.92729876237E+03  0.50400001928E-02 0.  1.
    10030    2    1    2    0    0  0.00000000000E+00  0.00000000000E+00 -0.45721345395E+02  0.18088761793E+04  0.18082982582E+04 0.  0.
        2    1    3    3  502    0  0.21250164073E+03  0.39110562290E+03 -0.81010970953E+03  0.92433667949E+03  0.25500000920E-02 0.  1.
       -2    1    3    3    0  502 -0.21250164073E+03 -0.39110562290E+03  0.76438836413E+03  0.88453949986E+03  0.25500000920E-02 0. -1.
</event>
<event>
 5   0  0.1253925E-04  0.1785655E+04  0.7818609E-02  0.8713966E-01
       -1   -1    0    0    0  501  0.00000000000E+00  0.00000000000E+00  0.71462357895E+03  0.71462357897E+03  0.50400001928E-02 0. -1.
        1   -1    0    0  501    0  0.00000000000E+00  0.00000000000E+00 -0.11154693022E+04  0.11154693022E+04  0.50400001928E-02 0.  1.
    10030    2    1    2    0    0  0.00000000000E+00  0.00000000000E+00 -0.40084572326E+03  0.18300928812E+04  0.17856546866E+04 0.  0.
        2    1    3    3  502    0  0.12220286119E+03  0.32184743317E+03  0.64386280209E+03  0.73012233046E+03  0.25500000920E-02 0. -1.
       -2    1    3    3    0  502 -0.12220286119E+03 -0.32184743317E+03 -0.10447085254E+04  0.10999705507E+04  0.25500000920E-02 0.  1.
</event>
<event>
 5   0  0.1239119E-04  0.1762014E+04  0.7818609E-02  0.8726765E-01
       -1   -1    0    0    0  501  0.00000000000E+00  0.00000000000E+00  0.15962513714E+04  0.15962513714E+04  0.50400001928E-02 0.  1.
        1   -1    0    0  501    0  0.00000000000E+00  0.00000000000E+00 -0.48624730867E+03  0.48624730870E+03  0.50400001928E-02 0. -1.
    10030    2    1    2    0    0  0.00000000000E+00  0.00000000000E+00  0.11100040627E+04  0.20824986801E+04  0.17620135452E+04 0.  0.
        5    1    3    3  502    0  0.18833066305E+03  0.74255779798E+03  0.40793004410E+02  0.76716796153E+03  0.46999998093E+01 0. -1.
       -5    1    3    3    0  502 -0.18833066305E+03 -0.74255779798E+03  0.10692110583E+04  0.13153307185E+04  0.46999998093E+01 0.  1.
</event>
<event>
 5   0  0.2569405E-04  0.1904719E+04  0.7818609E-02  0.8652511E-01
       -2   -1    0    0    0  501  0.00000000000E+00  0.00000000000E+00  0.10267215878E+04  0.10267215878E+04  0.25500000920E-02 0.  1.
        2   -1    0    0  501    0  0.00000000000E+00  0.00000000000E+00 -0.88338293595E+03  0.88338293595E+03  0.25500000920E-02 0. -1.
    10030    2    1    2    0    0  0.00000000000E+00  0.00000000000E+00  0.14333865188E+03  0.19101045238E+04  0.19047186991E+04 0.  0.
        2    1    3    3  502    0  0.36828778380E+03  0.76613629545E+03 -0.35894865675E+03  0.92273769463E+03  0.25500000920E-02 0. -1.
       -2    1    3    3    0  502 -0.36828778380E+03 -0.76613629545E+03  0.50228730863E+03  0.98736682916E+03  0.25500000920E-02 0.  1.
</event>
<event>
 5   0  0.2569405E-04  0.1812076E+04  0.7818609E-02  0.8699904E-01
       -2   -1    0    0    0  501  0.00000000000E+00  0.00000000000E+00  0.55616562963E+03  0.55616562964E+03  0.25500000920E-02 0. -1.
        2   -1    0    0  501    0  0.00000000000E+00  0.00000000000E+00 -0.14760082710E+04  0.14760082710E+04  0.25500000920E-02 0.  1.
    10030    2    1    2    0    0  0.00000000000E+00  0.00000000000E+00 -0.91984264135E+03  0.20321739006E+04  0.18120762339E+04 0.  0.
        2    1    3    3  502    0 -0.43287192631E+03 -0.75312842466E+03 -0.74873750809E+03  0.11468166308E+04  0.25500000920E-02 0.  1.
       -2    1    3    3    0  502  0.43287192631E+03  0.75312842466E+03 -0.17110513326E+03  0.88535726983E+03  0.25500000920E-02 0. -1.
</event>
<event>
 5   0  0.1330225E-04  0.1805196E+04  0.7818609E-02  0.8703541E-01
       -1   -1    0    0    0  501  0.00000000000E+00  0.00000000000E+00  0.43820025320E+03  0.43820025323E+03  0.50400001928E-02 0. -1.
        1   -1    0    0  501    0  0.00000000000E+00  0.00000000000E+00 -0.18591572287E+04  0.18591572287E+04  0.50400001928E-02 0.  1.
    10030    2    1    2    0    0  0.00000000000E+00  0.00000000000E+00 -0.14209569755E+04  0.22973574819E+04  0.18051960208E+04 0.  0.
        3    1    3    3  502    0  0.45686719994E+03 -0.70253653289E+03 -0.28381705539E+03  0.88478096134E+03  0.10100000352E+00 0.  1.
       -3    1    3    3    0  502 -0.45686719994E+03  0.70253653289E+03 -0.11371399201E+04  0.14125765206E+04  0.10100000352E+00 0. -1.
</event>
<event>
 5   0  0.2417106E-04  0.1786791E+04  0.7818609E-02  0.8713355E-01
        2   -1    0    0  501    0  0.00000000000E+00  0.00000000000E+00  0.23302242271E+04  0.23302242271E+04  0.25500000920E-02 0.  1.
       -2   -1    0    0    0  501  0.00000000000E+00  0.00000000000E+00 -0.34252313687E+03  0.34252313688E+03  0.25500000920E-02 0. -1.
    10030    2    1    2    0    0  0.00000000000E+00  0.00000000000E+00  0.19877010902E+04  0.26727473640E+04  0.17867912154E+04 0.  0.
        4    1    3    3  502    0  0.30001652477E+03 -0.62057647859E+03  0.14368231878E+03  0.70411029147E+03  0.12699999809E+01 0. -1.
       -4    1    3    3    0  502 -0.30001652477E+03  0.62057647859E+03  0.18440187714E+04  0.19686370725E+04  0.12699999809E+01 0.  1.
</event>
<event>
 5   0  0.1214723E-04  0.1798829E+04  0.7818609E-02  0.8706923E-01
       -1   -1    0    0    0  501  0.00000000000E+00  0.00000000000E+00  0.57896878661E+03  0.57896878664E+03  0.50400001928E-02 0. -1.
        1   -1    0    0  501    0  0.00000000000E+00  0.00000000000E+00 -0.13972187586E+04  0.13972187586E+04  0.50400001928E-02 0.  1.
    10030    2    1    2    0    0  0.00000000000E+00  0.00000000000E+00 -0.81824997200E+03  0.19761875453E+04  0.17988285625E+04 0.  0.
        1    1    3    3  502    0  0.63536975499E+03  0.54775923459E+03 -0.52781145864E+02  0.84054788919E+03  0.50400001928E-02 0.  1.
       -1    1    3    3    0  502 -0.63536975499E+03 -0.54775923459E+03 -0.76546882613E+03  0.11356396561E+04  0.50400001928E-02 0. -1.
</event>
<event>
 5   0  0.2569405E-04  0.1794770E+04  0.7818609E-02  0.8709086E-01
        2   -1    0    0  501    0  0.00000000000E+00  0.00000000000E+00  0.10802603652E+04  0.10802603652E+04  0.25500000920E-02 0.  1.
       -2   -1    0    0    0  501  0.00000000000E+00  0.00000000000E+00 -0.74546792221E+03  0.74546792221E+03  0.25500000920E-02 0. -1.
    10030    2    1    2    0    0  0.00000000000E+00  0.00000000000E+00  0.33479244297E+03  0.18257282874E+04  0.17947695672E+04 0.  0.
        2    1    3    3  502    0 -0.75332639731E+02  0.67512038230E+03  0.76388694896E+03  0.10222454735E+04  0.25500000920E-02 0.  1.
       -2    1    3    3    0  502  0.75332639731E+02 -0.67512038230E+03 -0.42909450599E+03  0.80348281393E+03  0.25500000920E-02 0. -1.
</event>
<event>
 5   0  0.1330225E-04  0.1798033E+04  0.7818609E-02  0.8707346E-01
        1   -1    0    0  501    0  0.00000000000E+00  0.00000000000E+00  0.15811069533E+04  0.15811069533E+04  0.50400001928E-02 0. -1.
       -1   -1    0    0    0  501  0.00000000000E+00  0.00000000000E+00 -0.51118038901E+03  0.51118038903E+03  0.50400001928E-02 0.  1.
    10030    2    1    2    0    0  0.00000000000E+00  0.00000000000E+00  0.10699265643E+04  0.20922873424E+04  0.17980332227E+04 0.  0.
        3    1    3    3  502    0  0.29994138641E+03 -0.31976101412E+03 -0.37835182154E+03  0.57910452640E+03  0.10100000352E+00 0.  1.
       -3    1    3    3    0  502 -0.29994138641E+03  0.31976101412E+03  0.14482783859E+04  0.15131828160E+04  0.10100000352E+00 0. -1.
</event>
<event>
 5   0  0.2550616E-04  0.1813645E+04  0.7818609E-02  0.8699077E-01
        2   -1    0    0  501    0  0.00000000000E+00  0.00000000000E+00  0.12958091715E+04  0.12958091715E+04  0.25500000920E-02 0. -1.
       -2   -1    0    0    0  501  0.00000000000E+00  0.00000000000E+00 -0.63460506263E+03  0.63460506264E+03  0.25500000920E-02 0.  1.
    10030    2    1    2    0    0  0.00000000000E+00  0.00000000000E+00  0.66120410886E+03  0.19304142341E+04  0.18136450154E+04 0.  0.
        1    1    3    3  502    0 -0.42794461509E+03 -0.48458080642E+03 -0.34624214867E+03  0.73337492259E+03  0.50400001928E-02 0.  1.
       -1    1    3    3    0  502  0.42794461509E+03  0.48458080642E+03  0.10074462575E+04  0.11970393115E+04  0.50400001928E-02 0. -1.
</event>
<event>
 5   0  0.2393421E-04  0.1808661E+04  0.7818609E-02  0.8701707E-01
        2   -1    0    0  501    0  0.00000000000E+00  0.00000000000E+00  0.10011513372E+04  0.10011513372E+04  0.25500000920E-02 0.  1.
       -2   -1    0    0    0  501  0.00000000000E+00  0.00000000000E+00 -0.81687303122E+03  0.81687303123E+03  0.25500000920E-02 0. -1.
    10030    2    1    2    0    0  0.00000000000E+00  0.00000000000E+00  0.18427830596E+03  0.18180243684E+04  0.18086608610E+04 0.  0.
        5    1    3    3  502    0  0.31352999646E+03  0.47407160970E+02 -0.75914725729E+03  0.82272422223E+03  0.46999998093E+01 0. -1.
       -5    1    3    3    0  502 -0.31352999646E+03 -0.47407160970E+02  0.94342556326E+03  0.99530014618E+03  0.46999998093E+01 0.  1.
</event>
<event>
 5   0  0.1214723E-04  0.1791947E+04  0.7818609E-02  0.8710594E-01
       -1   -1    0    0    0  501  0.00000000000E+00  0.00000000000E+00  0.99320880255E+03  0.99320880256E+03  0.50400001928E-02 0. -1.
        1   -1    0    0  501    0  0.00000000000E+00  0.00000000000E+00 -0.80825722074E+03  0.80825722076E+03  0.50400001928E-02 0.  1.
    10030    2    1    2    0    0  0.00000000000E+00  0.00000000000E+00  0.18495158180E+03  0.18014660233E+04  0.17919466358E+04 0.  0.
        1    1    3    3  502    0 -0.18829552471E+02  0.79685474026E+03 -0.31888758872E+03  0.85849946033E+03  0.50400001928E-02 0. -1.
       -1    1    3    3    0  502  0.18829552471E+02 -0.79685474026E+03  0.50383917052E+03  0.94296656299E+03  0.50400001928E-02 0.  1.
</event>
<event>
 5   0  0.1308893E-04  0.1814546E+04  0.7818609E-02  0.8698602E-01
        1   -1    0    0  501    0  0.00000000000E+00  0.00000000000E+00  0.11289827175E+04  0.11289827175E+04  0.50400001928E-02 0. -1.
       -1   -1    0    0    0  501  0.00000000000E+00  0.00000000000E+00 -0.72910273918E+03  0.72910273920E+03  0.50400001928E-02 0.  1.
    10030    2    1    2    0    0  0.00000000000E+00  0.00000000000E+00  0.39987997835E+03  0.18580854567E+04  0.18145461051E+04 0.  0.
        4    1    3    3  502    0  0.50963064194E+03 -0.75046514159E+03  0.21517856443E+03  0.93232223369E+03  0.12699999809E+01 0.  1.
       -4    1    3    3    0  502 -0.50963064194E+03  0.75046514159E+03  0.18470141391E+03  0.92576322304E+03  0.12699999809E+01 0. -1.
</event>
<event>
 5   0  0.1308893E-04  0.1804358E+04  0.7818609E-02  0.8703986E-01
       -1   -1    0    0    0  501  0.00000000000E+00  0.00000000000E+00  0.46701843507E+03  0.46701843510E+03  0.50400001928E-02 0.  1.
        1   -1    0    0  501    0  0.00000000000E+00  0.00000000000E+00 -0.17428148781E+04  0.17428148781E+04  0.50400001928E-02 0. -1.
    10030    2    1    2    0    0  0.00000000000E+00  0.00000000000E+00 -0.12757964430E+04  0.22098333132E+04  0.18043576996E+04 0.  0.
        4    1    3    3  502    0 -0.18810848892E+03 -0.61237937752E+03  0.14009486742E+03  0.65576023850E+03  0.12699999809E+01 0. -1.
       -4    1    3    3    0  502  0.18810848892E+03  0.61237937752E+03 -0.14158913105E+04  0.15540730747E+04  0.12699999809E+01 0.  1.
</event>
<event>
 5   0  0.2569405E-04  0.1801626E+04  0.7818609E-02  0.8705435E-01
        2   -1    0    0  501    0  0.00000000000E+00  0.00000000000E+00  0.10270990546E+04  0.10270990546E+04  0.25500000920E-02 0.  1.
       -2   -1    0    0    0  501  0.00000000000E+00  0.00000000000E+00 -0.79005436095E+03  0.79005436096E+03  0.25500000920E-02 0. -1.
    10030    2    1    2    0    0  0.00000000000E+00  0.00000000000E+00  0.23704469361E+03  0.18171534155E+04  0.18016260291E+04 0.  0.
        2    1    3    3  502    0  0.65404026520E+03  0.56381656318E+03 -0.14021593472E+03  0.87482472175E+03  0.25500000920E-02 0. -1.
       -2    1    3    3    0  502 -0.65404026520E+03 -0.56381656318E+03  0.37726062833E+03  0.94232869378E+03  0.25500000920E-02 0.  1.
</event>
<event>
 5   0  0.2569405E-04  0.1796690E+04  0.7818609E-02  0.8708062E-01
        2   -1    0    0  501    0  0.00000000000E+00  0.00000000000E+00  0.12334887985E+04  0.12334887985E+04  0.25500000920E-02 0.  1.
       -2   -1    0    0    0  501  0.00000000000E+00  0.00000000000E+00 -0.65426125477E+03  0.65426125477E+03  0.25500000920E-02 0. -1.
    10030    2    1    2    0    0  0.00000000000E+00  0.00000000000E+00  0.57922754370E+03  0.18877500532E+04  0.17966902115E+04 0.  0.
        2    1    3    3  502    0  0.26572122843E+03  0.72342730423E+02 -0.60881621575E+03  0.66820537745E+03  0.25500000920E-02 0. -1.
       -2    1    3    3    0  502 -0.26572122843E+03 -0.72342730423E+02  0.11880437595E+04  0.12195446758E+04  0.25500000920E-02 0.  1.
</event>
<event>
 5   0  0.2417106E-04  0.1800621E+04  0.7818609E-02  0.8705969E-01
       -2   -1    0    0    0  501  0.00000000000E+00  0.00000000000E+00  0.41235244263E+03  0.41235244264E+03  0.25500000920E-02 0. -1.
        2   -1    0    0  501    0  0.00000000000E+00  0.00000000000E+00 -0.19656955554E+04  0.19656955554E+04  0.25500000920E-02 0.  1.
    10030    2    1    2    0    0  0.00000000000E+00  0.00000000000E+00 -0.15533431127E+04  0.23780479980E+04  0.18006214080E+04 0.  0.
        4    1    3    3  502    0 -0.14820285852E+03 -0.26055989546E+03 -0.18978535958E+04  0.19213811257E+04  0.12699999809E+01 0.  1.
       -4    1    3    3    0  502  0.14820285852E+03  0.26055989546E+03  0.34451048305E+03  0.45666687227E+03  0.12699999809E+01 0. -1.
</event>
<event>
 5   0  0.2393421E-04  0.1766678E+04  0.7818609E-02  0.8724223E-01
        2   -1    0    0  501    0  0.00000000000E+00  0.00000000000E+00  0.13011275677E+04  0.13011275677E+04  0.25500000920E-02 0.  1.
       -2   -1    0    0    0  501  0.00000000000E+00  0.00000000000E+00 -0.59970110110E+03  0.59970110110E+03  0.25500000920E-02 0. -1.
    10030    2    1    2    0    0  0.00000000000E+00  0.00000000000E+00  0.70142646662E+03  0.19008286688E+04  0.17666778258E+04 0.  0.
        5    1    3    3  502    0  0.14034401985E+03 -0.31867050975E+03 -0.52272927094E+03  0.62810454416E+03  0.46999998093E+01 0. -1.
       -5    1    3    3    0  502 -0.14034401985E+03  0.31867050975E+03  0.12241557376E+04  0.12727241247E+04  0.46999998093E+01 0.  1.
</event>
<event>
 5   0  0.2569405E-04  0.1779763E+04  0.7818609E-02  0.8717136E-01
        2   -1    0    0  501    0  0.00000000000E+00  0.00000000000E+00  0.17810210651E+04  0.17810210651E+04  0.25500000920E-02 0.  1.
       -2   -1    0    0    0  501  0.00000000000E+00  0.00000000000E+00 -0.44462660086E+03  0.44462660087E+03  0.25500000920E-02 0. -1.
    10030    2    1    2    0    0  0.00000000000E+00  0.00000000000E+00  0.13363944642E+04  0.22256476660E+04  0.17797632902E+04 0.  0.
        2    1    3    3  502    0  0.54701736520E+03 -0.57038527803E+03  0.15666775459E+03  0.80567496459E+03  0.25500000920E-02 0. -1.
       -2    1    3    3    0  502 -0.54701736520E+03  0.57038527803E+03  0.11797267097E+04  0.14199727014E+04  0.25500000920E-02 0.  1.
</event>
<event>
 5   0  0.2550616E-04  0.1748976E+04  0.7818609E-02  0.8733914E-01
        2   -1    0    0  501    0  0.00000000000E+00  0.00000000000E+00  0.12367125604E+04  0.12367125604E+04  0.25500000920E-02 0.  1.
       -2   -1    0    0    0  501  0.00000000000E+00  0.00000000000E+00 -0.61835685840E+03  0.61835685841E+03  0.25500000920E-02 0. -1.
    10030    2    1    2    0    0  0.00000000000E+00  0.00000000000E+00  0.61835570197E+03  0.18550694188E+04  0.17489764934E+04 0.  0.
        1    1    3    3  502    0  0.19400421507E+03  0.73222144430E+03 -0.15430000660E+03  0.77304228281E+03  0.50400001928E-02 0. -1.
       -1    1    3    3    0  502 -0.19400421507E+03 -0.73222144430E+03  0.77265570856E+03  0.10820271360E+04  0.50400001928E-02 0.  1.
</event>
<event>
 5   0  0.2417106E-04  0.1819150E+04  0.7818609E-02  0.8696181E-01
        2   -1    0    0  501    0  0.00000000000E+00  0.00000000000E+00  0.98448261277E+03  0.98448261277E+03  0.25500000920E-02 0.  1.
       -2   -1    0    0    0  501  0.00000000000E+00  0.00000000000E+00 -0.84036732408E+03  0.84036732409E+03  0.25500000920E-02 0. -1.
    10030    2    1    2    0    0  0.00000000000E+00  0.00000000000E+00  0.14411528868E+03  0.18248499369E+04  0.18191503719E+04 0.  0.
        4    1    3    3  502    0  0.14195655040E+03 -0.32183950876E+03 -0.76937495802E+03  0.84597385925E+03  0.12699999809E+01 0. -1.
       -4    1    3    3    0  502 -0.14195655040E+03  0.32183950876E+03  0.91349024670E+03  0.97887607761E+03  0.12699999809E+01 0.  1.
</event>
<event>
 5   0  0.2417106E-04  0.1809683E+04  0.7818609E-02  0.8701167E-01
       -2   -1    0    0    0  501  0.00000000000E+00  0.00000000000E+00  0.45213589865E+03  0.45213589866E+03  0.25500000920E-02 0. -1.
        2   -1    0    0  501    0  0.00000000000E+00  0.00000000000E+00 -0.18108221268E+04  0.18108221268E+04  0.25500000920E-02 0.  1.
    10030    2    1    2    0    0  0.00000000000E+00  0.00000000000E+00 -0.13586862282E+04  0.22629580255E+04  0.18096825021E+04 0.  0.
        4    1    3    3  502    0  0.66385242659E+03  0.22765167266E+03 -0.13935487034E+04  0.15602900147E+04  0.12699999809E+01 0.  1.
       -4    1    3    3    0  502 -0.66385242659E+03 -0.22765167266E+03  0.34862475184E+02  0.70266801082E+03  0.12699999809E+01 0. -1.
</event>
<event>
 5   0  0.2393421E-04  0.1907058E+04  0.7818609E-02  0.8651351E-01
        2   -1    0    0  501    0  0.00000000000E+00  0.00000000000E+00  0.10794071232E+04  0.10794071232E+04  0.25500000920E-02 0. -1.
       -2   -1    0    0    0  501  0.00000000000E+00  0.00000000000E+00 -0.84233093237E+03  0.84233093237E+03  0.25500000920E-02 0.  1.
    10030    2    1    2    0    0  0.00000000000E+00  0.00000000000E+00  0.23707619081E+03  0.19217380556E+04  0.19070584768E+04 0.  0.
        5    1    3    3  502    0 -0.15032363628E+02 -0.46036237209E+03  0.95985171492E+03  0.10646581096E+04  0.46999998093E+01 0. -1.
       -5    1    3    3    0  502  0.15032363628E+02  0.46036237209E+03 -0.72277552411E+03  0.85707994601E+03  0.46999998093E+01 0.  1.
</event>
<event>
 5   0  0.1253925E-04  0.1790179E+04  0.7818609E-02  0.8711540E-01
        1   -1    0    0  501    0  0.00000000000E+00  0.00000000000E+00  0.63399172900E+03  0.63399172902E+03  0.50400001928E-02 0. -1.
       -1   -1    0    0    0  501  0.00000000000E+00  0.00000000000E+00 -0.12637150122E+04  0.12637150122E+04  0.50400001928E-02 0.  1.
    10030    2    1    2    0    0  0.00000000000E+00  0.00000000000E+00 -0.62972328315E+03  0.18977067412E+04  0.17901786118E+04 0.  0.
        2    1    3    3  502    0 -0.88537485384E+03 -0.13079776723E+03 -0.30031988209E+03  0.94402792295E+03  0.25500000920E-02 0. -1.
       -2    1    3    3    0  502  0.88537485384E+03  0.13079776723E+03 -0.32940340106E+03  0.95367881824E+03  0.25500000920E-02 0.  1.
</event>
<event>
 5   0  0.2393421E-04  0.1784800E+04  0.7818609E-02  0.8714425E-01
       -2   -1    0    0    0  501  0.00000000000E+00  0.00000000000E+00  0.58374411096E+03  0.58374411097E+03  0.25500000920E-02 0.  1.
        2   -1    0    0  501    0  0.00000000000E+00  0.00000000000E+00 -0.13642584223E+04  0.13642584223E+04  0.25500000920E-02 0. -1.
    10030    2    1    2    0    0  0.00000000000E+00  0.00000000000E+00 -0.78051431138E+03  0.19480025333E+04  0.17848000671E+04 0.  0.
        5    1    3    3  502    0 -0.15889316519E+02 -0.37406533210E+03  0.49386221214E+03  0.61975746679E+03  0.46999998093E+01 0.  1.
       -5    1    3    3    0  502  0.15889316519E+02  0.37406533210E+03 -0.12743765235E+04  0.13282450665E+04  0.46999998093E+01 0. -1.
</event>
<event>
 5   0  0.2431811E-04  0.1886456E+04  0.7818609E-02  0.8661628E-01
        2   -1    0    0  501    0  0.00000000000E+00  0.00000000000E+00  0.14352358448E+04  0.14352358448E+04  0.25500000920E-02 0.  1.
       -2   -1    0    0    0  501  0.00000000000E+00  0.00000000000E+00 -0.61988355908E+03  0.61988355908E+03  0.25500000920E-02 0. -1.
    10030    2    1    2    0    0  0.00000000000E+00  0.00000000000E+00  0.81535228567E+03  0.20551194038E+04  0.18864560462E+04 0.  0.
        3    1    3    3  502    0 -0.46138949518E+03 -0.65118008303E+03  0.95538201881E+03  0.12448576541E+04  0.10100000352E+00 0.  1.
       -3    1    3    3    0  502  0.46138949518E+03  0.65118008303E+03 -0.14002973313E+03  0.81026174978E+03  0.10100000352E+00 0. -1.
</event>
<event>
 5   0  0.2393421E-04  0.1887087E+04  0.7818609E-02  0.8661311E-01
        2   -1    0    0  501    0  0.00000000000E+00  0.00000000000E+00  0.89536930455E+03  0.89536930456E+03  0.25500000920E-02 0.  1.
       -2   -1    0    0    0  501  0.00000000000E+00  0.00000000000E+00 -0.99430966596E+03  0.99430966596E+03  0.25500000920E-02 0. -1.
    10030    2    1    2    0    0  0.00000000000E+00  0.00000000000E+00 -0.98940361405E+02  0.18896789705E+04  0.18870870188E+04 0.  0.
        5    1    3    3  502    0 -0.69736461449E+03  0.49462105200E+03 -0.44912345032E+03  0.96576464744E+03  0.46999998093E+01 0.  1.
       -5    1    3    3    0  502  0.69736461449E+03 -0.49462105200E+03  0.35018308892E+03  0.92391432308E+03  0.46999998093E+01 0. -1.
</event>
<event>
 5   0  0.1214723E-04  0.1779699E+04  0.7818609E-02  0.8717170E-01
        1   -1    0    0  501    0  0.00000000000E+00  0.00000000000E+00  0.10797026092E+04  0.10797026092E+04  0.50400001928E-02 0.  1.
       -1   -1    0    0    0  501  0.00000000000E+00  0.00000000000E+00 -0.73338009810E+03  0.73338009811E+03  0.50400001928E-02 0. -1.
    10030    2    1    2    0    0  0.00000000000E+00  0.00000000000E+00  0.34632251107E+03  0.18130827073E+04  0.17796993066E+04 0.  0.
        1    1    3    3  502    0  0.54962684191E+03 -0.36609642545E+03  0.78076826384E+03  0.10226022394E+04  0.50400001928E-02 0.  1.
       -1    1    3    3    0  502 -0.54962684191E+03  0.36609642545E+03 -0.43444575277E+03  0.79048046794E+03  0.50400001928E-02 0. -1.
</event>
<event>
 5   0  0.1239119E-04  0.1788540E+04  0.7818609E-02  0.8712418E-01
        1   -1    0    0  501    0  0.00000000000E+00  0.00000000000E+00  0.10342438643E+04  0.10342438643E+04  0.50400001928E-02 0.  1.
       -1   -1    0    0    0  501  0.00000000000E+00  0.00000000000E+00 -0.77324022269E+03  0.77324022271E+03  0.50400001928E-02 0. -1.
    10030    2    1    2    0    0  0.00000000000E+00  0.00000000000E+00  0.26100364161E+03  0.18074840870E+04  0.17885401376E+04 0.  0.
        5    1    3    3  502    0  0.24591654755E+03  0.70127044159E+03 -0.37220204407E+03  0.83115078790E+03  0.46999998093E+01 0. -1.
       -5    1    3    3    0  502 -0.24591654755E+03 -0.70127044159E+03  0.63320568568E+03  0.97633329913E+03  0.46999998093E+01 0.  1.
</event>
<event>
 5   0  0.1239119E-04  0.1817951E+04  0.7818609E-02  0.8696811E-01
        1   -1    0    0  501    0  0.00000000000E+00  0.00000000000E+00  0.12302463767E+04  0.12302463767E+04  0.50400001928E-02 0. -1.
       -1   -1    0    0    0  501  0.00000000000E+00  0.00000000000E+00 -0.67160218945E+03  0.67160218947E+03  0.50400001928E-02 0.  1.
    10030    2    1    2    0    0  0.00000000000E+00  0.00000000000E+00  0.55864418721E+03  0.19018485661E+04  0.18179506706E+04 0.  0.
        5    1    3    3  502    0 -0.67860677309E+03 -0.24025912070E+03 -0.30125091275E+03  0.78038823671E+03  0.46999998093E+01 0.  1.
       -5    1    3    3    0  502  0.67860677309E+03  0.24025912070E+03  0.85989509996E+03  0.11214603294E+04  0.46999998093E+01 0. -1.
</event>
<event>
 5   0  0.2550616E-04  0.1777967E+04  0.7818609E-02  0.8718105E-01
       -2   -1    0    0    0  501  0.00000000000E+00  0.00000000000E+00  0.11881326115E+04  0.11881326115E+04  0.25500000920E-02 0. -1.
        2   -1    0    0  501    0  0.00000000000E+00  0.00000000000E+00 -0.66515471718E+03  0.66515471718E+03  0.25500000920E-02 0.  1.
    10030    2    1    2    0    0  0.00000000000E+00  0.00000000000E+00  0.52297789436E+03  0.18532873287E+04  0.17779673914E+04 0.  0.
        1    1    3    3  502    0 -0.72753892295E+03  0.48809165085E+03  0.10428324147E+03  0.88228189288E+03  0.50400001928E-02 0.  1.
       -1    1    3    3    0  502  0.72753892295E+03 -0.48809165085E+03  0.41869465290E+03  0.97100543584E+03  0.50400001928E-02 0. -1.
</event>
<event>
 5   0  0.2550616E-04  0.1806801E+04  0.7818609E-02  0.8702691E-01
       -2   -1    0    0    0  501  0.00000000000E+00  0.00000000000E+00  0.76115129205E+03  0.76115129205E+03  0.25500000920E-02 0. -1.
        2   -1    0    0  501    0  0.00000000000E+00  0.00000000000E+00 -0.10722342894E+04  0.10722342894E+04  0.25500000920E-02 0.  1.
    10030    2    1    2    0    0  0.00000000000E+00  0.00000000000E+00 -0.31108299733E+03  0.18333855814E+04  0.18068010568E+04 0.  0.
        1    1    3    3  502    0 -0.83441382029E+02  0.60578924003E+03  0.51921591138E+03  0.80220211308E+03  0.50400001928E-02 0. -1.
       -1    1    3    3    0  502  0.83441382029E+02 -0.60578924003E+03 -0.83029890871E+03  0.10311834684E+04  0.50400001928E-02 0.  1.
</event>
<event>
 5   0  0.1308893E-04  0.1778195E+04  0.7818609E-02  0.8717982E-01
        1   -1    0    0  501    0  0.00000000000E+00  0.00000000000E+00  0.99893925394E+03  0.99893925395E+03  0.50400001928E-02 0. -1.
       -1   -1    0    0    0  501  0.00000000000E+00  0.00000000000E+00 -0.79133389852E+03  0.79133389854E+03  0.50400001928E-02 0.  1.
    10030    2    1    2    0    0  0.00000000000E+00  0.00000000000E+00  0.20760535542E+03  0.17902731525E+04  0.17781951459E+04 0.  0.
        4    1    3    3  502    0 -0.65699867263E+03 -0.43452877636E+03  0.51895084584E+03  0.94327838236E+03  0.12699999809E+01 0. -1.
       -4    1    3    3    0  502  0.65699867263E+03  0.43452877636E+03 -0.31134549042E+03  0.84699477013E+03  0.12699999809E+01 0.  1.
</event>
<event>
 5   0  0.2569405E-04  0.1799692E+04  0.7818609E-02  0.8706463E-01
        2   -1    0    0  501    0  0.00000000000E+00  0.00000000000E+00  0.23560144276E+04  0.23560144276E+04  0.25500000920E-02 0.  1.
       -2   -1    0    0    0  501  0.00000000000E+00  0.00000000000E+00 -0.34368314836E+03  0.34368314837E+03  0.25500000920E-02 0. -1.
    10030    2    1    2    0    0  0.00000000000E+00  0.00000000000E+00  0.20123312792E+04  0.26996975759E+04  0.17996915914E+04 0.  0.
        2    1    3    3  502    0  0.41621986512E+03  0.39437099190E+03  0.20464911576E+04  0.21252984528E+04  0.25500000920E-02 0.  1.
       -2    1    3    3    0  502 -0.41621986512E+03 -0.39437099190E+03 -0.34159878367E+02  0.57439912315E+03  0.25500000920E-02 0. -1.
</event>
<event>
 5   0  0.9144875E-05  0.1797372E+04  0.7818609E-02  0.8707698E-01
       -3   -1    0    0    0  501  0.00000000000E+00  0.00000000000E+00  0.17053838579E+04  0.17053838609E+04  0.10100000352E+00 0. -1.
        3   -1    0    0  501    0  0.00000000000E+00  0.00000000000E+00 -0.47358062279E+03  0.47358063356E+03  0.10100000352E+00 0.  1.
    10030    2    1    2    0    0  0.00000000000E+00  0.00000000000E+00  0.12318032351E+04  0.21789644944E+04  0.17973722647E+04 0.  0.
        4    1    3    3  502    0 -0.14233135646E+03 -0.66265002975E+03  0.13313384906E+04  0.14939300742E+04  0.12699999809E+01 0. -1.
       -4    1    3    3    0  502  0.14233135646E+03  0.66265002975E+03 -0.99535255538E+02  0.68503442027E+03  0.12699999809E+01 0.  1.
</event>
<event>
 5   0  0.2393421E-04  0.1823932E+04  0.7818609E-02  0.8693675E-01
        2   -1    0    0  501    0  0.00000000000E+00  0.00000000000E+00  0.97098496889E+03  0.97098496889E+03  0.25500000920E-02 0.  1.
       -2   -1    0    0    0  501  0.00000000000E+00  0.00000000000E+00 -0.85653396243E+03  0.85653396243E+03  0.25500000920E-02 0. -1.
    10030    2    1    2    0    0  0.00000000000E+00  0.00000000000E+00  0.11445100646E+03  0.18275189313E+04  0.18239315808E+04 0.  0.
        5    1    3    3  502    0 -0.53693652813E+03  0.14618618302E+03 -0.66668306410E+03  0.86842364851E+03  0.46999998093E+01 0. -1.
       -5    1    3    3    0  502  0.53693652813E+03 -0.14618618302E+03  0.78113407055E+03  0.95909528281E+03  0.46999998093E+01 0.  1.
</event>
<event>
 5   0  0.2393421E-04  0.1791436E+04  0.7818609E-02  0.8710867E-01
        2   -1    0    0  501    0  0.00000000000E+00  0.00000000000E+00  0.19162559492E+04  0.19162559492E+04  0.25500000920E-02 0.  1.
       -2   -1    0    0    0  501  0.00000000000E+00  0.00000000000E+00 -0.41868667513E+03  0.41868667514E+03  0.25500000920E-02 0. -1.
    10030    2    1    2    0    0  0.00000000000E+00  0.00000000000E+00  0.14975692741E+04  0.23349426244E+04  0.17914361078E+04 0.  0.
        5    1    3    3  502    0  0.24186570843E+03 -0.40332273294E+03  0.17423764074E+04  0.18047342971E+04  0.46999998093E+01 0.  1.
       -5    1    3    3    0  502 -0.24186570843E+03  0.40332273294E+03 -0.24480713333E+03  0.53020832731E+03  0.46999998093E+01 0. -1.
</event>
<event>
 5   0  0.1214723E-04  0.1794309E+04  0.7818609E-02  0.8709332E-01
        1   -1    0    0  501    0  0.00000000000E+00  0.00000000000E+00  0.20390569496E+04  0.20390569496E+04  0.50400001928E-02 0. -1.
       -1   -1    0    0    0  501  0.00000000000E+00  0.00000000000E+00 -0.39473448006E+03  0.39473448009E+03  0.50400001928E-02 0.  1.
    10030    2    1    2    0    0  0.00000000000E+00  0.00000000000E+00  0.16443224695E+04  0.24337914297E+04  0.17943088751E+04 0.  0.
        1    1    3    3  502    0 -0.87997636428E+02 -0.35340034030E+03 -0.28995910530E+03  0.46552300407E+03  0.50400001928E-02 0.  1.
       -1    1    3    3    0  502  0.87997636428E+02  0.35340034030E+03  0.19342815748E+04  0.19682684256E+04  0.50400001928E-02 0. -1.
</event>
<event>
 5   0  0.1308893E-04  0.1811862E+04  0.7818609E-02  0.8700017E-01
       -1   -1    0    0    0  501  0.00000000000E+00  0.00000000000E+00  0.58304859688E+03  0.58304859690E+03  0.50400001928E-02 0. -1.
        1   -1    0    0  501    0  0.00000000000E+00  0.00000000000E+00 -0.14076207384E+04  0.14076207385E+04  0.50400001928E-02 0.  1.
    10030    2    1    2    0    0  0.00000000000E+00  0.00000000000E+00 -0.82457214156E+03  0.19906693354E+04  0.18118623530E+04 0.  0.
        4    1    3    3  502    0 -0.44237713888E+03  0.53062343092E+03 -0.10561680503E+04  0.12620425198E+04  0.12699999809E+01 0.  1.
       -4    1    3    3    0  502  0.44237713888E+03 -0.53062343092E+03  0.23159590876E+03  0.72862681553E+03  0.12699999809E+01 0. -1.
</event>
<event>
 5   0  0.2431811E-04  0.1813797E+04  0.7818609E-02  0.8698996E-01
        2   -1    0    0  501    0  0.00000000000E+00  0.00000000000E+00  0.81420938817E+03  0.81420938817E+03  0.25500000920E-02 0.  1.
       -2   -1    0    0    0  501  0.00000000000E+00  0.00000000000E+00 -0.10101395660E+04  0.10101395660E+04  0.25500000920E-02 0. -1.
    10030    2    1    2    0    0  0.00000000000E+00  0.00000000000E+00 -0.19593017780E+03  0.18243489541E+04  0.18137972521E+04 0.  0.
        3    1    3    3  502    0  0.19693412255E+02 -0.87745283561E+03 -0.32766569707E+03  0.93684370545E+03  0.10100000352E+00 0.  1.
       -3    1    3    3    0  502 -0.19693412255E+02  0.87745283561E+03  0.13173551927E+03  0.88750524869E+03  0.10100000352E+00 0. -1.
</event>
<event>
 5   0  0.2550616E-04  0.1809834E+04  0.7818609E-02  0.8701087E-01
        2   -1    0    0  501    0  0.00000000000E+00  0.00000000000E+00  0.11784242881E+04  0.11784242881E+04  0.25500000920E-02 0. -1.
       -2   -1    0    0    0  501  0.00000000000E+00  0.00000000000E+00 -0.69488976549E+03  0.69488976550E+03  0.25500000920E-02 0.  1.
    10030    2    1    2    0    0  0.00000000000E+00  0.00000000000E+00  0.48353452263E+03  0.18733140536E+04  0.18098342214E+04 0.  0.
        1    1    3    3  502    0  0.94457286614E+02 -0.63358064323E+02 -0.68746175183E+03  0.69680706337E+03  0.50400001928E-02 0.  1.
       -1    1    3    3    0  502 -0.94457286614E+02  0.63358064323E+02  0.11709962745E+04  0.11765069903E+04  0.50400001928E-02 0. -1.
</event>
<event>
 5   0  0.2393421E-04  0.1795968E+04  0.7818609E-02  0.8708446E-01
        2   -1    0    0  501    0  0.00000000000E+00  0.00000000000E+00  0.14847910145E+04  0.14847910145E+04  0.25500000920E-02 0.  1.
       -2   -1    0    0    0  501  0.00000000000E+00  0.00000000000E+00 -0.54309017620E+03  0.54309017621E+03  0.25500000920E-02 0. -1.
    10030    2    1    2    0    0  0.00000000000E+00  0.00000000000E+00  0.94170083826E+03  0.20278811907E+04  0.17959681664E+04 0.  0.
        5    1    3    3  502    0  0.90961891943E+02  0.80934316886E+03  0.43802101916E+02  0.81562929379E+03  0.46999998093E+01 0. -1.
       -5    1    3    3    0  502 -0.90961891943E+02 -0.80934316886E+03  0.89789873634E+03  0.12122518969E+04  0.46999998093E+01 0.  1.
</event>
<event>
 5   0  0.2393421E-04  0.1708107E+04  0.7818609E-02  0.8756754E-01
       -2   -1    0    0    0  501  0.00000000000E+00  0.00000000000E+00  0.38373418421E+03  0.38373418422E+03  0.25500000920E-02 0. -1.
        2   -1    0    0  501    0  0.00000000000E+00  0.00000000000E+00 -0.19008147634E+04  0.19008147634E+04  0.25500000920E-02 0.  1.
    10030    2    1    2    0    0  0.00000000000E+00  0.00000000000E+00 -0.15170805792E+04  0.22845489477E+04  0.17081072596E+04 0.  0.
        5    1    3    3  502    0  0.20246629189E+03 -0.68988637669E+03 -0.14206824029E+03  0.73289923386E+03  0.46999998093E+01 0. -1.
       -5    1    3    3    0  502 -0.20246629189E+03  0.68988637669E+03 -0.13750123389E+04  0.15516497138E+04  0.46999998093E+01 0.  1.
</event>
<event>
 5   0  0.2431811E-04  0.1811911E+04  0.7818609E-02  0.8699991E-01
        2   -1    0    0  501    0  0.00000000000E+00  0.00000000000E+00  0.12552456160E+04  0.12552456160E+04  0.25500000920E-02 0.  1.
       -2   -1    0    0    0  501  0.00000000000E+00  0.00000000000E+00 -0.65386068905E+03  0.65386068906E+03  0.25500000920E-02 0. -1.
    10030    2    1    2    0    0  0.00000000000E+00  0.00000000000E+00  0.60138492696E+03  0.19091063051E+04  0.18119114365E+04 0.  0.
        3    1    3    3  502    0 -0.84227184435E+03 -0.90099513604E+02 -0.37813712871E+02  0.84792079183E+03  0.10100000352E+00 0.  1.
       -3    1    3    3    0  502  0.84227184435E+03  0.90099513604E+02  0.63919863983E+03  0.10611855132E+04  0.10100000352E+00 0. -1.
</event>
<event>
 5   0  0.2417106E-04  0.1811238E+04  0.7818609E-02  0.8700346E-01
        2   -1    0    0  501    0  0.00000000000E+00  0.00000000000E+00  0.14036260004E+04  0.14036260004E+04  0.25500000920E-02 0. -1.
       -2   -1    0    0    0  501  0.00000000000E+00  0.00000000000E+00 -0.58430481850E+03  0.58430481851E+03  0.25500000920E-02 0.  1.
    10030    2    1    2    0    0  0.00000000000E+00  0.00000000000E+00  0.81932118191E+03  0.19879308189E+04  0.18112376271E+04 0.  0.
        4    1    3    3  502    0  0.43823898793E+03  0.71449449339E+03  0.33297181780E+02  0.83884808329E+03  0.12699999809E+01 0.  1.
       -4    1    3    3    0  502 -0.43823898793E+03 -0.71449449339E+03  0.78602400013E+03  0.11490827356E+04  0.12699999809E+01 0. -1.
</event>
<event>
 5   0  0.1239119E-04  0.1782593E+04  0.7818609E-02  0.8715612E-01
       -1   -1    0    0    0  501  0.00000000000E+00  0.00000000000E+00  0.68346296101E+03  0.68346296103E+03  0.50400001928E-02 0. -1.
        1   -1    0    0  501    0  0.00000000000E+00  0.00000000000E+00 -0.11623296710E+04  0.11623296710E+04  0.50400001928E-02 0.  1.
    10030    2    1    2    0    0  0.00000000000E+00  0.00000000000E+00 -0.47886671000E+03  0.18457926320E+04  0.17825928067E+04 0.  0.
        5    1    3    3  502    0 -0.61389765475E+03 -0.56666377059E+03 -0.56093974816E+03  0.10063069365E+04  0.46999998093E+01 0. -1.
       -5    1    3    3    0  502  0.61389765475E+03  0.56666377059E+03  0.82073038161E+02  0.83948569553E+03  0.46999998093E+01 0.  1.
</event>
<event>
 5   0  0.2431811E-04  0.1812145E+04  0.7818609E-02  0.8699868E-01
       -2   -1    0    0    0  501  0.00000000000E+00  0.00000000000E+00  0.11227743668E+04  0.11227743668E+04  0.25500000920E-02 0. -1.
        2   -1    0    0  501    0  0.00000000000E+00  0.00000000000E+00 -0.73119518506E+03  0.73119518506E+03  0.25500000920E-02 0.  1.
    10030    2    1    2    0    0  0.00000000000E+00  0.00000000000E+00  0.39157918170E+03  0.18539695518E+04  0.18121448186E+04 0.  0.
        3    1    3    3  502    0 -0.37648317263E+03 -0.63956977755E+03 -0.33599381879E+03  0.81466615008E+03  0.10100000352E+00 0.  1.
       -3    1    3    3    0  502  0.37648317263E+03  0.63956977755E+03  0.72757300049E+03  0.10393034017E+04  0.10100000352E+00 0. -1.
</event>
<event>
 5   0  0.2417106E-04  0.1816316E+04  0.7818609E-02  0.8697671E-01
       -2   -1    0    0    0  501  0.00000000000E+00  0.00000000000E+00  0.86693944014E+03  0.86693944015E+03  0.25500000920E-02 0.  1.
        2   -1    0    0  501    0  0.00000000000E+00  0.00000000000E+00 -0.95133600041E+03  0.95133600041E+03  0.25500000920E-02 0. -1.
    10030    2    1    2    0    0  0.00000000000E+00  0.00000000000E+00 -0.84396560263E+02  0.18182754406E+04  0.18163157210E+04 0.  0.
        4    1    3    3  502    0  0.48967058084E+03 -0.64457078132E+03 -0.45434665140E+03  0.92826788289E+03  0.12699999809E+01 0. -1.
       -4    1    3    3    0  502 -0.48967058084E+03  0.64457078132E+03  0.36995009114E+03  0.89000755766E+03  0.12699999809E+01 0.  1.
</event>
<event>
 5   0  0.2550616E-04  0.1794038E+04  0.7818609E-02  0.8709476E-01
       -2   -1    0    0    0  501  0.00000000000E+00  0.00000000000E+00  0.27742867594E+03  0.27742867595E+03  0.25500000920E-02 0.  1.
        2   -1    0    0  501    0  0.00000000000E+00  0.00000000000E+00 -0.29003610569E+04  0.29003610569E+04  0.25500000920E-02 0. -1.
    10030    2    1    2    0    0  0.00000000000E+00  0.00000000000E+00 -0.26229323810E+04  0.31777897329E+04  0.17940382691E+04 0.  0.
        1    1    3    3  502    0 -0.26160516592E+03 -0.42184132636E+03  0.11991734735E+02  0.49651905219E+03  0.50400001928E-02 0.  1.
       -1    1    3    3    0  502  0.26160516592E+03  0.42184132636E+03 -0.26349241157E+04  0.26812706807E+04  0.50400001928E-02 0. -1.
</event>
<event>
 5   0  0.1308893E-04  0.1832764E+04  0.7818609E-02  0.8689068E-01
        1   -1    0    0  501    0  0.00000000000E+00  0.00000000000E+00  0.92833820511E+03  0.92833820512E+03  0.50400001928E-02 0. -1.
       -1   -1    0    0    0  501  0.00000000000E+00  0.00000000000E+00 -0.90457931384E+03  0.90457931386E+03  0.50400001928E-02 0.  1.
    10030    2    1    2    0    0  0.00000000000E+00  0.00000000000E+00  0.23758891262E+02  0.18329175190E+04  0.18327635272E+04 0.  0.
        4    1    3    3  502    0  0.21390802080E+03 -0.16153484571E+03 -0.86449537286E+03  0.90509889534E+03  0.12699999809E+01 0.  1.
       -4    1    3    3    0  502 -0.21390802080E+03  0.16153484571E+03  0.88825426412E+03  0.92781862364E+03  0.12699999809E+01 0. -1.
</event>
<event>
 5   0  0.2431811E-04  0.1786471E+04  0.7818609E-02  0.8713527E-01
        2   -1    0    0  501    0  0.00000000000E+00  0.00000000000E+00  0.19177350708E+04  0.19177350708E+04  0.25500000920E-02 0.  1.
       -2   -1    0    0    0  501  0.00000000000E+00  0.00000000000E+00 -0.41604777232E+03  0.41604777233E+03  0.25500000920E-02 0. -1.
    10030    2    1    2    0    0  0.00000000000E+00  0.00000000000E+00  0.15016872985E+04  0.23337828431E+04  0.17864707153E+04 0.  0.
        3    1    3    3  502    0 -0.22979620390E+03 -0.20840631137E+03  0.18450987708E+04  0.18709967852E+04  0.10100000352E+00 0.  1.
       -3    1    3    3    0  502  0.22979620390E+03  0.20840631137E+03 -0.34341147230E+03  0.46278605797E+03  0.10100000352E+00 0. -1.
</event>
<event>
 5   0  0.2393421E-04  0.1818038E+04  0.7818609E-02  0.8696765E-01
        2   -1    0    0  501    0  0.00000000000E+00  0.00000000000E+00  0.16353945795E+04  0.16353945795E+04  0.25500000920E-02 0. -1.
       -2   -1    0    0    0  501  0.00000000000E+00  0.00000000000E+00 -0.50526986000E+03  0.50526986001E+03  0.25500000920E-02 0.  1.
    10030    2    1    2    0    0  0.00000000000E+00  0.00000000000E+00  0.11301247195E+04  0.21406644395E+04  0.18180380527E+04 0.  0.
        5    1    3    3  502    0 -0.44940053653E+02  0.13327676153E+03  0.16224904087E+04  0.16285820580E+04  0.46999998093E+01 0. -1.
       -5    1    3    3    0  502  0.44940053653E+02 -0.13327676153E+03 -0.49236568914E+03  0.51208238148E+03  0.46999998093E+01 0.  1.
</event>
<event>
 5   0  0.1330225E-04  0.1802444E+04  0.7818609E-02  0.8705001E-01
       -1   -1    0    0    0  501  0.00000000000E+00  0.00000000000E+00  0.52893882415E+03  0.52893882417E+03  0.50400001928E-02 0.  1.
        1   -1    0    0  501    0  0.00000000000E+00  0.00000000000E+00 -0.15355292363E+04  0.15355292363E+04  0.50400001928E-02 0. -1.
    10030    2    1    2    0    0  0.00000000000E+00  0.00000000000E+00 -0.10065904121E+04  0.20644680605E+04  0.18024439284E+04 0.  0.
        3    1    3    3  502    0  0.69923773449E+03 -0.99938390842E+02  0.13778547494E+03  0.71965682002E+03  0.10100000352E+00 0.  1.
       -3    1    3    3    0  502 -0.69923773449E+03  0.99938390842E+02 -0.11443758871E+04  0.13448112404E+04  0.10100000352E+00 0. -1.
</event>
<event>
 5   0  0.9144875E-05  0.1795255E+04  0.7818609E-02  0.8708827E-01
        3   -1    0    0  501    0  0.00000000000E+00  0.00000000000E+00  0.12633812290E+04  0.12633812331E+04  0.10100000352E+00 0.  1.
       -3   -1    0    0    0  501  0.00000000000E+00  0.00000000000E+00 -0.63776085290E+03  0.63776086089E+03  0.10100000352E+00 0. -1.
    10030    2    1    2    0    0  0.00000000000E+00  0.00000000000E+00  0.62562037615E+03  0.19011420940E+04  0.17952549698E+04 0.  0.
        5    1    3    3  502    0 -0.56802066511E+03 -0.12043184085E+03  0.10376997346E+04  0.11891148530E+04  0.46999998093E+01 0.  1.
       -5    1    3    3    0  502  0.56802066511E+03  0.12043184085E+03 -0.41207935847E+03  0.71202724102E+03  0.46999998093E+01 0. -1.
</event>
<event>
 5   0  0.1308893E-04  0.1652971E+04  0.7818609E-02  0.8788651E-01
       -1   -1    0    0    0  501  0.00000000000E+00  0.00000000000E+00  0.74827150971E+03  0.74827150973E+03  0.50400001928E-02 0.  1.
        1   -1    0    0  501    0  0.00000000000E+00  0.00000000000E+00 -0.91287463931E+03  0.91287463932E+03  0.50400001928E-02 0. -1.
    10030    2    1    2    0    0  0.00000000000E+00  0.00000000000E+00 -0.16460312960E+03  0.16611461491E+04  0.16529707615E+04 0.  0.
        4    1    3    3  502    0  0.41604543188E+03 -0.35082874314E+03 -0.70739232974E+03  0.89251337776E+03  0.12699999809E+01 0. -1.
       -4    1    3    3    0  502 -0.41604543188E+03  0.35082874314E+03  0.54278920014E+03  0.76863277129E+03  0.12699999809E+01 0.  1.
</event>
<event>
 5   0  0.2417106E-04  0.1818305E+04  0.7818609E-02  0.8696625E-01
        2   -1    0    0  501    0  0.00000000000E+00  0.00000000000E+00  0.13962097462E+04  0.13962097462E+04  0.25500000920E-02 0.  1.
       -2   -1    0    0    0  501  0.00000000000E+00  0.00000000000E+00 -0.59200181741E+03  0.59200181741E+03  0.25500000920E-02 0. -1.
    10030    2    1    2    0    0  0.00000000000E+00  0.00000000000E+00  0.80420792875E+03  0.19882115636E+04  0.18183054828E+04 0.  0.
        4    1    3    3  502    0  0.55995967382E+03 -0.27104086778E+03  0.11270313515E+04  0.12873302873E+04  0.12699999809E+01 0.  1.
       -4    1    3    3    0  502 -0.55995967382E+03  0.27104086778E+03 -0.32282342276E+03  0.70088127632E+03  0.12699999809E+01 0. -1.
</event>
<event>
 5   0  0.1330225E-04  0.1793906E+04  0.7818609E-02  0.8709547E-01
       -1   -1    0    0    0  501  0.00000000000E+00  0.00000000000E+00  0.80917715148E+03  0.80917715150E+03  0.50400001928E-02 0. -1.
        1   -1    0    0  501    0  0.00000000000E+00  0.00000000000E+00 -0.99424993190E+03  0.99424993191E+03  0.50400001928E-02 0.  1.
    10030    2    1    2    0    0  0.00000000000E+00  0.00000000000E+00 -0.18507278041E+03  0.18034270834E+04  0.17939056026E+04 0.  0.
        3    1    3    3  502    0 -0.29893435134E+03  0.77322365845E+03 -0.43682711256E+03  0.93704562795E+03  0.10100000352E+00 0.  1.
       -3    1    3    3    0  502  0.29893435134E+03 -0.77322365845E+03  0.25175433215E+03  0.86638145545E+03  0.10100000352E+00 0. -1.
</event>
<event>
 5   0  0.2393421E-04  0.1796295E+04  0.7818609E-02  0.8708272E-01
       -2   -1    0    0    0  501  0.00000000000E+00  0.00000000000E+00  0.71656498122E+03  0.71656498122E+03  0.25500000920E-02 0. -1.
        2   -1    0    0  501    0  0.00000000000E+00  0.00000000000E+00 -0.11257442546E+04  0.11257442546E+04  0.25500000920E-02 0.  1.
    10030    2    1    2    0    0  0.00000000000E+00  0.00000000000E+00 -0.40917927335E+03  0.18423092358E+04  0.17962949765E+04 0.  0.
        5    1    3    3  502    0  0.67171787394E+03 -0.54294695332E+03 -0.45717149484E+03  0.97725337655E+03  0.46999998093E+01 0.  1.
       -5    1    3    3    0  502 -0.67171787394E+03  0.54294695332E+03  0.47992221482E+02  0.86505585925E+03  0.46999998093E+01 0. -1.
</event>
<event>
 5   0  0.2569405E-04  0.1791552E+04  0.7818609E-02  0.8710805E-01
        2   -1    0    0  501    0  0.00000000000E+00  0.00000000000E+00  0.17182678338E+04  0.17182678338E+04  0.25500000920E-02 0. -1.
       -2   -1    0    0    0  501  0.00000000000E+00  0.00000000000E+00 -0.46699040999E+03  0.46699041000E+03  0.25500000920E-02 0.  1.
    10030    2    1    2    0    0  0.00000000000E+00  0.00000000000E+00  0.12512774238E+04  0.21852582438E+04  0.17915519531E+04 0.  0.
        2    1    3    3  502    0  0.70703947734E+03 -0.28827287924E+03  0.54291504260E+02  0.76547608902E+03  0.25500000920E-02 0.  1.
       -2    1    3    3    0  502 -0.70703947734E+03  0.28827287924E+03  0.11969859196E+04  0.14197821548E+04  0.25500000920E-02 0. -1.
</event>
<event>
 5   0  0.2393421E-04  0.1801436E+04  0.7818609E-02  0.8705536E-01
        2   -1    0    0  501    0  0.00000000000E+00  0.00000000000E+00  0.98229121681E+03  0.98229121681E+03  0.25500000920E-02 0. -1.
       -2   -1    0    0    0  501  0.00000000000E+00  0.00000000000E+00 -0.82591885204E+03  0.82591885205E+03  0.25500000920E-02 0.  1.
    10030    2    1    2    0    0  0.00000000000E+00  0.00000000000E+00  0.15637236477E+03  0.18082100689E+04  0.18014359097E+04 0.  0.
        5    1    3    3  502    0 -0.56483150341E+03 -0.56612966990E+03  0.49415171182E+03  0.94007735569E+03  0.46999998093E+01 0. -1.
       -5    1    3    3    0  502  0.56483150341E+03  0.56612966990E+03 -0.33777934705E+03  0.86813271317E+03  0.46999998093E+01 0.  1.
</event>
<event>
 5   0  0.1239119E-04  0.1796429E+04  0.7818609E-02  0.8708201E-01
       -1   -1    0    0    0  501  0.00000000000E+00  0.00000000000E+00  0.12216344501E+04  0.12216344501E+04  0.50400001928E-02 0. -1.
        1   -1    0    0  501    0  0.00000000000E+00  0.00000000000E+00 -0.66041778030E+03  0.66041778032E+03  0.50400001928E-02 0.  1.
    10030    2    1    2    0    0  0.00000000000E+00  0.00000000000E+00  0.56121666981E+03  0.18820522305E+04  0.17964288040E+04 0.  0.
        5    1    3    3  502    0 -0.73012405249E+03  0.49050853218E+02 -0.26506216194E+03  0.77831045086E+03  0.46999998093E+01 0.  1.
       -5    1    3    3    0  502  0.73012405249E+03 -0.49050853218E+02  0.82627883175E+03  0.11037417796E+04  0.46999998093E+01 0. -1.
</event>
<event>
 5   0  0.1308893E-04  0.1833753E+04  0.7818609E-02  0.8688553E-01
        1   -1    0    0  501    0  0.00000000000E+00  0.00000000000E+00  0.64041371599E+03  0.64041371601E+03  0.50400001928E-02 0. -1.
       -1   -1    0    0    0  501  0.00000000000E+00  0.00000000000E+00 -0.13126865340E+04  0.13126865340E+04  0.50400001928E-02 0.  1.
    10030    2    1    2    0    0  0.00000000000E+00  0.00000000000E+00 -0.67227281796E+03  0.19531002500E+04  0.18337529399E+04 0.  0.
        4    1    3    3  502    0  0.51114821904E+03  0.44486959204E+03  0.32170204057E+03  0.75011683860E+03  0.12699999809E+01 0.  1.
       -4    1    3    3    0  502 -0.51114821904E+03 -0.44486959204E+03 -0.99397485853E+03  0.12029834114E+04  0.12699999809E+01 0. -1.
</event>
<event>
 5   0  0.2431811E-04  0.1807588E+04  0.7818609E-02  0.8702275E-01
        2   -1    0    0  501    0  0.00000000000E+00  0.00000000000E+00  0.68650628762E+03  0.68650628762E+03  0.25500000920E-02 0.  1.
       -2   -1    0    0    0  501  0.00000000000E+00  0.00000000000E+00 -0.11898561500E+04  0.11898561500E+04  0.25500000920E-02 0. -1.
    10030    2    1    2    0    0  0.00000000000E+00  0.00000000000E+00 -0.50334986238E+03  0.18763624376E+04  0.18075881482E+04 0.  0.
        3    1    3    3  502    0 -0.84175070316E+03 -0.30257481308E+03 -0.11733716280E+03  0.90214399281E+03  0.10100000352E+00 0.  1.
       -3    1    3    3    0  502  0.84175070316E+03  0.30257481308E+03 -0.38601269958E+03  0.97421844482E+03  0.10100000352E+00 0. -1.
</event>
<event>
 5   0  0.1253925E-04  0.1765826E+04  0.7818609E-02  0.8724687E-01
       -1   -1    0    0    0  501  0.00000000000E+00  0.00000000000E+00  0.38642799873E+03  0.38642799876E+03  0.50400001928E-02 0.  1.
        1   -1    0    0  501    0  0.00000000000E+00  0.00000000000E+00 -0.20172856582E+04  0.20172856582E+04  0.50400001928E-02 0. -1.
    10030    2    1    2    0    0  0.00000000000E+00  0.00000000000E+00 -0.16308576595E+04  0.24037136570E+04  0.17658263333E+04 0.  0.
        2    1    3    3  502    0  0.85744069787E+03 -0.17005127919E+03 -0.98442925469E+03  0.13165192537E+04  0.25500000920E-02 0.  1.
       -2    1    3    3    0  502 -0.85744069787E+03  0.17005127919E+03 -0.64642840476E+03  0.10871944032E+04  0.25500000920E-02 0. -1.
</event>
<event>
 5   0  0.2417106E-04  0.1815380E+04  0.7818609E-02  0.8698163E-01
       -2   -1    0    0    0  501  0.00000000000E+00  0.00000000000E+00  0.43477741429E+03  0.43477741430E+03  0.25500000920E-02 0. -1.
        2   -1    0    0  501    0  0.00000000000E+00  0.00000000000E+00 -0.18949960554E+04  0.18949960554E+04  0.25500000920E-02 0.  1.
    10030    2    1    2    0    0  0.00000000000E+00  0.00000000000E+00 -0.14602186411E+04  0.23297734697E+04  0.18153803845E+04 0.  0.
        4    1    3    3  502    0  0.66918369241E+03  0.58176581673E+03 -0.48112038348E+03  0.10088293790E+04  0.12699999809E+01 0.  1.
       -4    1    3    3    0  502 -0.66918369241E+03 -0.58176581673E+03 -0.97909825763E+03  0.13209440907E+04  0.12699999809E+01 0. -1.
</event>
<event>
 5   0  0.1308893E-04  0.1787135E+04  0.7818609E-02  0.8713171E-01
       -1   -1    0    0    0  501  0.00000000000E+00  0.00000000000E+00  0.80667661211E+03  0.80667661213E+03  0.50400001928E-02 0.  1.
        1   -1    0    0  501    0  0.00000000000E+00  0.00000000000E+00 -0.98981835761E+03  0.98981835763E+03  0.50400001928E-02 0. -1.
    10030    2    1    2    0    0  0.00000000000E+00  0.00000000000E+00 -0.18314174550E+03  0.17964949698E+04  0.17871354950E+04 0.  0.
        4    1    3    3  502    0 -0.70419707026E+03  0.32446894403E+03  0.35492656070E+03  0.85272978474E+03  0.12699999809E+01 0.  1.
       -4    1    3    3    0  502  0.70419707026E+03 -0.32446894403E+03 -0.53806830620E+03  0.94376518501E+03  0.12699999809E+01 0. -1.
</event>
<event>
 5   0  0.1214723E-04  0.1762466E+04  0.7818609E-02  0.8726518E-01
       -1   -1    0    0    0  501  0.00000000000E+00  0.00000000000E+00  0.44606112568E+03  0.44606112570E+03  0.50400001928E-02 0.  1.
        1   -1    0    0  501    0  0.00000000000E+00  0.00000000000E+00 -0.17409537912E+04  0.17409537912E+04  0.50400001928E-02 0. -1.
    10030    2    1    2    0    0  0.00000000000E+00  0.00000000000E+00 -0.12948926656E+04  0.21870149169E+04  0.17624662356E+04 0.  0.
        1    1    3    3  502    0  0.62177928376E+03 -0.38930943907E+02 -0.14208329705E+04  0.15514159423E+04  0.50400001928E-02 0. -1.
       -1    1    3    3    0  502 -0.62177928376E+03  0.38930943907E+02  0.12594030491E+03  0.63559897462E+03  0.50400001928E-02 0.  1.
</event>
<event>
 5   0  0.1239119E-04  0.1796191E+04  0.7818609E-02  0.8708328E-01
       -1   -1    0    0    0  501  0.00000000000E+00  0.00000000000E+00  0.82742292816E+03  0.82742292818E+03  0.50400001928E-02 0.  1.
        1   -1    0    0  501    0  0.00000000000E+00  0.00000000000E+00 -0.97480444786E+03  0.97480444787E+03  0.50400001928E-02 0. -1.
    10030    2    1    2    0    0  0.00000000000E+00  0.00000000000E+00 -0.14738151969E+03  0.18022273760E+04  0.17961910262E+04 0.  0.
        5    1    3    3  502    0 -0.43578830960E+01  0.70240444264E+03  0.48779909526E+03  0.85519649176E+03  0.46999998093E+01 0.  1.
       -5    1    3    3    0  502  0.43578830960E+01 -0.70240444264E+03 -0.63518061496E+03  0.94703088429E+03  0.46999998093E+01 0. -1.
</event>
<event>
 5   0  0.1330225E-04  0.1808397E+04  0.7818609E-02  0.8701847E-01
       -1   -1    0    0    0  501  0.00000000000E+00  0.00000000000E+00  0.44347370104E+03  0.44347370107E+03  0.50400001928E-02 0. -1.
        1   -1    0    0  501    0  0.00000000000E+00  0.00000000000E+00 -0.18435706732E+04  0.18435706732E+04  0.50400001928E-02 0.  1.
    10030    2    1    2    0    0  0.00000000000E+00  0.00000000000E+00 -0.14000969722E+04  0.22870443743E+04  0.18083972015E+04 0.  0.
        3    1    3    3  502    0  0.18168540570E+03  0.67397280791E+03 -0.14269109698E+04  0.15884973586E+04  0.10100000352E+00 0.  1.
       -3    1    3    3    0  502 -0.18168540570E+03 -0.67397280791E+03  0.26813997607E+02  0.69854701568E+03  0.10100000352E+00 0. -1.
</event>
<event>
 5   0  0.2569405E-04  0.1799854E+04  0.7818609E-02  0.8706377E-01
       -2   -1    0    0    0  501  0.00000000000E+00  0.00000000000E+00  0.12572936171E+04  0.12572936171E+04  0.25500000920E-02 0.  1.
        2   -1    0    0  501    0  0.00000000000E+00  0.00000000000E+00 -0.64413606698E+03  0.64413606698E+03  0.25500000920E-02 0. -1.
    10030    2    1    2    0    0  0.00000000000E+00  0.00000000000E+00  0.61315755012E+03  0.19014296841E+04  0.17998535113E+04 0.  0.
        2    1    3    3  502    0  0.82878152879E+03  0.33585960225E+03  0.41320905728E+03  0.98510010654E+03  0.25500000920E-02 0.  1.
       -2    1    3    3    0  502 -0.82878152879E+03 -0.33585960225E+03  0.19994849284E+03  0.91632957754E+03  0.25500000920E-02 0. -1.
</event>
<event>
 5   0  0.1308893E-04  0.1771712E+04  0.7818609E-02  0.8721489E-01
       -1   -1    0    0    0  501  0.00000000000E+00  0.00000000000E+00  0.10036657363E+04  0.10036657363E+04  0.50400001928E-02 0.  1.
        1   -1    0    0  501    0  0.00000000000E+00  0.00000000000E+00 -0.78187446813E+03  0.78187446815E+03  0.50400001928E-02 0. -1.
    10030    2    1    2    0    0  0.00000000000E+00  0.00000000000E+00  0.22179126815E+03  0.17855402044E+04  0.17717117302E+04 0.  0.
        4    1    3    3  502    0 -0.13594826833E+03 -0.49255757488E+03 -0.61838500178E+03  0.80218234807E+03  0.12699999809E+01 0. -1.
       -4    1    3    3    0  502  0.13594826833E+03  0.49255757488E+03  0.84017626992E+03  0.98335785637E+03  0.12699999809E+01 0.  1.
</event>
<event>
 5   0  0.2431811E-04  0.1840875E+04  0.7818609E-02  0.8684859E-01
       -2   -1    0    0    0  501  0.00000000000E+00  0.00000000000E+00  0.13481589898E+04  0.13481589898E+04  0.25500000920E-02 0.  1.
        2   -1    0    0  501    0  0.00000000000E+00  0.00000000000E+00 -0.62841666633E+03  0.62841666633E+03  0.25500000920E-02 0. -1.
    10030    2    1    2    0    0  0.00000000000E+00  0.00000000000E+00  0.71974232349E+03  0.19765756561E+04  0.18408754201E+04 0.  0.
        3    1    3    3  502    0  0.54616779856E+03  0.35443543293E+03  0.10584313887E+04  0.12426587444E+04  0.10100000352E+00 0.  1.
       -3    1    3    3    0  502 -0.54616779856E+03 -0.35443543293E+03 -0.33868906517E+03  0.73391691176E+03  0.10100000352E+00 0. -1.
</event>
<event>
 5   0  0.2417106E-04  0.1817426E+04  0.7818609E-02  0.8697087E-01
       -2   -1    0    0    0  501  0.00000000000E+00  0.00000000000E+00  0.38355568364E+03  0.38355568365E+03  0.25500000920E-02 0.  1.
        2   -1    0    0  501    0  0.00000000000E+00  0.00000000000E+00 -0.21529049432E+04  0.21529049432E+04  0.25500000920E-02 0. -1.
    10030    2    1    2    0    0  0.00000000000E+00  0.00000000000E+00 -0.17693492596E+04  0.25364606269E+04  0.18174255719E+04 0.  0.
        4    1    3    3  502    0 -0.47843421052E+03 -0.14307913898E+03 -0.19442414398E+04  0.20073483312E+04  0.12699999809E+01 0. -1.
       -4    1    3    3    0  502  0.47843421052E+03  0.14307913898E+03  0.17489218021E+03  0.52911229564E+03  0.12699999809E+01 0.  1.
</event>
<event>
 5   0  0.1214723E-04  0.1808412E+04  0.7818609E-02  0.8701839E-01
       -1   -1    0    0    0  501  0.00000000000E+00  0.00000000000E+00  0.14653944436E+04  0.14653944436E+04  0.50400001928E-02 0.  1.
        1   -1    0    0  501    0  0.00000000000E+00  0.00000000000E+00 -0.55793057979E+03  0.55793057981E+03  0.50400001928E-02 0. -1.
    10030    2    1    2    0    0  0.00000000000E+00  0.00000000000E+00  0.90746386384E+03  0.20233250234E+04  0.18084118686E+04 0.  0.
        1    1    3    3  502    0  0.54281906456E+03  0.59185328533E+03  0.91861739377E+03  0.12201642366E+04  0.50400001928E-02 0.  1.
       -1    1    3    3    0  502 -0.54281906456E+03 -0.59185328533E+03 -0.11153529929E+02  0.80316078681E+03  0.50400001928E-02 0. -1.
</event>
<event>
 5   0  0.2393421E-04  0.2093958E+04  0.7818609E-02  0.8563910E-01
        2   -1    0    0  501    0  0.00000000000E+00  0.00000000000E+00  0.20678774130E+04  0.20678774130E+04  0.25500000920E-02 0.  1.
       -2   -1    0    0    0  501  0.00000000000E+00  0.00000000000E+00 -0.53009169975E+03  0.53009169975E+03  0.25500000920E-02 0. -1.
    10030    2    1    2    0    0  0.00000000000E+00  0.00000000000E+00  0.15377857132E+04  0.25979691127E+04  0.20939576430E+04 0.  0.
        5    1    3    3  502    0 -0.39445752436E+03 -0.57833935323E+03 -0.19699626684E+03  0.72725701452E+03  0.46999998093E+01 0. -1.
       -5    1    3    3    0  502  0.39445752436E+03  0.57833935323E+03  0.17347819801E+04  0.18707120982E+04  0.46999998093E+01 0.  1.
</event>
<event>
 5   0  0.9144875E-05  0.1798862E+04  0.7818609E-02  0.8706905E-01
        3   -1    0    0  501    0  0.00000000000E+00  0.00000000000E+00  0.45459960210E+03  0.45459961332E+03  0.10100000352E+00 0. -1.
       -3   -1    0    0    0  501  0.00000000000E+00  0.00000000000E+00 -0.17795351619E+04  0.17795351647E+04  0.10100000352E+00 0.  1.
    10030    2    1    2    0    0  0.00000000000E+00  0.00000000000E+00 -0.13249355598E+04  0.22341347780E+04  0.17988618538E+04 0.  0.
        3    1    3    3  502    0 -0.55970351271E+03 -0.55280200227E+03 -0.12093709757E+03  0.79591699795E+03  0.10100000352E+00 0. -1.
       -3    1    3    3    0  502  0.55970351271E+03  0.55280200227E+03 -0.12039984622E+04  0.14382177801E+04  0.10100000352E+00 0.  1.
</event>
<event>
 5   0  0.2550616E-04  0.1776250E+04  0.7818609E-02  0.8719032E-01
        2   -1    0    0  501    0  0.00000000000E+00  0.00000000000E+00  0.78374596497E+03  0.78374596498E+03  0.25500000920E-02 0.  1.
       -2   -1    0    0    0  501  0.00000000000E+00  0.00000000000E+00 -0.10064050305E+04  0.10064050305E+04  0.25500000920E-02 0. -1.
    10030    2    1    2    0    0  0.00000000000E+00  0.00000000000E+00 -0.22265906552E+03  0.17901509955E+04  0.17762498493E+04 0.  0.
        1    1    3    3  502    0 -0.72348605250E+03 -0.47690839995E+03 -0.30751212688E+03  0.91947669808E+03  0.50400001928E-02 0.  1.
       -1    1    3    3    0  502  0.72348605250E+03  0.47690839995E+03  0.84853061364E+02  0.87067429740E+03  0.50400001928E-02 0. -1.
</event>
<event>
 5   0  0.2431811E-04  0.1810156E+04  0.7818609E-02  0.8700917E-01
        2   -1    0    0  501    0  0.00000000000E+00  0.00000000000E+00  0.20170360066E+04  0.20170360066E+04  0.25500000920E-02 0.  1.
       -2   -1    0    0    0  501  0.00000000000E+00  0.00000000000E+00 -0.40612387275E+03  0.40612387276E+03  0.25500000920E-02 0. -1.
    10030    2    1    2    0    0  0.00000000000E+00  0.00000000000E+00  0.16109121339E+04  0.24231598794E+04  0.18101563187E+04 0.  0.
        3    1    3    3  502    0  0.62445255083E+03 -0.61034916979E+03  0.48670246998E+03  0.99967314748E+03  0.10100000352E+00 0. -1.
       -3    1    3    3    0  502 -0.62445255083E+03  0.61034916979E+03  0.11242096639E+04  0.14234867319E+04  0.10100000352E+00 0.  1.
</event>
<event>
 5   0  0.1214723E-04  0.1779471E+04  0.7818609E-02  0.8717293E-01
       -1   -1    0    0    0  501  0.00000000000E+00  0.00000000000E+00  0.11660096440E+04  0.11660096440E+04  0.50400001928E-02 0.  1.
        1   -1    0    0  501    0  0.00000000000E+00  0.00000000000E+00 -0.67892171558E+03  0.67892171559E+03  0.50400001928E-02 0. -1.
    10030    2    1    2    0    0  0.00000000000E+00  0.00000000000E+00  0.48708792844E+03  0.18449313596E+04  0.17794710089E+04 0.  0.
        1    1    3    3  502    0 -0.11807732435E+03 -0.72453389733E+03 -0.27767986592E+03  0.78485522924E+03  0.50400001928E-02 0.  1.
       -1    1    3    3    0  502  0.11807732435E+03  0.72453389733E+03  0.76476779435E+03  0.10600761304E+04  0.50400001928E-02 0. -1.
</event>
<event>
 5   0  0.1253925E-04  0.1794034E+04  0.7818609E-02  0.8709478E-01
       -1   -1    0    0    0  501  0.00000000000E+00  0.00000000000E+00  0.82811448768E+03  0.82811448770E+03  0.50400001928E-02 0. -1.
        1   -1    0    0  501    0  0.00000000000E+00  0.00000000000E+00 -0.97165264423E+03  0.97165264425E+03  0.50400001928E-02 0.  1.
    10030    2    1    2    0    0  0.00000000000E+00  0.00000000000E+00 -0.14353815655E+03  0.17997671319E+04  0.17940341487E+04 0.  0.
        2    1    3    3  502    0 -0.32884916278E+03  0.26354100860E+03  0.72262247558E+03  0.83652787001E+03  0.25500000920E-02 0. -1.
       -2    1    3    3    0  502  0.32884916278E+03 -0.26354100860E+03 -0.86616063213E+03  0.96323926194E+03  0.25500000920E-02 0.  1.
</event>
<event>
 5   0  0.2550616E-04  0.1811150E+04  0.7818609E-02  0.8700392E-01
       -2   -1    0    0    0  501  0.00000000000E+00  0.00000000000E+00  0.10376078657E+04  0.10376078657E+04  0.25500000920E-02 0. -1.
        2   -1    0    0  501    0  0.00000000000E+00  0.00000000000E+00 -0.79034293018E+03  0.79034293018E+03  0.25500000920E-02 0.  1.
    10030    2    1    2    0    0  0.00000000000E+00  0.00000000000E+00  0.24726493547E+03  0.18279507958E+04  0.18111499562E+04 0.  0.
        1    1    3    3  502    0  0.73318352790E+03 -0.43819235510E+03  0.42724757703E+03  0.95504508676E+03  0.50400001928E-02 0. -1.
       -1    1    3    3    0  502 -0.73318352790E+03  0.43819235510E+03 -0.17998264155E+03  0.87290570907E+03  0.50400001928E-02 0.  1.
</event>
<event>
 5   0  0.2431811E-04  0.1865633E+04  0.7818609E-02  0.8672155E-01
       -2   -1    0    0    0  501  0.00000000000E+00  0.00000000000E+00  0.55657204320E+03  0.55657204320E+03  0.25500000920E-02 0. -1.
        2   -1    0    0  501    0  0.00000000000E+00  0.00000000000E+00 -0.15634027643E+04  0.15634027643E+04  0.25500000920E-02 0.  1.
    10030    2    1    2    0    0  0.00000000000E+00  0.00000000000E+00 -0.10068307211E+04  0.21199748075E+04  0.18656326229E+04 0.  0.
        3    1    3    3  502    0  0.23607355493E+03  0.73781259928E+02 -0.15254633331E+04  0.15453843498E+04  0.10100000352E+00 0.  1.
       -3    1    3    3    0  502 -0.23607355493E+03 -0.73781259928E+02  0.51863261202E+03  0.57459045772E+03  0.10100000352E+00 0. -1.
</event>
<event>
 5   0  0.1239119E-04  0.2081180E+04  0.7818609E-02  0.8569579E-01
       -1   -1    0    0    0  501  0.00000000000E+00  0.00000000000E+00  0.67939906252E+03  0.67939906254E+03  0.50400001928E-02 0. -1.
        1   -1    0    0  501    0  0.00000000000E+00  0.00000000000E+00 -0.15938018723E+04  0.15938018723E+04  0.50400001928E-02 0.  1.
    10030    2    1    2    0    0  0.00000000000E+00  0.00000000000E+00 -0.91440280974E+03  0.22732009348E+04  0.20811799517E+04 0.  0.
        5    1    3    3  502    0 -0.12946869293E+02 -0.61779183356E+03  0.45728705477E+03  0.76874437331E+03  0.46999998093E+01 0. -1.
       -5    1    3    3    0  502  0.12946869293E+02  0.61779183356E+03 -0.13716898645E+04  0.15044565615E+04  0.46999998093E+01 0.  1.
</event>
<event>
 5   0  0.2431811E-04  0.1809097E+04  0.7818609E-02  0.8701477E-01
        2   -1    0    0  501    0  0.00000000000E+00  0.00000000000E+00  0.20008942514E+04  0.20008942514E+04  0.25500000920E-02 0. -1.
       -2   -1    0    0    0  501  0.00000000000E+00  0.00000000000E+00 -0.40892094102E+03  0.40892094103E+03  0.25500000920E-02 0.  1.
    10030    2    1    2    0    0  0.00000000000E+00  0.00000000000E+00  0.15919733104E+04  0.24098151924E+04  0.18090965261E+04 0.  0.
        3    1    3    3  502    0  0.66750876017E+03 -0.56612709917E+03  0.11001496076E+04  0.14058438770E+04  0.10100000352E+00 0. -1.
       -3    1    3    3    0  502 -0.66750876017E+03  0.56612709917E+03  0.49182370281E+03  0.10039713154E+04  0.10100000352E+00 0.  1.
</event>
<event>
 5   0  0.1253925E-04  0.1804101E+04  0.7818609E-02  0.8704122E-01
       -1   -1    0    0    0  501  0.00000000000E+00  0.00000000000E+00  0.41747590512E+03  0.41747590515E+03  0.50400001928E-02 0. -1.
        1   -1    0    0  501    0  0.00000000000E+00  0.00000000000E+00 -0.19490824791E+04  0.19490824791E+04  0.50400001928E-02 0.  1.
    10030    2    1    2    0    0  0.00000000000E+00  0.00000000000E+00 -0.15316065739E+04  0.23665583842E+04  0.18041008532E+04 0.  0.
        2    1    3    3  502    0  0.19312553805E+03 -0.63038786263E+03 -0.15733747561E+04  0.17059292054E+04  0.25500000920E-02 0.  1.
       -2    1    3    3    0  502 -0.19312553805E+03  0.63038786263E+03  0.41768182177E+02  0.66062917878E+03  0.25500000920E-02 0. -1.
</event>
<event>
 5   0  0.1308893E-04  0.1792358E+04  0.7818609E-02  0.8710374E-01
        1   -1    0    0  501    0  0.00000000000E+00  0.00000000000E+00  0.87846331616E+03  0.87846331618E+03  0.50400001928E-02 0.  1.
       -1   -1    0    0    0  501  0.00000000000E+00  0.00000000000E+00 -0.91425166434E+03  0.91425166435E+03  0.50400001928E-02 0. -1.
    10030    2    1    2    0    0  0.00000000000E+00  0.00000000000E+00 -0.35788348172E+02  0.17927149805E+04  0.17923577198E+04 0.  0.
        4    1    3    3  502    0  0.91715336079E+02 -0.82587941490E+03 -0.35358947642E+03  0.90305904656E+03  0.12699999809E+01 0. -1.
       -4    1    3    3    0  502 -0.91715336079E+02  0.82587941490E+03  0.31780112825E+03  0.88965593397E+03  0.12699999809E+01 0.  1.
</event>
<event>
 5   0  0.2431811E-04  0.1798969E+04  0.7818609E-02  0.8706848E-01
       -2   -1    0    0    0  501  0.00000000000E+00  0.00000000000E+00  0.64730788711E+03  0.64730788711E+03  0.25500000920E-02 0. -1.
        2   -1    0    0  501    0  0.00000000000E+00  0.00000000000E+00 -0.12499030054E+04  0.12499030054E+04  0.25500000920E-02 0.  1.
    10030    2    1    2    0    0  0.00000000000E+00  0.00000000000E+00 -0.60259511834E+03  0.18972108926E+04  0.17989686752E+04 0.  0.
        3    1    3    3  502    0  0.84009893734E+03 -0.38142551093E+02  0.35271837450E+02  0.84170374327E+03  0.10100000352E+00 0. -1.
       -3    1    3    3    0  502 -0.84009893734E+03  0.38142551093E+02 -0.63786695579E+03  0.10555071493E+04  0.10100000352E+00 0.  1.
</event>
<event>
 5   0  0.1330225E-04  0.1511362E+04  0.7818609E-02  0.8876932E-01
       -1   -1    0    0    0  501  0.00000000000E+00  0.00000000000E+00  0.78037651344E+03  0.78037651346E+03  0.50400001928E-02 0. -1.
        1   -1    0    0  501    0  0.00000000000E+00  0.00000000000E+00 -0.73176739406E+03  0.73176739408E+03  0.50400001928E-02 0.  1.
    10030    2    1    2    0    0  0.00000000000E+00  0.00000000000E+00  0.48609119379E+02  0.15121439075E+04  0.15113624154E+04 0.  0.
        3    1    3    3  502    0  0.65727722269E+03  0.13788804458E+02 -0.34851473857E+03  0.74408736838E+03  0.10100000352E+00 0.  1.
       -3    1    3    3    0  502 -0.65727722269E+03 -0.13788804458E+02  0.39712385795E+03  0.76805653916E+03  0.10100000352E+00 0. -1.
</event>
<event>
 5   0  0.1214723E-04  0.1730883E+04  0.7818609E-02  0.8743944E-01
        1   -1    0    0  501    0  0.00000000000E+00  0.00000000000E+00  0.14152217058E+04  0.14152217058E+04  0.50400001928E-02 0. -1.
       -1   -1    0    0    0  501  0.00000000000E+00  0.00000000000E+00 -0.52923788653E+03  0.52923788656E+03  0.50400001928E-02 0.  1.
    10030    2    1    2    0    0  0.00000000000E+00  0.00000000000E+00  0.88598381927E+03  0.19444595924E+04  0.17308829476E+04 0.  0.
        1    1    3    3  502    0 -0.56894274083E+03  0.53161782585E+03  0.86732417993E+03  0.11655747888E+04  0.50400001928E-02 0. -1.
       -1    1    3    3    0  502  0.56894274083E+03 -0.53161782585E+03  0.18659639338E+02  0.77888480359E+03  0.50400001928E-02 0.  1.
</event>
<event>
 5   0  0.1308893E-04  0.1817486E+04  0.7818609E-02  0.8697056E-01
        1   -1    0    0  501    0  0.00000000000E+00  0.00000000000E+00  0.22998910074E+04  0.22998910074E+04  0.50400001928E-02 0.  1.
       -1   -1    0    0    0  501  0.00000000000E+00  0.00000000000E+00 -0.35906647089E+03  0.35906647092E+03  0.50400001928E-02 0. -1.
    10030    2    1    2    0    0  0.00000000000E+00  0.00000000000E+00  0.19408245365E+04  0.26589574783E+04  0.18174858982E+04 0.  0.
        4    1    3    3  502    0  0.70760431082E+03 -0.45186939585E+03  0.46167496537E+03  0.95814153346E+03  0.12699999809E+01 0. -1.
       -4    1    3    3    0  502 -0.70760431082E+03  0.45186939585E+03  0.14791495712E+04  0.17008159449E+04  0.12699999809E+01 0.  1.
</event>
<event>
 5   0  0.2569405E-04  0.1799508E+04  0.7818609E-02  0.8706561E-01
        2   -1    0    0  501    0  0.00000000000E+00  0.00000000000E+00  0.75594477582E+03  0.75594477583E+03  0.25500000920E-02 0.  1.
       -2   -1    0    0    0  501  0.00000000000E+00  0.00000000000E+00 -0.10709215868E+04  0.10709215868E+04  0.25500000920E-02 0. -1.
    10030    2    1    2    0    0  0.00000000000E+00  0.00000000000E+00 -0.31497681098E+03  0.18268663626E+04  0.17995083538E+04 0.  0.
        2    1    3    3  502    0 -0.53688122132E+03 -0.68416962405E+03  0.76731189359E+02  0.87305051154E+03  0.25500000920E-02 0. -1.
       -2    1    3    3    0  502  0.53688122132E+03  0.68416962405E+03 -0.39170800034E+03  0.95381585110E+03  0.25500000920E-02 0.  1.
</event>
<event>
 5   0  0.2569405E-04  0.1768687E+04  0.7818609E-02  0.8723131E-01
        2   -1    0    0  501    0  0.00000000000E+00  0.00000000000E+00  0.10056981800E+04  0.10056981800E+04  0.25500000920E-02 0. -1.
       -2   -1    0    0    0  501  0.00000000000E+00  0.00000000000E+00 -0.77763218046E+03  0.77763218046E+03  0.25500000920E-02 0.  1.
    10030    2    1    2    0    0  0.00000000000E+00  0.00000000000E+00  0.22806599956E+03  0.17833303605E+04  0.17686868220E+04 0.  0.
        2    1    3    3  502    0  0.17185214756E+02  0.33638413126E+03  0.93849089952E+03  0.99710319619E+03  0.25500000920E-02 0. -1.
       -2    1    3    3    0  502 -0.17185214756E+02 -0.33638413126E+03 -0.71042489997E+03  0.78622716429E+03  0.25500000920E-02 0.  1.
</event>
<event>
 5   0  0.2569405E-04  0.1813610E+04  0.7818609E-02  0.8699095E-01
       -2   -1    0    0    0  501  0.00000000000E+00  0.00000000000E+00  0.86471205884E+03  0.86471205884E+03  0.25500000920E-02 0.  1.
        2   -1    0    0  501    0  0.00000000000E+00  0.00000000000E+00 -0.95094650494E+03  0.95094650495E+03  0.25500000920E-02 0. -1.
    10030    2    1    2    0    0  0.00000000000E+00  0.00000000000E+00 -0.86234446104E+02  0.18156585638E+04  0.18136095612E+04 0.  0.
        2    1    3    3  502    0  0.56805280261E+02 -0.83981193218E+03 -0.38081714708E+03  0.92386829192E+03  0.25500000920E-02 0. -1.
       -2    1    3    3    0  502 -0.56805280261E+02  0.83981193218E+03  0.29458270098E+03  0.89179027188E+03  0.25500000920E-02 0.  1.
</event>
<event>
 5   0  0.1253925E-04  0.1796830E+04  0.7818609E-02  0.8707987E-01
       -1   -1    0    0    0  501  0.00000000000E+00  0.00000000000E+00  0.72569219134E+03  0.72569219136E+03  0.50400001928E-02 0. -1.
        1   -1    0    0  501    0  0.00000000000E+00  0.00000000000E+00 -0.11122478502E+04  0.11122478502E+04  0.50400001928E-02 0.  1.
    10030    2    1    2    0    0  0.00000000000E+00  0.00000000000E+00 -0.38655565887E+03  0.18379400416E+04  0.17968300752E+04 0.  0.
        2    1    3    3  502    0 -0.58543130177E+03  0.19894498406E+03  0.47343278707E+03  0.77874740427E+03  0.25500000920E-02 0. -1.
       -2    1    3    3    0  502  0.58543130177E+03 -0.19894498406E+03 -0.85998844594E+03  0.10591926373E+04  0.25500000920E-02 0.  1.
</event>
<event>
 5   0  0.1308893E-04  0.1786168E+04  0.7818609E-02  0.8713690E-01
        1   -1    0    0  501    0  0.00000000000E+00  0.00000000000E+00  0.23325172566E+04  0.23325172566E+04  0.50400001928E-02 0.  1.
       -1   -1    0    0    0  501  0.00000000000E+00  0.00000000000E+00 -0.34194763198E+03  0.34194763202E+03  0.50400001928E-02 0. -1.
    10030    2    1    2    0    0  0.00000000000E+00  0.00000000000E+00  0.19905696247E+04  0.26744648887E+04  0.17861676881E+04 0.  0.
        4    1    3    3  502    0  0.47814536952E+03  0.73151345602E+03  0.12708169834E+04  0.15423074754E+04  0.12699999809E+01 0. -1.
       -4    1    3    3    0  502 -0.47814536952E+03 -0.73151345602E+03  0.71975264130E+03  0.11321574132E+04  0.12699999809E+01 0.  1.
</event>
<event>
 5   0  0.1330225E-04  0.1658310E+04  0.7818609E-02  0.8785506E-01
       -1   -1    0    0    0  501  0.00000000000E+00  0.00000000000E+00  0.56118856915E+03  0.56118856918E+03  0.50400001928E-02 0. -1.
        1   -1    0    0  501    0  0.00000000000E+00  0.00000000000E+00 -0.12250742097E+04  0.12250742097E+04  0.50400001928E-02 0.  1.
    10030    2    1    2    0    0  0.00000000000E+00  0.00000000000E+00 -0.66388564056E+03  0.17862627789E+04  0.16583095524E+04 0.  0.
        3    1    3    3  502    0 -0.81298780357E+03  0.16182744300E+03 -0.35239019555E+03  0.90073089776E+03  0.10100000352E+00 0.  1.
       -3    1    3    3    0  502  0.81298780357E+03 -0.16182744300E+03 -0.31149544501E+03  0.88553188114E+03  0.10100000352E+00 0. -1.
</event>
<event>
 5   0  0.2393421E-04  0.1776704E+04  0.7818609E-02  0.8718787E-01
       -2   -1    0    0    0  501  0.00000000000E+00  0.00000000000E+00  0.74944211263E+03  0.74944211264E+03  0.25500000920E-02 0.  1.
        2   -1    0    0  501    0  0.00000000000E+00  0.00000000000E+00 -0.10530092011E+04  0.10530092011E+04  0.25500000920E-02 0. -1.
    10030    2    1    2    0    0  0.00000000000E+00  0.00000000000E+00 -0.30356708851E+03  0.18024513138E+04  0.17767041851E+04 0.  0.
        5    1    3    3  502    0 -0.33692003757E+03 -0.40191955669E+03 -0.87917672296E+03  0.10237325051E+04  0.46999998093E+01 0. -1.
       -5    1    3    3    0  502  0.33692003757E+03  0.40191955669E+03  0.57560963445E+03  0.77871880871E+03  0.46999998093E+01 0.  1.
</event>
<event>
 5   0  0.1308893E-04  0.1812189E+04  0.7818609E-02  0.8699844E-01
        1   -1    0    0  501    0  0.00000000000E+00  0.00000000000E+00  0.12515211179E+04  0.12515211179E+04  0.50400001928E-02 0.  1.
       -1   -1    0    0    0  501  0.00000000000E+00  0.00000000000E+00 -0.65600785049E+03  0.65600785051E+03  0.50400001928E-02 0. -1.
    10030    2    1    2    0    0  0.00000000000E+00  0.00000000000E+00  0.59551326742E+03  0.19075289684E+04  0.18121894806E+04 0.  0.
        4    1    3    3  502    0 -0.68642344181E+03  0.92209890610E+02 -0.31721118268E+03  0.76177710172E+03  0.12699999809E+01 0. -1.
       -4    1    3    3    0  502  0.68642344181E+03 -0.92209890610E+02  0.91272445010E+03  0.11457518667E+04  0.12699999809E+01 0.  1.
</event>
<event>
 5   0  0.2393421E-04  0.1799218E+04  0.7818609E-02  0.8706715E-01
        2   -1    0    0  501    0  0.00000000000E+00  0.00000000000E+00  0.13355108234E+04  0.13355108234E+04  0.25500000920E-02 0.  1.
       -2   -1    0    0    0  501  0.00000000000E+00  0.00000000000E+00 -0.60598274136E+03  0.60598274137E+03  0.25500000920E-02 0. -1.
    10030    2    1    2    0    0  0.00000000000E+00  0.00000000000E+00  0.72952808203E+03  0.19414935648E+04  0.17992181745E+04 0.  0.
        5    1    3    3  502    0  0.20424103831E+03 -0.33411172970E+03 -0.50917404204E+03  0.64235920227E+03  0.46999998093E+01 0. -1.
       -5    1    3    3    0  502 -0.20424103831E+03  0.33411172970E+03  0.12387021241E+04  0.12991343625E+04  0.46999998093E+01 0.  1.
</event>
<event>
 5   0  0.1308893E-04  0.1783871E+04  0.7818609E-02  0.8714924E-01
       -1   -1    0    0    0  501  0.00000000000E+00  0.00000000000E+00  0.10974692824E+04  0.10974692824E+04  0.50400001928E-02 0. -1.
        1   -1    0    0  501    0  0.00000000000E+00  0.00000000000E+00 -0.72489388237E+03  0.72489388238E+03  0.50400001928E-02 0.  1.
    10030    2    1    2    0    0  0.00000000000E+00  0.00000000000E+00  0.37257540005E+03  0.18223631648E+04  0.17838708125E+04 0.  0.
        4    1    3    3  502    0  0.44358812446E+03 -0.77225536509E+03  0.23631773346E+03  0.92141003746E+03  0.12699999809E+01 0.  1.
       -4    1    3    3    0  502 -0.44358812446E+03  0.77225536509E+03  0.13625766659E+03  0.90095312735E+03  0.12699999809E+01 0. -1.
</event>
<event>
 5   0  0.1239119E-04  0.1792223E+04  0.7818609E-02  0.8710446E-01
        1   -1    0    0  501    0  0.00000000000E+00  0.00000000000E+00  0.11335739767E+04  0.11335739767E+04  0.50400001928E-02 0.  1.
       -1   -1    0    0    0  501  0.00000000000E+00  0.00000000000E+00 -0.70839305115E+03  0.70839305117E+03  0.50400001928E-02 0. -1.
    10030    2    1    2    0    0  0.00000000000E+00  0.00000000000E+00  0.42518092555E+03  0.18419670279E+04  0.17922231201E+04 0.  0.
        5    1    3    3  502    0 -0.57162922161E+03  0.66499097572E+03  0.23023564122E+02  0.87722582002E+03  0.46999998093E+01 0.  1.
       -5    1    3    3    0  502  0.57162922161E+03 -0.66499097572E+03  0.40215736143E+03  0.96474120786E+03  0.46999998093E+01 0. -1.
</event>
<event>
 5   0  0.1330225E-04  0.1788018E+04  0.7818609E-02  0.8712697E-01
        1   -1    0    0  501    0  0.00000000000E+00  0.00000000000E+00  0.70421748940E+03  0.70421748942E+03  0.50400001928E-02 0. -1.
       -1   -1    0    0    0  501  0.00000000000E+00  0.00000000000E+00 -0.11349508351E+04  0.11349508351E+04  0.50400001928E-02 0.  1.
    10030    2    1    2    0    0  0.00000000000E+00  0.00000000000E+00 -0.43073334570E+03  0.18391683245E+04  0.17880181517E+04 0.  0.
        3    1    3    3  502    0  0.58170090460E+03 -0.18546289320E+03 -0.88710291938E+03  0.10769048365E+04  0.10100000352E+00 0.  1.
       -3    1    3    3    0  502 -0.58170090460E+03  0.18546289320E+03  0.45636957368E+03  0.76226348800E+03  0.10100000352E+00 0. -1.
</event>
<event>
 5   0  0.1214723E-04  0.1750122E+04  0.7818609E-02  0.8733283E-01
       -1   -1    0    0    0  501  0.00000000000E+00  0.00000000000E+00  0.60044031944E+03  0.60044031946E+03  0.50400001928E-02 0. -1.
        1   -1    0    0  501    0  0.00000000000E+00  0.00000000000E+00 -0.12752837936E+04  0.12752837936E+04  0.50400001928E-02 0.  1.
    10030    2    1    2    0    0  0.00000000000E+00  0.00000000000E+00 -0.67484347417E+03  0.18757241131E+04  0.17501220625E+04 0.  0.
        1    1    3    3  502    0 -0.52428607399E+03  0.54735335042E+02  0.41117548559E+03  0.66853356255E+03  0.50400001928E-02 0. -1.
       -1    1    3    3    0  502  0.52428607399E+03 -0.54735335042E+02 -0.10860189598E+04  0.12071905505E+04  0.50400001928E-02 0.  1.
</event>
<event>
 5   0  0.2417106E-04  0.1804881E+04  0.7818609E-02  0.8703708E-01
        2   -1    0    0  501    0  0.00000000000E+00  0.00000000000E+00  0.90011253789E+03  0.90011253790E+03  0.25500000920E-02 0. -1.
       -2   -1    0    0    0  501  0.00000000000E+00  0.00000000000E+00 -0.90477452268E+03  0.90477452268E+03  0.25500000920E-02 0.  1.
    10030    2    1    2    0    0  0.00000000000E+00  0.00000000000E+00 -0.46619847863E+01  0.18048870606E+04  0.18048810397E+04 0.  0.
        4    1    3    3  502    0 -0.73306666760E+03  0.18789534308E+03 -0.49396855448E+03  0.90371341963E+03  0.12699999809E+01 0.  1.
       -4    1    3    3    0  502  0.73306666760E+03 -0.18789534308E+03  0.48930656969E+03  0.90117364095E+03  0.12699999809E+01 0. -1.
</event>
<event>
 5   0  0.2569405E-04  0.1790980E+04  0.7818609E-02  0.8711111E-01
        2   -1    0    0  501    0  0.00000000000E+00  0.00000000000E+00  0.93419873559E+03  0.93419873559E+03  0.25500000920E-02 0.  1.
       -2   -1    0    0    0  501  0.00000000000E+00  0.00000000000E+00 -0.85838551888E+03  0.85838551888E+03  0.25500000920E-02 0. -1.
    10030    2    1    2    0    0  0.00000000000E+00  0.00000000000E+00  0.75813216710E+02  0.17925842545E+04  0.17909803644E+04 0.  0.
        2    1    3    3  502    0  0.71967327776E+03 -0.36063205350E+03  0.43058123574E+03  0.91289939496E+03  0.25500000920E-02 0.  1.
       -2    1    3    3    0  502 -0.71967327776E+03  0.36063205350E+03 -0.35476801903E+03  0.87968485952E+03  0.25500000920E-02 0. -1.
</event>
<event>
 5   0  0.1330225E-04  0.1793741E+04  0.7818609E-02  0.8709635E-01
       -1   -1    0    0    0  501  0.00000000000E+00  0.00000000000E+00  0.68036563698E+03  0.68036563700E+03  0.50400001928E-02 0.  1.
        1   -1    0    0  501    0  0.00000000000E+00  0.00000000000E+00 -0.11822706435E+04  0.11822706435E+04  0.50400001928E-02 0. -1.
    10030    2    1    2    0    0  0.00000000000E+00  0.00000000000E+00 -0.50190500653E+03  0.18626362805E+04  0.17937405827E+04 0.  0.
        3    1    3    3  502    0 -0.57859030275E+03 -0.68613816537E+02  0.45707315764E+03  0.74053391272E+03  0.10100000352E+00 0.  1.
       -3    1    3    3    0  502  0.57859030275E+03  0.68613816537E+02 -0.95897816417E+03  0.11221023678E+04  0.10100000352E+00 0. -1.
</event>
<event>
 5   0  0.2431811E-04  0.1804619E+04  0.7818609E-02  0.8703847E-01
        2   -1    0    0  501    0  0.00000000000E+00  0.00000000000E+00  0.12926495460E+04  0.12926495460E+04  0.25500000920E-02 0.  1.
       -2   -1    0    0    0  501  0.00000000000E+00  0.00000000000E+00 -0.62984002944E+03  0.62984002945E+03  0.25500000920E-02 0. -1.
    10030    2    1    2    0    0  0.00000000000E+00  0.00000000000E+00  0.66280951651E+03  0.19224895754E+04  0.18046189937E+04 0.  0.
        3    1    3    3  502    0  0.94874853183E+02 -0.24419565560E+03  0.12512418815E+04  0.12783735809E+04  0.10100000352E+00 0.  1.
       -3    1    3    3    0  502 -0.94874853183E+02  0.24419565560E+03 -0.58843236503E+03  0.64411599452E+03  0.10100000352E+00 0. -1.
</event>
<event>
 5   0  0.1214723E-04  0.1811066E+04  0.7818609E-02  0.8700437E-01
       -1   -1    0    0    0  501  0.00000000000E+00  0.00000000000E+00  0.37270126422E+03  0.37270126425E+03  0.50400001928E-02 0. -1.
        1   -1    0    0  501    0  0.00000000000E+00  0.00000000000E+00 -0.22001271712E+04  0.22001271712E+04  0.50400001928E-02 0.  1.
    10030    2    1    2    0    0  0.00000000000E+00  0.00000000000E+00 -0.18274259070E+04  0.25728284354E+04  0.18110661812E+04 0.  0.
        1    1    3    3  502    0  0.26629772597E+03 -0.72077434815E+03 -0.15943642098E+04  0.17698664846E+04  0.50400001928E-02 0.  1.
       -1    1    3    3    0  502 -0.26629772597E+03  0.72077434815E+03 -0.23306169719E+03  0.80296195086E+03  0.50400001928E-02 0. -1.
</event>
<event>
 5   0  0.1308893E-04  0.1811243E+04  0.7818609E-02  0.8700344E-01
        1   -1    0    0  501    0  0.00000000000E+00  0.00000000000E+00  0.12690855659E+04  0.12690855659E+04  0.50400001928E-02 0. -1.
       -1   -1    0    0    0  501  0.00000000000E+00  0.00000000000E+00 -0.64625266140E+03  0.64625266142E+03  0.50400001928E-02 0.  1.
    10030    2    1    2    0    0  0.00000000000E+00  0.00000000000E+00  0.62283290446E+03  0.19153382273E+04  0.18112425840E+04 0.  0.
        4    1    3    3  502    0  0.38373184088E+03 -0.39575198925E+03 -0.44840385536E+03  0.71058946875E+03  0.12699999809E+01 0.  1.
       -4    1    3    3    0  502 -0.38373184088E+03  0.39575198925E+03  0.10712367598E+04  0.12047487585E+04  0.12699999809E+01 0. -1.
</event>
<event>
 5   0  0.1239119E-04  0.1516696E+04  0.7818609E-02  0.8873426E-01
        1   -1    0    0  501    0  0.00000000000E+00  0.00000000000E+00  0.74624222093E+03  0.74624222095E+03  0.50400001928E-02 0.  1.
       -1   -1    0    0    0  501  0.00000000000E+00  0.00000000000E+00 -0.77065014634E+03  0.77065014636E+03  0.50400001928E-02 0. -1.
    10030    2    1    2    0    0  0.00000000000E+00  0.00000000000E+00 -0.24407925416E+02  0.15168923673E+04  0.15166959838E+04 0.  0.
        5    1    3    3  502    0  0.72164193900E+02 -0.16268082635E+03  0.72504605802E+03  0.74658328296E+03  0.46999998093E+01 0.  1.
       -5    1    3    3    0  502 -0.72164193900E+02  0.16268082635E+03 -0.74945398344E+03  0.77030908435E+03  0.46999998093E+01 0. -1.
</event>
<event>
 5   0  0.2431811E-04  0.1796339E+04  0.7818609E-02  0.8708249E-01
       -2   -1    0    0    0  501  0.00000000000E+00  0.00000000000E+00  0.50013534820E+03  0.50013534821E+03  0.25500000920E-02 0. -1.
        2   -1    0    0  501    0  0.00000000000E+00  0.00000000000E+00 -0.16129805266E+04  0.16129805266E+04  0.25500000920E-02 0.  1.
    10030    2    1    2    0    0  0.00000000000E+00  0.00000000000E+00 -0.11128451784E+04  0.21131158748E+04  0.17963391410E+04 0.  0.
        3    1    3    3  502    0  0.60081493574E+03 -0.11463538694E+03  0.21727736146E+03  0.64909885299E+03  0.10100000352E+00 0. -1.
       -3    1    3    3    0  502 -0.60081493574E+03  0.11463538694E+03 -0.13301225399E+04  0.14640170219E+04  0.10100000352E+00 0.  1.
</event>
<event>
 5   0  0.1214723E-04  0.1810509E+04  0.7818609E-02  0.8700731E-01
       -1   -1    0    0    0  501  0.00000000000E+00  0.00000000000E+00  0.65756070705E+03  0.65756070707E+03  0.50400001928E-02 0. -1.
        1   -1    0    0  501    0  0.00000000000E+00  0.00000000000E+00 -0.12462516300E+04  0.12462516300E+04  0.50400001928E-02 0.  1.
    10030    2    1    2    0    0  0.00000000000E+00  0.00000000000E+00 -0.58869092291E+03  0.19038123370E+04  0.18105094344E+04 0.  0.
        1    1    3    3  502    0 -0.59111895175E+03 -0.58097592797E+03 -0.67715507350E+03  0.10702773648E+04  0.50400001928E-02 0. -1.
       -1    1    3    3    0  502  0.59111895175E+03  0.58097592797E+03  0.88464150597E+02  0.83353497225E+03  0.50400001928E-02 0.  1.
</event>
<event>
 5   0  0.2550616E-04  0.1804396E+04  0.7818609E-02  0.8703965E-01
       -2   -1    0    0    0  501  0.00000000000E+00  0.00000000000E+00  0.53361299518E+03  0.53361299519E+03  0.25500000920E-02 0. -1.
        2   -1    0    0  501    0  0.00000000000E+00  0.00000000000E+00 -0.15253778462E+04  0.15253778462E+04  0.25500000920E-02 0.  1.
    10030    2    1    2    0    0  0.00000000000E+00  0.00000000000E+00 -0.99176485106E+03  0.20589908414E+04  0.18043962329E+04 0.  0.
        1    1    3    3  502    0 -0.42691728622E+03  0.15429701194E+03  0.39380400922E+03  0.60095551821E+03  0.50400001928E-02 0. -1.
       -1    1    3    3    0  502  0.42691728622E+03 -0.15429701194E+03 -0.13855688603E+04  0.14580353232E+04  0.50400001928E-02 0.  1.
</event>
<event>
 5   0  0.1308893E-04  0.1779617E+04  0.7818609E-02  0.8717215E-01
        1   -1    0    0  501    0  0.00000000000E+00  0.00000000000E+00  0.15026215100E+04  0.15026215100E+04  0.50400001928E-02 0. -1.
       -1   -1    0    0    0  501  0.00000000000E+00  0.00000000000E+00 -0.52691852992E+03  0.52691852994E+03  0.50400001928E-02 0.  1.
    10030    2    1    2    0    0  0.00000000000E+00  0.00000000000E+00  0.97570298007E+03  0.20295400399E+04  0.17796169443E+04 0.  0.
        4    1    3    3  502    0  0.70943309145E+03  0.46815987256E+03  0.78804531534E+03  0.11590884390E+04  0.12699999809E+01 0. -1.
       -4    1    3    3    0  502 -0.70943309145E+03 -0.46815987256E+03  0.18765766472E+03  0.87045160092E+03  0.12699999809E+01 0.  1.
</event>
<event>
 5   0  0.1239119E-04  0.1790149E+04  0.7818609E-02  0.8711555E-01
       -1   -1    0    0    0  501  0.00000000000E+00  0.00000000000E+00  0.62246684882E+03  0.62246684884E+03  0.50400001928E-02 0.  1.
        1   -1    0    0  501    0  0.00000000000E+00  0.00000000000E+00 -0.12870706408E+04  0.12870706408E+04  0.50400001928E-02 0. -1.
    10030    2    1    2    0    0  0.00000000000E+00  0.00000000000E+00 -0.66460379200E+03  0.19095374897E+04  0.17901494977E+04 0.  0.
        5    1    3    3  502    0  0.85758440944E+03 -0.16108137476E+03 -0.54494169572E+03  0.10287768321E+04  0.46999998093E+01 0. -1.
       -5    1    3    3    0  502 -0.85758440944E+03  0.16108137476E+03 -0.11966209628E+03  0.88076065755E+03  0.46999998093E+01 0.  1.
</event>
<event>
 5   0  0.1253925E-04  0.1794468E+04  0.7818609E-02  0.8709247E-01
        1   -1    0    0  501    0  0.00000000000E+00  0.00000000000E+00  0.55291033317E+03  0.55291033319E+03  0.50400001928E-02 0.  1.
       -1   -1    0    0    0  501  0.00000000000E+00  0.00000000000E+00 -0.14559851207E+04  0.14559851207E+04  0.50400001928E-02 0. -1.
    10030    2    1    2    0    0  0.00000000000E+00  0.00000000000E+00 -0.90307478755E+03  0.20088954539E+04  0.17944684096E+04 0.  0.
        2    1    3    3  502    0 -0.83026892231E+02 -0.38331153335E+03  0.45186531734E+03  0.59833390465E+03  0.25500000920E-02 0.  1.
       -2    1    3    3    0  502  0.83026892231E+02  0.38331153335E+03 -0.13549401049E+04  0.14105615493E+04  0.25500000920E-02 0. -1.
</event>
<event>
 5   0  0.1253925E-04  0.1819147E+04  0.7818609E-02  0.8696183E-01
       -1   -1    0    0    0  501  0.00000000000E+00  0.00000000000E+00  0.77259663466E+03  0.77259663468E+03  0.50400001928E-02 0. -1.
        1   -1    0    0  501    0  0.00000000000E+00  0.00000000000E+00 -0.10708355069E+04  0.10708355070E+04  0.50400001928E-02 0.  1.
    10030    2    1    2    0    0  0.00000000000E+00  0.00000000000E+00 -0.29823887228E+03  0.18434321416E+04  0.18191469528E+04 0.  0.
        2    1    3    3  502    0 -0.62401228223E+03  0.24042659503E+03  0.47565621075E+03  0.82063701282E+03  0.25500000920E-02 0. -1.
       -2    1    3    3    0  502  0.62401228223E+03 -0.24042659503E+03 -0.77389508304E+03  0.10227951288E+04  0.25500000920E-02 0.  1.
</event>
<event>
 5   0  0.1239119E-04  0.1794448E+04  0.7818609E-02  0.8709258E-01
       -1   -1    0    0    0  501  0.00000000000E+00  0.00000000000E+00  0.49509125635E+03  0.49509125637E+03  0.50400001928E-02 0.  1.
        1   -1    0    0  501    0  0.00000000000E+00  0.00000000000E+00 -0.16259844244E+04  0.16259844244E+04  0.50400001928E-02 0. -1.
    10030    2    1    2    0    0  0.00000000000E+00  0.00000000000E+00 -0.11308931681E+04  0.21210756808E+04  0.17944477385E+04 0.  0.
        5    1    3    3  502    0 -0.49114665932E+03 -0.70093635868E+03 -0.24728347267E+03  0.89090292722E+03  0.46999998093E+01 0.  1.
       -5    1    3    3    0  502  0.49114665932E+03  0.70093635868E+03 -0.88360969542E+03  0.12301727536E+04  0.46999998093E+01 0. -1.
</event>
<event>
 5   0  0.2569405E-04  0.1821198E+04  0.7818609E-02  0.8695107E-01
        2   -1    0    0  501    0  0.00000000000E+00  0.00000000000E+00  0.15690079994E+04  0.15690079994E+04  0.25500000920E-02 0. -1.
       -2   -1    0    0    0  501  0.00000000000E+00  0.00000000000E+00 -0.52848093784E+03  0.52848093785E+03  0.25500000920E-02 0.  1.
    10030    2    1    2    0    0  0.00000000000E+00  0.00000000000E+00  0.10405270616E+04  0.20974889373E+04  0.18211983077E+04 0.  0.
        2    1    3    3  502    0  0.45564766650E+03 -0.33564803975E+03 -0.30134638317E+03  0.64115836206E+03  0.25500000920E-02 0.  1.
       -2    1    3    3    0  502 -0.45564766650E+03  0.33564803975E+03  0.13418734447E+04  0.14563305752E+04  0.25500000920E-02 0. -1.
</event>
<event>
 5   0  0.1308893E-04  0.1797620E+04  0.7818609E-02  0.8707566E-01
        1   -1    0    0  501    0  0.00000000000E+00  0.00000000000E+00  0.14417833851E+04  0.14417833851E+04  0.50400001928E-02 0.  1.
       -1   -1    0    0    0  501  0.00000000000E+00  0.00000000000E+00 -0.56031971157E+03  0.56031971160E+03  0.50400001928E-02 0. -1.
    10030    2    1    2    0    0  0.00000000000E+00  0.00000000000E+00  0.88146367353E+03  0.20021030967E+04  0.17976202608E+04 0.  0.
        4    1    3    3  502    0 -0.16295358873E+01  0.11878020767E+03  0.14330008611E+04  0.14379167132E+04  0.12699999809E+01 0.  1.
       -4    1    3    3    0  502  0.16295358873E+01 -0.11878020767E+03 -0.55153718762E+03  0.56418638352E+03  0.12699999809E+01 0. -1.
</event>
<event>
 5   0  0.1214723E-04  0.1787469E+04  0.7818609E-02  0.8712992E-01
       -1   -1    0    0    0  501  0.00000000000E+00  0.00000000000E+00  0.50719095342E+03  0.50719095344E+03  0.50400001928E-02 0.  1.
        1   -1    0    0  501    0  0.00000000000E+00  0.00000000000E+00 -0.15748726509E+04  0.15748726509E+04  0.50400001928E-02 0. -1.
    10030    2    1    2    0    0  0.00000000000E+00  0.00000000000E+00 -0.10676816974E+04  0.20820636043E+04  0.17874687816E+04 0.  0.
        1    1    3    3  502    0 -0.77988331272E+03 -0.41903505659E+03 -0.67627587719E+03  0.11140724493E+04  0.50400001928E-02 0.  1.
       -1    1    3    3    0  502  0.77988331272E+03  0.41903505659E+03 -0.39140582025E+03  0.96799115505E+03  0.50400001928E-02 0. -1.
</event>
<event>
 5   0  0.1214723E-04  0.1801498E+04  0.7818609E-02  0.8705503E-01
        1   -1    0    0  501    0  0.00000000000E+00  0.00000000000E+00  0.78873528069E+03  0.78873528071E+03  0.50400001928E-02 0.  1.
       -1   -1    0    0    0  501  0.00000000000E+00  0.00000000000E+00 -0.10286710498E+04  0.10286710498E+04  0.50400001928E-02 0. -1.
    10030    2    1    2    0    0  0.00000000000E+00  0.00000000000E+00 -0.23993576911E+03  0.18174063305E+04  0.18014984310E+04 0.  0.
        1    1    3    3  502    0  0.37664719214E+03 -0.40975491509E+03  0.59451406808E+03  0.81437655599E+03  0.50400001928E-02 0.  1.
       -1    1    3    3    0  502 -0.37664719214E+03  0.40975491509E+03 -0.83444983718E+03  0.10030297745E+04  0.50400001928E-02 0. -1.
</event>
<event>
 5   0  0.2417106E-04  0.1805875E+04  0.7818609E-02  0.8703181E-01
        2   -1    0    0  501    0  0.00000000000E+00  0.00000000000E+00  0.11090724256E+04  0.11090724256E+04  0.25500000920E-02 0. -1.
       -2   -1    0    0    0  501  0.00000000000E+00  0.00000000000E+00 -0.73511571178E+03  0.73511571178E+03  0.25500000920E-02 0.  1.
    10030    2    1    2    0    0  0.00000000000E+00  0.00000000000E+00  0.37395671378E+03  0.18441881373E+04  0.18058754836E+04 0.  0.
        4    1    3    3  502    0 -0.54005545504E+02  0.50485968788E+03 -0.57551827482E+03  0.76747820878E+03  0.12699999809E+01 0.  1.
       -4    1    3    3    0  502  0.54005545504E+02 -0.50485968788E+03  0.94947498860E+03  0.10767099286E+04  0.12699999809E+01 0. -1.
</event>
<event>
 5   0  0.1214723E-04  0.1563050E+04  0.7818609E-02  0.8843575E-01
       -1   -1    0    0    0  501  0.00000000000E+00  0.00000000000E+00  0.36778705517E+03  0.36778705520E+03  0.50400001928E-02 0. -1.
        1   -1    0    0  501    0  0.00000000000E+00  0.00000000000E+00 -0.16606928135E+04  0.16606928135E+04  0.50400001928E-02 0.  1.
    10030    2    1    2    0    0  0.00000000000E+00  0.00000000000E+00 -0.12929057583E+04  0.20284798687E+04  0.15630499921E+04 0.  0.
        1    1    3    3  502    0  0.41687452232E+03  0.49669192531E+03 -0.12125754578E+04  0.13750732624E+04  0.50400001928E-02 0.  1.
       -1    1    3    3    0  502 -0.41687452232E+03 -0.49669192531E+03 -0.80330300571E+02  0.65340660636E+03  0.50400001928E-02 0. -1.
</event>
<event>
 5   0  0.2417106E-04  0.1822985E+04  0.7818609E-02  0.8694171E-01
       -2   -1    0    0    0  501  0.00000000000E+00  0.00000000000E+00  0.56167741605E+03  0.56167741606E+03  0.25500000920E-02 0.  1.
        2   -1    0    0  501    0  0.00000000000E+00  0.00000000000E+00 -0.14791742714E+04  0.14791742714E+04  0.25500000920E-02 0. -1.
    10030    2    1    2    0    0  0.00000000000E+00  0.00000000000E+00 -0.91749685536E+03  0.20408516875E+04  0.18229852250E+04 0.  0.
        4    1    3    3  502    0 -0.56494763209E+03  0.66321408822E+03 -0.75872388730E+03  0.11552845121E+04  0.12699999809E+01 0. -1.
       -4    1    3    3    0  502  0.56494763209E+03 -0.66321408822E+03 -0.15877296806E+03  0.88556717538E+03  0.12699999809E+01 0.  1.
</event>
<event>
 5   0  0.2431811E-04  0.1825168E+04  0.7818609E-02  0.8693029E-01
       -2   -1    0    0    0  501  0.00000000000E+00  0.00000000000E+00  0.81879031281E+03  0.81879031281E+03  0.25500000920E-02 0.  1.
        2   -1    0    0  501    0  0.00000000000E+00  0.00000000000E+00 -0.10171214933E+04  0.10171214933E+04  0.25500000920E-02 0. -1.
    10030    2    1    2    0    0  0.00000000000E+00  0.00000000000E+00 -0.19833118052E+03  0.18359118062E+04  0.18251676369E+04 0.  0.
        3    1    3    3  502    0  0.10463356090E+03 -0.88553710806E+03 -0.29443476101E+03  0.93905057931E+03  0.10100000352E+00 0. -1.
       -3    1    3    3    0  502 -0.10463356090E+03  0.88553710806E+03  0.96103580488E+02  0.89686122684E+03  0.10100000352E+00 0.  1.
</event>
<event>
 5   0  0.2550616E-04  0.1796115E+04  0.7818609E-02  0.8708368E-01
       -2   -1    0    0    0  501  0.00000000000E+00  0.00000000000E+00  0.90243400554E+03  0.90243400555E+03  0.25500000920E-02 0. -1.
        2   -1    0    0  501    0  0.00000000000E+00  0.00000000000E+00 -0.89370251474E+03  0.89370251474E+03  0.25500000920E-02 0.  1.
    10030    2    1    2    0    0  0.00000000000E+00  0.00000000000E+00  0.87314908063E+01  0.17961365203E+04  0.17961152971E+04 0.  0.
        1    1    3    3  502    0  0.63755260530E+03  0.59835853323E+03  0.20931030839E+03  0.89906454943E+03  0.50400001928E-02 0. -1.
       -1    1    3    3    0  502 -0.63755260530E+03 -0.59835853323E+03 -0.20057881759E+03  0.89707197086E+03  0.50400001928E-02 0.  1.
</event>
<event>
 5   0  0.2417106E-04  0.2139917E+04  0.7818609E-02  0.8543861E-01
        2   -1    0    0  501    0  0.00000000000E+00  0.00000000000E+00  0.14229595141E+04  0.14229595141E+04  0.25500000920E-02 0.  1.
       -2   -1    0    0    0  501  0.00000000000E+00  0.00000000000E+00 -0.80452821980E+03  0.80452821980E+03  0.25500000920E-02 0. -1.
    10030    2    1    2    0    0  0.00000000000E+00  0.00000000000E+00  0.61843129430E+03  0.22274877339E+04  0.21399169000E+04 0.  0.
        4    1    3    3  502    0 -0.20618122951E+03 -0.27920125878E+03  0.13627328452E+04  0.14062384089E+04  0.12699999809E+01 0.  1.
       -4    1    3    3    0  502  0.20618122951E+03  0.27920125878E+03 -0.74430155090E+03  0.82124932504E+03  0.12699999809E+01 0. -1.
</event>
<event>
 5   0  0.1214723E-04  0.1771502E+04  0.7818609E-02  0.8721603E-01
       -1   -1    0    0    0  501  0.00000000000E+00  0.00000000000E+00  0.79221859249E+03  0.79221859250E+03  0.50400001928E-02 0. -1.
        1   -1    0    0  501    0  0.00000000000E+00  0.00000000000E+00 -0.99032674947E+03  0.99032674949E+03  0.50400001928E-02 0.  1.
    10030    2    1    2    0    0  0.00000000000E+00  0.00000000000E+00 -0.19810815699E+03  0.17825453420E+04  0.17715024850E+04 0.  0.
        1    1    3    3  502    0 -0.64814295960E+03  0.41552170630E+03 -0.53974267734E+03  0.94024982971E+03  0.50400001928E-02 0.  1.
       -1    1    3    3    0  502  0.64814295960E+03 -0.41552170630E+03  0.34163452036E+03  0.84229551229E+03  0.50400001928E-02 0. -1.
</event>
<event>
 5   0  0.2431811E-04  0.1811865E+04  0.7818609E-02  0.8700015E-01
       -2   -1    0    0    0  501  0.00000000000E+00  0.00000000000E+00  0.81842447052E+03  0.81842447052E+03  0.25500000920E-02 0. -1.
        2   -1    0    0  501    0  0.00000000000E+00  0.00000000000E+00 -0.10027973060E+04  0.10027973060E+04  0.25500000920E-02 0.  1.
    10030    2    1    2    0    0  0.00000000000E+00  0.00000000000E+00 -0.18437283552E+03  0.18212217766E+04  0.18118651763E+04 0.  0.
        3    1    3    3  502    0  0.26037274088E+03 -0.24201359273E+03  0.74539292506E+03  0.82581787713E+03  0.10100000352E+00 0. -1.
       -3    1    3    3    0  502 -0.26037274088E+03  0.24201359273E+03 -0.92976576057E+03  0.99540389943E+03  0.10100000352E+00 0.  1.
</event>
<event>
 5   0  0.1214723E-04  0.1787043E+04  0.7818609E-02  0.8713220E-01
       -1   -1    0    0    0  501  0.00000000000E+00  0.00000000000E+00  0.17267416545E+04  0.17267416545E+04  0.50400001928E-02 0. -1.
        1   -1    0    0  501    0  0.00000000000E+00  0.00000000000E+00 -0.46236255060E+03  0.46236255062E+03  0.50400001928E-02 0.  1.
    10030    2    1    2    0    0  0.00000000000E+00  0.00000000000E+00  0.12643791039E+04  0.21891042051E+04  0.17870430052E+04 0.  0.
        1    1    3    3  502    0 -0.52131987743E+03 -0.66771534880E+03  0.28406372965E+03  0.89348217898E+03  0.50400001928E-02 0.  1.
       -1    1    3    3    0  502  0.52131987743E+03  0.66771534880E+03  0.98031537425E+03  0.12956220261E+04  0.50400001928E-02 0. -1.
</event>
<event>
 5   0  0.2417106E-04  0.1810721E+04  0.7818609E-02  0.8700619E-01
        2   -1    0    0  501    0  0.00000000000E+00  0.00000000000E+00  0.49604205689E+03  0.49604205690E+03  0.25500000920E-02 0. -1.
       -2   -1    0    0    0  501  0.00000000000E+00  0.00000000000E+00 -0.16524353762E+04  0.16524353762E+04  0.25500000920E-02 0.  1.
    10030    2    1    2    0    0  0.00000000000E+00  0.00000000000E+00 -0.11563933193E+04  0.21484774331E+04  0.18107207878E+04 0.  0.
        4    1    3    3  502    0 -0.74991040715E+03  0.19649040532E+03 -0.11330847709E+04  0.13729008737E+04  0.12699999809E+01 0.  1.
       -4    1    3    3    0  502  0.74991040715E+03 -0.19649040532E+03 -0.23308548430E+02  0.77557655938E+03  0.12699999809E+01 0. -1.
</event>
<event>
 5   0  0.2569405E-04  0.1798813E+04  0.7818609E-02  0.8706931E-01
       -2   -1    0    0    0  501  0.00000000000E+00  0.00000000000E+00  0.14768052813E+04  0.14768052813E+04  0.25500000920E-02 0.  1.
        2   -1    0    0  501    0  0.00000000000E+00  0.00000000000E+00 -0.54775806182E+03  0.54775806182E+03  0.25500000920E-02 0. -1.
    10030    2    1    2    0    0  0.00000000000E+00  0.00000000000E+00  0.92904721945E+03  0.20245633431E+04  0.17988129403E+04 0.  0.
        2    1    3    3  502    0  0.96748910500E+02 -0.87342772708E+02 -0.53707173489E+03  0.55266188583E+03  0.25500000920E-02 0. -1.
       -2    1    3    3    0  502 -0.96748910500E+02  0.87342772708E+02  0.14661189543E+04  0.14719014573E+04  0.25500000920E-02 0.  1.
</event>
<event>
 5   0  0.2550616E-04  0.1825834E+04  0.7818609E-02  0.8692680E-01
        2   -1    0    0  501    0  0.00000000000E+00  0.00000000000E+00  0.17425451732E+04  0.17425451732E+04  0.25500000920E-02 0.  1.
       -2   -1    0    0    0  501  0.00000000000E+00  0.00000000000E+00 -0.47827615356E+03  0.47827615357E+03  0.25500000920E-02 0. -1.
    10030    2    1    2    0    0  0.00000000000E+00  0.00000000000E+00  0.12642690196E+04  0.22208213268E+04  0.18258343877E+04 0.  0.
        1    1    3    3  502    0 -0.20966553688E+03  0.54136857064E+03  0.14890906656E+04  0.15982586077E+04  0.50400001928E-02 0.  1.
       -1    1    3    3    0  502  0.20966553688E+03 -0.54136857064E+03 -0.22482164599E+03  0.62256271906E+03  0.50400001928E-02 0. -1.
</event>
<event>
 5   0  0.2431811E-04  0.1802479E+04  0.7818609E-02  0.8704982E-01
        2   -1    0    0  501    0  0.00000000000E+00  0.00000000000E+00  0.14106916013E+04  0.14106916013E+04  0.25500000920E-02 0.  1.
       -2   -1    0    0    0  501  0.00000000000E+00  0.00000000000E+00 -0.57576900317E+03  0.57576900317E+03  0.25500000920E-02 0. -1.
    10030    2    1    2    0    0  0.00000000000E+00  0.00000000000E+00  0.83492259816E+03  0.19864606045E+04  0.18024788455E+04 0.  0.
        3    1    3    3  502    0 -0.68271063210E+03 -0.56243659200E+03  0.22720225667E+03  0.91326316188E+03  0.10100000352E+00 0.  1.
       -3    1    3    3    0  502  0.68271063210E+03  0.56243659200E+03  0.60772034149E+03  0.10731974426E+04  0.10100000352E+00 0. -1.
</event>
<event>
 5   0  0.2569405E-04  0.1751964E+04  0.7818609E-02  0.8732270E-01
        2   -1    0    0  501    0  0.00000000000E+00  0.00000000000E+00  0.19810794506E+04  0.19810794506E+04  0.25500000920E-02 0. -1.
       -2   -1    0    0    0  501  0.00000000000E+00  0.00000000000E+00 -0.38733662690E+03  0.38733662690E+03  0.25500000920E-02 0.  1.
    10030    2    1    2    0    0  0.00000000000E+00  0.00000000000E+00  0.15937428237E+04  0.23684160775E+04  0.17519641914E+04 0.  0.
        2    1    3    3  502    0 -0.74254077273E+03  0.46131040068E+03  0.72075121947E+03  0.11329856157E+04  0.25500000920E-02 0. -1.
       -2    1    3    3    0  502  0.74254077273E+03 -0.46131040068E+03  0.87299160420E+03  0.12354304618E+04  0.25500000920E-02 0.  1.
</event>
<event>
 5   0  0.1253925E-04  0.1785131E+04  0.7818609E-02  0.8714247E-01
        1   -1    0    0  501    0  0.00000000000E+00  0.00000000000E+00  0.90957086415E+03  0.90957086417E+03  0.50400001928E-02 0. -1.
       -1   -1    0    0    0  501  0.00000000000E+00  0.00000000000E+00 -0.87587800667E+03  0.87587800669E+03  0.50400001928E-02 0.  1.
    10030    2    1    2    0    0  0.00000000000E+00  0.00000000000E+00  0.33692857484E+02  0.17854488709E+04  0.17851309369E+04 0.  0.
        2    1    3    3  502    0 -0.21313167256E+02 -0.65208124269E+03  0.62605992441E+03  0.90422078451E+03  0.25500000920E-02 0. -1.
       -2    1    3    3    0  502  0.21313167256E+02  0.65208124269E+03 -0.59236706693E+03  0.88122808634E+03  0.25500000920E-02 0.  1.
</event>
<event>
 5   0  0.1253925E-04  0.1795944E+04  0.7818609E-02  0.8708459E-01
       -1   -1    0    0    0  501  0.00000000000E+00  0.00000000000E+00  0.50059721124E+03  0.50059721127E+03  0.50400001928E-02 0.  1.
        1   -1    0    0  501    0  0.00000000000E+00  0.00000000000E+00 -0.16107839492E+04  0.16107839492E+04  0.50400001928E-02 0. -1.
    10030    2    1    2    0    0  0.00000000000E+00  0.00000000000E+00 -0.11101867380E+04  0.21113811605E+04  0.17959442674E+04 0.  0.
        2    1    3    3  502    0 -0.46432975714E+03  0.61067691405E+03 -0.64019318374E+01  0.76718276927E+03  0.25500000920E-02 0.  1.
       -2    1    3    3    0  502  0.46432975714E+03 -0.61067691405E+03 -0.11037848062E+04  0.13441983912E+04  0.25500000920E-02 0. -1.
</event>
<event>
 5   0  0.1308893E-04  0.1776660E+04  0.7818609E-02  0.8718811E-01
        1   -1    0    0  501    0  0.00000000000E+00  0.00000000000E+00  0.15152828292E+04  0.15152828292E+04  0.50400001928E-02 0.  1.
       -1   -1    0    0    0  501  0.00000000000E+00  0.00000000000E+00 -0.52078072738E+03  0.52078072740E+03  0.50400001928E-02 0. -1.
    10030    2    1    2    0    0  0.00000000000E+00  0.00000000000E+00  0.99450210178E+03  0.20360635566E+04  0.17766598932E+04 0.  0.
        4    1    3    3  502    0  0.72170694362E+03  0.12413303917E+03 -0.79018748092E+02  0.73655651469E+03  0.12699999809E+01 0. -1.
       -4    1    3    3    0  502 -0.72170694362E+03 -0.12413303917E+03  0.10735208499E+04  0.12995070419E+04  0.12699999809E+01 0.  1.
</event>
<event>
 5   0  0.1239119E-04  0.1744798E+04  0.7818609E-02  0.8736219E-01
       -1   -1    0    0    0  501  0.00000000000E+00  0.00000000000E+00  0.66498931029E+03  0.66498931031E+03  0.50400001928E-02 0. -1.
        1   -1    0    0  501    0  0.00000000000E+00  0.00000000000E+00 -0.11444999826E+04  0.11444999826E+04  0.50400001928E-02 0.  1.
    10030    2    1    2    0    0  0.00000000000E+00  0.00000000000E+00 -0.47951067231E+03  0.18094892929E+04  0.17447982738E+04 0.  0.
        5    1    3    3  502    0 -0.30148504028E+03 -0.81861843936E+03 -0.24531945449E+03  0.90621912555E+03  0.46999998093E+01 0. -1.
       -5    1    3    3    0  502  0.30148504028E+03  0.81861843936E+03 -0.23419121782E+03  0.90327016737E+03  0.46999998093E+01 0.  1.
</event>
<event>
 5   0  0.1239119E-04  0.1776745E+04  0.7818609E-02  0.8718765E-01
        1   -1    0    0  501    0  0.00000000000E+00  0.00000000000E+00  0.86541271245E+03  0.86541271246E+03  0.50400001928E-02 0.  1.
       -1   -1    0    0    0  501  0.00000000000E+00  0.00000000000E+00 -0.91194161779E+03  0.91194161781E+03  0.50400001928E-02 0. -1.
    10030    2    1    2    0    0  0.00000000000E+00  0.00000000000E+00 -0.46528905345E+02  0.17773543303E+04  0.17767451917E+04 0.  0.
        5    1    3    3  502    0  0.57585853965E+03 -0.56147780721E+03 -0.40063826131E+03  0.89855633775E+03  0.46999998093E+01 0. -1.
       -5    1    3    3    0  502 -0.57585853965E+03  0.56147780721E+03  0.35410935596E+03  0.87879799252E+03  0.46999998093E+01 0.  1.
</event>
<event>
 5   0  0.2431811E-04  0.1814132E+04  0.7818609E-02  0.8698820E-01
       -2   -1    0    0    0  501  0.00000000000E+00  0.00000000000E+00  0.48076739612E+03  0.48076739612E+03  0.25500000920E-02 0.  1.
        2   -1    0    0  501    0  0.00000000000E+00  0.00000000000E+00 -0.17113663210E+04  0.17113663210E+04  0.25500000920E-02 0. -1.
    10030    2    1    2    0    0  0.00000000000E+00  0.00000000000E+00 -0.12305989249E+04  0.21921337171E+04  0.18141324428E+04 0.  0.
        3    1    3    3  502    0  0.85184841678E+03 -0.14034737006E+03 -0.27906556676E+03  0.90731511076E+03  0.10100000352E+00 0. -1.
       -3    1    3    3    0  502 -0.85184841678E+03  0.14034737006E+03 -0.95153335814E+03  0.12848186064E+04  0.10100000352E+00 0.  1.
</event>
<event>
 5   0  0.2431811E-04  0.1818154E+04  0.7818609E-02  0.8696705E-01
        2   -1    0    0  501    0  0.00000000000E+00  0.00000000000E+00  0.23131456237E+04  0.23131456237E+04  0.25500000920E-02 0.  1.
       -2   -1    0    0    0  501  0.00000000000E+00  0.00000000000E+00 -0.35727140898E+03  0.35727140899E+03  0.25500000920E-02 0. -1.
    10030    2    1    2    0    0  0.00000000000E+00  0.00000000000E+00  0.19558742147E+04  0.26704170327E+04  0.18181537847E+04 0.  0.
        3    1    3    3  502    0 -0.34099053927E+02  0.72814817214E+03  0.17757524396E+04  0.19195466243E+04  0.10100000352E+00 0.  1.
       -3    1    3    3    0  502  0.34099053927E+02 -0.72814817214E+03  0.18012177513E+03  0.75087040836E+03  0.10100000352E+00 0. -1.
</event>
<event>
 5   0  0.1239119E-04  0.1790216E+04  0.7818609E-02  0.8711520E-01
        1   -1    0    0  501    0  0.00000000000E+00  0.00000000000E+00  0.10446414204E+04  0.10446414204E+04  0.50400001928E-02 0. -1.
       -1   -1    0    0    0  501  0.00000000000E+00  0.00000000000E+00 -0.76697899828E+03  0.76697899830E+03  0.50400001928E-02 0.  1.
    10030    2    1    2    0    0  0.00000000000E+00  0.00000000000E+00  0.27766242208E+03  0.18116204187E+04  0.17902156632E+04 0.  0.
        5    1    3    3  502    0 -0.56692982938E+03  0.61811943342E+03 -0.17750010942E+03  0.85732691796E+03  0.46999998093E+01 0.  1.
       -5    1    3    3    0  502  0.56692982938E+03 -0.61811943342E+03  0.45516253150E+03  0.95429350071E+03  0.46999998093E+01 0. -1.
</event>
<event>
 5   0  0.2550616E-04  0.1763870E+04  0.7818609E-02  0.8725752E-01
       -2   -1    0    0    0  501  0.00000000000E+00  0.00000000000E+00  0.45802383189E+03  0.45802383189E+03  0.25500000920E-02 0. -1.
        2   -1    0    0  501    0  0.00000000000E+00  0.00000000000E+00 -0.16981856683E+04  0.16981856683E+04  0.25500000920E-02 0.  1.
    10030    2    1    2    0    0  0.00000000000E+00  0.00000000000E+00 -0.12401618364E+04  0.21562095002E+04  0.17638701846E+04 0.  0.
        1    1    3    3  502    0  0.78469401017E+03 -0.20291341633E+03 -0.19504928451E+03  0.83364426918E+03  0.50400001928E-02 0. -1.
       -1    1    3    3    0  502 -0.78469401017E+03  0.20291341633E+03 -0.10451125519E+04  0.13225652310E+04  0.50400001928E-02 0.  1.
</event>
<event>
 5   0  0.1253925E-04  0.1805157E+04  0.7818609E-02  0.8703562E-01
       -1   -1    0    0    0  501  0.00000000000E+00  0.00000000000E+00  0.58075430326E+03  0.58075430329E+03  0.50400001928E-02 0. -1.
        1   -1    0    0  501    0  0.00000000000E+00  0.00000000000E+00 -0.14027412796E+04  0.14027412796E+04  0.50400001928E-02 0.  1.
    10030    2    1    2    0    0  0.00000000000E+00  0.00000000000E+00 -0.82198697633E+03  0.19834955829E+04  0.18051570951E+04 0.  0.
        2    1    3    3  502    0  0.21463243391E+03 -0.20499425448E+02  0.55204198520E+03  0.59265307015E+03  0.25500000920E-02 0. -1.
       -2    1    3    3    0  502 -0.21463243391E+03  0.20499425448E+02 -0.13740289615E+04  0.13908425127E+04  0.25500000920E-02 0.  1.
</event>
<event>
 5   0  0.2431811E-04  0.1829940E+04  0.7818609E-02  0.8690538E-01
        2   -1    0    0  501    0  0.00000000000E+00  0.00000000000E+00  0.11625112784E+04  0.11625112784E+04  0.25500000920E-02 0.  1.
       -2   -1    0    0    0  501  0.00000000000E+00  0.00000000000E+00 -0.72013959686E+03  0.72013959687E+03  0.25500000920E-02 0. -1.
    10030    2    1    2    0    0  0.00000000000E+00  0.00000000000E+00  0.44237168150E+03  0.18826508752E+04  0.18299403306E+04 0.  0.
        3    1    3    3  502    0  0.84953279956E+03  0.29196416786E+03  0.42335520399E+02  0.89930048334E+03  0.10100000352E+00 0. -1.
       -3    1    3    3    0  502 -0.84953279956E+03 -0.29196416786E+03  0.40003616110E+03  0.98335039189E+03  0.10100000352E+00 0.  1.
</event>
<event>
 5   0  0.2417106E-04  0.1806560E+04  0.7818609E-02  0.8702819E-01
       -2   -1    0    0    0  501  0.00000000000E+00  0.00000000000E+00  0.88822670475E+03  0.88822670475E+03  0.25500000920E-02 0.  1.
        2   -1    0    0  501    0  0.00000000000E+00  0.00000000000E+00 -0.91858792469E+03  0.91858792469E+03  0.25500000920E-02 0. -1.
    10030    2    1    2    0    0  0.00000000000E+00  0.00000000000E+00 -0.30361219937E+02  0.18068146294E+04  0.18065595206E+04 0.  0.
        4    1    3    3  502    0  0.95856440140E+02 -0.89806819390E+03 -0.29245826490E+02  0.90364366278E+03  0.12699999809E+01 0. -1.
       -4    1    3    3    0  502 -0.95856440140E+02  0.89806819390E+03 -0.11153934465E+01  0.90317096666E+03  0.12699999809E+01 0.  1.
</event>
<event>
 5   0  0.2393421E-04  0.1654382E+04  0.7818609E-02  0.8787818E-01
        2   -1    0    0  501    0  0.00000000000E+00  0.00000000000E+00  0.95785550616E+03  0.95785550616E+03  0.25500000920E-02 0. -1.
       -2   -1    0    0    0  501  0.00000000000E+00  0.00000000000E+00 -0.71435116225E+03  0.71435116225E+03  0.25500000920E-02 0.  1.
    10030    2    1    2    0    0  0.00000000000E+00  0.00000000000E+00  0.24350434391E+03  0.16722066684E+04  0.16543822945E+04 0.  0.
        5    1    3    3  502    0  0.18136742095E+02 -0.14841070718E+03  0.94407038429E+03  0.95584813643E+03  0.46999998093E+01 0. -1.
       -5    1    3    3    0  502 -0.18136742095E+02  0.14841070718E+03 -0.70056604038E+03  0.71635853199E+03  0.46999998093E+01 0.  1.
</event>
<event>
 5   0  0.1214723E-04  0.1832207E+04  0.7818609E-02  0.8689357E-01
       -1   -1    0    0    0  501  0.00000000000E+00  0.00000000000E+00  0.99174336291E+03  0.99174336292E+03  0.50400001928E-02 0. -1.
        1   -1    0    0  501    0  0.00000000000E+00  0.00000000000E+00 -0.84623236734E+03  0.84623236736E+03  0.50400001928E-02 0.  1.
    10030    2    1    2    0    0  0.00000000000E+00  0.00000000000E+00  0.14551099557E+03  0.18379757303E+04  0.18322066846E+04 0.  0.
        1    1    3    3  502    0  0.31021284213E+03 -0.86195249652E+03  0.65576141161E+02  0.91841948150E+03  0.50400001928E-02 0. -1.
       -1    1    3    3    0  502 -0.31021284213E+03  0.86195249652E+03  0.79934854408E+02  0.91955624878E+03  0.50400001928E-02 0.  1.
</event>
<event>
 5   0  0.1330225E-04  0.1840587E+04  0.7818609E-02  0.8685008E-01
       -1   -1    0    0    0  501  0.00000000000E+00  0.00000000000E+00  0.63917231355E+03  0.63917231357E+03  0.50400001928E-02 0. -1.
        1   -1    0    0  501    0  0.00000000000E+00  0.00000000000E+00 -0.13250581634E+04  0.13250581634E+04  0.50400001928E-02 0.  1.
    10030    2    1    2    0    0  0.00000000000E+00  0.00000000000E+00 -0.68588584983E+03  0.19642304770E+04  0.18405873974E+04 0.  0.
        3    1    3    3  502    0 -0.12996476803E+03  0.77332336105E+03  0.17109988948E+03  0.80261762008E+03  0.10100000352E+00 0. -1.
       -3    1    3    3    0  502  0.12996476803E+03 -0.77332336105E+03 -0.85698573931E+03  0.11616128569E+04  0.10100000352E+00 0.  1.
</event>
<event>
 5   0  0.1308893E-04  0.1816391E+04  0.7818609E-02  0.8697631E-01
       -1   -1    0    0    0  501  0.00000000000E+00  0.00000000000E+00  0.12351981788E+04  0.12351981789E+04  0.50400001928E-02 0. -1.
        1   -1    0    0  501    0  0.00000000000E+00  0.00000000000E+00 -0.66776224081E+03  0.66776224083E+03  0.50400001928E-02 0.  1.
    10030    2    1    2    0    0  0.00000000000E+00  0.00000000000E+00  0.56743593803E+03  0.19029604197E+04  0.18163906009E+04 0.  0.
        4    1    3    3  502    0 -0.64521527764E+03 -0.41456197738E+03 -0.22593697824E+03  0.79950829804E+03  0.12699999809E+01 0.  1.
       -4    1    3    3    0  502  0.64521527764E+03  0.41456197738E+03  0.79337291627E+03  0.11034521216E+04  0.12699999809E+01 0. -1.
</event>
<event>
 5   0  0.1239119E-04  0.1793500E+04  0.7818609E-02  0.8709764E-01
        1   -1    0    0  501    0  0.00000000000E+00  0.00000000000E+00  0.13451176167E+04  0.13451176167E+04  0.50400001928E-02 0.  1.
       -1   -1    0    0    0  501  0.00000000000E+00  0.00000000000E+00 -0.59783690582E+03  0.59783690584E+03  0.50400001928E-02 0. -1.
    10030    2    1    2    0    0  0.00000000000E+00  0.00000000000E+00  0.74728071087E+03  0.19429545225E+04  0.17935004365E+04 0.  0.
        5    1    3    3  502    0 -0.88576717716E+03  0.12957187984E+03  0.43062088350E+03  0.99339257068E+03  0.46999998093E+01 0. -1.
       -5    1    3    3    0  502  0.88576717716E+03 -0.12957187984E+03  0.31665982737E+03  0.94956195187E+03  0.46999998093E+01 0.  1.
</event>
<event>
 5   0  0.2431811E-04  0.1710833E+04  0.7818609E-02  0.8755210E-01
       -2   -1    0    0    0  501  0.00000000000E+00  0.00000000000E+00  0.83400092453E+03  0.83400092453E+03  0.25500000920E-02 0.  1.
        2   -1    0    0  501    0  0.00000000000E+00  0.00000000000E+00 -0.87738208778E+03  0.87738208779E+03  0.25500000920E-02 0. -1.
    10030    2    1    2    0    0  0.00000000000E+00  0.00000000000E+00 -0.43381163256E+02  0.17113830123E+04  0.17108330981E+04 0.  0.
        3    1    3    3  502    0  0.44322941086E+03 -0.12863800757E+03 -0.74215636455E+03  0.87395430503E+03  0.10100000352E+00 0. -1.
       -3    1    3    3    0  502 -0.44322941086E+03  0.12863800757E+03  0.69877520129E+03  0.83742870729E+03  0.10100000352E+00 0.  1.
</event>
<event>
 5   0  0.1253925E-04  0.1820013E+04  0.7818609E-02  0.8695729E-01
       -1   -1    0    0    0  501  0.00000000000E+00  0.00000000000E+00  0.80089512361E+03  0.80089512362E+03  0.50400001928E-02 0.  1.
        1   -1    0    0  501    0  0.00000000000E+00  0.00000000000E+00 -0.10339824512E+04  0.10339824512E+04  0.50400001928E-02 0. -1.
    10030    2    1    2    0    0  0.00000000000E+00  0.00000000000E+00 -0.23308732762E+03  0.18348775749E+04  0.18200126407E+04 0.  0.
        2    1    3    3  502    0 -0.57776784331E+03 -0.33507891295E+03  0.50658046759E+03  0.83828236819E+03  0.25500000920E-02 0.  1.
       -2    1    3    3    0  502  0.57776784331E+03  0.33507891295E+03 -0.73966779521E+03  0.99659520666E+03  0.25500000920E-02 0. -1.
</event>
<event>
 5   0  0.1308893E-04  0.1813768E+04  0.7818609E-02  0.8699012E-01
       -1   -1    0    0    0  501  0.00000000000E+00  0.00000000000E+00  0.66908743078E+03  0.66908743080E+03  0.50400001928E-02 0. -1.
        1   -1    0    0  501    0  0.00000000000E+00  0.00000000000E+00 -0.12291951152E+04  0.12291951152E+04  0.50400001928E-02 0.  1.
    10030    2    1    2    0    0  0.00000000000E+00  0.00000000000E+00 -0.56010768442E+03  0.18982825460E+04  0.18137684544E+04 0.  0.
        4    1    3    3  502    0 -0.58217282266E+03 -0.53926552945E+03 -0.73949020902E+03  0.10847026730E+04  0.12699999809E+01 0.  1.
       -4    1    3    3    0  502  0.58217282266E+03  0.53926552945E+03  0.17938252461E+03  0.81357987299E+03  0.12699999809E+01 0. -1.
</event>
<event>
 5   0  0.1330225E-04  0.1794937E+04  0.7818609E-02  0.8708996E-01
        1   -1    0    0  501    0  0.00000000000E+00  0.00000000000E+00  0.48258210764E+03  0.48258210767E+03  0.50400001928E-02 0. -1.
       -1   -1    0    0    0  501  0.00000000000E+00  0.00000000000E+00 -0.16690420605E+04  0.16690420605E+04  0.50400001928E-02 0.  1.
    10030    2    1    2    0    0  0.00000000000E+00  0.00000000000E+00 -0.11864599529E+04  0.21516241682E+04  0.17949371414E+04 0.  0.
        3    1    3    3  502    0  0.85791430622E+03 -0.25622953195E+03 -0.66692235649E+03  0.11164479252E+04  0.10100000352E+00 0.  1.
       -3    1    3    3    0  502 -0.85791430622E+03  0.25622953195E+03 -0.51953759641E+03  0.10351762430E+04  0.10100000352E+00 0. -1.
</event>
<event>
 5   0  0.1308893E-04  0.1777463E+04  0.7818609E-02  0.8718377E-01
       -1   -1    0    0    0  501  0.00000000000E+00  0.00000000000E+00  0.59495025176E+03  0.59495025178E+03  0.50400001928E-02 0.  1.
        1   -1    0    0  501    0  0.00000000000E+00  0.00000000000E+00 -0.13275796362E+04  0.13275796363E+04  0.50400001928E-02 0. -1.
    10030    2    1    2    0    0  0.00000000000E+00  0.00000000000E+00 -0.73262938449E+03  0.19225298880E+04  0.17774631798E+04 0.  0.
        4    1    3    3  502    0  0.54393459440E+03 -0.51334214087E+03  0.15292472673E+03  0.76339542933E+03  0.12699999809E+01 0.  1.
       -4    1    3    3    0  502 -0.54393459440E+03  0.51334214087E+03 -0.88555411122E+03  0.11591344587E+04  0.12699999809E+01 0. -1.
</event>
<event>
 5   0  0.2569405E-04  0.1772022E+04  0.7818609E-02  0.8721321E-01
       -2   -1    0    0    0  501  0.00000000000E+00  0.00000000000E+00  0.37278775056E+03  0.37278775057E+03  0.25500000920E-02 0.  1.
        2   -1    0    0  501    0  0.00000000000E+00  0.00000000000E+00 -0.21057963509E+04  0.21057963510E+04  0.25500000920E-02 0. -1.
    10030    2    1    2    0    0  0.00000000000E+00  0.00000000000E+00 -0.17330086004E+04  0.24785841015E+04  0.17720215403E+04 0.  0.
        2    1    3    3  502    0 -0.35440040547E+03  0.44683984406E+03  0.81903983845E+02  0.57617163781E+03  0.25500000920E-02 0.  1.
       -2    1    3    3    0  502  0.35440040547E+03 -0.44683984406E+03 -0.18149125842E+04  0.19024124637E+04  0.25500000920E-02 0. -1.
</event>
<event>
 5   0  0.2393421E-04  0.1795908E+04  0.7818609E-02  0.8708479E-01
        2   -1    0    0  501    0  0.00000000000E+00  0.00000000000E+00  0.82138328832E+03  0.82138328832E+03  0.25500000920E-02 0.  1.
       -2   -1    0    0    0  501  0.00000000000E+00  0.00000000000E+00 -0.98166251943E+03  0.98166251943E+03  0.25500000920E-02 0. -1.
    10030    2    1    2    0    0  0.00000000000E+00  0.00000000000E+00 -0.16027923111E+03  0.18030458078E+04  0.17959077796E+04 0.  0.
        5    1    3    3  502    0 -0.37734318538E+03 -0.18041125950E+03  0.71760207822E+03  0.83060877360E+03  0.46999998093E+01 0.  1.
       -5    1    3    3    0  502  0.37734318538E+03  0.18041125950E+03 -0.87788130934E+03  0.97243703415E+03  0.46999998093E+01 0. -1.
</event>
<event>
 5   0  0.2431811E-04  0.1801734E+04  0.7818609E-02  0.8705378E-01
       -2   -1    0    0    0  501  0.00000000000E+00  0.00000000000E+00  0.79847815716E+03  0.79847815717E+03  0.25500000920E-02 0. -1.
        2   -1    0    0  501    0  0.00000000000E+00  0.00000000000E+00 -0.10163853941E+04  0.10163853941E+04  0.25500000920E-02 0.  1.
    10030    2    1    2    0    0  0.00000000000E+00  0.00000000000E+00 -0.21790723693E+03  0.18148635513E+04  0.18017342051E+04 0.  0.
        3    1    3    3  502    0 -0.29152471285E+03 -0.38459817625E+03 -0.87519332398E+03  0.99943272906E+03  0.10100000352E+00 0.  1.
       -3    1    3    3    0  502  0.29152471285E+03  0.38459817625E+03  0.65728608705E+03  0.81543082221E+03  0.10100000352E+00 0. -1.
</event>
<event>
 5   0  0.2393421E-04  0.1797046E+04  0.7818609E-02  0.8707872E-01
        2   -1    0    0  501    0  0.00000000000E+00  0.00000000000E+00  0.50128588751E+03  0.50128588751E+03  0.25500000920E-02 0. -1.
       -2   -1    0    0    0  501  0.00000000000E+00  0.00000000000E+00 -0.16105453162E+04  0.16105453162E+04  0.25500000920E-02 0.  1.
    10030    2    1    2    0    0  0.00000000000E+00  0.00000000000E+00 -0.11092594287E+04  0.21118312037E+04  0.17970460631E+04 0.  0.
        5    1    3    3  502    0 -0.56045003414E+03  0.51047961827E+03  0.12171617792E+02  0.75819781041E+03  0.46999998093E+01 0. -1.
       -5    1    3    3    0  502  0.56045003414E+03 -0.51047961827E+03 -0.11214310465E+04  0.13536333933E+04  0.46999998093E+01 0.  1.
</event>
<event>
 5   0  0.1308893E-04  0.1771065E+04  0.7818609E-02  0.8721840E-01
        1   -1    0    0  501    0  0.00000000000E+00  0.00000000000E+00  0.80971434776E+03  0.80971434778E+03  0.50400001928E-02 0.  1.
       -1   -1    0    0    0  501  0.00000000000E+00  0.00000000000E+00 -0.96845026212E+03  0.96845026214E+03  0.50400001928E-02 0. -1.
    10030    2    1    2    0    0  0.00000000000E+00  0.00000000000E+00 -0.15873591436E+03  0.17781646099E+04  0.17710652979E+04 0.  0.
        4    1    3    3  502    0  0.21743092937E+03 -0.27197904484E+03 -0.89682921605E+03  0.96205668520E+03  0.12699999809E+01 0. -1.
       -4    1    3    3    0  502 -0.21743092937E+03  0.27197904484E+03  0.73809330169E+03  0.81610792471E+03  0.12699999809E+01 0.  1.
</event>
<event>
 5   0  0.1330225E-04  0.1794054E+04  0.7818609E-02  0.8709468E-01
       -1   -1    0    0    0  501  0.00000000000E+00  0.00000000000E+00  0.52776709964E+03  0.52776709966E+03  0.50400001928E-02 0. -1.
        1   -1    0    0  501    0  0.00000000000E+00  0.00000000000E+00 -0.15246454057E+04  0.15246454057E+04  0.50400001928E-02 0.  1.
    10030    2    1    2    0    0  0.00000000000E+00  0.00000000000E+00 -0.99687830603E+03  0.20524125053E+04  0.17940542732E+04 0.  0.
        3    1    3    3  502    0  0.53727251077E+03  0.57565405485E+03 -0.68905271535E+01  0.78745592338E+03  0.10100000352E+00 0. -1.
       -3    1    3    3    0  502 -0.53727251077E+03 -0.57565405485E+03 -0.98998777888E+03  0.12649565820E+04  0.10100000352E+00 0.  1.
</event>
<event>
 5   0  0.1330225E-04  0.1806397E+04  0.7818609E-02  0.8702905E-01
        1   -1    0    0  501    0  0.00000000000E+00  0.00000000000E+00  0.13824646873E+04  0.13824646873E+04  0.50400001928E-02 0. -1.
       -1   -1    0    0    0  501  0.00000000000E+00  0.00000000000E+00 -0.59008223091E+03  0.59008223093E+03  0.50400001928E-02 0.  1.
    10030    2    1    2    0    0  0.00000000000E+00  0.00000000000E+00  0.79238245641E+03  0.19725469183E+04  0.18063973504E+04 0.  0.
        3    1    3    3  502    0  0.28975083847E+03 -0.62218740857E+03  0.10372998537E+04  0.12438101609E+04  0.10100000352E+00 0. -1.
       -3    1    3    3    0  502 -0.28975083847E+03  0.62218740857E+03 -0.24491739729E+03  0.72873675732E+03  0.10100000352E+00 0.  1.
</event>
<event>
 5   0  0.1239119E-04  0.1798989E+04  0.7818609E-02  0.8706837E-01
        1   -1    0    0  501    0  0.00000000000E+00  0.00000000000E+00  0.10805818128E+04  0.10805818128E+04  0.50400001928E-02 0. -1.
       -1   -1    0    0    0  501  0.00000000000E+00  0.00000000000E+00 -0.74875459699E+03  0.74875459700E+03  0.50400001928E-02 0.  1.
    10030    2    1    2    0    0  0.00000000000E+00  0.00000000000E+00  0.33182721582E+03  0.18293364098E+04  0.17989892715E+04 0.  0.
        5    1    3    3  502    0 -0.53594007140E+03 -0.72237477157E+03  0.16935282701E+03  0.91529205216E+03  0.46999998093E+01 0. -1.
       -5    1    3    3    0  502  0.53594007140E+03  0.72237477157E+03  0.16247438881E+03  0.91404435765E+03  0.46999998093E+01 0.  1.
</event>
<event>
 5   0  0.2569405E-04  0.1808602E+04  0.7818609E-02  0.8701738E-01
       -2   -1    0    0    0  501  0.00000000000E+00  0.00000000000E+00  0.53861049137E+03  0.53861049138E+03  0.25500000920E-02 0. -1.
        2   -1    0    0  501    0  0.00000000000E+00  0.00000000000E+00 -0.15182783506E+04  0.15182783506E+04  0.25500000920E-02 0.  1.
    10030    2    1    2    0    0  0.00000000000E+00  0.00000000000E+00 -0.97966785926E+03  0.20568888420E+04  0.18086023869E+04 0.  0.
        2    1    3    3  502    0  0.30976244753E+03 -0.84932796888E+03 -0.51395597105E+03  0.10399334175E+04  0.25500000920E-02 0. -1.
       -2    1    3    3    0  502 -0.30976244753E+03  0.84932796888E+03 -0.46571188820E+03  0.10169554245E+04  0.25500000920E-02 0.  1.
</event>
<event>
 5   0  0.2431811E-04  0.1770714E+04  0.7818609E-02  0.8722030E-01
        2   -1    0    0  501    0  0.00000000000E+00  0.00000000000E+00  0.14366393666E+04  0.14366393666E+04  0.25500000920E-02 0.  1.
       -2   -1    0    0    0  501  0.00000000000E+00  0.00000000000E+00 -0.54561867653E+03  0.54561867654E+03  0.25500000920E-02 0. -1.
    10030    2    1    2    0    0  0.00000000000E+00  0.00000000000E+00  0.89102069002E+03  0.19822580431E+04  0.17707142851E+04 0.  0.
        3    1    3    3  502    0 -0.18235343629E+03  0.42821441552E+03  0.12886391647E+04  0.13701135969E+04  0.10100000352E+00 0.  1.
       -3    1    3    3    0  502  0.18235343629E+03 -0.42821441552E+03 -0.39761847470E+03  0.61214444619E+03  0.10100000352E+00 0. -1.
</event>
<event>
 5   0  0.2431811E-04  0.1866048E+04  0.7818609E-02  0.8671943E-01
        2   -1    0    0  501    0  0.00000000000E+00  0.00000000000E+00  0.19083022106E+04  0.19083022106E+04  0.25500000920E-02 0. -1.
       -2   -1    0    0    0  501  0.00000000000E+00  0.00000000000E+00 -0.45618250494E+03  0.45618250495E+03  0.25500000920E-02 0.  1.
    10030    2    1    2    0    0  0.00000000000E+00  0.00000000000E+00  0.14521197056E+04  0.23644847155E+04  0.18660483194E+04 0.  0.
        3    1    3    3  502    0 -0.20910401335E+03 -0.54236249623E+03  0.16508338578E+04  0.17501811341E+04  0.10100000352E+00 0. -1.
       -3    1    3    3    0  502  0.20910401335E+03  0.54236249623E+03 -0.19871415219E+03  0.61430358146E+03  0.10100000352E+00 0.  1.
</event>
<event>
 5   0  0.1253925E-04  0.1764817E+04  0.7818609E-02  0.8725237E-01
        1   -1    0    0  501    0  0.00000000000E+00  0.00000000000E+00  0.10532988853E+04  0.10532988853E+04  0.50400001928E-02 0. -1.
       -1   -1    0    0    0  501  0.00000000000E+00  0.00000000000E+00 -0.73924349739E+03  0.73924349741E+03  0.50400001928E-02 0.  1.
    10030    2    1    2    0    0  0.00000000000E+00  0.00000000000E+00  0.31405538791E+03  0.17925423827E+04  0.17648165364E+04 0.  0.
        2    1    3    3  502    0 -0.76672075962E+01 -0.50446101097E+03  0.89235192350E+03  0.10251008014E+04  0.25500000920E-02 0. -1.
       -2    1    3    3    0  502  0.76672075962E+01  0.50446101097E+03 -0.57829653559E+03  0.76744158132E+03  0.25500000920E-02 0.  1.
</event>
<event>
 5   0  0.2417106E-04  0.1728578E+04  0.7818609E-02  0.8745231E-01
       -2   -1    0    0    0  501  0.00000000000E+00  0.00000000000E+00  0.48922201247E+03  0.48922201248E+03  0.25500000920E-02 0. -1.
        2   -1    0    0  501    0  0.00000000000E+00  0.00000000000E+00 -0.15269045017E+04  0.15269045017E+04  0.25500000920E-02 0.  1.
    10030    2    1    2    0    0  0.00000000000E+00  0.00000000000E+00 -0.10376824893E+04  0.20161265142E+04  0.17285777891E+04 0.  0.
        4    1    3    3  502    0  0.16656479346E+03  0.82600136704E+03 -0.29457550861E+03  0.89263566585E+03  0.12699999809E+01 0.  1.
       -4    1    3    3    0  502 -0.16656479346E+03 -0.82600136704E+03 -0.74310698066E+03  0.11234908484E+04  0.12699999809E+01 0. -1.
</event>
<event>
 5   0  0.2431811E-04  0.1787227E+04  0.7818609E-02  0.8713121E-01
        2   -1    0    0  501    0  0.00000000000E+00  0.00000000000E+00  0.50540884019E+03  0.50540884019E+03  0.25500000920E-02 0. -1.
       -2   -1    0    0    0  501  0.00000000000E+00  0.00000000000E+00 -0.15799991080E+04  0.15799991080E+04  0.25500000920E-02 0.  1.
    10030    2    1    2    0    0  0.00000000000E+00  0.00000000000E+00 -0.10745902678E+04  0.20854079482E+04  0.17872274804E+04 0.  0.
        3    1    3    3  502    0 -0.33129730079E+03  0.85632372362E+02  0.42593417138E+03  0.54636135776E+03  0.10100000352E+00 0. -1.
       -3    1    3    3    0  502  0.33129730079E+03 -0.85632372362E+02 -0.15005244392E+04  0.15390465904E+04  0.10100000352E+00 0.  1.
</event>
<event>
 5   0  0.2431811E-04  0.1822885E+04  0.7818609E-02  0.8694223E-01
        2   -1    0    0  501    0  0.00000000000E+00  0.00000000000E+00  0.11221290397E+04  0.11221290397E+04  0.25500000920E-02 0.  1.
       -2   -1    0    0    0  501  0.00000000000E+00  0.00000000000E+00 -0.74031385340E+03  0.74031385341E+03  0.25500000920E-02 0. -1.
    10030    2    1    2    0    0  0.00000000000E+00  0.00000000000E+00  0.38181518626E+03  0.18624428931E+04  0.18228852661E+04 0.  0.
        3    1    3    3  502    0 -0.45827270537E+03  0.45504366204E+03 -0.46620478690E+03  0.79650833039E+03  0.10100000352E+00 0. -1.
       -3    1    3    3    0  502  0.45827270537E+03 -0.45504366204E+03  0.84801997316E+03  0.10659345627E+04  0.10100000352E+00 0.  1.
</event>
<event>
 5   0  0.2431811E-04  0.1830452E+04  0.7818609E-02  0.8690271E-01
        2   -1    0    0  501    0  0.00000000000E+00  0.00000000000E+00  0.13147184366E+04  0.13147184366E+04  0.25500000920E-02 0.  1.
       -2   -1    0    0    0  501  0.00000000000E+00  0.00000000000E+00 -0.63712376768E+03  0.63712376768E+03  0.25500000920E-02 0. -1.
    10030    2    1    2    0    0  0.00000000000E+00  0.00000000000E+00  0.67759466896E+03  0.19518422043E+04  0.18304517080E+04 0.  0.
        3    1    3    3  502    0 -0.26473515695E+03  0.82156053470E+03  0.14328479515E+02  0.86327963664E+03  0.10100000352E+00 0. -1.
       -3    1    3    3    0  502  0.26473515695E+03 -0.82156053470E+03  0.66326618945E+03  0.10885625677E+04  0.10100000352E+00 0.  1.
</event>
<event>
 5   0  0.2393421E-04  0.1880917E+04  0.7818609E-02  0.8664414E-01
       -2   -1    0    0    0  501  0.00000000000E+00  0.00000000000E+00  0.77130156454E+03  0.77130156455E+03  0.25500000920E-02 0.  1.
        2   -1    0    0  501    0  0.00000000000E+00  0.00000000000E+00 -0.11467141620E+04  0.11467141620E+04  0.25500000920E-02 0. -1.
    10030    2    1    2    0    0  0.00000000000E+00  0.00000000000E+00 -0.37541259742E+03  0.19180157265E+04  0.18809172520E+04 0.  0.
        5    1    3    3  502    0 -0.13337517335E+03  0.24887303455E+03 -0.11024578360E+04  0.11380518856E+04  0.46999998093E+01 0. -1.
       -5    1    3    3    0  502  0.13337517335E+03 -0.24887303455E+03  0.72704523857E+03  0.77996384091E+03  0.46999998093E+01 0.  1.
</event>
<event>
 5   0  0.1330225E-04  0.1812513E+04  0.7818609E-02  0.8699673E-01
       -1   -1    0    0    0  501  0.00000000000E+00  0.00000000000E+00  0.42726310549E+03  0.42726310552E+03  0.50400001928E-02 0. -1.
        1   -1    0    0  501    0  0.00000000000E+00  0.00000000000E+00 -0.19222370745E+04  0.19222370745E+04  0.50400001928E-02 0.  1.
    10030    2    1    2    0    0  0.00000000000E+00  0.00000000000E+00 -0.14949739690E+04  0.23495001800E+04  0.18125131525E+04 0.  0.
        3    1    3    3  502    0 -0.97357426134E+01 -0.49896786017E+03  0.23309155177E+03  0.55081339115E+03  0.10100000352E+00 0. -1.
       -3    1    3    3    0  502  0.97357426134E+01  0.49896786017E+03 -0.17280655208E+04  0.17986867889E+04  0.10100000352E+00 0.  1.
</event>
<event>
 5   0  0.1253925E-04  0.1827811E+04  0.7818609E-02  0.8691648E-01
       -1   -1    0    0    0  501  0.00000000000E+00  0.00000000000E+00  0.57681306199E+03  0.57681306201E+03  0.50400001928E-02 0.  1.
        1   -1    0    0  501    0  0.00000000000E+00  0.00000000000E+00 -0.14479960049E+04  0.14479960049E+04  0.50400001928E-02 0. -1.
    10030    2    1    2    0    0  0.00000000000E+00  0.00000000000E+00 -0.87118294290E+03  0.20248090669E+04  0.18278107225E+04 0.  0.
        2    1    3    3  502    0 -0.28643136519E+03 -0.81312240408E+03 -0.77161925096E+03  0.11569819529E+04  0.25500000920E-02 0.  1.
       -2    1    3    3    0  502  0.28643136519E+03  0.81312240408E+03 -0.99563691939E+02  0.86782711396E+03  0.25500000920E-02 0. -1.
</event>
<event>
 5   0  0.1308893E-04  0.1804524E+04  0.7818609E-02  0.8703898E-01
        1   -1    0    0  501    0  0.00000000000E+00  0.00000000000E+00  0.12721245400E+04  0.12721245400E+04  0.50400001928E-02 0.  1.
       -1   -1    0    0    0  501  0.00000000000E+00  0.00000000000E+00 -0.63993448493E+03  0.63993448495E+03  0.50400001928E-02 0. -1.
    10030    2    1    2    0    0  0.00000000000E+00  0.00000000000E+00  0.63219005510E+03  0.19120590250E+04  0.18045236073E+04 0.  0.
        4    1    3    3  502    0 -0.77150411192E+03 -0.94796593475E+02 -0.16932049530E+03  0.79553506012E+03  0.12699999809E+01 0. -1.
       -4    1    3    3    0  502  0.77150411192E+03  0.94796593475E+02  0.80151055039E+03  0.11165239649E+04  0.12699999809E+01 0.  1.
</event>
<event>
 5   0  0.2431811E-04  0.1772548E+04  0.7818609E-02  0.8721036E-01
        2   -1    0    0  501    0  0.00000000000E+00  0.00000000000E+00  0.26891034603E+04  0.26891034603E+04  0.25500000920E-02 0. -1.
       -2   -1    0    0    0  501  0.00000000000E+00  0.00000000000E+00 -0.29209804555E+03  0.29209804556E+03  0.25500000920E-02 0.  1.
    10030    2    1    2    0    0  0.00000000000E+00  0.00000000000E+00  0.23970054147E+04  0.29812015058E+04  0.17725482956E+04 0.  0.
        3    1    3    3  502    0 -0.48364649756E+02  0.48898217339E+03  0.24390357355E+04  0.24880389938E+04  0.10100000352E+00 0. -1.
       -3    1    3    3    0  502  0.48364649756E+02 -0.48898217339E+03 -0.42030320778E+02  0.49316251207E+03  0.10100000352E+00 0.  1.
</event>
<event>
 5   0  0.2431811E-04  0.1800498E+04  0.7818609E-02  0.8706034E-01
       -2   -1    0    0    0  501  0.00000000000E+00  0.00000000000E+00  0.64496711713E+03  0.64496711713E+03  0.25500000920E-02 0.  1.
        2   -1    0    0  501    0  0.00000000000E+00  0.00000000000E+00 -0.12565735322E+04  0.12565735322E+04  0.25500000920E-02 0. -1.
    10030    2    1    2    0    0  0.00000000000E+00  0.00000000000E+00 -0.61160641508E+03  0.19015406493E+04  0.18004983849E+04 0.  0.
        3    1    3    3  502    0  0.65320065264E+03 -0.25062127012E+03 -0.90413588278E+03  0.11432164355E+04  0.10100000352E+00 0. -1.
       -3    1    3    3    0  502 -0.65320065264E+03  0.25062127012E+03  0.29252946769E+03  0.75832421386E+03  0.10100000352E+00 0.  1.
</event>
<event>
 5   0  0.2550616E-04  0.1796037E+04  0.7818609E-02  0.8708410E-01
        2   -1    0    0  501    0  0.00000000000E+00  0.00000000000E+00  0.86842981759E+03  0.86842981760E+03  0.25500000920E-02 0.  1.
       -2   -1    0    0    0  501  0.00000000000E+00  0.00000000000E+00 -0.92861538889E+03  0.92861538889E+03  0.25500000920E-02 0. -1.
    10030    2    1    2    0    0  0.00000000000E+00  0.00000000000E+00 -0.60185571295E+02  0.17970452065E+04  0.17960370740E+04 0.  0.
        1    1    3    3  502    0 -0.68844820804E+03 -0.55316386394E+03 -0.19292963463E+03  0.90397623833E+03  0.50400001928E-02 0. -1.
       -1    1    3    3    0  502  0.68844820804E+03  0.55316386394E+03  0.13274406334E+03  0.89306896816E+03  0.50400001928E-02 0.  1.
</event>
<event>
 5   0  0.1214723E-04  0.1789077E+04  0.7818609E-02  0.8712130E-01
       -1   -1    0    0    0  501  0.00000000000E+00  0.00000000000E+00  0.94109748095E+03  0.94109748097E+03  0.50400001928E-02 0. -1.
        1   -1    0    0  501    0  0.00000000000E+00  0.00000000000E+00 -0.85028273513E+03  0.85028273514E+03  0.50400001928E-02 0.  1.
    10030    2    1    2    0    0  0.00000000000E+00  0.00000000000E+00  0.90814745825E+02  0.17913802161E+04  0.17890767900E+04 0.  0.
        1    1    3    3  502    0 -0.54891088545E+03 -0.69616260454E+03 -0.74133975507E+02  0.88962991097E+03  0.50400001928E-02 0.  1.
       -1    1    3    3    0  502  0.54891088545E+03  0.69616260454E+03  0.16494872133E+03  0.90175030514E+03  0.50400001928E-02 0. -1.
</event>
<event>
 5   0  0.2569405E-04  0.1811582E+04  0.7818609E-02  0.8700164E-01
        2   -1    0    0  501    0  0.00000000000E+00  0.00000000000E+00  0.74548049654E+03  0.74548049655E+03  0.25500000920E-02 0.  1.
       -2   -1    0    0    0  501  0.00000000000E+00  0.00000000000E+00 -0.11005754336E+04  0.11005754336E+04  0.25500000920E-02 0. -1.
    10030    2    1    2    0    0  0.00000000000E+00  0.00000000000E+00 -0.35509493708E+03  0.18460559302E+04  0.18115822043E+04 0.  0.
        2    1    3    3  502    0 -0.30036868978E+03  0.78295352037E+03 -0.52643671660E+03  0.99013796081E+03  0.25500000920E-02 0. -1.
       -2    1    3    3    0  502  0.30036868978E+03 -0.78295352037E+03  0.17134177952E+03  0.85591796936E+03  0.25500000920E-02 0.  1.
</event>
<event>
 5   0  0.2431811E-04  0.1949698E+04  0.7818609E-02  0.8630506E-01
       -2   -1    0    0    0  501  0.00000000000E+00  0.00000000000E+00  0.51092211757E+03  0.51092211757E+03  0.25500000920E-02 0.  1.
        2   -1    0    0  501    0  0.00000000000E+00  0.00000000000E+00 -0.18600308051E+04  0.18600308051E+04  0.25500000920E-02 0. -1.
    10030    2    1    2    0    0  0.00000000000E+00  0.00000000000E+00 -0.13491086875E+04  0.23709529226E+04  0.19496983127E+04 0.  0.
        3    1    3    3  502    0  0.82971881995E+03  0.49164262521E+03 -0.84732529057E+03  0.12837857880E+04  0.10100000352E+00 0.  1.
       -3    1    3    3    0  502 -0.82971881995E+03 -0.49164262521E+03 -0.50178339693E+03  0.10871671347E+04  0.10100000352E+00 0. -1.
</event>
<event>
 5   0  0.1214723E-04  0.1800739E+04  0.7818609E-02  0.8705907E-01
       -1   -1    0    0    0  501  0.00000000000E+00  0.00000000000E+00  0.80627685920E+03  0.80627685922E+03  0.50400001928E-02 0. -1.
        1   -1    0    0  501    0  0.00000000000E+00  0.00000000000E+00 -0.10054423503E+04  0.10054423503E+04  0.50400001928E-02 0.  1.
    10030    2    1    2    0    0  0.00000000000E+00  0.00000000000E+00 -0.19916549106E+03  0.18117192095E+04  0.18007386266E+04 0.  0.
        1    1    3    3  502    0 -0.66048567075E+03 -0.60412867369E+03 -0.17678650190E+01  0.89510664225E+03  0.50400001928E-02 0. -1.
       -1    1    3    3    0  502  0.66048567075E+03  0.60412867369E+03 -0.19739762604E+03  0.91661256724E+03  0.50400001928E-02 0.  1.
</event>
<event>
 5   0  0.2417106E-04  0.1734250E+04  0.7818609E-02  0.8742068E-01
       -2   -1    0    0    0  501  0.00000000000E+00  0.00000000000E+00  0.89411445268E+03  0.89411445269E+03  0.25500000920E-02 0. -1.
        2   -1    0    0  501    0  0.00000000000E+00  0.00000000000E+00 -0.84095050896E+03  0.84095050897E+03  0.25500000920E-02 0.  1.
    10030    2    1    2    0    0  0.00000000000E+00  0.00000000000E+00  0.53163943722E+02  0.17350649617E+04  0.17342502750E+04 0.  0.
        4    1    3    3  502    0  0.40589065427E+03  0.24713850878E+03  0.75223623329E+03  0.88976717703E+03  0.12699999809E+01 0. -1.
       -4    1    3    3    0  502 -0.40589065427E+03 -0.24713850878E+03 -0.69907228957E+03  0.84529778462E+03  0.12699999809E+01 0.  1.
</event>
<event>
 5   0  0.1239119E-04  0.1778735E+04  0.7818609E-02  0.8717690E-01
       -1   -1    0    0    0  501  0.00000000000E+00  0.00000000000E+00  0.52318483789E+03  0.52318483791E+03  0.50400001928E-02 0.  1.
        1   -1    0    0  501    0  0.00000000000E+00  0.00000000000E+00 -0.15118455639E+04  0.15118455639E+04  0.50400001928E-02 0. -1.
    10030    2    1    2    0    0  0.00000000000E+00  0.00000000000E+00 -0.98866072601E+03  0.20350304018E+04  0.17787351419E+04 0.  0.
        5    1    3    3  502    0  0.66609315017E+03 -0.43196663197E+03 -0.35727332716E+02  0.79471616829E+03  0.46999998093E+01 0.  1.
       -5    1    3    3    0  502 -0.66609315017E+03  0.43196663197E+03 -0.95293339330E+03  0.12403142335E+04  0.46999998093E+01 0. -1.
</event>
<event>
 5   0  0.2393421E-04  0.1776185E+04  0.7818609E-02  0.8719067E-01
        2   -1    0    0  501    0  0.00000000000E+00  0.00000000000E+00  0.61504899579E+03  0.61504899580E+03  0.25500000920E-02 0. -1.
       -2   -1    0    0    0  501  0.00000000000E+00  0.00000000000E+00 -0.12823505245E+04  0.12823505245E+04  0.25500000920E-02 0.  1.
    10030    2    1    2    0    0  0.00000000000E+00  0.00000000000E+00 -0.66730152875E+03  0.18973995203E+04  0.17761851282E+04 0.  0.
        5    1    3    3  502    0  0.39656627935E+03 -0.76589042088E+03 -0.10746190576E+03  0.86915079354E+03  0.46999998093E+01 0. -1.
       -5    1    3    3    0  502 -0.39656627935E+03  0.76589042088E+03 -0.55983962299E+03  0.10282487268E+04  0.46999998093E+01 0.  1.
</event>
<event>
 5   0  0.2417106E-04  0.1788032E+04  0.7818609E-02  0.8712690E-01
       -2   -1    0    0    0  501  0.00000000000E+00  0.00000000000E+00  0.61528810944E+03  0.61528810945E+03  0.25500000920E-02 0.  1.
        2   -1    0    0  501    0  0.00000000000E+00  0.00000000000E+00 -0.12990088510E+04  0.12990088510E+04  0.25500000920E-02 0. -1.
    10030    2    1    2    0    0  0.00000000000E+00  0.00000000000E+00 -0.68372074160E+03  0.19142969605E+04  0.17880321028E+04 0.  0.
        4    1    3    3  502    0  0.93080509028E+02 -0.50315069612E+03  0.44301080163E+03  0.67681961218E+03  0.12699999809E+01 0.  1.
       -4    1    3    3    0  502 -0.93080509028E+02  0.50315069612E+03 -0.11267315432E+04  0.12374773483E+04  0.12699999809E+01 0. -1.
</event>
<event>
 5   0  0.2431811E-04  0.1797325E+04  0.7818609E-02  0.8707723E-01
        2   -1    0    0  501    0  0.00000000000E+00  0.00000000000E+00  0.12627584644E+04  0.12627584645E+04  0.25500000920E-02 0.  1.
       -2   -1    0    0    0  501  0.00000000000E+00  0.00000000000E+00 -0.63954797071E+03  0.63954797072E+03  0.25500000920E-02 0. -1.
    10030    2    1    2    0    0  0.00000000000E+00  0.00000000000E+00  0.62321049373E+03  0.19023064352E+04  0.17973253611E+04 0.  0.
        3    1    3    3  502    0  0.26163631261E+03 -0.13485767738E+03  0.12102906505E+04  0.12455695975E+04  0.10100000352E+00 0.  1.
       -3    1    3    3    0  502 -0.26163631261E+03  0.13485767738E+03 -0.58708015681E+03  0.65673683767E+03  0.10100000352E+00 0. -1.
</event>
<event>
 5   0  0.2431811E-04  0.1782361E+04  0.7818609E-02  0.8715736E-01
        2   -1    0    0  501    0  0.00000000000E+00  0.00000000000E+00  0.69788393562E+03  0.69788393563E+03  0.25500000920E-02 0.  1.
       -2   -1    0    0    0  501  0.00000000000E+00  0.00000000000E+00 -0.11380151683E+04  0.11380151683E+04  0.25500000920E-02 0. -1.
    10030    2    1    2    0    0  0.00000000000E+00  0.00000000000E+00 -0.44013123270E+03  0.18358991040E+04  0.17823607990E+04 0.  0.
        3    1    3    3  502    0  0.30821101881E+03  0.62114722593E+03  0.35655744012E+03  0.77971220761E+03  0.10100000352E+00 0.  1.
       -3    1    3    3    0  502 -0.30821101881E+03 -0.62114722593E+03 -0.79668867282E+03  0.10561868963E+04  0.10100000352E+00 0. -1.
</event>
<event>
 5   0  0.2417106E-04  0.1832143E+04  0.7818609E-02  0.8689390E-01
        2   -1    0    0  501    0  0.00000000000E+00  0.00000000000E+00  0.20377761399E+04  0.20377761399E+04  0.25500000920E-02 0.  1.
       -2   -1    0    0    0  501  0.00000000000E+00  0.00000000000E+00 -0.41181528128E+03  0.41181528129E+03  0.25500000920E-02 0. -1.
    10030    2    1    2    0    0  0.00000000000E+00  0.00000000000E+00  0.16259608586E+04  0.24495914212E+04  0.18321433942E+04 0.  0.
        4    1    3    3  502    0  0.11928454009E+03 -0.90174788508E+03  0.95826406254E+03  0.13212303645E+04  0.12699999809E+01 0. -1.
       -4    1    3    3    0  502 -0.11928454009E+03  0.90174788508E+03  0.66769679609E+03  0.11283610567E+04  0.12699999809E+01 0.  1.
</event>
<event>
 5   0  0.2431811E-04  0.1816079E+04  0.7818609E-02  0.8697795E-01
        2   -1    0    0  501    0  0.00000000000E+00  0.00000000000E+00  0.21539869406E+04  0.21539869406E+04  0.25500000920E-02 0.  1.
       -2   -1    0    0    0  501  0.00000000000E+00  0.00000000000E+00 -0.38279517231E+03  0.38279517232E+03  0.25500000920E-02 0. -1.
    10030    2    1    2    0    0  0.00000000000E+00  0.00000000000E+00  0.17711917683E+04  0.25367821130E+04  0.18160790755E+04 0.  0.
        3    1    3    3  502    0  0.61922489494E+03  0.73218053615E+02 -0.36465540554E+02  0.62460395430E+03  0.10100000352E+00 0. -1.
       -3    1    3    3    0  502 -0.61922489494E+03 -0.73218053615E+02  0.18076573089E+04  0.19121781587E+04  0.10100000352E+00 0.  1.
</event>
<event>
 5   0  0.1239119E-04  0.1803002E+04  0.7818609E-02  0.8704705E-01
        1   -1    0    0  501    0  0.00000000000E+00  0.00000000000E+00  0.11562554874E+04  0.11562554874E+04  0.50400001928E-02 0. -1.
       -1   -1    0    0    0  501  0.00000000000E+00  0.00000000000E+00 -0.70287569969E+03  0.70287569970E+03  0.50400001928E-02 0.  1.
    10030    2    1    2    0    0  0.00000000000E+00  0.00000000000E+00  0.45337978767E+03  0.18591311871E+04  0.18030018133E+04 0.  0.
        5    1    3    3  502    0  0.58169704555E+03  0.56401963126E+03 -0.18082505098E+03  0.83018635638E+03  0.46999998093E+01 0.  1.
       -5    1    3    3    0  502 -0.58169704555E+03 -0.56401963126E+03  0.63420483866E+03  0.10289448307E+04  0.46999998093E+01 0. -1.
</event>
<event>
 5   0  0.2550616E-04  0.1787759E+04  0.7818609E-02  0.8712837E-01
       -2   -1    0    0    0  501  0.00000000000E+00  0.00000000000E+00  0.57537004278E+03  0.57537004278E+03  0.25500000920E-02 0.  1.
        2   -1    0    0  501    0  0.00000000000E+00  0.00000000000E+00 -0.13887065605E+04  0.13887065605E+04  0.25500000920E-02 0. -1.
    10030    2    1    2    0    0  0.00000000000E+00  0.00000000000E+00 -0.81333651777E+03  0.19640766033E+04  0.17877585443E+04 0.  0.
        1    1    3    3  502    0  0.25682745796E+03 -0.64304642312E+03  0.21437195614E+03  0.72486162891E+03  0.50400001928E-02 0.  1.
       -1    1    3    3    0  502 -0.25682745796E+03  0.64304642312E+03 -0.10277084739E+04  0.12392149744E+04  0.50400001928E-02 0. -1.
</event>
<event>
 5   0  0.1214723E-04  0.1787957E+04  0.7818609E-02  0.8712730E-01
       -1   -1    0    0    0  501  0.00000000000E+00  0.00000000000E+00  0.46211033219E+03  0.46211033221E+03  0.50400001928E-02 0. -1.
        1   -1    0    0  501    0  0.00000000000E+00  0.00000000000E+00 -0.17294521126E+04  0.17294521126E+04  0.50400001928E-02 0.  1.
    10030    2    1    2    0    0  0.00000000000E+00  0.00000000000E+00 -0.12673417804E+04  0.21915624448E+04  0.17879571475E+04 0.  0.
        1    1    3    3  502    0  0.11690379343E+03  0.30738023692E+03  0.38527479457E+03  0.50654296395E+03  0.50400001928E-02 0. -1.
       -1    1    3    3    0  502 -0.11690379343E+03 -0.30738023692E+03 -0.16526165750E+04  0.16850194809E+04  0.50400001928E-02 0.  1.
</event>
<event>
 5   0  0.2417106E-04  0.1789770E+04  0.7818609E-02  0.8711759E-01
       -2   -1    0    0    0  501  0.00000000000E+00  0.00000000000E+00  0.64662567803E+03  0.64662567803E+03  0.25500000920E-02 0.  1.
        2   -1    0    0  501    0  0.00000000000E+00  0.00000000000E+00 -0.12384589833E+04  0.12384589833E+04  0.25500000920E-02 0. -1.
    10030    2    1    2    0    0  0.00000000000E+00  0.00000000000E+00 -0.59183330527E+03  0.18850846613E+04  0.17897702420E+04 0.  0.
        4    1    3    3  502    0  0.18585490183E+03 -0.13884906238E+03 -0.12062341842E+04  0.12283418200E+04  0.12699999809E+01 0. -1.
       -4    1    3    3    0  502 -0.18585490183E+03  0.13884906238E+03  0.61440087897E+03  0.65674284133E+03  0.12699999809E+01 0.  1.
</event>
<event>
 5   0  0.2417106E-04  0.1779416E+04  0.7818609E-02  0.8717323E-01
        2   -1    0    0  501    0  0.00000000000E+00  0.00000000000E+00  0.70011418387E+03  0.70011418387E+03  0.25500000920E-02 0. -1.
       -2   -1    0    0    0  501  0.00000000000E+00  0.00000000000E+00 -0.11306452103E+04  0.11306452103E+04  0.25500000920E-02 0.  1.
    10030    2    1    2    0    0  0.00000000000E+00  0.00000000000E+00 -0.43053102648E+03  0.18307593942E+04  0.17794164759E+04 0.  0.
        4    1    3    3  502    0  0.36596334149E+03 -0.78974481042E+03 -0.40484589724E+03  0.95996241922E+03  0.12699999809E+01 0. -1.
       -4    1    3    3    0  502 -0.36596334149E+03  0.78974481042E+03 -0.25685129232E+02  0.87079697500E+03  0.12699999809E+01 0.  1.
</event>
<event>
 5   0  0.9144875E-05  0.1807095E+04  0.7818609E-02  0.8702535E-01
       -3   -1    0    0    0  501  0.00000000000E+00  0.00000000000E+00  0.39607054288E+03  0.39607055575E+03  0.10100000352E+00 0.  1.
        3   -1    0    0  501    0  0.00000000000E+00  0.00000000000E+00 -0.20612443473E+04  0.20612443498E+04  0.10100000352E+00 0. -1.
    10030    2    1    2    0    0  0.00000000000E+00  0.00000000000E+00 -0.16651738044E+04  0.24573149055E+04  0.18070951126E+04 0.  0.
        4    1    3    3  502    0  0.80337935648E+03  0.93666846586E+02 -0.13802475395E+04  0.15997739689E+04  0.12699999809E+01 0. -1.
       -4    1    3    3    0  502 -0.80337935648E+03 -0.93666846586E+02 -0.28492626495E+03  0.85754093659E+03  0.12699999809E+01 0.  1.
</event>
<event>
 5   0  0.2417106E-04  0.1613026E+04  0.7818609E-02  0.8812586E-01
       -2   -1    0    0    0  501  0.00000000000E+00  0.00000000000E+00  0.32875576424E+03  0.32875576425E+03  0.25500000920E-02 0. -1.
        2   -1    0    0  501    0  0.00000000000E+00  0.00000000000E+00 -0.19785595391E+04  0.19785595391E+04  0.25500000920E-02 0.  1.
    10030    2    1    2    0    0  0.00000000000E+00  0.00000000000E+00 -0.16498037749E+04  0.23073153034E+04  0.16130255465E+04 0.  0.
        4    1    3    3  502    0 -0.53806664023E+03 -0.50848367001E+03 -0.36718784565E+03  0.82637756437E+03  0.12699999809E+01 0. -1.
       -4    1    3    3    0  502  0.53806664023E+03  0.50848367001E+03 -0.12826159292E+04  0.14809377390E+04  0.12699999809E+01 0.  1.
</event>
<event>
 5   0  0.2550616E-04  0.1779662E+04  0.7818609E-02  0.8717190E-01
       -2   -1    0    0    0  501  0.00000000000E+00  0.00000000000E+00  0.10808345245E+04  0.10808345245E+04  0.25500000920E-02 0. -1.
        2   -1    0    0  501    0  0.00000000000E+00  0.00000000000E+00 -0.73258161017E+03  0.73258161018E+03  0.25500000920E-02 0.  1.
    10030    2    1    2    0    0  0.00000000000E+00  0.00000000000E+00  0.34825291432E+03  0.18134161347E+04  0.17796623234E+04 0.  0.
        1    1    3    3  502    0 -0.56659436911E+03 -0.14342851718E+03  0.85782070891E+03  0.10380064004E+04  0.50400001928E-02 0. -1.
       -1    1    3    3    0  502  0.56659436911E+03  0.14342851718E+03 -0.50956779460E+03  0.77540973425E+03  0.50400001928E-02 0.  1.
</event>
<event>
 5   0  0.1308893E-04  0.1797620E+04  0.7818609E-02  0.8707566E-01
        1   -1    0    0  501    0  0.00000000000E+00  0.00000000000E+00  0.13381871400E+04  0.13381871400E+04  0.50400001928E-02 0. -1.
       -1   -1    0    0    0  501  0.00000000000E+00  0.00000000000E+00 -0.60369686911E+03  0.60369686913E+03  0.50400001928E-02 0.  1.
    10030    2    1    2    0    0  0.00000000000E+00  0.00000000000E+00  0.73449027088E+03  0.19418840091E+04  0.17976199673E+04 0.  0.
        4    1    3    3  502    0  0.77651691450E+02  0.64300846968E+03 -0.30595962027E+03  0.71631178924E+03  0.12699999809E+01 0.  1.
       -4    1    3    3    0  502 -0.77651691450E+02 -0.64300846968E+03  0.10404498911E+04  0.12255722199E+04  0.12699999809E+01 0. -1.
</event>
<event>
 5   0  0.9144875E-05  0.1764031E+04  0.7818609E-02  0.8725665E-01
       -3   -1    0    0    0  501  0.00000000000E+00  0.00000000000E+00  0.49817227550E+03  0.49817228574E+03  0.10100000352E+00 0.  1.
        3   -1    0    0  501    0  0.00000000000E+00  0.00000000000E+00 -0.15616104071E+04  0.15616104104E+04  0.10100000352E+00 0. -1.
    10030    2    1    2    0    0  0.00000000000E+00  0.00000000000E+00 -0.10634381316E+04  0.20597826962E+04  0.17640306391E+04 0.  0.
        1    1    3    3  502    0  0.55909014276E+03  0.31101096529E+03 -0.12406719015E+04  0.13959141719E+04  0.50400001928E-02 0. -1.
       -1    1    3    3    0  502 -0.55909014276E+03 -0.31101096529E+03  0.17723376982E+03  0.66386852422E+03  0.50400001928E-02 0.  1.
</event>
<event>
 5   0  0.1239119E-04  0.1763130E+04  0.7818609E-02  0.8726156E-01
        1   -1    0    0  501    0  0.00000000000E+00  0.00000000000E+00  0.10935797494E+04  0.10935797494E+04  0.50400001928E-02 0. -1.
       -1   -1    0    0    0  501  0.00000000000E+00  0.00000000000E+00 -0.71065429857E+03  0.71065429859E+03  0.50400001928E-02 0.  1.
    10030    2    1    2    0    0  0.00000000000E+00  0.00000000000E+00  0.38292545081E+03  0.18042340480E+04  0.17631303409E+04 0.  0.
        5    1    3    3  502    0  0.59355432492E+03  0.19118496342E+03  0.82910790738E+03  0.10374490055E+04  0.46999998093E+01 0. -1.
       -5    1    3    3    0  502 -0.59355432492E+03 -0.19118496342E+03 -0.44618245657E+03  0.76678504251E+03  0.46999998093E+01 0.  1.
</event>
<event>
 5   0  0.2417106E-04  0.1810301E+04  0.7818609E-02  0.8700841E-01
       -2   -1    0    0    0  501  0.00000000000E+00  0.00000000000E+00  0.48833028891E+03  0.48833028892E+03  0.25500000920E-02 0. -1.
        2   -1    0    0  501    0  0.00000000000E+00  0.00000000000E+00 -0.16777522150E+04  0.16777522150E+04  0.25500000920E-02 0.  1.
    10030    2    1    2    0    0  0.00000000000E+00  0.00000000000E+00 -0.11894219261E+04  0.21660825040E+04  0.18103007749E+04 0.  0.
        4    1    3    3  502    0  0.53566011806E+03 -0.19317378445E+03 -0.14365863202E+04  0.15453251249E+04  0.12699999809E+01 0.  1.
       -4    1    3    3    0  502 -0.53566011806E+03  0.19317378445E+03  0.24716439413E+03  0.62075737910E+03  0.12699999809E+01 0. -1.
</event>
<event>
 5   0  0.2550616E-04  0.1777807E+04  0.7818609E-02  0.8718191E-01
       -2   -1    0    0    0  501  0.00000000000E+00  0.00000000000E+00  0.99437711224E+03  0.99437711224E+03  0.25500000920E-02 0.  1.
        2   -1    0    0  501    0  0.00000000000E+00  0.00000000000E+00 -0.79461719800E+03  0.79461719800E+03  0.25500000920E-02 0. -1.
    10030    2    1    2    0    0  0.00000000000E+00  0.00000000000E+00  0.19975991424E+03  0.17889943102E+04  0.17778066877E+04 0.  0.
        1    1    3    3  502    0  0.44710729889E+02  0.49287137195E+03 -0.64316221911E+03  0.81152872948E+03  0.50400001928E-02 0. -1.
       -1    1    3    3    0  502 -0.44710729889E+02 -0.49287137195E+03  0.84292213336E+03  0.97746558077E+03  0.50400001928E-02 0.  1.
</event>
<event>
 5   0  0.2569405E-04  0.1811849E+04  0.7818609E-02  0.8700024E-01
        2   -1    0    0  501    0  0.00000000000E+00  0.00000000000E+00  0.25685442799E+04  0.25685442799E+04  0.25500000920E-02 0.  1.
       -2   -1    0    0    0  501  0.00000000000E+00  0.00000000000E+00 -0.31951902250E+03  0.31951902252E+03  0.25500000920E-02 0. -1.
    10030    2    1    2    0    0  0.00000000000E+00  0.00000000000E+00  0.22490252574E+04  0.28880633024E+04  0.18118485120E+04 0.  0.
        2    1    3    3  502    0  0.64234440126E+03 -0.35206328358E+03  0.19741898425E+04  0.21057018829E+04  0.25500000920E-02 0.  1.
       -2    1    3    3    0  502 -0.64234440126E+03  0.35206328358E+03  0.27483541493E+03  0.78236141954E+03  0.25500000920E-02 0. -1.
</event>
<event>
 5   0  0.2393421E-04  0.1881717E+04  0.7818609E-02  0.8664011E-01
       -2   -1    0    0    0  501  0.00000000000E+00  0.00000000000E+00  0.13566323126E+04  0.13566323127E+04  0.25500000920E-02 0.  1.
        2   -1    0    0  501    0  0.00000000000E+00  0.00000000000E+00 -0.65250863083E+03  0.65250863083E+03  0.25500000920E-02 0. -1.
    10030    2    1    2    0    0  0.00000000000E+00  0.00000000000E+00  0.70412368182E+03  0.20091409435E+04  0.18817165492E+04 0.  0.
        5    1    3    3  502    0  0.61981071896E+03  0.29594044482E+03 -0.33447787266E+03  0.76396571357E+03  0.46999998093E+01 0. -1.
       -5    1    3    3    0  502 -0.61981071896E+03 -0.29594044482E+03  0.10386015545E+04  0.12451752299E+04  0.46999998093E+01 0.  1.
</event>
<event>
 5   0  0.2569405E-04  0.1793678E+04  0.7818609E-02  0.8709669E-01
       -2   -1    0    0    0  501  0.00000000000E+00  0.00000000000E+00  0.67900832058E+03  0.67900832059E+03  0.25500000920E-02 0. -1.
        2   -1    0    0  501    0  0.00000000000E+00  0.00000000000E+00 -0.11845507380E+04  0.11845507380E+04  0.25500000920E-02 0.  1.
    10030    2    1    2    0    0  0.00000000000E+00  0.00000000000E+00 -0.50554241746E+03  0.18635590586E+04  0.17936775711E+04 0.  0.
        2    1    3    3  502    0  0.41847999943E+02 -0.56790912380E+03 -0.97261956214E+03  0.11270584903E+04  0.25500000920E-02 0.  1.
       -2    1    3    3    0  502 -0.41847999943E+02  0.56790912380E+03  0.46707714468E+03  0.73650056829E+03  0.25500000920E-02 0. -1.
</event>
<event>
 5   0  0.1330225E-04  0.1795457E+04  0.7818609E-02  0.8708719E-01
       -1   -1    0    0    0  501  0.00000000000E+00  0.00000000000E+00  0.59793566992E+03  0.59793566994E+03  0.50400001928E-02 0. -1.
        1   -1    0    0  501    0  0.00000000000E+00  0.00000000000E+00 -0.13478319430E+04  0.13478319431E+04  0.50400001928E-02 0.  1.
    10030    2    1    2    0    0  0.00000000000E+00  0.00000000000E+00 -0.74989627313E+03  0.19457676130E+04  0.17954573744E+04 0.  0.
        3    1    3    3  502    0  0.60722801871E+03  0.24387714812E+03  0.29108817068E+03  0.71619429166E+03  0.10100000352E+00 0. -1.
       -3    1    3    3    0  502 -0.60722801871E+03 -0.24387714812E+03 -0.10409844438E+04  0.12295733213E+04  0.10100000352E+00 0.  1.
</event>
<event>
 5   0  0.2550616E-04  0.1780455E+04  0.7818609E-02  0.8716763E-01
       -2   -1    0    0    0  501  0.00000000000E+00  0.00000000000E+00  0.82962385823E+03  0.82962385824E+03  0.25500000920E-02 0. -1.
        2   -1    0    0  501    0  0.00000000000E+00  0.00000000000E+00 -0.95525789624E+03  0.95525789624E+03  0.25500000920E-02 0.  1.
    10030    2    1    2    0    0  0.00000000000E+00  0.00000000000E+00 -0.12563403801E+03  0.17848817545E+04  0.17804547076E+04 0.  0.
        1    1    3    3  502    0 -0.20231692042E+03 -0.53543866844E+03 -0.74633199472E+03  0.94055204551E+03  0.50400001928E-02 0.  1.
       -1    1    3    3    0  502  0.20231692042E+03  0.53543866844E+03  0.62069795672E+03  0.84432970897E+03  0.50400001928E-02 0. -1.
</event>
<event>
 5   0  0.1253925E-04  0.1810452E+04  0.7818609E-02  0.8700761E-01
       -1   -1    0    0    0  501  0.00000000000E+00  0.00000000000E+00  0.53436664642E+03  0.53436664645E+03  0.50400001928E-02 0.  1.
        1   -1    0    0  501    0  0.00000000000E+00  0.00000000000E+00 -0.15334674515E+04  0.15334674515E+04  0.50400001928E-02 0. -1.
    10030    2    1    2    0    0  0.00000000000E+00  0.00000000000E+00 -0.99910080510E+03  0.20678340980E+04  0.18104517221E+04 0.  0.
        2    1    3    3  502    0  0.23724867527E+03 -0.86285405824E+03 -0.65544563631E+03  0.11092398487E+04  0.25500000920E-02 0.  1.
       -2    1    3    3    0  502 -0.23724867527E+03  0.86285405824E+03 -0.34365516879E+03  0.95859424930E+03  0.25500000920E-02 0. -1.
</event>
<event>
 5   0  0.1308893E-04  0.1816586E+04  0.7818609E-02  0.8697529E-01
        1   -1    0    0  501    0  0.00000000000E+00  0.00000000000E+00  0.10507958444E+04  0.10507958445E+04  0.50400001928E-02 0. -1.
       -1   -1    0    0    0  501  0.00000000000E+00  0.00000000000E+00 -0.78511578651E+03  0.78511578652E+03  0.50400001928E-02 0.  1.
    10030    2    1    2    0    0  0.00000000000E+00  0.00000000000E+00  0.26568005793E+03  0.18359116310E+04  0.18165862555E+04 0.  0.
        4    1    3    3  502    0  0.34760080413E+03  0.19980524681E+03 -0.69084340875E+03  0.79875821373E+03  0.12699999809E+01 0.  1.
       -4    1    3    3    0  502 -0.34760080413E+03 -0.19980524681E+03  0.95652346668E+03  0.10371534172E+04  0.12699999809E+01 0. -1.
</event>
<event>
 5   0  0.2431811E-04  0.1835674E+04  0.7818609E-02  0.8687555E-01
        2   -1    0    0  501    0  0.00000000000E+00  0.00000000000E+00  0.15849890016E+04  0.15849890016E+04  0.25500000920E-02 0. -1.
       -2   -1    0    0    0  501  0.00000000000E+00  0.00000000000E+00 -0.53150185927E+03  0.53150185928E+03  0.25500000920E-02 0.  1.
    10030    2    1    2    0    0  0.00000000000E+00  0.00000000000E+00  0.10534871423E+04  0.21164908608E+04  0.18356738286E+04 0.  0.
        3    1    3    3  502    0  0.69909487630E+03  0.55510410019E+03  0.28066890896E+03  0.93576132361E+03  0.10100000352E+00 0. -1.
       -3    1    3    3    0  502 -0.69909487630E+03 -0.55510410019E+03  0.77281823332E+03  0.11807295372E+04  0.10100000352E+00 0.  1.
</event>
<event>
 5   0  0.2393421E-04  0.1781953E+04  0.7818609E-02  0.8715956E-01
       -2   -1    0    0    0  501  0.00000000000E+00  0.00000000000E+00  0.43053982816E+03  0.43053982817E+03  0.25500000920E-02 0. -1.
        2   -1    0    0  501    0  0.00000000000E+00  0.00000000000E+00 -0.18438217647E+04  0.18438217647E+04  0.25500000920E-02 0.  1.
    10030    2    1    2    0    0  0.00000000000E+00  0.00000000000E+00 -0.14132819365E+04  0.22743615928E+04  0.17819525311E+04 0.  0.
        5    1    3    3  502    0  0.77162437550E+03  0.14544895938E+03 -0.12440007109E+04  0.14710946385E+04  0.46999998093E+01 0.  1.
       -5    1    3    3    0  502 -0.77162437550E+03 -0.14544895938E+03 -0.16928122562E+03  0.80326695438E+03  0.46999998093E+01 0. -1.
</event>
<event>
 5   0  0.9144875E-05  0.1809726E+04  0.7818609E-02  0.8701144E-01
        3   -1    0    0  501    0  0.00000000000E+00  0.00000000000E+00  0.65863256117E+03  0.65863256891E+03  0.10100000352E+00 0.  1.
       -3   -1    0    0    0  501  0.00000000000E+00  0.00000000000E+00 -0.12431470726E+04  0.12431470767E+04  0.10100000352E+00 0. -1.
    10030    2    1    2    0    0  0.00000000000E+00  0.00000000000E+00 -0.58451451143E+03  0.19017796456E+04  0.18097261136E+04 0.  0.
        1    1    3    3  502    0 -0.45996566120E+03 -0.49615601566E+03  0.33917064670E+03  0.75681961455E+03  0.50400001928E-02 0.  1.
       -1    1    3    3    0  502  0.45996566120E+03  0.49615601566E+03 -0.92368515812E+03  0.11449600311E+04  0.50400001928E-02 0. -1.
</event>
<event>
 5   0  0.2393421E-04  0.1807306E+04  0.7818609E-02  0.8702424E-01
        2   -1    0    0  501    0  0.00000000000E+00  0.00000000000E+00  0.17524036973E+04  0.17524036973E+04  0.25500000920E-02 0. -1.
       -2   -1    0    0    0  501  0.00000000000E+00  0.00000000000E+00 -0.46598233341E+03  0.46598233341E+03  0.25500000920E-02 0.  1.
    10030    2    1    2    0    0  0.00000000000E+00  0.00000000000E+00  0.12864213639E+04  0.22183860308E+04  0.18073064643E+04 0.  0.
        5    1    3    3  502    0  0.51216754351E+03  0.30168383559E+03 -0.19221451625E+03  0.62473773660E+03  0.46999998093E+01 0.  1.
       -5    1    3    3    0  502 -0.51216754351E+03 -0.30168383559E+03  0.14786358802E+04  0.15936482942E+04  0.46999998093E+01 0. -1.
</event>
<event>
 5   0  0.2550616E-04  0.1814245E+04  0.7818609E-02  0.8698761E-01
        2   -1    0    0  501    0  0.00000000000E+00  0.00000000000E+00  0.11759458224E+04  0.11759458224E+04  0.25500000920E-02 0. -1.
       -2   -1    0    0    0  501  0.00000000000E+00  0.00000000000E+00 -0.69975251791E+03  0.69975251791E+03  0.25500000920E-02 0.  1.
    10030    2    1    2    0    0  0.00000000000E+00  0.00000000000E+00  0.47619330446E+03  0.18756983403E+04  0.18142448017E+04 0.  0.
        1    1    3    3  502    0  0.15965686346E+03 -0.76189971558E+03 -0.24339241461E+03  0.81561103362E+03  0.50400001928E-02 0.  1.
       -1    1    3    3    0  502 -0.15965686346E+03  0.76189971558E+03  0.71958571907E+03  0.10600873067E+04  0.50400001928E-02 0. -1.
</event>
<event>
 5   0  0.1308893E-04  0.1767146E+04  0.7818609E-02  0.8723969E-01
       -1   -1    0    0    0  501  0.00000000000E+00  0.00000000000E+00  0.87762495946E+03  0.87762495948E+03  0.50400001928E-02 0.  1.
        1   -1    0    0  501    0  0.00000000000E+00  0.00000000000E+00 -0.88956115710E+03  0.88956115711E+03  0.50400001928E-02 0. -1.
    10030    2    1    2    0    0  0.00000000000E+00  0.00000000000E+00 -0.11936197634E+02  0.17671861166E+04  0.17671458055E+04 0.  0.
        4    1    3    3  502    0  0.65898569343E+03 -0.13216303115E+03 -0.57954046508E+03  0.88746716813E+03  0.12699999809E+01 0. -1.
       -4    1    3    3    0  502 -0.65898569343E+03  0.13216303115E+03  0.56760426745E+03  0.87971894845E+03  0.12699999809E+01 0.  1.
</event>
<event>
 5   0  0.1239119E-04  0.1723140E+04  0.7818609E-02  0.8748276E-01
        1   -1    0    0  501    0  0.00000000000E+00  0.00000000000E+00  0.11597845366E+04  0.11597845366E+04  0.50400001928E-02 0.  1.
       -1   -1    0    0    0  501  0.00000000000E+00  0.00000000000E+00 -0.64003531704E+03  0.64003531706E+03  0.50400001928E-02 0. -1.
    10030    2    1    2    0    0  0.00000000000E+00  0.00000000000E+00  0.51974921955E+03  0.17998198537E+04  0.17231402306E+04 0.  0.
        5    1    3    3  502    0 -0.18731724893E+03 -0.55174486971E+02 -0.61660274283E+03  0.64680213994E+03  0.46999998093E+01 0. -1.
       -5    1    3    3    0  502  0.18731724893E+03  0.55174486971E+02  0.11363519624E+04  0.11530177137E+04  0.46999998093E+01 0.  1.
</event>
<event>
 5   0  0.2393421E-04  0.1792153E+04  0.7818609E-02  0.8710484E-01
        2   -1    0    0  501    0  0.00000000000E+00  0.00000000000E+00  0.14097006691E+04  0.14097006691E+04  0.25500000920E-02 0.  1.
       -2   -1    0    0    0  501  0.00000000000E+00  0.00000000000E+00 -0.56959123196E+03  0.56959123197E+03  0.25500000920E-02 0. -1.
    10030    2    1    2    0    0  0.00000000000E+00  0.00000000000E+00  0.84010943711E+03  0.19792919010E+04  0.17921530524E+04 0.  0.
        5    1    3    3  502    0 -0.92403962804E+02  0.14057788171E+03 -0.55198055402E+03  0.57706607523E+03  0.46999998093E+01 0. -1.
       -5    1    3    3    0  502  0.92403962804E+02 -0.14057788171E+03  0.13920899911E+04  0.14022258258E+04  0.46999998093E+01 0.  1.
</event>
<event>
 5   0  0.2569405E-04  0.1799569E+04  0.7818609E-02  0.8706529E-01
        2   -1    0    0  501    0  0.00000000000E+00  0.00000000000E+00  0.10394009924E+04  0.10394009924E+04  0.25500000920E-02 0. -1.
       -2   -1    0    0    0  501  0.00000000000E+00  0.00000000000E+00 -0.77892211672E+03  0.77892211673E+03  0.25500000920E-02 0.  1.
    10030    2    1    2    0    0  0.00000000000E+00  0.00000000000E+00  0.26047887566E+03  0.18183231091E+04  0.17995693053E+04 0.  0.
        2    1    3    3  502    0  0.78134076119E+03  0.17531162184E+03  0.54486303573E+03  0.96855731764E+03  0.25500000920E-02 0. -1.
       -2    1    3    3    0  502 -0.78134076119E+03 -0.17531162184E+03 -0.28438416007E+03  0.84976579147E+03  0.25500000920E-02 0.  1.
</event>
<event>
 5   0  0.2431811E-04  0.1756690E+04  0.7818609E-02  0.8729676E-01
        2   -1    0    0  501    0  0.00000000000E+00  0.00000000000E+00  0.20280398863E+04  0.20280398863E+04  0.25500000920E-02 0. -1.
       -2   -1    0    0    0  501  0.00000000000E+00  0.00000000000E+00 -0.38041180803E+03  0.38041180803E+03  0.25500000920E-02 0.  1.
    10030    2    1    2    0    0  0.00000000000E+00  0.00000000000E+00  0.16476280783E+04  0.24084516944E+04  0.17566904336E+04 0.  0.
        3    1    3    3  502    0 -0.35079123405E+03  0.78001567144E+03  0.54957174929E+03  0.10166159823E+04  0.10100000352E+00 0.  1.
       -3    1    3    3    0  502  0.35079123405E+03 -0.78001567144E+03  0.10980563290E+04  0.13918357121E+04  0.10100000352E+00 0. -1.
</event>
<event>
 5   0  0.1214723E-04  0.1728399E+04  0.7818609E-02  0.8745331E-01
       -1   -1    0    0    0  501  0.00000000000E+00  0.00000000000E+00  0.53920726193E+03  0.53920726195E+03  0.50400001928E-02 0. -1.
        1   -1    0    0  501    0  0.00000000000E+00  0.00000000000E+00 -0.13850724751E+04  0.13850724751E+04  0.50400001928E-02 0.  1.
    10030    2    1    2    0    0  0.00000000000E+00  0.00000000000E+00 -0.84586521319E+03  0.19242797371E+04  0.17283994179E+04 0.  0.
        1    1    3    3  502    0  0.22798125719E+03  0.60480663937E+03  0.21572969895E+03  0.68139990292E+03  0.50400001928E-02 0. -1.
       -1    1    3    3    0  502 -0.22798125719E+03 -0.60480663937E+03 -0.10615949121E+04  0.12428798342E+04  0.50400001928E-02 0.  1.
</event>
<event>
 5   0  0.2431811E-04  0.1810589E+04  0.7818609E-02  0.8700688E-01
        2   -1    0    0  501    0  0.00000000000E+00  0.00000000000E+00  0.20686081165E+04  0.20686081165E+04  0.25500000920E-02 0. -1.
       -2   -1    0    0    0  501  0.00000000000E+00  0.00000000000E+00 -0.39618833946E+03  0.39618833947E+03  0.25500000920E-02 0.  1.
    10030    2    1    2    0    0  0.00000000000E+00  0.00000000000E+00  0.16724197770E+04  0.24647964560E+04  0.18105893125E+04 0.  0.
        3    1    3    3  502    0 -0.21181793569E+03 -0.12442632907E+03  0.20223663245E+04  0.20372320216E+04  0.10100000352E+00 0. -1.
       -3    1    3    3    0  502  0.21181793569E+03  0.12442632907E+03 -0.34994654745E+03  0.42756443435E+03  0.10100000352E+00 0.  1.
</event>
<event>
 5   0  0.2393421E-04  0.1792022E+04  0.7818609E-02  0.8710553E-01
       -2   -1    0    0    0  501  0.00000000000E+00  0.00000000000E+00  0.68800236537E+03  0.68800236537E+03  0.25500000920E-02 0.  1.
        2   -1    0    0  501    0  0.00000000000E+00  0.00000000000E+00 -0.11669087717E+04  0.11669087717E+04  0.25500000920E-02 0. -1.
    10030    2    1    2    0    0  0.00000000000E+00  0.00000000000E+00 -0.47890640636E+03  0.18549111371E+04  0.17920223158E+04 0.  0.
        5    1    3    3  502    0  0.48243131773E+03 -0.39458644181E+03 -0.90576379001E+03  0.10994855932E+04  0.46999998093E+01 0. -1.
       -5    1    3    3    0  502 -0.48243131773E+03  0.39458644181E+03  0.42685738365E+03  0.75542554389E+03  0.46999998093E+01 0.  1.
</event>
<event>
 5   0  0.1214723E-04  0.1798186E+04  0.7818609E-02  0.8707265E-01
       -1   -1    0    0    0  501  0.00000000000E+00  0.00000000000E+00  0.90016437898E+03  0.90016437899E+03  0.50400001928E-02 0. -1.
        1   -1    0    0  501    0  0.00000000000E+00  0.00000000000E+00 -0.89802307450E+03  0.89802307451E+03  0.50400001928E-02 0.  1.
    10030    2    1    2    0    0  0.00000000000E+00  0.00000000000E+00  0.21413044797E+01  0.17981874535E+04  0.17981861786E+04 0.  0.
        1    1    3    3  502    0  0.74291548728E+03  0.47414055913E+03 -0.17679372580E+03  0.89888192359E+03  0.50400001928E-02 0.  1.
       -1    1    3    3    0  502 -0.74291548728E+03 -0.47414055913E+03  0.17893503028E+03  0.89930552991E+03  0.50400001928E-02 0. -1.
</event>
<event>
 5   0  0.1253925E-04  0.1803939E+04  0.7818609E-02  0.8704208E-01
        1   -1    0    0  501    0  0.00000000000E+00  0.00000000000E+00  0.12006550005E+04  0.12006550005E+04  0.50400001928E-02 0.  1.
       -1   -1    0    0    0  501  0.00000000000E+00  0.00000000000E+00 -0.67758763219E+03  0.67758763221E+03  0.50400001928E-02 0. -1.
    10030    2    1    2    0    0  0.00000000000E+00  0.00000000000E+00  0.52306736827E+03  0.18782426327E+04  0.18039389999E+04 0.  0.
        2    1    3    3  502    0  0.60177821789E+03  0.23208295115E+02  0.96066236641E+03  0.11338200169E+04  0.25500000920E-02 0.  1.
       -2    1    3    3    0  502 -0.60177821789E+03 -0.23208295115E+02 -0.43759499814E+03  0.74442261578E+03  0.25500000920E-02 0. -1.
</event>
<event>
 5   0  0.2417106E-04  0.1794446E+04  0.7818609E-02  0.8709259E-01
       -2   -1    0    0    0  501  0.00000000000E+00  0.00000000000E+00  0.69521628621E+03  0.69521628622E+03  0.25500000920E-02 0.  1.
        2   -1    0    0  501    0  0.00000000000E+00  0.00000000000E+00 -0.11579256384E+04  0.11579256384E+04  0.25500000920E-02 0. -1.
    10030    2    1    2    0    0  0.00000000000E+00  0.00000000000E+00 -0.46270935216E+03  0.18531419246E+04  0.17944456102E+04 0.  0.
        4    1    3    3  502    0 -0.69304083227E+03  0.42048086966E+03 -0.62850840104E+03  0.10257359212E+04  0.12699999809E+01 0. -1.
       -4    1    3    3    0  502  0.69304083227E+03 -0.42048086966E+03  0.16579904888E+03  0.82740600340E+03  0.12699999809E+01 0.  1.
</event>
<event>
 5   0  0.2417106E-04  0.1820789E+04  0.7818609E-02  0.8695321E-01
       -2   -1    0    0    0  501  0.00000000000E+00  0.00000000000E+00  0.43854351103E+03  0.43854351104E+03  0.25500000920E-02 0. -1.
        2   -1    0    0  501    0  0.00000000000E+00  0.00000000000E+00 -0.18899346802E+04  0.18899346802E+04  0.25500000920E-02 0.  1.
    10030    2    1    2    0    0  0.00000000000E+00  0.00000000000E+00 -0.14513911692E+04  0.23284781913E+04  0.18207894884E+04 0.  0.
        4    1    3    3  502    0 -0.45024340975E+03  0.78278736909E+03 -0.87340881378E+03  0.12563119685E+04  0.12699999809E+01 0.  1.
       -4    1    3    3    0  502  0.45024340975E+03 -0.78278736909E+03 -0.57798235542E+03  0.10721662228E+04  0.12699999809E+01 0. -1.
</event>
<event>
 5   0  0.2569405E-04  0.1805816E+04  0.7818609E-02  0.8703213E-01
        2   -1    0    0  501    0  0.00000000000E+00  0.00000000000E+00  0.16873646617E+04  0.16873646617E+04  0.25500000920E-02 0.  1.
       -2   -1    0    0    0  501  0.00000000000E+00  0.00000000000E+00 -0.48314557249E+03  0.48314557250E+03  0.25500000920E-02 0. -1.
    10030    2    1    2    0    0  0.00000000000E+00  0.00000000000E+00  0.12042190892E+04  0.21705102342E+04  0.18058158992E+04 0.  0.
        2    1    3    3  502    0  0.27836394140E+03 -0.21121073140E+03 -0.39858336552E+03  0.53006146456E+03  0.25500000920E-02 0. -1.
       -2    1    3    3    0  502 -0.27836394140E+03  0.21121073140E+03  0.16028024547E+04  0.16404487696E+04  0.25500000920E-02 0.  1.
</event>
<event>
 5   0  0.2550616E-04  0.1801590E+04  0.7818609E-02  0.8705455E-01
       -2   -1    0    0    0  501  0.00000000000E+00  0.00000000000E+00  0.77198662225E+03  0.77198662226E+03  0.25500000920E-02 0. -1.
        2   -1    0    0  501    0  0.00000000000E+00  0.00000000000E+00 -0.10510950575E+04  0.10510950575E+04  0.25500000920E-02 0.  1.
    10030    2    1    2    0    0  0.00000000000E+00  0.00000000000E+00 -0.27910843522E+03  0.18230816797E+04  0.18015896570E+04 0.  0.
        1    1    3    3  502    0 -0.34038032776E+03 -0.33152425275E+03  0.63486227801E+03  0.79297995546E+03  0.50400001928E-02 0. -1.
       -1    1    3    3    0  502  0.34038032776E+03  0.33152425275E+03 -0.91397071323E+03  0.10301017243E+04  0.50400001928E-02 0.  1.
</event>
<event>
 5   0  0.2417106E-04  0.1803390E+04  0.7818609E-02  0.8704499E-01
       -2   -1    0    0    0  501  0.00000000000E+00  0.00000000000E+00  0.49743611652E+03  0.49743611653E+03  0.25500000920E-02 0.  1.
        2   -1    0    0  501    0  0.00000000000E+00  0.00000000000E+00 -0.16344883016E+04  0.16344883017E+04  0.25500000920E-02 0. -1.
    10030    2    1    2    0    0  0.00000000000E+00  0.00000000000E+00 -0.11370521851E+04  0.21319244182E+04  0.18033896010E+04 0.  0.
        4    1    3    3  502    0  0.23150891579E+03  0.13586323144E+03 -0.15861572161E+04  0.16087111371E+04  0.12699999809E+01 0. -1.
       -4    1    3    3    0  502 -0.23150891579E+03 -0.13586323144E+03  0.44910503094E+03  0.52321328104E+03  0.12699999809E+01 0.  1.
</event>
<event>
 5   0  0.2431811E-04  0.1771046E+04  0.7818609E-02  0.8721850E-01
        2   -1    0    0  501    0  0.00000000000E+00  0.00000000000E+00  0.11747715859E+04  0.11747715859E+04  0.25500000920E-02 0. -1.
       -2   -1    0    0    0  501  0.00000000000E+00  0.00000000000E+00 -0.66749234592E+03  0.66749234592E+03  0.25500000920E-02 0.  1.
    10030    2    1    2    0    0  0.00000000000E+00  0.00000000000E+00  0.50727923997E+03  0.18422639318E+04  0.17710460658E+04 0.  0.
        3    1    3    3  502    0  0.86990187033E+03 -0.15466272239E+03  0.19208919373E+03  0.90418365958E+03  0.10100000352E+00 0. -1.
       -3    1    3    3    0  502 -0.86990187033E+03  0.15466272239E+03  0.31519004625E+03  0.93808027224E+03  0.10100000352E+00 0.  1.
</event>
<event>
 5   0  0.1214723E-04  0.1800937E+04  0.7818609E-02  0.8705801E-01
       -1   -1    0    0    0  501  0.00000000000E+00  0.00000000000E+00  0.56347279164E+03  0.56347279166E+03  0.50400001928E-02 0.  1.
        1   -1    0    0  501    0  0.00000000000E+00  0.00000000000E+00 -0.14390113979E+04  0.14390113979E+04  0.50400001928E-02 0. -1.
    10030    2    1    2    0    0  0.00000000000E+00  0.00000000000E+00 -0.87553860623E+03  0.20024841895E+04  0.18009372777E+04 0.  0.
        1    1    3    3  502    0 -0.37863905619E+03  0.76668252642E+03 -0.12391419890E+03  0.86401641182E+03  0.50400001928E-02 0.  1.
       -1    1    3    3    0  502  0.37863905619E+03 -0.76668252642E+03 -0.75162440733E+03  0.11384677777E+04  0.50400001928E-02 0. -1.
</event>
<event>
 5   0  0.1330225E-04  0.1786690E+04  0.7818609E-02  0.8713410E-01
        1   -1    0    0  501    0  0.00000000000E+00  0.00000000000E+00  0.99707321244E+03  0.99707321245E+03  0.50400001928E-02 0.  1.
       -1   -1    0    0    0  501  0.00000000000E+00  0.00000000000E+00 -0.80040827326E+03  0.80040827328E+03  0.50400001928E-02 0. -1.
    10030    2    1    2    0    0  0.00000000000E+00  0.00000000000E+00  0.19666493918E+03  0.17974814857E+04  0.17866904022E+04 0.  0.
        3    1    3    3  502    0  0.78367379929E+03 -0.33831718102E+03  0.36348167164E+03  0.92775108434E+03  0.10100000352E+00 0.  1.
       -3    1    3    3    0  502 -0.78367379929E+03  0.33831718102E+03 -0.16681673246E+03  0.86973040139E+03  0.10100000352E+00 0. -1.
</event>
<event>
 5   0  0.1308893E-04  0.1802679E+04  0.7818609E-02  0.8704876E-01
       -1   -1    0    0    0  501  0.00000000000E+00  0.00000000000E+00  0.88438609014E+03  0.88438609015E+03  0.50400001928E-02 0. -1.
        1   -1    0    0  501    0  0.00000000000E+00  0.00000000000E+00 -0.91861790314E+03  0.91861790316E+03  0.50400001928E-02 0.  1.
    10030    2    1    2    0    0  0.00000000000E+00  0.00000000000E+00 -0.34231813004E+02  0.18030039933E+04  0.18026790016E+04 0.  0.
        4    1    3    3  502    0 -0.45279364153E+03 -0.56666838820E+03  0.51802834448E+03  0.89134175408E+03  0.12699999809E+01 0. -1.
       -4    1    3    3    0  502  0.45279364153E+03  0.56666838820E+03 -0.55226015748E+03  0.91166223923E+03  0.12699999809E+01 0.  1.
</event>
<event>
 5   0  0.1214723E-04  0.1802499E+04  0.7818609E-02  0.8704972E-01
       -1   -1    0    0    0  501  0.00000000000E+00  0.00000000000E+00  0.15102609440E+04  0.15102609440E+04  0.50400001928E-02 0.  1.
        1   -1    0    0  501    0  0.00000000000E+00  0.00000000000E+00 -0.53782151330E+03  0.53782151332E+03  0.50400001928E-02 0. -1.
    10030    2    1    2    0    0  0.00000000000E+00  0.00000000000E+00  0.97243943074E+03  0.20480824574E+04  0.18024991833E+04 0.  0.
        1    1    3    3  502    0 -0.99111413588E+02 -0.26890076220E+03  0.14571085877E+04  0.14850239489E+04  0.50400001928E-02 0.  1.
       -1    1    3    3    0  502  0.99111413588E+02  0.26890076220E+03 -0.48466915700E+03  0.56305850850E+03  0.50400001928E-02 0. -1.
</event>
<event>
 5   0  0.2550616E-04  0.1809368E+04  0.7818609E-02  0.8701333E-01
       -2   -1    0    0    0  501  0.00000000000E+00  0.00000000000E+00  0.12402242711E+04  0.12402242711E+04  0.25500000920E-02 0. -1.
        2   -1    0    0  501    0  0.00000000000E+00  0.00000000000E+00 -0.65992358950E+03  0.65992358951E+03  0.25500000920E-02 0.  1.
    10030    2    1    2    0    0  0.00000000000E+00  0.00000000000E+00  0.58030068161E+03  0.19001478606E+04  0.18093681248E+04 0.  0.
        1    1    3    3  502    0  0.78644720335E+03 -0.22412391545E+03  0.69650386010E+03  0.10741733381E+04  0.50400001928E-02 0. -1.
       -1    1    3    3    0  502 -0.78644720335E+03  0.22412391545E+03 -0.11620317849E+03  0.82597452252E+03  0.50400001928E-02 0.  1.
</event>
<event>
 5   0  0.2417106E-04  0.1828216E+04  0.7818609E-02  0.8691437E-01
        2   -1    0    0  501    0  0.00000000000E+00  0.00000000000E+00  0.20029521676E+04  0.20029521676E+04  0.25500000920E-02 0.  1.
       -2   -1    0    0    0  501  0.00000000000E+00  0.00000000000E+00 -0.41718099327E+03  0.41718099328E+03  0.25500000920E-02 0. -1.
    10030    2    1    2    0    0  0.00000000000E+00  0.00000000000E+00  0.15857711743E+04  0.24201331608E+04  0.18282161522E+04 0.  0.
        4    1    3    3  502    0 -0.71668046470E+02  0.85400133157E+03  0.12138715037E+04  0.14859139354E+04  0.12699999809E+01 0.  1.
       -4    1    3    3    0  502  0.71668046470E+02 -0.85400133157E+03  0.37189967061E+03  0.93421922540E+03  0.12699999809E+01 0. -1.
</event>
<event>
 5   0  0.2569405E-04  0.1787577E+04  0.7818609E-02  0.8712934E-01
       -2   -1    0    0    0  501  0.00000000000E+00  0.00000000000E+00  0.13245238572E+04  0.13245238572E+04  0.25500000920E-02 0. -1.
        2   -1    0    0  501    0  0.00000000000E+00  0.00000000000E+00 -0.60312806619E+03  0.60312806619E+03  0.25500000920E-02 0.  1.
    10030    2    1    2    0    0  0.00000000000E+00  0.00000000000E+00  0.72139579098E+03  0.19276519234E+04  0.17875765859E+04 0.  0.
        2    1    3    3  502    0 -0.85259188230E+03  0.18133211653E+03  0.14756612566E+03  0.88406448617E+03  0.25500000920E-02 0.  1.
       -2    1    3    3    0  502  0.85259188230E+03 -0.18133211653E+03  0.57382966532E+03  0.10435874372E+04  0.25500000920E-02 0. -1.
</event>
<event>
 5   0  0.1239119E-04  0.1799549E+04  0.7818609E-02  0.8706539E-01
       -1   -1    0    0    0  501  0.00000000000E+00  0.00000000000E+00  0.70040743652E+03  0.70040743654E+03  0.50400001928E-02 0.  1.
        1   -1    0    0  501    0  0.00000000000E+00  0.00000000000E+00 -0.11558909186E+04  0.11558909186E+04  0.50400001928E-02 0. -1.
    10030    2    1    2    0    0  0.00000000000E+00  0.00000000000E+00 -0.45548348211E+03  0.18562983552E+04  0.17995494939E+04 0.  0.
        5    1    3    3  502    0  0.56926578155E+03  0.23393360247E+03 -0.90478090093E+03  0.10942755727E+04  0.46999998093E+01 0. -1.
       -5    1    3    3    0  502 -0.56926578155E+03 -0.23393360247E+03  0.44929741881E+03  0.76202278245E+03  0.46999998093E+01 0.  1.
</event>
<event>
 5   0  0.1330225E-04  0.1803861E+04  0.7818609E-02  0.8704249E-01
       -1   -1    0    0    0  501  0.00000000000E+00  0.00000000000E+00  0.50933693649E+03  0.50933693651E+03  0.50400001928E-02 0.  1.
        1   -1    0    0  501    0  0.00000000000E+00  0.00000000000E+00 -0.15971330003E+04  0.15971330003E+04  0.50400001928E-02 0. -1.
    10030    2    1    2    0    0  0.00000000000E+00  0.00000000000E+00 -0.10877960638E+04  0.21064699368E+04  0.18038612248E+04 0.  0.
        3    1    3    3  502    0  0.38779765043E+03  0.81281003962E+03 -0.60148203951E+03  0.10829717597E+04  0.10100000352E+00 0.  1.
       -3    1    3    3    0  502 -0.38779765043E+03 -0.81281003962E+03 -0.48631402428E+03  0.10234981771E+04  0.10100000352E+00 0. -1.
</event>
<event>
 5   0  0.2550616E-04  0.1792728E+04  0.7818609E-02  0.8710176E-01
       -2   -1    0    0    0  501  0.00000000000E+00  0.00000000000E+00  0.70374490801E+03  0.70374490801E+03  0.25500000920E-02 0.  1.
        2   -1    0    0  501    0  0.00000000000E+00  0.00000000000E+00 -0.11417035715E+04  0.11417035715E+04  0.25500000920E-02 0. -1.
    10030    2    1    2    0    0  0.00000000000E+00  0.00000000000E+00 -0.43795866347E+03  0.18454484795E+04  0.17927276144E+04 0.  0.
        1    1    3    3  502    0  0.80692474195E+03 -0.17218224671E+03  0.14159843346E+03  0.83715254383E+03  0.50400001928E-02 0.  1.
       -1    1    3    3    0  502 -0.80692474195E+03  0.17218224671E+03 -0.57955709693E+03  0.10082959357E+04  0.50400001928E-02 0. -1.
</event>
<event>
 5   0  0.1308893E-04  0.1795171E+04  0.7818609E-02  0.8708872E-01
       -1   -1    0    0    0  501  0.00000000000E+00  0.00000000000E+00  0.56082781853E+03  0.56082781855E+03  0.50400001928E-02 0. -1.
        1   -1    0    0  501    0  0.00000000000E+00  0.00000000000E+00 -0.14365549116E+04  0.14365549116E+04  0.50400001928E-02 0.  1.
    10030    2    1    2    0    0  0.00000000000E+00  0.00000000000E+00 -0.87572709308E+03  0.19973827302E+04  0.17951712535E+04 0.  0.
        4    1    3    3  502    0 -0.31231402185E+03  0.81617699853E+03 -0.66581506898E+03  0.10986338153E+04  0.12699999809E+01 0.  1.
       -4    1    3    3    0  502  0.31231402185E+03 -0.81617699853E+03 -0.20991202410E+03  0.89874891485E+03  0.12699999809E+01 0. -1.
</event>
<event>
 5   0  0.1330225E-04  0.1743445E+04  0.7818609E-02  0.8736967E-01
       -1   -1    0    0    0  501  0.00000000000E+00  0.00000000000E+00  0.79871366586E+03  0.79871366587E+03  0.50400001928E-02 0. -1.
        1   -1    0    0  501    0  0.00000000000E+00  0.00000000000E+00 -0.95140488909E+03  0.95140488910E+03  0.50400001928E-02 0.  1.
    10030    2    1    2    0    0  0.00000000000E+00  0.00000000000E+00 -0.15269122323E+03  0.17501185550E+04  0.17434449652E+04 0.  0.
        3    1    3    3  502    0 -0.56784011188E+03  0.72791671965E+02 -0.73625002947E+03  0.93263344153E+03  0.10100000352E+00 0.  1.
       -3    1    3    3    0  502  0.56784011188E+03 -0.72791671965E+02  0.58355880624E+03  0.81748511345E+03  0.10100000352E+00 0. -1.
</event>
<event>
 5   0  0.1214723E-04  0.1800722E+04  0.7818609E-02  0.8705916E-01
       -1   -1    0    0    0  501  0.00000000000E+00  0.00000000000E+00  0.88654346915E+03  0.88654346917E+03  0.50400001928E-02 0.  1.
        1   -1    0    0  501    0  0.00000000000E+00  0.00000000000E+00 -0.91439370976E+03  0.91439370977E+03  0.50400001928E-02 0. -1.
    10030    2    1    2    0    0  0.00000000000E+00  0.00000000000E+00 -0.27850240610E+02  0.18009371789E+04  0.18007218238E+04 0.  0.
        1    1    3    3  502    0  0.11681461353E+03  0.68400708778E+03  0.55984935812E+03  0.89159556632E+03  0.50400001928E-02 0. -1.
       -1    1    3    3    0  502 -0.11681461353E+03 -0.68400708778E+03 -0.58769959873E+03  0.90934161262E+03  0.50400001928E-02 0.  1.
</event>
<event>
 5   0  0.1239119E-04  0.1796975E+04  0.7818609E-02  0.8707910E-01
       -1   -1    0    0    0  501  0.00000000000E+00  0.00000000000E+00  0.48181096639E+03  0.48181096641E+03  0.50400001928E-02 0.  1.
        1   -1    0    0  501    0  0.00000000000E+00  0.00000000000E+00 -0.16755121942E+04  0.16755121942E+04  0.50400001928E-02 0. -1.
    10030    2    1    2    0    0  0.00000000000E+00  0.00000000000E+00 -0.11937012278E+04  0.21573231606E+04  0.17969754027E+04 0.  0.
        5    1    3    3  502    0 -0.51541311366E+03 -0.73167093587E+03 -0.50182637020E+03  0.10260822735E+04  0.46999998093E+01 0. -1.
       -5    1    3    3    0  502  0.51541311366E+03  0.73167093587E+03 -0.69187485760E+03  0.11312408871E+04  0.46999998093E+01 0.  1.
</event>
<event>
 5   0  0.1330225E-04  0.1805559E+04  0.7818609E-02  0.8703349E-01
        1   -1    0    0  501    0  0.00000000000E+00  0.00000000000E+00  0.14516797526E+04  0.14516797526E+04  0.50400001928E-02 0. -1.
       -1   -1    0    0    0  501  0.00000000000E+00  0.00000000000E+00 -0.56142601997E+03  0.56142601999E+03  0.50400001928E-02 0.  1.
    10030    2    1    2    0    0  0.00000000000E+00  0.00000000000E+00  0.89025373260E+03  0.20131057726E+04  0.18055589559E+04 0.  0.
        3    1    3    3  502    0  0.44548268381E+03  0.21850606714E+03  0.12860163743E+04  0.13784186041E+04  0.10100000352E+00 0. -1.
       -3    1    3    3    0  502 -0.44548268381E+03 -0.21850606714E+03 -0.39576264175E+03  0.63468716842E+03  0.10100000352E+00 0.  1.
</event>
<event>
 5   0  0.2417106E-04  0.1804732E+04  0.7818609E-02  0.8703787E-01
       -2   -1    0    0    0  501  0.00000000000E+00  0.00000000000E+00  0.38356411070E+03  0.38356411071E+03  0.25500000920E-02 0. -1.
        2   -1    0    0  501    0  0.00000000000E+00  0.00000000000E+00 -0.21228888689E+04  0.21228888689E+04  0.25500000920E-02 0.  1.
    10030    2    1    2    0    0  0.00000000000E+00  0.00000000000E+00 -0.17393247582E+04  0.25064529796E+04  0.18047315381E+04 0.  0.
        4    1    3    3  502    0 -0.17717441916E+03 -0.30021913485E+03 -0.20255939006E+04  0.20553721237E+04  0.12699999809E+01 0.  1.
       -4    1    3    3    0  502  0.17717441916E+03  0.30021913485E+03  0.28626914244E+03  0.45108085589E+03  0.12699999809E+01 0. -1.
</event>
<event>
 5   0  0.2550616E-04  0.1804256E+04  0.7818609E-02  0.8704039E-01
       -2   -1    0    0    0  501  0.00000000000E+00  0.00000000000E+00  0.35244187158E+03  0.35244187159E+03  0.25500000920E-02 0. -1.
        2   -1    0    0  501    0  0.00000000000E+00  0.00000000000E+00 -0.23091322920E+04  0.23091322920E+04  0.25500000920E-02 0.  1.
    10030    2    1    2    0    0  0.00000000000E+00  0.00000000000E+00 -0.19566904204E+04  0.26615741636E+04  0.18042559760E+04 0.  0.
        1    1    3    3  502    0  0.37881720043E+03 -0.50422446532E+03 -0.26789710799E+02  0.63123883863E+03  0.50400001928E-02 0. -1.
       -1    1    3    3    0  502 -0.37881720043E+03  0.50422446532E+03 -0.19299007096E+04  0.20303353250E+04  0.50400001928E-02 0.  1.
</event>
<event>
 5   0  0.1308893E-04  0.1810201E+04  0.7818609E-02  0.8700894E-01
       -1   -1    0    0    0  501  0.00000000000E+00  0.00000000000E+00  0.49602919447E+03  0.49602919450E+03  0.50400001928E-02 0.  1.
        1   -1    0    0  501    0  0.00000000000E+00  0.00000000000E+00 -0.16515291242E+04  0.16515291242E+04  0.50400001928E-02 0. -1.
    10030    2    1    2    0    0  0.00000000000E+00  0.00000000000E+00 -0.11554999297E+04  0.21475583187E+04  0.18102007194E+04 0.  0.
        4    1    3    3  502    0 -0.23244775091E+03  0.19226240546E+03  0.43463580755E+03  0.52906208290E+03  0.12699999809E+01 0.  1.
       -4    1    3    3    0  502  0.23244775091E+03 -0.19226240546E+03 -0.15901357373E+04  0.16184962358E+04  0.12699999809E+01 0. -1.
</event>
<event>
 5   0  0.2393421E-04  0.1782452E+04  0.7818609E-02  0.8715687E-01
        2   -1    0    0  501    0  0.00000000000E+00  0.00000000000E+00  0.19118817570E+04  0.19118817570E+04  0.25500000920E-02 0. -1.
       -2   -1    0    0    0  501  0.00000000000E+00  0.00000000000E+00 -0.41544606423E+03  0.41544606424E+03  0.25500000920E-02 0.  1.
    10030    2    1    2    0    0  0.00000000000E+00  0.00000000000E+00  0.14964356928E+04  0.23273278213E+04  0.17824519643E+04 0.  0.
        5    1    3    3  502    0 -0.36726655208E+03 -0.64652423405E+03  0.13897130103E+04  0.15761353516E+04  0.46999998093E+01 0. -1.
       -5    1    3    3    0  502  0.36726655208E+03  0.64652423405E+03  0.10672268243E+03  0.75119246964E+03  0.46999998093E+01 0.  1.
</event>
<event>
 5   0  0.1308893E-04  0.1810305E+04  0.7818609E-02  0.8700838E-01
        1   -1    0    0  501    0  0.00000000000E+00  0.00000000000E+00  0.11326710457E+04  0.11326710457E+04  0.50400001928E-02 0. -1.
       -1   -1    0    0    0  501  0.00000000000E+00  0.00000000000E+00 -0.72333560822E+03  0.72333560824E+03  0.50400001928E-02 0.  1.
    10030    2    1    2    0    0  0.00000000000E+00  0.00000000000E+00  0.40933543749E+03  0.18560066540E+04  0.18103052779E+04 0.  0.
        4    1    3    3  502    0  0.86885408557E+03 -0.25830672292E+02  0.46347874446E+03  0.98508314629E+03  0.12699999809E+01 0. -1.
       -4    1    3    3    0  502 -0.86885408557E+03  0.25830672292E+02 -0.54143306970E+02  0.87092350768E+03  0.12699999809E+01 0.  1.
</event>
<event>
 5   0  0.1214723E-04  0.1757575E+04  0.7818609E-02  0.8729192E-01
       -1   -1    0    0    0  501  0.00000000000E+00  0.00000000000E+00  0.51148051492E+03  0.51148051495E+03  0.50400001928E-02 0. -1.
        1   -1    0    0  501    0  0.00000000000E+00  0.00000000000E+00 -0.15098666557E+04  0.15098666557E+04  0.50400001928E-02 0.  1.
    10030    2    1    2    0    0  0.00000000000E+00  0.00000000000E+00 -0.99838614075E+03  0.20213471706E+04  0.17575748912E+04 0.  0.
        1    1    3    3  502    0 -0.59896838028E+03 -0.13232110441E+03 -0.12229156633E+04  0.13681354884E+04  0.50400001928E-02 0.  1.
       -1    1    3    3    0  502  0.59896838028E+03  0.13232110441E+03  0.22452952250E+03  0.65321168220E+03  0.50400001928E-02 0. -1.
</event>
<event>
 5   0  0.1214723E-04  0.1943721E+04  0.7818609E-02  0.8633394E-01
       -1   -1    0    0    0  501  0.00000000000E+00  0.00000000000E+00  0.11396078643E+04  0.11396078643E+04  0.50400001928E-02 0. -1.
        1   -1    0    0  501    0  0.00000000000E+00  0.00000000000E+00 -0.82880544629E+03  0.82880544631E+03  0.50400001928E-02 0.  1.
    10030    2    1    2    0    0  0.00000000000E+00  0.00000000000E+00  0.31080241800E+03  0.19684133106E+04  0.19437213839E+04 0.  0.
        1    1    3    3  502    0 -0.14287045854E+02 -0.50662952978E+03 -0.68437092278E+03  0.85161092060E+03  0.50400001928E-02 0.  1.
       -1    1    3    3    0  502  0.14287045854E+02  0.50662952978E+03  0.99517334078E+03  0.11168023900E+04  0.50400001928E-02 0. -1.
</event>
<event>
 5   0  0.1330225E-04  0.1815973E+04  0.7818609E-02  0.8697851E-01
       -1   -1    0    0    0  501  0.00000000000E+00  0.00000000000E+00  0.82355843391E+03  0.82355843393E+03  0.50400001928E-02 0. -1.
        1   -1    0    0  501    0  0.00000000000E+00  0.00000000000E+00 -0.10010694015E+04  0.10010694015E+04  0.50400001928E-02 0.  1.
    10030    2    1    2    0    0  0.00000000000E+00  0.00000000000E+00 -0.17751096759E+03  0.18246278354E+04  0.18159726304E+04 0.  0.
        3    1    3    3  502    0  0.31488104240E+03 -0.59039179913E+03 -0.70546142884E+03  0.97231084799E+03  0.10100000352E+00 0.  1.
       -3    1    3    3    0  502 -0.31488104240E+03  0.59039179913E+03  0.52795046126E+03  0.85231698744E+03  0.10100000352E+00 0. -1.
</event>
<event>
 5   0  0.2393421E-04  0.1804639E+04  0.7818609E-02  0.8703836E-01
       -2   -1    0    0    0  501  0.00000000000E+00  0.00000000000E+00  0.40959764658E+03  0.40959764659E+03  0.25500000920E-02 0. -1.
        2   -1    0    0  501    0  0.00000000000E+00  0.00000000000E+00 -0.19877578055E+04  0.19877578056E+04  0.25500000920E-02 0.  1.
    10030    2    1    2    0    0  0.00000000000E+00  0.00000000000E+00 -0.15781601590E+04  0.23973554521E+04  0.18046394866E+04 0.  0.
        5    1    3    3  502    0 -0.41606803746E+03 -0.85127209319E+01  0.27448017084E+03  0.49854441366E+03  0.46999998093E+01 0. -1.
       -5    1    3    3    0  502  0.41606803746E+03  0.85127209319E+01 -0.18526403298E+04  0.18988110385E+04  0.46999998093E+01 0.  1.
</event>
<event>
 5   0  0.2550616E-04  0.1783941E+04  0.7818609E-02  0.8714886E-01
        2   -1    0    0  501    0  0.00000000000E+00  0.00000000000E+00  0.51397528178E+03  0.51397528178E+03  0.25500000920E-02 0. -1.
       -2   -1    0    0    0  501  0.00000000000E+00  0.00000000000E+00 -0.15479569525E+04  0.15479569525E+04  0.25500000920E-02 0.  1.
    10030    2    1    2    0    0  0.00000000000E+00  0.00000000000E+00 -0.10339816707E+04  0.20619322343E+04  0.17839412668E+04 0.  0.
        1    1    3    3  502    0  0.43166074702E+03 -0.77669870524E+03 -0.60666810956E+03  0.10759359063E+04  0.50400001928E-02 0.  1.
       -1    1    3    3    0  502 -0.43166074702E+03  0.77669870524E+03 -0.42731356114E+03  0.98599632798E+03  0.50400001928E-02 0. -1.
</event>
<event>
 5   0  0.1308893E-04  0.1833471E+04  0.7818609E-02  0.8688700E-01
       -1   -1    0    0    0  501  0.00000000000E+00  0.00000000000E+00  0.42277797131E+03  0.42277797134E+03  0.50400001928E-02 0.  1.
        1   -1    0    0  501    0  0.00000000000E+00  0.00000000000E+00 -0.19878131734E+04  0.19878131734E+04  0.50400001928E-02 0. -1.
    10030    2    1    2    0    0  0.00000000000E+00  0.00000000000E+00 -0.15650352021E+04  0.24105911447E+04  0.18334706115E+04 0.  0.
        4    1    3    3  502    0  0.47993685107E+03 -0.49132366810E+03  0.15779920176E+02  0.68701451704E+03  0.12699999809E+01 0.  1.
       -4    1    3    3    0  502 -0.47993685107E+03  0.49132366810E+03 -0.15808151223E+04  0.17235766277E+04  0.12699999809E+01 0. -1.
</event>
<event>
 5   0  0.1330225E-04  0.1781252E+04  0.7818609E-02  0.8716333E-01
        1   -1    0    0  501    0  0.00000000000E+00  0.00000000000E+00  0.10599057943E+04  0.10599057943E+04  0.50400001928E-02 0. -1.
       -1   -1    0    0    0  501  0.00000000000E+00  0.00000000000E+00 -0.74838217362E+03  0.74838217364E+03  0.50400001928E-02 0.  1.
    10030    2    1    2    0    0  0.00000000000E+00  0.00000000000E+00  0.31152362067E+03  0.18082879679E+04  0.17812519218E+04 0.  0.
        3    1    3    3  502    0  0.39931115070E+03 -0.65251780032E+02  0.96121937982E+03  0.10429045480E+04  0.10100000352E+00 0. -1.
       -3    1    3    3    0  502 -0.39931115070E+03  0.65251780032E+02 -0.64969575915E+03  0.76538341995E+03  0.10100000352E+00 0.  1.
</event>
<event>
 5   0  0.2393421E-04  0.1803061E+04  0.7818609E-02  0.8704673E-01
       -2   -1    0    0    0  501  0.00000000000E+00  0.00000000000E+00  0.13793671604E+04  0.13793671604E+04  0.25500000920E-02 0. -1.
        2   -1    0    0  501    0  0.00000000000E+00  0.00000000000E+00 -0.58922480774E+03  0.58922480774E+03  0.25500000920E-02 0.  1.
    10030    2    1    2    0    0  0.00000000000E+00  0.00000000000E+00  0.79014235266E+03  0.19685919681E+04  0.18030611192E+04 0.  0.
        5    1    3    3  502    0  0.62415798915E+03 -0.42004864304E+03 -0.14723992720E+03  0.76662620885E+03  0.46999998093E+01 0.  1.
       -5    1    3    3    0  502 -0.62415798915E+03  0.42004864304E+03  0.93738227987E+03  0.12019657593E+04  0.46999998093E+01 0. -1.
</event>
<event>
 5   0  0.1330225E-04  0.1714667E+04  0.7818609E-02  0.8753043E-01
        1   -1    0    0  501    0  0.00000000000E+00  0.00000000000E+00  0.21207630420E+04  0.21207630420E+04  0.50400001928E-02 0.  1.
       -1   -1    0    0    0  501  0.00000000000E+00  0.00000000000E+00 -0.34658319040E+03  0.34658319043E+03  0.50400001928E-02 0. -1.
    10030    2    1    2    0    0  0.00000000000E+00  0.00000000000E+00  0.17741798516E+04  0.24673462324E+04  0.17146671061E+04 0.  0.
        3    1    3    3  502    0 -0.66167195322E+03  0.20431087809E+03  0.16143983553E+04  0.17566544249E+04  0.10100000352E+00 0.  1.
       -3    1    3    3    0  502  0.66167195322E+03 -0.20431087809E+03  0.15978149628E+03  0.71069180756E+03  0.10100000352E+00 0. -1.
</event>
<event>
 5   0  0.1214723E-04  0.1837845E+04  0.7818609E-02  0.8686429E-01
        1   -1    0    0  501    0  0.00000000000E+00  0.00000000000E+00  0.11391860491E+04  0.11391860491E+04  0.50400001928E-02 0. -1.
       -1   -1    0    0    0  501  0.00000000000E+00  0.00000000000E+00 -0.74124742625E+03  0.74124742626E+03  0.50400001928E-02 0.  1.
    10030    2    1    2    0    0  0.00000000000E+00  0.00000000000E+00  0.39793862288E+03  0.18804334754E+04  0.18378451806E+04 0.  0.
        1    1    3    3  502    0 -0.34149789694E+03  0.27497220250E+01 -0.67390597430E+03  0.75549827055E+03  0.50400001928E-02 0.  1.
       -1    1    3    3    0  502  0.34149789694E+03 -0.27497220250E+01  0.10718445972E+04  0.11249352049E+04  0.50400001928E-02 0. -1.
</event>
<event>
 5   0  0.2417106E-04  0.1807581E+04  0.7818609E-02  0.8702278E-01
       -2   -1    0    0    0  501  0.00000000000E+00  0.00000000000E+00  0.40659182497E+03  0.40659182498E+03  0.25500000920E-02 0. -1.
        2   -1    0    0  501    0  0.00000000000E+00  0.00000000000E+00 -0.20089859742E+04  0.20089859742E+04  0.25500000920E-02 0.  1.
    10030    2    1    2    0    0  0.00000000000E+00  0.00000000000E+00 -0.16023941492E+04  0.24155777992E+04  0.18075810063E+04 0.  0.
        4    1    3    3  502    0 -0.15182007850E+03  0.15806754427E+02  0.38924071873E+03  0.41810182939E+03  0.12699999809E+01 0. -1.
       -4    1    3    3    0  502  0.15182007850E+03 -0.15806754427E+02 -0.19916348680E+04  0.19974759698E+04  0.12699999809E+01 0.  1.
</event>
<event>
 5   0  0.2569405E-04  0.1625036E+04  0.7818609E-02  0.8805313E-01
        2   -1    0    0  501    0  0.00000000000E+00  0.00000000000E+00  0.18369383610E+04  0.18369383610E+04  0.25500000920E-02 0.  1.
       -2   -1    0    0    0  501  0.00000000000E+00  0.00000000000E+00 -0.35939448583E+03  0.35939448584E+03  0.25500000920E-02 0. -1.
    10030    2    1    2    0    0  0.00000000000E+00  0.00000000000E+00  0.14775438751E+04  0.21963328468E+04  0.16250360215E+04 0.  0.
        2    1    3    3  502    0  0.63371685105E+03  0.28375076053E+03  0.16842988712E+03  0.71447894881E+03  0.25500000920E-02 0. -1.
       -2    1    3    3    0  502 -0.63371685105E+03 -0.28375076053E+03  0.13091139880E+04  0.14818538980E+04  0.25500000920E-02 0.  1.
</event>
<event>
 5   0  0.1253925E-04  0.1786812E+04  0.7818609E-02  0.8713344E-01
        1   -1    0    0  501    0  0.00000000000E+00  0.00000000000E+00  0.14556020549E+04  0.14556020549E+04  0.50400001928E-02 0.  1.
       -1   -1    0    0    0  501  0.00000000000E+00  0.00000000000E+00 -0.54834656088E+03  0.54834656090E+03  0.50400001928E-02 0. -1.
    10030    2    1    2    0    0  0.00000000000E+00  0.00000000000E+00  0.90725549400E+03  0.20039486158E+04  0.17868121119E+04 0.  0.
        2    1    3    3  502    0 -0.11003244083E+03 -0.87797780946E+03  0.59199920985E+03  0.10646197614E+04  0.25500000920E-02 0.  1.
       -2    1    3    3    0  502  0.11003244083E+03  0.87797780946E+03  0.31525628415E+03  0.93932885437E+03  0.25500000920E-02 0. -1.
</event>
<event>
 5   0  0.2569405E-04  0.1805412E+04  0.7818609E-02  0.8703427E-01
        2   -1    0    0  501    0  0.00000000000E+00  0.00000000000E+00  0.16127067846E+04  0.16127067846E+04  0.25500000920E-02 0. -1.
       -2   -1    0    0    0  501  0.00000000000E+00  0.00000000000E+00 -0.50528594952E+03  0.50528594952E+03  0.25500000920E-02 0.  1.
    10030    2    1    2    0    0  0.00000000000E+00  0.00000000000E+00  0.11074208351E+04  0.21179927341E+04  0.18054119518E+04 0.  0.
        2    1    3    3  502    0  0.70439509382E+03  0.52398813142E+03  0.80018633662E+03  0.11878695986E+04  0.25500000920E-02 0. -1.
       -2    1    3    3    0  502 -0.70439509382E+03 -0.52398813142E+03  0.30723449843E+03  0.93012313545E+03  0.25500000920E-02 0.  1.
</event>
<event>
 5   0  0.1253925E-04  0.1663600E+04  0.7818609E-02  0.8782401E-01
       -1   -1    0    0    0  501  0.00000000000E+00  0.00000000000E+00  0.64823862459E+03  0.64823862461E+03  0.50400001928E-02 0.  1.
        1   -1    0    0  501    0  0.00000000000E+00  0.00000000000E+00 -0.10673409029E+04  0.10673409030E+04  0.50400001928E-02 0. -1.
    10030    2    1    2    0    0  0.00000000000E+00  0.00000000000E+00 -0.41910227835E+03  0.17155795276E+04  0.16636004315E+04 0.  0.
        2    1    3    3  502    0 -0.73899035803E+03  0.37121973286E+03 -0.11742477222E+03  0.83528403340E+03  0.25500000920E-02 0.  1.
       -2    1    3    3    0  502  0.73899035803E+03 -0.37121973286E+03 -0.30167750614E+03  0.88029549416E+03  0.25500000920E-02 0. -1.
</event>
<event>
 5   0  0.9144875E-05  0.1807073E+04  0.7818609E-02  0.8702547E-01
        3   -1    0    0  501    0  0.00000000000E+00  0.00000000000E+00  0.14350968050E+04  0.14350968086E+04  0.10100000352E+00 0.  1.
       -3   -1    0    0    0  501  0.00000000000E+00  0.00000000000E+00 -0.56886653609E+03  0.56886654506E+03  0.10100000352E+00 0. -1.
    10030    2    1    2    0    0  0.00000000000E+00  0.00000000000E+00  0.86623026895E+03  0.20039633537E+04  0.18070733920E+04 0.  0.
        4    1    3    3  502    0  0.14322736764E+03  0.88313203204E+03  0.29310242829E+03  0.94145998918E+03  0.12699999809E+01 0. -1.
       -4    1    3    3    0  502 -0.14322736764E+03 -0.88313203204E+03  0.57312784067E+03  0.10625033645E+04  0.12699999809E+01 0.  1.
</event>
<event>
 5   0  0.1214723E-04  0.1815656E+04  0.7818609E-02  0.8698018E-01
        1   -1    0    0  501    0  0.00000000000E+00  0.00000000000E+00  0.16848461228E+04  0.16848461228E+04  0.50400001928E-02 0.  1.
       -1   -1    0    0    0  501  0.00000000000E+00  0.00000000000E+00 -0.48915548601E+03  0.48915548604E+03  0.50400001928E-02 0. -1.
    10030    2    1    2    0    0  0.00000000000E+00  0.00000000000E+00  0.11956906367E+04  0.21740016088E+04  0.18156560512E+04 0.  0.
        1    1    3    3  502    0  0.39236837335E+03 -0.81099212135E+03  0.46402647176E+03  0.10134010696E+04  0.50400001928E-02 0.  1.
       -1    1    3    3    0  502 -0.39236837335E+03  0.81099212135E+03  0.73166416498E+03  0.11606005392E+04  0.50400001928E-02 0. -1.
</event>
<event>
 5   0  0.2569405E-04  0.1785233E+04  0.7818609E-02  0.8714192E-01
        2   -1    0    0  501    0  0.00000000000E+00  0.00000000000E+00  0.60334048696E+03  0.60334048696E+03  0.25500000920E-02 0. -1.
       -2   -1    0    0    0  501  0.00000000000E+00  0.00000000000E+00 -0.13205887522E+04  0.13205887522E+04  0.25500000920E-02 0.  1.
    10030    2    1    2    0    0  0.00000000000E+00  0.00000000000E+00 -0.71724826519E+03  0.19239292391E+04  0.17852334982E+04 0.  0.
        2    1    3    3  502    0 -0.14443533939E+02 -0.39350111470E+03  0.50468126945E+03  0.64012102502E+03  0.25500000920E-02 0. -1.
       -2    1    3    3    0  502  0.14443533939E+02  0.39350111470E+03 -0.12219295346E+04  0.12838082141E+04  0.25500000920E-02 0.  1.
</event>
<event>
 5   0  0.2417106E-04  0.1737968E+04  0.7818609E-02  0.8740001E-01
        2   -1    0    0  501    0  0.00000000000E+00  0.00000000000E+00  0.18498581867E+04  0.18498581867E+04  0.25500000920E-02 0.  1.
       -2   -1    0    0    0  501  0.00000000000E+00  0.00000000000E+00 -0.40821161175E+03  0.40821161176E+03  0.25500000920E-02 0. -1.
    10030    2    1    2    0    0  0.00000000000E+00  0.00000000000E+00  0.14416465749E+04  0.22580697984E+04  0.17379684599E+04 0.  0.
        4    1    3    3  502    0  0.43930546040E+03  0.57970314999E+03  0.10304417799E+03  0.73461877540E+03  0.12699999809E+01 0. -1.
       -4    1    3    3    0  502 -0.43930546040E+03 -0.57970314999E+03  0.13386023969E+04  0.15234510230E+04  0.12699999809E+01 0.  1.
</event>
<event>
 5   0  0.2550616E-04  0.1799677E+04  0.7818609E-02  0.8706471E-01
       -2   -1    0    0    0  501  0.00000000000E+00  0.00000000000E+00  0.55188889965E+03  0.55188889966E+03  0.25500000920E-02 0. -1.
        2   -1    0    0  501    0  0.00000000000E+00  0.00000000000E+00 -0.14671605713E+04  0.14671605713E+04  0.25500000920E-02 0.  1.
    10030    2    1    2    0    0  0.00000000000E+00  0.00000000000E+00 -0.91527167161E+03  0.20190494709E+04  0.17996773414E+04 0.  0.
        1    1    3    3  502    0 -0.44384447177E+03 -0.91525760966E+02  0.41451398583E+03  0.61416343469E+03  0.50400001928E-02 0. -1.
       -1    1    3    3    0  502  0.44384447177E+03  0.91525760966E+02 -0.13297856574E+04  0.14048860362E+04  0.50400001928E-02 0.  1.
</event>
<event>
 5   0  0.2550616E-04  0.1797736E+04  0.7818609E-02  0.8707504E-01
       -2   -1    0    0    0  501  0.00000000000E+00  0.00000000000E+00  0.86589214108E+03  0.86589214109E+03  0.25500000920E-02 0. -1.
        2   -1    0    0  501    0  0.00000000000E+00  0.00000000000E+00 -0.93309969455E+03  0.93309969455E+03  0.25500000920E-02 0.  1.
    10030    2    1    2    0    0  0.00000000000E+00  0.00000000000E+00 -0.67207553466E+02  0.17989918356E+04  0.17977360122E+04 0.  0.
        1    1    3    3  502    0  0.73104181258E+03  0.22770598459E+02  0.48927731754E+03  0.87996188859E+03  0.50400001928E-02 0. -1.
       -1    1    3    3    0  502 -0.73104181258E+03 -0.22770598459E+02 -0.55648487100E+03  0.91902994705E+03  0.50400001928E-02 0.  1.
</event>
<event>
 5   0  0.1253925E-04  0.1479453E+04  0.7818609E-02  0.8898233E-01
       -1   -1    0    0    0  501  0.00000000000E+00  0.00000000000E+00  0.10573783038E+04  0.10573783039E+04  0.50400001928E-02 0.  1.
        1   -1    0    0  501    0  0.00000000000E+00  0.00000000000E+00 -0.51750181582E+03  0.51750181584E+03  0.50400001928E-02 0. -1.
    10030    2    1    2    0    0  0.00000000000E+00  0.00000000000E+00  0.53987648802E+03  0.15748801197E+04  0.14794528614E+04 0.  0.
        2    1    3    3  502    0 -0.49982449300E+03 -0.20032364740E+03 -0.26996576419E+03  0.60235836622E+03  0.25500000920E-02 0. -1.
       -2    1    3    3    0  502  0.49982449300E+03  0.20032364740E+03  0.80984225221E+03  0.97252175348E+03  0.25500000920E-02 0.  1.
</event>
<event>
 5   0  0.2393421E-04  0.1797030E+04  0.7818609E-02  0.8707881E-01
        2   -1    0    0  501    0  0.00000000000E+00  0.00000000000E+00  0.23725258461E+04  0.23725258461E+04  0.25500000920E-02 0. -1.
       -2   -1    0    0    0  501  0.00000000000E+00  0.00000000000E+00 -0.34028240883E+03  0.34028240883E+03  0.25500000920E-02 0.  1.
    10030    2    1    2    0    0  0.00000000000E+00  0.00000000000E+00  0.20322434372E+04  0.27128082549E+04  0.17970295600E+04 0.  0.
        5    1    3    3  502    0 -0.25475592134E+03  0.51276435712E+03  0.20614401470E+04  0.21394825157E+04  0.46999998093E+01 0. -1.
       -5    1    3    3    0  502  0.25475592134E+03 -0.51276435712E+03 -0.29196709729E+02  0.57332573922E+03  0.46999998093E+01 0.  1.
</event>
<event>
 5   0  0.2550616E-04  0.1794385E+04  0.7818609E-02  0.8709291E-01
        2   -1    0    0  501    0  0.00000000000E+00  0.00000000000E+00  0.15600269208E+04  0.15600269208E+04  0.25500000920E-02 0. -1.
       -2   -1    0    0    0  501  0.00000000000E+00  0.00000000000E+00 -0.51598772429E+03  0.51598772430E+03  0.25500000920E-02 0.  1.
    10030    2    1    2    0    0  0.00000000000E+00  0.00000000000E+00  0.10440391965E+04  0.20760146451E+04  0.17943853997E+04 0.  0.
        1    1    3    3  502    0 -0.44992860324E+03 -0.68583083432E+03  0.10143188337E+03  0.82649144478E+03  0.50400001928E-02 0.  1.
       -1    1    3    3    0  502  0.44992860324E+03  0.68583083432E+03  0.94260731310E+03  0.12495232003E+04  0.50400001928E-02 0. -1.
</event>
<event>
 5   0  0.2393421E-04  0.1804281E+04  0.7818609E-02  0.8704026E-01
       -2   -1    0    0    0  501  0.00000000000E+00  0.00000000000E+00  0.60921870559E+03  0.60921870560E+03  0.25500000920E-02 0. -1.
        2   -1    0    0  501    0  0.00000000000E+00  0.00000000000E+00 -0.13359041219E+04  0.13359041219E+04  0.25500000920E-02 0.  1.
    10030    2    1    2    0    0  0.00000000000E+00  0.00000000000E+00 -0.72668541634E+03  0.19451228275E+04  0.18042813306E+04 0.  0.
        5    1    3    3  502    0  0.27154198445E+03  0.74882112699E+03  0.93235023307E+02  0.80198690084E+03  0.46999998093E+01 0. -1.
       -5    1    3    3    0  502 -0.27154198445E+03 -0.74882112699E+03 -0.81992043965E+03  0.11431359267E+04  0.46999998093E+01 0.  1.
</event>
<event>
 5   0  0.2417106E-04  0.1787581E+04  0.7818609E-02  0.8712932E-01
        2   -1    0    0  501    0  0.00000000000E+00  0.00000000000E+00  0.31650211188E+03  0.31650211189E+03  0.25500000920E-02 0.  1.
       -2   -1    0    0    0  501  0.00000000000E+00  0.00000000000E+00 -0.25240307579E+04  0.25240307579E+04  0.25500000920E-02 0. -1.
    10030    2    1    2    0    0  0.00000000000E+00  0.00000000000E+00 -0.22075286460E+04  0.28405328698E+04  0.17875805608E+04 0.  0.
        4    1    3    3  502    0 -0.22388874028E+03 -0.10441607676E+03  0.26117239766E+03  0.35950176538E+03  0.12699999809E+01 0.  1.
       -4    1    3    3    0  502  0.22388874028E+03  0.10441607676E+03 -0.24687010437E+04  0.24810311044E+04  0.12699999809E+01 0. -1.
</event>
<event>
 5   0  0.1214723E-04  0.1818583E+04  0.7818609E-02  0.8696479E-01
       -1   -1    0    0    0  501  0.00000000000E+00  0.00000000000E+00  0.12189175419E+04  0.12189175419E+04  0.50400001928E-02 0.  1.
        1   -1    0    0  501    0  0.00000000000E+00  0.00000000000E+00 -0.67831549717E+03  0.67831549719E+03  0.50400001928E-02 0. -1.
    10030    2    1    2    0    0  0.00000000000E+00  0.00000000000E+00  0.54060204475E+03  0.18972330391E+04  0.18185825893E+04 0.  0.
        1    1    3    3  502    0  0.34798449319E+03 -0.29602131187E+03 -0.54988638860E+03  0.71491038947E+03  0.50400001928E-02 0. -1.
       -1    1    3    3    0  502 -0.34798449319E+03  0.29602131187E+03  0.10904884334E+04  0.11823226497E+04  0.50400001928E-02 0.  1.
</event>
<event>
 5   0  0.2431811E-04  0.1786022E+04  0.7818609E-02  0.8713768E-01
       -2   -1    0    0    0  501  0.00000000000E+00  0.00000000000E+00  0.54519553312E+03  0.54519553313E+03  0.25500000920E-02 0.  1.
        2   -1    0    0  501    0  0.00000000000E+00  0.00000000000E+00 -0.14627208226E+04  0.14627208226E+04  0.25500000920E-02 0. -1.
    10030    2    1    2    0    0  0.00000000000E+00  0.00000000000E+00 -0.91752528951E+03  0.20079163558E+04  0.17860222381E+04 0.  0.
        3    1    3    3  502    0 -0.13382200431E+03 -0.44432921014E+03  0.39900472059E+03  0.61199800087E+03  0.10100000352E+00 0.  1.
       -3    1    3    3    0  502  0.13382200431E+03  0.44432921014E+03 -0.13165300101E+04  0.13959183549E+04  0.10100000352E+00 0. -1.
</event>
<event>
 5   0  0.2550616E-04  0.1854957E+04  0.7818609E-02  0.8677608E-01
       -2   -1    0    0    0  501  0.00000000000E+00  0.00000000000E+00  0.36619925723E+03  0.36619925724E+03  0.25500000920E-02 0. -1.
        2   -1    0    0  501    0  0.00000000000E+00  0.00000000000E+00 -0.23490393708E+04  0.23490393708E+04  0.25500000920E-02 0.  1.
    10030    2    1    2    0    0  0.00000000000E+00  0.00000000000E+00 -0.19828401136E+04  0.27152386280E+04  0.18549571130E+04 0.  0.
        1    1    3    3  502    0  0.61565943879E+03 -0.27784709157E+03 -0.19217876153E+04  0.20370329377E+04  0.50400001928E-02 0.  1.
       -1    1    3    3    0  502 -0.61565943879E+03  0.27784709157E+03 -0.61052498279E+02  0.67820569036E+03  0.50400001928E-02 0. -1.
</event>
<event>
 5   0  0.1308893E-04  0.1810288E+04  0.7818609E-02  0.8700847E-01
        1   -1    0    0  501    0  0.00000000000E+00  0.00000000000E+00  0.19773530471E+04  0.19773530471E+04  0.50400001928E-02 0.  1.
       -1   -1    0    0    0  501  0.00000000000E+00  0.00000000000E+00 -0.41433471638E+03  0.41433471642E+03  0.50400001928E-02 0. -1.
    10030    2    1    2    0    0  0.00000000000E+00  0.00000000000E+00  0.15630183307E+04  0.23916877635E+04  0.18102883903E+04 0.  0.
        4    1    3    3  502    0  0.20664310566E+03  0.74233070660E+03  0.14089273388E+04  0.16058748737E+04  0.12699999809E+01 0.  1.
       -4    1    3    3    0  502 -0.20664310566E+03 -0.74233070660E+03  0.15409099187E+03  0.78581288978E+03  0.12699999809E+01 0. -1.
</event>
<event>
 5   0  0.2431811E-04  0.1799771E+04  0.7818609E-02  0.8706421E-01
        2   -1    0    0  501    0  0.00000000000E+00  0.00000000000E+00  0.11866917053E+04  0.11866917053E+04  0.25500000920E-02 0. -1.
       -2   -1    0    0    0  501  0.00000000000E+00  0.00000000000E+00 -0.68239652957E+03  0.68239652958E+03  0.25500000920E-02 0.  1.
    10030    2    1    2    0    0  0.00000000000E+00  0.00000000000E+00  0.50429517577E+03  0.18690882349E+04  0.17997714315E+04 0.  0.
        3    1    3    3  502    0 -0.44753955169E+03 -0.31198583259E+03  0.99536940580E+03  0.11350713961E+04  0.10100000352E+00 0. -1.
       -3    1    3    3    0  502  0.44753955169E+03  0.31198583259E+03 -0.49107423003E+03  0.73401683881E+03  0.10100000352E+00 0.  1.
</event>
<event>
 5   0  0.2550616E-04  0.1774039E+04  0.7818609E-02  0.8720229E-01
        2   -1    0    0  501    0  0.00000000000E+00  0.00000000000E+00  0.68115384126E+03  0.68115384127E+03  0.25500000920E-02 0.  1.
       -2   -1    0    0    0  501  0.00000000000E+00  0.00000000000E+00 -0.11551036279E+04  0.11551036279E+04  0.25500000920E-02 0. -1.
    10030    2    1    2    0    0  0.00000000000E+00  0.00000000000E+00 -0.47394978659E+03  0.18362574691E+04  0.17740386390E+04 0.  0.
        1    1    3    3  502    0  0.40730952336E+02 -0.66122610702E+03 -0.84751314755E+03  0.10757125594E+04  0.50400001928E-02 0. -1.
       -1    1    3    3    0  502 -0.40730952336E+02  0.66122610702E+03  0.37356336096E+03  0.76054490976E+03  0.50400001928E-02 0.  1.
</event>
<event>
 5   0  0.1253925E-04  0.1792288E+04  0.7818609E-02  0.8710411E-01
       -1   -1    0    0    0  501  0.00000000000E+00  0.00000000000E+00  0.12758583658E+04  0.12758583658E+04  0.50400001928E-02 0.  1.
        1   -1    0    0  501    0  0.00000000000E+00  0.00000000000E+00 -0.62943825741E+03  0.62943825743E+03  0.50400001928E-02 0. -1.
    10030    2    1    2    0    0  0.00000000000E+00  0.00000000000E+00  0.64642010841E+03  0.19052966233E+04  0.17922879975E+04 0.  0.
        2    1    3    3  502    0  0.48223724456E+03 -0.58182926747E+03 -0.18881953550E+03  0.77892931227E+03  0.25500000920E-02 0. -1.
       -2    1    3    3    0  502 -0.48223724456E+03  0.58182926747E+03  0.83523964391E+03  0.11263673110E+04  0.25500000920E-02 0.  1.
</event>
<event>
 5   0  0.2393421E-04  0.1812917E+04  0.7818609E-02  0.8699460E-01
        2   -1    0    0  501    0  0.00000000000E+00  0.00000000000E+00  0.28670097264E+04  0.28670097264E+04  0.25500000920E-02 0.  1.
       -2   -1    0    0    0  501  0.00000000000E+00  0.00000000000E+00 -0.28659372426E+03  0.28659372428E+03  0.25500000920E-02 0. -1.
    10030    2    1    2    0    0  0.00000000000E+00  0.00000000000E+00  0.25804160021E+04  0.31536034507E+04  0.18129169810E+04 0.  0.
        5    1    3    3  502    0 -0.23633944263E+03  0.84838051352E+03  0.91696431474E+03  0.12713974486E+04  0.46999998093E+01 0.  1.
       -5    1    3    3    0  502  0.23633944263E+03 -0.84838051352E+03  0.16634516874E+04  0.18822060020E+04  0.46999998093E+01 0. -1.
</event>
<event>
 5   0  0.1214723E-04  0.1849569E+04  0.7818609E-02  0.8680375E-01
        1   -1    0    0  501    0  0.00000000000E+00  0.00000000000E+00  0.15947269016E+04  0.15947269016E+04  0.50400001928E-02 0. -1.
       -1   -1    0    0    0  501  0.00000000000E+00  0.00000000000E+00 -0.53628371076E+03  0.53628371079E+03  0.50400001928E-02 0.  1.
    10030    2    1    2    0    0  0.00000000000E+00  0.00000000000E+00  0.10584431908E+04  0.21310106123E+04  0.18495686637E+04 0.  0.
        1    1    3    3  502    0 -0.25432273750E+02 -0.78659146917E+02  0.15904611670E+04  0.15926081708E+04  0.50400001928E-02 0. -1.
       -1    1    3    3    0  502  0.25432273750E+02  0.78659146917E+02 -0.53201797625E+03  0.53840244151E+03  0.50400001928E-02 0.  1.
</event>
<event>
 5   0  0.2550616E-04  0.1794908E+04  0.7818609E-02  0.8709012E-01
       -2   -1    0    0    0  501  0.00000000000E+00  0.00000000000E+00  0.79626465603E+03  0.79626465604E+03  0.25500000920E-02 0. -1.
        2   -1    0    0  501    0  0.00000000000E+00  0.00000000000E+00 -0.10115024340E+04  0.10115024340E+04  0.25500000920E-02 0.  1.
    10030    2    1    2    0    0  0.00000000000E+00  0.00000000000E+00 -0.21523777801E+03  0.18077670901E+04  0.17949079505E+04 0.  0.
        1    1    3    3  502    0 -0.50465664310E+03  0.68503913770E+03  0.17984965579E+03  0.86965674051E+03  0.50400001928E-02 0. -1.
       -1    1    3    3    0  502  0.50465664310E+03 -0.68503913770E+03 -0.39508743380E+03  0.93811034957E+03  0.50400001928E-02 0.  1.
</event>
<event>
 5   0  0.2569405E-04  0.1715217E+04  0.7818609E-02  0.8752733E-01
        2   -1    0    0  501    0  0.00000000000E+00  0.00000000000E+00  0.13104946825E+04  0.13104946825E+04  0.25500000920E-02 0. -1.
       -2   -1    0    0    0  501  0.00000000000E+00  0.00000000000E+00 -0.56123265246E+03  0.56123265247E+03  0.25500000920E-02 0.  1.
    10030    2    1    2    0    0  0.00000000000E+00  0.00000000000E+00  0.74926203007E+03  0.18717273350E+04  0.17152170787E+04 0.  0.
        2    1    3    3  502    0 -0.58568769965E+03 -0.28006756613E+02  0.10575796641E+04  0.12092515065E+04  0.25500000920E-02 0. -1.
       -2    1    3    3    0  502  0.58568769965E+03  0.28006756613E+02 -0.30831763403E+03  0.66247582854E+03  0.25500000920E-02 0.  1.
</event>
<event>
 5   0  0.1239119E-04  0.1808812E+04  0.7818609E-02  0.8701627E-01
       -1   -1    0    0    0  501  0.00000000000E+00  0.00000000000E+00  0.36803858396E+03  0.36803858400E+03  0.50400001928E-02 0. -1.
        1   -1    0    0  501    0  0.00000000000E+00  0.00000000000E+00 -0.22224585555E+04  0.22224585555E+04  0.50400001928E-02 0.  1.
    10030    2    1    2    0    0  0.00000000000E+00  0.00000000000E+00 -0.18544199716E+04  0.25904971395E+04  0.18088123172E+04 0.  0.
        5    1    3    3  502    0  0.77422702621E+03 -0.35183507318E+03 -0.13679621094E+04  0.16107631203E+04  0.46999998093E+01 0.  1.
       -5    1    3    3    0  502 -0.77422702621E+03  0.35183507318E+03 -0.48645786212E+03  0.97973401923E+03  0.46999998093E+01 0. -1.
</event>
<event>
 5   0  0.1330225E-04  0.1498224E+04  0.7818609E-02  0.8885635E-01
       -1   -1    0    0    0  501  0.00000000000E+00  0.00000000000E+00  0.72028845297E+03  0.72028845299E+03  0.50400001928E-02 0.  1.
        1   -1    0    0  501    0  0.00000000000E+00  0.00000000000E+00 -0.77908928717E+03  0.77908928719E+03  0.50400001928E-02 0. -1.
    10030    2    1    2    0    0  0.00000000000E+00  0.00000000000E+00 -0.58800834196E+02  0.14993777402E+04  0.14982243055E+04 0.  0.
        3    1    3    3  502    0 -0.35470593702E+03 -0.28117011700E+03  0.56796453306E+03  0.72626211348E+03  0.10100000352E+00 0.  1.
       -3    1    3    3    0  502  0.35470593702E+03  0.28117011700E+03 -0.62676536726E+03  0.77311562670E+03  0.10100000352E+00 0. -1.
</event>
<event>
 5   0  0.2431811E-04  0.1776264E+04  0.7818609E-02  0.8719025E-01
        2   -1    0    0  501    0  0.00000000000E+00  0.00000000000E+00  0.14492975935E+04  0.14492975935E+04  0.25500000920E-02 0.  1.
       -2   -1    0    0    0  501  0.00000000000E+00  0.00000000000E+00 -0.54424874686E+03  0.54424874687E+03  0.25500000920E-02 0. -1.
    10030    2    1    2    0    0  0.00000000000E+00  0.00000000000E+00  0.90504884662E+03  0.19935463404E+04  0.17762639433E+04 0.  0.
        3    1    3    3  502    0  0.87897052142E+03  0.50609504628E+02  0.32150576865E+03  0.93729209372E+03  0.10100000352E+00 0.  1.
       -3    1    3    3    0  502 -0.87897052142E+03 -0.50609504628E+02  0.58354307798E+03  0.10562542466E+04  0.10100000352E+00 0. -1.
</event>
<event>
 5   0  0.2393421E-04  0.1781671E+04  0.7818609E-02  0.8716108E-01
        2   -1    0    0  501    0  0.00000000000E+00  0.00000000000E+00  0.15064083817E+04  0.15064083817E+04  0.25500000920E-02 0. -1.
       -2   -1    0    0    0  501  0.00000000000E+00  0.00000000000E+00 -0.52680789383E+03  0.52680789383E+03  0.25500000920E-02 0.  1.
    10030    2    1    2    0    0  0.00000000000E+00  0.00000000000E+00  0.97960048792E+03  0.20332162756E+04  0.17816709313E+04 0.  0.
        5    1    3    3  502    0 -0.45948654037E+03  0.46189440958E+03 -0.20350271276E+03  0.68257583497E+03  0.46999998093E+01 0.  1.
       -5    1    3    3    0  502  0.45948654037E+03 -0.46189440958E+03  0.11831032007E+04  0.13506404406E+04  0.46999998093E+01 0. -1.
</event>
<event>
 5   0  0.1239119E-04  0.1825282E+04  0.7818609E-02  0.8692969E-01
       -1   -1    0    0    0  501  0.00000000000E+00  0.00000000000E+00  0.37387459173E+03  0.37387459176E+03  0.50400001928E-02 0. -1.
        1   -1    0    0  501    0  0.00000000000E+00  0.00000000000E+00 -0.22277893059E+04  0.22277893059E+04  0.50400001928E-02 0.  1.
    10030    2    1    2    0    0  0.00000000000E+00  0.00000000000E+00 -0.18539147141E+04  0.26016638976E+04  0.18252822436E+04 0.  0.
        5    1    3    3  502    0  0.54741705916E+03 -0.51171076493E+03 -0.16694784362E+04  0.18299436282E+04  0.46999998093E+01 0.  1.
       -5    1    3    3    0  502 -0.54741705916E+03  0.51171076493E+03 -0.18443627796E+03  0.77172026942E+03  0.46999998093E+01 0. -1.
</event>
<event>
 5   0  0.2550616E-04  0.1791384E+04  0.7818609E-02  0.8710895E-01
       -2   -1    0    0    0  501  0.00000000000E+00  0.00000000000E+00  0.98014600370E+03  0.98014600370E+03  0.25500000920E-02 0.  1.
        2   -1    0    0  501    0  0.00000000000E+00  0.00000000000E+00 -0.81851481975E+03  0.81851481975E+03  0.25500000920E-02 0. -1.
    10030    2    1    2    0    0  0.00000000000E+00  0.00000000000E+00  0.16163118394E+03  0.17986608235E+04  0.17913838556E+04 0.  0.
        1    1    3    3  502    0 -0.16390197373E+03 -0.66072422651E+03  0.66528301204E+03  0.95185179867E+03  0.50400001928E-02 0.  1.
       -1    1    3    3    0  502  0.16390197373E+03  0.66072422651E+03 -0.50365182810E+03  0.84680902479E+03  0.50400001928E-02 0. -1.
</event>
<event>
 5   0  0.1214723E-04  0.1835222E+04  0.7818609E-02  0.8687790E-01
        1   -1    0    0  501    0  0.00000000000E+00  0.00000000000E+00  0.16465851700E+04  0.16465851701E+04  0.50400001928E-02 0. -1.
       -1   -1    0    0    0  501  0.00000000000E+00  0.00000000000E+00 -0.51136739463E+03  0.51136739466E+03  0.50400001928E-02 0.  1.
    10030    2    1    2    0    0  0.00000000000E+00  0.00000000000E+00  0.11352177754E+04  0.21579525647E+04  0.18352220231E+04 0.  0.
        1    1    3    3  502    0 -0.69215235212E+03  0.56119308536E+03  0.82521857299E+03  0.12144950600E+04  0.50400001928E-02 0. -1.
       -1    1    3    3    0  502  0.69215235212E+03 -0.56119308536E+03  0.30999920243E+03  0.94345750468E+03  0.50400001928E-02 0.  1.
</event>
<event>
 5   0  0.2431811E-04  0.1813894E+04  0.7818609E-02  0.8698945E-01
       -2   -1    0    0    0  501  0.00000000000E+00  0.00000000000E+00  0.13385436730E+04  0.13385436730E+04  0.25500000920E-02 0.  1.
        2   -1    0    0  501    0  0.00000000000E+00  0.00000000000E+00 -0.61451352712E+03  0.61451352713E+03  0.25500000920E-02 0. -1.
    10030    2    1    2    0    0  0.00000000000E+00  0.00000000000E+00  0.72403014585E+03  0.19530572001E+04  0.18138943670E+04 0.  0.
        3    1    3    3  502    0 -0.77273152158E+03 -0.29435016860E+03  0.76315256637E+03  0.11252368088E+04  0.10100000352E+00 0.  1.
       -3    1    3    3    0  502  0.77273152158E+03  0.29435016860E+03 -0.39122420520E+02  0.82782039126E+03  0.10100000352E+00 0. -1.
</event>
<event>
 5   0  0.2417106E-04  0.1794238E+04  0.7818609E-02  0.8709370E-01
       -2   -1    0    0    0  501  0.00000000000E+00  0.00000000000E+00  0.75654623413E+03  0.75654623413E+03  0.25500000920E-02 0.  1.
        2   -1    0    0  501    0  0.00000000000E+00  0.00000000000E+00 -0.10638111218E+04  0.10638111218E+04  0.25500000920E-02 0. -1.
    10030    2    1    2    0    0  0.00000000000E+00  0.00000000000E+00 -0.30726488772E+03  0.18203573560E+04  0.17942377747E+04 0.  0.
        4    1    3    3  502    0  0.44116398148E+03 -0.29497142391E+03  0.58021381065E+03  0.78631003964E+03  0.12699999809E+01 0.  1.
       -4    1    3    3    0  502 -0.44116398148E+03  0.29497142391E+03 -0.88747869836E+03  0.10340473163E+04  0.12699999809E+01 0. -1.
</event>
<event>
 5   0  0.2569405E-04  0.1794676E+04  0.7818609E-02  0.8709136E-01
       -2   -1    0    0    0  501  0.00000000000E+00  0.00000000000E+00  0.57289014946E+03  0.57289014947E+03  0.25500000920E-02 0.  1.
        2   -1    0    0  501    0  0.00000000000E+00  0.00000000000E+00 -0.14055323676E+04  0.14055323676E+04  0.25500000920E-02 0. -1.
    10030    2    1    2    0    0  0.00000000000E+00  0.00000000000E+00 -0.83264221814E+03  0.19784225171E+04  0.17946761804E+04 0.  0.
        2    1    3    3  502    0  0.40239159563E+03 -0.55281715197E+03  0.22428628934E+03  0.71960415461E+03  0.25500000920E-02 0. -1.
       -2    1    3    3    0  502 -0.40239159563E+03  0.55281715197E+03 -0.10569285075E+04  0.12588183625E+04  0.25500000920E-02 0.  1.
</event>
<event>
 5   0  0.2569405E-04  0.1803565E+04  0.7818609E-02  0.8704406E-01
       -2   -1    0    0    0  501  0.00000000000E+00  0.00000000000E+00  0.13791535060E+04  0.13791535060E+04  0.25500000920E-02 0.  1.
        2   -1    0    0  501    0  0.00000000000E+00  0.00000000000E+00 -0.58964560532E+03  0.58964560532E+03  0.25500000920E-02 0. -1.
    10030    2    1    2    0    0  0.00000000000E+00  0.00000000000E+00  0.78950790066E+03  0.19687991113E+04  0.18035651403E+04 0.  0.
        2    1    3    3  502    0 -0.57933991256E+03 -0.47015415535E+03  0.94764615136E+03  0.12061147923E+04  0.25500000920E-02 0.  1.
       -2    1    3    3    0  502  0.57933991256E+03  0.47015415535E+03 -0.15813825069E+03  0.76268431898E+03  0.25500000920E-02 0. -1.
</event>
<event>
 5   0  0.2550616E-04  0.1805635E+04  0.7818609E-02  0.8703309E-01
        2   -1    0    0  501    0  0.00000000000E+00  0.00000000000E+00  0.11034317352E+04  0.11034317352E+04  0.25500000920E-02 0.  1.
       -2   -1    0    0    0  501  0.00000000000E+00  0.00000000000E+00 -0.73867655619E+03  0.73867655620E+03  0.25500000920E-02 0. -1.
    10030    2    1    2    0    0  0.00000000000E+00  0.00000000000E+00  0.36475517901E+03  0.18421082914E+04  0.18056346853E+04 0.  0.
        1    1    3    3  502    0 -0.52171305479E+03 -0.72428310300E+03  0.44334972399E+02  0.89372037833E+03  0.50400001928E-02 0.  1.
       -1    1    3    3    0  502  0.52171305479E+03  0.72428310300E+03  0.32042020661E+03  0.94838791308E+03  0.50400001928E-02 0. -1.
</event>
<event>
 5   0  0.1239119E-04  0.1806473E+04  0.7818609E-02  0.8702865E-01
        1   -1    0    0  501    0  0.00000000000E+00  0.00000000000E+00  0.89289177022E+03  0.89289177024E+03  0.50400001928E-02 0.  1.
       -1   -1    0    0    0  501  0.00000000000E+00  0.00000000000E+00 -0.91370089803E+03  0.91370089804E+03  0.50400001928E-02 0. -1.
    10030    2    1    2    0    0  0.00000000000E+00  0.00000000000E+00 -0.20809127805E+02  0.18065926683E+04  0.18064728200E+04 0.  0.
        5    1    3    3  502    0  0.69767085423E+03 -0.20245370894E+03 -0.54717269203E+03  0.90947906519E+03  0.46999998093E+01 0. -1.
       -5    1    3    3    0  502 -0.69767085423E+03  0.20245370894E+03  0.52636356423E+03  0.89711360309E+03  0.46999998093E+01 0.  1.
</event>
<event>
 5   0  0.1214723E-04  0.1801062E+04  0.7818609E-02  0.8705735E-01
        1   -1    0    0  501    0  0.00000000000E+00  0.00000000000E+00  0.83499700081E+03  0.83499700083E+03  0.50400001928E-02 0. -1.
       -1   -1    0    0    0  501  0.00000000000E+00  0.00000000000E+00 -0.97120869382E+03  0.97120869383E+03  0.50400001928E-02 0.  1.
    10030    2    1    2    0    0  0.00000000000E+00  0.00000000000E+00 -0.13621169301E+03  0.18062056947E+04  0.18010622938E+04 0.  0.
        1    1    3    3  502    0 -0.41879436085E+03 -0.54308570549E+03 -0.65340390182E+03  0.94724202774E+03  0.50400001928E-02 0.  1.
       -1    1    3    3    0  502  0.41879436085E+03  0.54308570549E+03  0.51719220881E+03  0.85896366691E+03  0.50400001928E-02 0. -1.
</event>
<event>
 5   0  0.2550616E-04  0.1805524E+04  0.7818609E-02  0.8703368E-01
       -2   -1    0    0    0  501  0.00000000000E+00  0.00000000000E+00  0.46957875113E+03  0.46957875114E+03  0.25500000920E-02 0. -1.
        2   -1    0    0  501    0  0.00000000000E+00  0.00000000000E+00 -0.17355532514E+04  0.17355532514E+04  0.25500000920E-02 0.  1.
    10030    2    1    2    0    0  0.00000000000E+00  0.00000000000E+00 -0.12659745003E+04  0.22051320025E+04  0.18055236673E+04 0.  0.
        1    1    3    3  502    0 -0.24804770433E+03 -0.26098923389E+03  0.37808721554E+03  0.52210438267E+03  0.50400001928E-02 0. -1.
       -1    1    3    3    0  502  0.24804770433E+03  0.26098923389E+03 -0.16440617158E+04  0.16830276199E+04  0.50400001928E-02 0.  1.
</event>
<event>
 5   0  0.1253925E-04  0.1799863E+04  0.7818609E-02  0.8706372E-01
        1   -1    0    0  501    0  0.00000000000E+00  0.00000000000E+00  0.10082680781E+04  0.10082680781E+04  0.50400001928E-02 0.  1.
       -1   -1    0    0    0  501  0.00000000000E+00  0.00000000000E+00 -0.80323544503E+03  0.80323544504E+03  0.50400001928E-02 0. -1.
    10030    2    1    2    0    0  0.00000000000E+00  0.00000000000E+00  0.20503263303E+03  0.18115035231E+04  0.17998629486E+04 0.  0.
        2    1    3    3  502    0  0.79760727830E+03 -0.41187195745E+03  0.16665269091E+03  0.91301095236E+03  0.25500000920E-02 0.  1.
       -2    1    3    3    0  502 -0.79760727830E+03  0.41187195745E+03  0.38379942116E+02  0.89849257075E+03  0.25500000920E-02 0. -1.
</event>
<event>
 5   0  0.1330225E-04  0.1792689E+04  0.7818609E-02  0.8710197E-01
       -1   -1    0    0    0  501  0.00000000000E+00  0.00000000000E+00  0.43354560153E+03  0.43354560156E+03  0.50400001928E-02 0. -1.
        1   -1    0    0  501    0  0.00000000000E+00  0.00000000000E+00 -0.18531700279E+04  0.18531700280E+04  0.50400001928E-02 0.  1.
    10030    2    1    2    0    0  0.00000000000E+00  0.00000000000E+00 -0.14196244264E+04  0.22867156295E+04  0.17926892810E+04 0.  0.
        3    1    3    3  502    0 -0.71330400700E+03  0.48969193131E+03 -0.10085070992E+04  0.13287916968E+04  0.10100000352E+00 0.  1.
       -3    1    3    3    0  502  0.71330400700E+03 -0.48969193131E+03 -0.41111732717E+03  0.95792393273E+03  0.10100000352E+00 0. -1.
</event>
<event>
 5   0  0.1308893E-04  0.1839500E+04  0.7818609E-02  0.8685571E-01
        1   -1    0    0  501    0  0.00000000000E+00  0.00000000000E+00  0.15538361037E+04  0.15538361037E+04  0.50400001928E-02 0. -1.
       -1   -1    0    0    0  501  0.00000000000E+00  0.00000000000E+00 -0.54442061508E+03  0.54442061511E+03  0.50400001928E-02 0.  1.
    10030    2    1    2    0    0  0.00000000000E+00  0.00000000000E+00  0.10094154886E+04  0.20982567188E+04  0.18395003749E+04 0.  0.
        4    1    3    3  502    0  0.71304729026E+03 -0.51760862900E+02 -0.15532653770E+03  0.73160342488E+03  0.12699999809E+01 0.  1.
       -4    1    3    3    0  502 -0.71304729026E+03  0.51760862900E+02  0.11647420263E+04  0.13666532939E+04  0.12699999809E+01 0. -1.
</event>
<event>
 5   0  0.2550616E-04  0.1771577E+04  0.7818609E-02  0.8721562E-01
        2   -1    0    0  501    0  0.00000000000E+00  0.00000000000E+00  0.21957960963E+04  0.21957960963E+04  0.25500000920E-02 0.  1.
       -2   -1    0    0    0  501  0.00000000000E+00  0.00000000000E+00 -0.35732873393E+03  0.35732873394E+03  0.25500000920E-02 0. -1.
    10030    2    1    2    0    0  0.00000000000E+00  0.00000000000E+00  0.18384673624E+04  0.25531248303E+04  0.17715767430E+04 0.  0.
        1    1    3    3  502    0 -0.13767665124E+03 -0.61997502939E+03  0.29328257039E+02  0.63575470431E+03  0.50400001928E-02 0.  1.
       -1    1    3    3    0  502  0.13767665124E+03  0.61997502939E+03  0.18091391054E+04  0.19173701260E+04  0.50400001928E-02 0. -1.
</event>
<event>
 5   0  0.1253925E-04  0.1834915E+04  0.7818609E-02  0.8687949E-01
        1   -1    0    0  501    0  0.00000000000E+00  0.00000000000E+00  0.11893997404E+04  0.11893997404E+04  0.50400001928E-02 0.  1.
       -1   -1    0    0    0  501  0.00000000000E+00  0.00000000000E+00 -0.70769180225E+03  0.70769180227E+03  0.50400001928E-02 0. -1.
    10030    2    1    2    0    0  0.00000000000E+00  0.00000000000E+00  0.48170793818E+03  0.18970915427E+04  0.18349151980E+04 0.  0.
        2    1    3    3  502    0 -0.10819934137E+03  0.81876202546E+03  0.65395557150E+03  0.10534401935E+04  0.25500000920E-02 0.  1.
       -2    1    3    3    0  502  0.10819934137E+03 -0.81876202546E+03 -0.17224763332E+03  0.84365134919E+03  0.25500000920E-02 0. -1.
</event>
<event>
 5   0  0.1330225E-04  0.1584695E+04  0.7818609E-02  0.8830006E-01
       -1   -1    0    0    0  501  0.00000000000E+00  0.00000000000E+00  0.50053152440E+03  0.50053152443E+03  0.50400001928E-02 0.  1.
        1   -1    0    0  501    0  0.00000000000E+00  0.00000000000E+00 -0.12542959297E+04  0.12542959297E+04  0.50400001928E-02 0. -1.
    10030    2    1    2    0    0  0.00000000000E+00  0.00000000000E+00 -0.75376440528E+03  0.17548274541E+04  0.15846951174E+04 0.  0.
        3    1    3    3  502    0  0.32184385382E+03  0.59319341158E+03  0.82842471723E+02  0.67994468533E+03  0.10100000352E+00 0.  1.
       -3    1    3    3    0  502 -0.32184385382E+03 -0.59319341158E+03 -0.83660687701E+03  0.10748827688E+04  0.10100000352E+00 0. -1.
</event>
<event>
 5   0  0.1239119E-04  0.1742231E+04  0.7818609E-02  0.8737638E-01
       -1   -1    0    0    0  501  0.00000000000E+00  0.00000000000E+00  0.70106595165E+03  0.70106595167E+03  0.50400001928E-02 0. -1.
        1   -1    0    0  501    0  0.00000000000E+00  0.00000000000E+00 -0.10824120058E+04  0.10824120058E+04  0.50400001928E-02 0.  1.
    10030    2    1    2    0    0  0.00000000000E+00  0.00000000000E+00 -0.38134605411E+03  0.17834779574E+04  0.17422309869E+04 0.  0.
        5    1    3    3  502    0 -0.86859333792E+03  0.62781500614E+02 -0.21175698627E+03  0.89624718394E+03  0.46999998093E+01 0. -1.
       -5    1    3    3    0  502  0.86859333792E+03 -0.62781500614E+02 -0.16958906784E+03  0.88723077349E+03  0.46999998093E+01 0.  1.
</event>
<event>
 5   0  0.2550616E-04  0.1790675E+04  0.7818609E-02  0.8711274E-01
        2   -1    0    0  501    0  0.00000000000E+00  0.00000000000E+00  0.18485115133E+04  0.18485115133E+04  0.25500000920E-02 0.  1.
       -2   -1    0    0    0  501  0.00000000000E+00  0.00000000000E+00 -0.43366197797E+03  0.43366197798E+03  0.25500000920E-02 0. -1.
    10030    2    1    2    0    0  0.00000000000E+00  0.00000000000E+00  0.14148495353E+04  0.22821734912E+04  0.17906749109E+04 0.  0.
        1    1    3    3  502    0 -0.49773478771E+03 -0.53696709850E+03  0.13641891917E+04  0.15482524776E+04  0.50400001928E-02 0.  1.
       -1    1    3    3    0  502  0.49773478771E+03  0.53696709850E+03  0.50660343599E+02  0.73392101360E+03  0.50400001928E-02 0. -1.
</event>
<event>
 5   0  0.9144875E-05  0.1817558E+04  0.7818609E-02  0.8697018E-01
       -3   -1    0    0    0  501  0.00000000000E+00  0.00000000000E+00  0.12842046110E+04  0.12842046149E+04  0.10100000352E+00 0.  1.
        3   -1    0    0  501    0  0.00000000000E+00  0.00000000000E+00 -0.64310543527E+03  0.64310544320E+03  0.10100000352E+00 0. -1.
    10030    2    1    2    0    0  0.00000000000E+00  0.00000000000E+00  0.64109917568E+03  0.19273100581E+04  0.18175576764E+04 0.  0.
        5    1    3    3  502    0 -0.49719153652E+03  0.39764934608E+03 -0.36709360589E+03  0.73491784025E+03  0.46999998093E+01 0. -1.
       -5    1    3    3    0  502  0.49719153652E+03 -0.39764934608E+03  0.10081927816E+04  0.11923922179E+04  0.46999998093E+01 0.  1.
</event>
<event>
 5   0  0.1239119E-04  0.1795606E+04  0.7818609E-02  0.8708640E-01
        1   -1    0    0  501    0  0.00000000000E+00  0.00000000000E+00  0.94020451725E+03  0.94020451726E+03  0.50400001928E-02 0. -1.
       -1   -1    0    0    0  501  0.00000000000E+00  0.00000000000E+00 -0.85731381608E+03  0.85731381609E+03  0.50400001928E-02 0.  1.
    10030    2    1    2    0    0  0.00000000000E+00  0.00000000000E+00  0.82890701169E+02  0.17975183334E+04  0.17956061067E+04 0.  0.
        5    1    3    3  502    0 -0.44682058100E+03  0.79084312965E+02 -0.73405716853E+03  0.86299766908E+03  0.46999998093E+01 0. -1.
       -5    1    3    3    0  502  0.44682058100E+03 -0.79084312965E+02  0.81694786970E+03  0.93452066428E+03  0.46999998093E+01 0.  1.
</event>
<event>
 5   0  0.2569405E-04  0.1800782E+04  0.7818609E-02  0.8705884E-01
        2   -1    0    0  501    0  0.00000000000E+00  0.00000000000E+00  0.72766171196E+03  0.72766171196E+03  0.25500000920E-02 0.  1.
       -2   -1    0    0    0  501  0.00000000000E+00  0.00000000000E+00 -0.11141220299E+04  0.11141220299E+04  0.25500000920E-02 0. -1.
    10030    2    1    2    0    0  0.00000000000E+00  0.00000000000E+00 -0.38646031790E+03  0.18417837418E+04  0.18007819897E+04 0.  0.
        2    1    3    3  502    0  0.87911830664E+02  0.83813936654E+03  0.13100185549E+03  0.85285847235E+03  0.25500000920E-02 0. -1.
       -2    1    3    3    0  502 -0.87911830664E+02 -0.83813936654E+03 -0.51746217339E+03  0.98892526948E+03  0.25500000920E-02 0.  1.
</event>
<event>
 5   0  0.1253925E-04  0.1837169E+04  0.7818609E-02  0.8686779E-01
       -1   -1    0    0    0  501  0.00000000000E+00  0.00000000000E+00  0.20071865264E+04  0.20071865264E+04  0.50400001928E-02 0. -1.
        1   -1    0    0  501    0  0.00000000000E+00  0.00000000000E+00 -0.42038811483E+03  0.42038811486E+03  0.50400001928E-02 0.  1.
    10030    2    1    2    0    0  0.00000000000E+00  0.00000000000E+00  0.15867984115E+04  0.24275746412E+04  0.18371688654E+04 0.  0.
        2    1    3    3  502    0  0.24797668367E+03  0.44950424957E+02 -0.37381340992E+03  0.45083194406E+03  0.25500000920E-02 0.  1.
       -2    1    3    3    0  502 -0.24797668367E+03 -0.44950424957E+02  0.19606118215E+04  0.19767426972E+04  0.25500000920E-02 0. -1.
</event>
<event>
 5   0  0.2393421E-04  0.1803163E+04  0.7818609E-02  0.8704619E-01
       -2   -1    0    0    0  501  0.00000000000E+00  0.00000000000E+00  0.99576046285E+03  0.99576046285E+03  0.25500000920E-02 0. -1.
        2   -1    0    0  501    0  0.00000000000E+00  0.00000000000E+00 -0.81631040727E+03  0.81631040727E+03  0.25500000920E-02 0.  1.
    10030    2    1    2    0    0  0.00000000000E+00  0.00000000000E+00  0.17945005558E+03  0.18120708701E+04  0.18031634745E+04 0.  0.
        5    1    3    3  502    0 -0.59889638964E+03  0.56516507978E+02 -0.58512523466E+03  0.83920476133E+03  0.46999998093E+01 0.  1.
       -5    1    3    3    0  502  0.59889638964E+03 -0.56516507978E+02  0.76457529024E+03  0.97286610880E+03  0.46999998093E+01 0. -1.
</event>
<event>
 5   0  0.2417106E-04  0.1790642E+04  0.7818609E-02  0.8711292E-01
        2   -1    0    0  501    0  0.00000000000E+00  0.00000000000E+00  0.12347177657E+04  0.12347177657E+04  0.25500000920E-02 0. -1.
       -2   -1    0    0    0  501  0.00000000000E+00  0.00000000000E+00 -0.64921690751E+03  0.64921690752E+03  0.25500000920E-02 0.  1.
    10030    2    1    2    0    0  0.00000000000E+00  0.00000000000E+00  0.58550085823E+03  0.18839346733E+04  0.17906419514E+04 0.  0.
        4    1    3    3  502    0 -0.78380185291E+03 -0.26162739058E+03  0.65538754428E+03  0.10546699399E+04  0.12699999809E+01 0. -1.
       -4    1    3    3    0  502  0.78380185291E+03  0.26162739058E+03 -0.69886686049E+02  0.82926473331E+03  0.12699999809E+01 0.  1.
</event>
<event>
 5   0  0.2417106E-04  0.1836749E+04  0.7818609E-02  0.8686997E-01
       -2   -1    0    0    0  501  0.00000000000E+00  0.00000000000E+00  0.88216931447E+03  0.88216931448E+03  0.25500000920E-02 0. -1.
        2   -1    0    0  501    0  0.00000000000E+00  0.00000000000E+00 -0.95606591494E+03  0.95606591494E+03  0.25500000920E-02 0.  1.
    10030    2    1    2    0    0  0.00000000000E+00  0.00000000000E+00 -0.73896600466E+02  0.18382352294E+04  0.18367493163E+04 0.  0.
        4    1    3    3  502    0 -0.45639225289E+03  0.49277267120E+02  0.75911222147E+03  0.88711617910E+03  0.12699999809E+01 0. -1.
       -4    1    3    3    0  502  0.45639225289E+03 -0.49277267120E+02 -0.83300882193E+03  0.95111905031E+03  0.12699999809E+01 0.  1.
</event>
<event>
 5   0  0.1239119E-04  0.1826365E+04  0.7818609E-02  0.8692403E-01
       -1   -1    0    0    0  501  0.00000000000E+00  0.00000000000E+00  0.72328975759E+03  0.72328975761E+03  0.50400001928E-02 0.  1.
        1   -1    0    0  501    0  0.00000000000E+00  0.00000000000E+00 -0.11529301000E+04  0.11529301000E+04  0.50400001928E-02 0. -1.
    10030    2    1    2    0    0  0.00000000000E+00  0.00000000000E+00 -0.42964034241E+03  0.18762198576E+04  0.18263652784E+04 0.  0.
        5    1    3    3  502    0 -0.76105148194E+03 -0.50465479097E+03 -0.21702978256E+03  0.93861591332E+03  0.46999998093E+01 0. -1.
       -5    1    3    3    0  502  0.76105148194E+03  0.50465479097E+03 -0.21261055985E+03  0.93760394430E+03  0.46999998093E+01 0.  1.
</event>
<event>
 5   0  0.1239119E-04  0.1448957E+04  0.7818609E-02  0.8919124E-01
        1   -1    0    0  501    0  0.00000000000E+00  0.00000000000E+00  0.13983600247E+04  0.13983600247E+04  0.50400001928E-02 0. -1.
       -1   -1    0    0    0  501  0.00000000000E+00  0.00000000000E+00 -0.37534621719E+03  0.37534621722E+03  0.50400001928E-02 0.  1.
    10030    2    1    2    0    0  0.00000000000E+00  0.00000000000E+00  0.10230138075E+04  0.17737062419E+04  0.14489570671E+04 0.  0.
        5    1    3    3  502    0 -0.53358695879E+03  0.95778619531E+01 -0.88240307269E+02  0.54093920163E+03  0.46999998093E+01 0.  1.
       -5    1    3    3    0  502  0.53358695879E+03 -0.95778619531E+01  0.11112541148E+04  0.12327670403E+04  0.46999998093E+01 0. -1.
</event>
<event>
 5   0  0.1239119E-04  0.1845403E+04  0.7818609E-02  0.8682520E-01
       -1   -1    0    0    0  501  0.00000000000E+00  0.00000000000E+00  0.11163635168E+04  0.11163635168E+04  0.50400001928E-02 0. -1.
        1   -1    0    0  501    0  0.00000000000E+00  0.00000000000E+00 -0.76263522318E+03  0.76263522320E+03  0.50400001928E-02 0.  1.
    10030    2    1    2    0    0  0.00000000000E+00  0.00000000000E+00  0.35372829363E+03  0.18789987400E+04  0.18454030886E+04 0.  0.
        5    1    3    3  502    0 -0.13181035131E+03 -0.90079601016E+03  0.23968430412E+02  0.91071619964E+03  0.46999998093E+01 0.  1.
       -5    1    3    3    0  502  0.13181035131E+03  0.90079601016E+03  0.32975986322E+03  0.96828254039E+03  0.46999998093E+01 0. -1.
</event>
<event>
 5   0  0.2417106E-04  0.1764008E+04  0.7818609E-02  0.8725677E-01
        2   -1    0    0  501    0  0.00000000000E+00  0.00000000000E+00  0.51833840604E+03  0.51833840604E+03  0.25500000920E-02 0. -1.
       -2   -1    0    0    0  501  0.00000000000E+00  0.00000000000E+00 -0.15008161896E+04  0.15008161896E+04  0.25500000920E-02 0.  1.
    10030    2    1    2    0    0  0.00000000000E+00  0.00000000000E+00 -0.98247778354E+03  0.20191545956E+04  0.17640075640E+04 0.  0.
        4    1    3    3  502    0 -0.40090751192E+03 -0.64661069255E+03  0.19502798954E+02  0.76106122809E+03  0.12699999809E+01 0. -1.
       -4    1    3    3    0  502  0.40090751192E+03  0.64661069255E+03 -0.10019805825E+04  0.12580933675E+04  0.12699999809E+01 0.  1.
</event>
<event>
 5   0  0.2393421E-04  0.1816117E+04  0.7818609E-02  0.8697775E-01
       -2   -1    0    0    0  501  0.00000000000E+00  0.00000000000E+00  0.48621460162E+03  0.48621460162E+03  0.25500000920E-02 0.  1.
        2   -1    0    0  501    0  0.00000000000E+00  0.00000000000E+00 -0.16958970921E+04  0.16958970921E+04  0.25500000920E-02 0. -1.
    10030    2    1    2    0    0  0.00000000000E+00  0.00000000000E+00 -0.12096824904E+04  0.21821116937E+04  0.18161166582E+04 0.  0.
        5    1    3    3  502    0 -0.61245973591E+03 -0.37247776454E+03 -0.12745789015E+04  0.14623337784E+04  0.46999998093E+01 0. -1.
       -5    1    3    3    0  502  0.61245973591E+03  0.37247776454E+03  0.64896411083E+02  0.71977791530E+03  0.46999998093E+01 0.  1.
</event>
<event>
 5   0  0.1330225E-04  0.1800493E+04  0.7818609E-02  0.8706037E-01
        1   -1    0    0  501    0  0.00000000000E+00  0.00000000000E+00  0.23015746583E+04  0.23015746583E+04  0.50400001928E-02 0.  1.
       -1   -1    0    0    0  501  0.00000000000E+00  0.00000000000E+00 -0.35212570809E+03  0.35212570813E+03  0.50400001928E-02 0. -1.
    10030    2    1    2    0    0  0.00000000000E+00  0.00000000000E+00  0.19494489502E+04  0.26537003665E+04  0.18004928285E+04 0.  0.
        3    1    3    3  502    0 -0.67469603417E+03 -0.32090869217E+03  0.17149653054E+04  0.18706424394E+04  0.10100000352E+00 0.  1.
       -3    1    3    3    0  502  0.67469603417E+03  0.32090869217E+03  0.23448364487E+03  0.78305792707E+03  0.10100000352E+00 0. -1.
</event>
<event>
 5   0  0.2417106E-04  0.1800373E+04  0.7818609E-02  0.8706101E-01
       -2   -1    0    0    0  501  0.00000000000E+00  0.00000000000E+00  0.95810879659E+03  0.95810879659E+03  0.25500000920E-02 0.  1.
        2   -1    0    0  501    0  0.00000000000E+00  0.00000000000E+00 -0.84576634963E+03  0.84576634963E+03  0.25500000920E-02 0. -1.
    10030    2    1    2    0    0  0.00000000000E+00  0.00000000000E+00  0.11234244696E+03  0.18038751462E+04  0.18003734940E+04 0.  0.
        4    1    3    3  502    0  0.15991516514E+03 -0.85434968366E+02  0.93962454939E+03  0.95695762736E+03  0.12699999809E+01 0.  1.
       -4    1    3    3    0  502 -0.15991516514E+03  0.85434968366E+02 -0.82728210242E+03  0.84691751886E+03  0.12699999809E+01 0. -1.
</event>
<event>
 5   0  0.2550616E-04  0.1795200E+04  0.7818609E-02  0.8708856E-01
        2   -1    0    0  501    0  0.00000000000E+00  0.00000000000E+00  0.10005503053E+04  0.10005503053E+04  0.25500000920E-02 0. -1.
       -2   -1    0    0    0  501  0.00000000000E+00  0.00000000000E+00 -0.80524257610E+03  0.80524257610E+03  0.25500000920E-02 0.  1.
    10030    2    1    2    0    0  0.00000000000E+00  0.00000000000E+00  0.19530772919E+03  0.18057928814E+04  0.17951999391E+04 0.  0.
        1    1    3    3  502    0 -0.53221054258E+03 -0.68614595891E+02  0.82143397341E+03  0.98117776019E+03  0.50400001928E-02 0. -1.
       -1    1    3    3    0  502  0.53221054258E+03  0.68614595891E+02 -0.62612624421E+03  0.82461512120E+03  0.50400001928E-02 0.  1.
</event>
<event>
 5   0  0.1214723E-04  0.1796725E+04  0.7818609E-02  0.8708043E-01
       -1   -1    0    0    0  501  0.00000000000E+00  0.00000000000E+00  0.50392577736E+03  0.50392577739E+03  0.50400001928E-02 0. -1.
        1   -1    0    0  501    0  0.00000000000E+00  0.00000000000E+00 -0.16015360706E+04  0.16015360706E+04  0.50400001928E-02 0.  1.
    10030    2    1    2    0    0  0.00000000000E+00  0.00000000000E+00 -0.10976102932E+04  0.21054618480E+04  0.17967251425E+04 0.  0.
        1    1    3    3  502    0  0.13744982229E+03 -0.72909972338E+03  0.44767837508E+02  0.74329201501E+03  0.50400001928E-02 0. -1.
       -1    1    3    3    0  502 -0.13744982229E+03  0.72909972338E+03 -0.11423781307E+04  0.13621698330E+04  0.50400001928E-02 0.  1.
</event>
<event>
 5   0  0.2431811E-04  0.1788623E+04  0.7818609E-02  0.8712373E-01
       -2   -1    0    0    0  501  0.00000000000E+00  0.00000000000E+00  0.60567798310E+03  0.60567798310E+03  0.25500000920E-02 0.  1.
        2   -1    0    0  501    0  0.00000000000E+00  0.00000000000E+00 -0.13204929319E+04  0.13204929319E+04  0.25500000920E-02 0. -1.
    10030    2    1    2    0    0  0.00000000000E+00  0.00000000000E+00 -0.71481494877E+03  0.19261709150E+04  0.17886234882E+04 0.  0.
        3    1    3    3  502    0  0.46538437073E+03  0.46322521186E+03 -0.10112499934E+04  0.12057308028E+04  0.10100000352E+00 0. -1.
       -3    1    3    3    0  502 -0.46538437073E+03 -0.46322521186E+03  0.29643504460E+03  0.72044011221E+03  0.10100000352E+00 0.  1.
</event>
<event>
 5   0  0.1330225E-04  0.1785740E+04  0.7818609E-02  0.8713920E-01
       -1   -1    0    0    0  501  0.00000000000E+00  0.00000000000E+00  0.70790268018E+03  0.70790268020E+03  0.50400001928E-02 0.  1.
        1   -1    0    0  501    0  0.00000000000E+00  0.00000000000E+00 -0.11261676636E+04  0.11261676636E+04  0.50400001928E-02 0. -1.
    10030    2    1    2    0    0  0.00000000000E+00  0.00000000000E+00 -0.41826498345E+03  0.18340703438E+04  0.17857403030E+04 0.  0.
        3    1    3    3  502    0  0.49774074295E+03 -0.66478116741E+03  0.12767143811E+03  0.84022607318E+03  0.10100000352E+00 0.  1.
       -3    1    3    3    0  502 -0.49774074295E+03  0.66478116741E+03 -0.54593642156E+03  0.99384427066E+03  0.10100000352E+00 0. -1.
</event>
<event>
 5   0  0.1239119E-04  0.1793355E+04  0.7818609E-02  0.8709841E-01
        1   -1    0    0  501    0  0.00000000000E+00  0.00000000000E+00  0.98184363518E+03  0.98184363520E+03  0.50400001928E-02 0. -1.
       -1   -1    0    0    0  501  0.00000000000E+00  0.00000000000E+00 -0.81889908715E+03  0.81889908716E+03  0.50400001928E-02 0.  1.
    10030    2    1    2    0    0  0.00000000000E+00  0.00000000000E+00  0.16294454804E+03  0.18007427224E+04  0.17933553542E+04 0.  0.
        5    1    3    3  502    0  0.51174267746E+03  0.51370707672E+03 -0.44817875394E+03  0.85244461057E+03  0.46999998093E+01 0.  1.
       -5    1    3    3    0  502 -0.51174267746E+03 -0.51370707672E+03  0.61112330198E+03  0.94829811179E+03  0.46999998093E+01 0. -1.
</event>
<event>
 5   0  0.1214723E-04  0.1803535E+04  0.7818609E-02  0.8704422E-01
        1   -1    0    0  501    0  0.00000000000E+00  0.00000000000E+00  0.84885814915E+03  0.84885814917E+03  0.50400001928E-02 0.  1.
       -1   -1    0    0    0  501  0.00000000000E+00  0.00000000000E+00 -0.95797504934E+03  0.95797504936E+03  0.50400001928E-02 0. -1.
    10030    2    1    2    0    0  0.00000000000E+00  0.00000000000E+00 -0.10911690019E+03  0.18068331985E+04  0.18035353363E+04 0.  0.
        1    1    3    3  502    0 -0.15267927266E+03  0.34576460971E+03 -0.87478675909E+03  0.95295120522E+03  0.50400001928E-02 0. -1.
       -1    1    3    3    0  502  0.15267927266E+03 -0.34576460971E+03  0.76566985890E+03  0.85388199330E+03  0.50400001928E-02 0.  1.
</event>
<event>
 5   0  0.1214723E-04  0.1844058E+04  0.7818609E-02  0.8683215E-01
        1   -1    0    0  501    0  0.00000000000E+00  0.00000000000E+00  0.14347137799E+04  0.14347137799E+04  0.50400001928E-02 0.  1.
       -1   -1    0    0    0  501  0.00000000000E+00  0.00000000000E+00 -0.59254819387E+03  0.59254819389E+03  0.50400001928E-02 0. -1.
    10030    2    1    2    0    0  0.00000000000E+00  0.00000000000E+00  0.84216558601E+03  0.20272619738E+04  0.18440575468E+04 0.  0.
        1    1    3    3  502    0 -0.42082379646E+03 -0.82034854279E+03  0.43045371010E+03  0.10175238552E+04  0.50400001928E-02 0. -1.
       -1    1    3    3    0  502  0.42082379646E+03  0.82034854279E+03  0.41171187592E+03  0.10097381186E+04  0.50400001928E-02 0.  1.
</event>
<event>
 5   0  0.2431811E-04  0.1744748E+04  0.7818609E-02  0.8736246E-01
        2   -1    0    0  501    0  0.00000000000E+00  0.00000000000E+00  0.12368361082E+04  0.12368361082E+04  0.25500000920E-02 0. -1.
       -2   -1    0    0    0  501  0.00000000000E+00  0.00000000000E+00 -0.61530935827E+03  0.61530935827E+03  0.25500000920E-02 0.  1.
    10030    2    1    2    0    0  0.00000000000E+00  0.00000000000E+00  0.62152674989E+03  0.18521454664E+04  0.17447484999E+04 0.  0.
        3    1    3    3  502    0 -0.78968436356E+02 -0.15025331668E+03  0.12191368856E+04  0.12308967581E+04  0.10100000352E+00 0. -1.
       -3    1    3    3    0  502  0.78968436356E+02  0.15025331668E+03 -0.59761013570E+03  0.62124870833E+03  0.10100000352E+00 0.  1.
</event>
<event>
 5   0  0.1214723E-04  0.1748597E+04  0.7818609E-02  0.8734123E-01
       -1   -1    0    0    0  501  0.00000000000E+00  0.00000000000E+00  0.55715131891E+03  0.55715131893E+03  0.50400001928E-02 0.  1.
        1   -1    0    0  501    0  0.00000000000E+00  0.00000000000E+00 -0.13719749629E+04  0.13719749629E+04  0.50400001928E-02 0. -1.
    10030    2    1    2    0    0  0.00000000000E+00  0.00000000000E+00 -0.81482364403E+03  0.19291262819E+04  0.17485967633E+04 0.  0.
        1    1    3    3  502    0  0.38489199655E+03 -0.34457325915E+03 -0.11855889766E+04  0.12932493191E+04  0.50400001928E-02 0. -1.
       -1    1    3    3    0  502 -0.38489199655E+03  0.34457325915E+03  0.37076533257E+03  0.63587696277E+03  0.50400001928E-02 0.  1.
</event>
<event>
 5   0  0.1253925E-04  0.1814440E+04  0.7818609E-02  0.8698658E-01
        1   -1    0    0  501    0  0.00000000000E+00  0.00000000000E+00  0.99539316771E+03  0.99539316772E+03  0.50400001928E-02 0.  1.
       -1   -1    0    0    0  501  0.00000000000E+00  0.00000000000E+00 -0.82685748385E+03  0.82685748386E+03  0.50400001928E-02 0. -1.
    10030    2    1    2    0    0  0.00000000000E+00  0.00000000000E+00  0.16853568386E+03  0.18222506516E+04  0.18144401783E+04 0.  0.
        2    1    3    3  502    0  0.19734629560E+03  0.14523775696E+03 -0.79299596414E+03  0.82998925631E+03  0.25500000920E-02 0. -1.
       -2    1    3    3    0  502 -0.19734629560E+03 -0.14523775696E+03  0.96153164800E+03  0.99226139527E+03  0.25500000920E-02 0.  1.
</event>
<event>
 5   0  0.1239119E-04  0.1783013E+04  0.7818609E-02  0.8715385E-01
       -1   -1    0    0    0  501  0.00000000000E+00  0.00000000000E+00  0.13553026412E+04  0.13553026413E+04  0.50400001928E-02 0. -1.
        1   -1    0    0  501    0  0.00000000000E+00  0.00000000000E+00 -0.58642565742E+03  0.58642565744E+03  0.50400001928E-02 0.  1.
    10030    2    1    2    0    0  0.00000000000E+00  0.00000000000E+00  0.76887698383E+03  0.19417282987E+04  0.17830134519E+04 0.  0.
        5    1    3    3  502    0 -0.18370975665E+03 -0.36350919823E+03  0.12480444694E+04  0.13128310248E+04  0.46999998093E+01 0. -1.
       -5    1    3    3    0  502  0.18370975665E+03  0.36350919823E+03 -0.47916748561E+03  0.62889727393E+03  0.46999998093E+01 0.  1.
</event>
<event>
 5   0  0.2417106E-04  0.1809779E+04  0.7818609E-02  0.8701116E-01
       -2   -1    0    0    0  501  0.00000000000E+00  0.00000000000E+00  0.13568396738E+04  0.13568396738E+04  0.25500000920E-02 0. -1.
        2   -1    0    0  501    0  0.00000000000E+00  0.00000000000E+00 -0.60347965084E+03  0.60347965084E+03  0.25500000920E-02 0.  1.
    10030    2    1    2    0    0  0.00000000000E+00  0.00000000000E+00  0.75336002295E+03  0.19603193246E+04  0.18097791386E+04 0.  0.
        4    1    3    3  502    0 -0.37069699642E+03  0.25825733429E+03  0.12259319089E+04  0.13065311983E+04  0.12699999809E+01 0. -1.
       -4    1    3    3    0  502  0.37069699642E+03 -0.25825733429E+03 -0.47257188596E+03  0.65378812636E+03  0.12699999809E+01 0.  1.
</event>
<event>
 5   0  0.2431811E-04  0.1812494E+04  0.7818609E-02  0.8699683E-01
       -2   -1    0    0    0  501  0.00000000000E+00  0.00000000000E+00  0.73813627233E+03  0.73813627233E+03  0.25500000920E-02 0. -1.
        2   -1    0    0  501    0  0.00000000000E+00  0.00000000000E+00 -0.11126453150E+04  0.11126453150E+04  0.25500000920E-02 0.  1.
    10030    2    1    2    0    0  0.00000000000E+00  0.00000000000E+00 -0.37450904262E+03  0.18507815873E+04  0.18124942650E+04 0.  0.
        3    1    3    3  502    0 -0.17998118021E+03  0.76994331590E+03 -0.63941528623E+03  0.10168863522E+04  0.10100000352E+00 0. -1.
       -3    1    3    3    0  502  0.17998118021E+03 -0.76994331590E+03  0.26490624360E+03  0.83389523504E+03  0.10100000352E+00 0.  1.
</event>
<event>
 5   0  0.1308893E-04  0.1800719E+04  0.7818609E-02  0.8705917E-01
       -1   -1    0    0    0  501  0.00000000000E+00  0.00000000000E+00  0.46048207287E+03  0.46048207289E+03  0.50400001928E-02 0. -1.
        1   -1    0    0  501    0  0.00000000000E+00  0.00000000000E+00 -0.17604325491E+04  0.17604325491E+04  0.50400001928E-02 0.  1.
    10030    2    1    2    0    0  0.00000000000E+00  0.00000000000E+00 -0.12999504763E+04  0.22209146220E+04  0.18007194444E+04 0.  0.
        4    1    3    3  502    0 -0.81751041201E+03 -0.12360211549E+03 -0.10895826864E+04  0.13677692788E+04  0.12699999809E+01 0.  1.
       -4    1    3    3    0  502  0.81751041201E+03  0.12360211549E+03 -0.21036778986E+03  0.85314534319E+03  0.12699999809E+01 0. -1.
</event>
<event>
 5   0  0.1253925E-04  0.1640688E+04  0.7818609E-02  0.8795935E-01
        1   -1    0    0  501    0  0.00000000000E+00  0.00000000000E+00  0.88243752145E+03  0.88243752147E+03  0.50400001928E-02 0.  1.
       -1   -1    0    0    0  501  0.00000000000E+00  0.00000000000E+00 -0.76261952639E+03  0.76261952640E+03  0.50400001928E-02 0. -1.
    10030    2    1    2    0    0  0.00000000000E+00  0.00000000000E+00  0.11981799507E+03  0.16450570479E+04  0.16406877640E+04 0.  0.
        2    1    3    3  502    0  0.13684346961E+02  0.29372875306E+03 -0.70796351622E+03  0.76660040571E+03  0.25500000920E-02 0. -1.
       -2    1    3    3    0  502 -0.13684346961E+02 -0.29372875306E+03  0.82778151129E+03  0.87845664216E+03  0.25500000920E-02 0.  1.
</event>
<event>
 5   0  0.1308893E-04  0.1676640E+04  0.7818609E-02  0.8774801E-01
       -1   -1    0    0    0  501  0.00000000000E+00  0.00000000000E+00  0.73066076576E+03  0.73066076577E+03  0.50400001928E-02 0.  1.
        1   -1    0    0  501    0  0.00000000000E+00  0.00000000000E+00 -0.96184228440E+03  0.96184228441E+03  0.50400001928E-02 0. -1.
    10030    2    1    2    0    0  0.00000000000E+00  0.00000000000E+00 -0.23118151864E+03  0.16925030502E+04  0.16766399972E+04 0.  0.
        4    1    3    3  502    0  0.23014507115E+03 -0.68519153548E+03 -0.54425488773E+03  0.90480339842E+03  0.12699999809E+01 0. -1.
       -4    1    3    3    0  502 -0.23014507115E+03  0.68519153548E+03  0.31307336909E+03  0.78769965177E+03  0.12699999809E+01 0.  1.
</event>
<event>
 5   0  0.1214723E-04  0.1796349E+04  0.7818609E-02  0.8708244E-01
       -1   -1    0    0    0  501  0.00000000000E+00  0.00000000000E+00  0.10008303262E+04  0.10008303262E+04  0.50400001928E-02 0. -1.
        1   -1    0    0  501    0  0.00000000000E+00  0.00000000000E+00 -0.80604771572E+03  0.80604771574E+03  0.50400001928E-02 0.  1.
    10030    2    1    2    0    0  0.00000000000E+00  0.00000000000E+00  0.19478261049E+03  0.18068780420E+04  0.17963485166E+04 0.  0.
        1    1    3    3  502    0 -0.43003820292E+03  0.35444910950E+02  0.88974458906E+03  0.98885521259E+03  0.50400001928E-02 0. -1.
       -1    1    3    3    0  502  0.43003820292E+03 -0.35444910950E+02 -0.69496197857E+03  0.81802282937E+03  0.50400001928E-02 0.  1.
</event>
<event>
 5   0  0.9144875E-05  0.1807509E+04  0.7818609E-02  0.8702317E-01
       -3   -1    0    0    0  501  0.00000000000E+00  0.00000000000E+00  0.42937679326E+03  0.42937680514E+03  0.10100000352E+00 0.  1.
        3   -1    0    0  501    0  0.00000000000E+00  0.00000000000E+00 -0.19022262903E+04  0.19022262929E+04  0.10100000352E+00 0. -1.
    10030    2    1    2    0    0  0.00000000000E+00  0.00000000000E+00 -0.14728494970E+04  0.23316030981E+04  0.18075086075E+04 0.  0.
        4    1    3    3  502    0 -0.11524620095E+03 -0.69084415358E+03  0.34446434957E+00  0.70039207800E+03  0.12699999809E+01 0.  1.
       -4    1    3    3    0  502  0.11524620095E+03  0.69084415358E+03 -0.14731939613E+04  0.16312110201E+04  0.12699999809E+01 0. -1.
</event>
<event>
 5   0  0.1308893E-04  0.1785021E+04  0.7818609E-02  0.8714306E-01
       -1   -1    0    0    0  501  0.00000000000E+00  0.00000000000E+00  0.12219124399E+04  0.12219124399E+04  0.50400001928E-02 0.  1.
        1   -1    0    0  501    0  0.00000000000E+00  0.00000000000E+00 -0.65190868250E+03  0.65190868252E+03  0.50400001928E-02 0. -1.
    10030    2    1    2    0    0  0.00000000000E+00  0.00000000000E+00  0.57000375739E+03  0.18738211224E+04  0.17850213767E+04 0.  0.
        4    1    3    3  502    0  0.22225794617E+03  0.23596013660E+03  0.11579333529E+04  0.12024504328E+04  0.12699999809E+01 0.  1.
       -4    1    3    3    0  502 -0.22225794617E+03 -0.23596013660E+03 -0.58792959550E+03  0.67137068961E+03  0.12699999809E+01 0. -1.
</event>
<event>
 5   0  0.2417106E-04  0.1817992E+04  0.7818609E-02  0.8696790E-01
       -2   -1    0    0    0  501  0.00000000000E+00  0.00000000000E+00  0.31887544164E+03  0.31887544165E+03  0.25500000920E-02 0. -1.
        2   -1    0    0  501    0  0.00000000000E+00  0.00000000000E+00 -0.25912112333E+04  0.25912112333E+04  0.25500000920E-02 0.  1.
    10030    2    1    2    0    0  0.00000000000E+00  0.00000000000E+00 -0.22723357916E+04  0.29100866749E+04  0.18179918882E+04 0.  0.
        4    1    3    3  502    0 -0.86867107557E+03  0.10010610426E+03 -0.73868314128E+03  0.11446681029E+04  0.12699999809E+01 0. -1.
       -4    1    3    3    0  502  0.86867107557E+03 -0.10010610426E+03 -0.15336526504E+04  0.17654185720E+04  0.12699999809E+01 0.  1.
</event>
<event>
 5   0  0.2417106E-04  0.1812890E+04  0.7818609E-02  0.8699475E-01
       -2   -1    0    0    0  501  0.00000000000E+00  0.00000000000E+00  0.90778491964E+03  0.90778491965E+03  0.25500000920E-02 0. -1.
        2   -1    0    0  501    0  0.00000000000E+00  0.00000000000E+00 -0.90510662696E+03  0.90510662696E+03  0.25500000920E-02 0.  1.
    10030    2    1    2    0    0  0.00000000000E+00  0.00000000000E+00  0.26782926872E+01  0.18128915466E+04  0.18128895682E+04 0.  0.
        4    1    3    3  502    0 -0.70657514523E+03  0.56718560348E+03 -0.24977969527E+02  0.90640689346E+03  0.12699999809E+01 0.  1.
       -4    1    3    3    0  502  0.70657514523E+03 -0.56718560348E+03  0.27656262214E+02  0.90648465315E+03  0.12699999809E+01 0. -1.
</event>
<event>
 5   0  0.1214723E-04  0.1490377E+04  0.7818609E-02  0.8890877E-01
        1   -1    0    0  501    0  0.00000000000E+00  0.00000000000E+00  0.23050673674E+04  0.23050673674E+04  0.50400001928E-02 0.  1.
       -1   -1    0    0    0  501  0.00000000000E+00  0.00000000000E+00 -0.24090670515E+03  0.24090670521E+03  0.50400001928E-02 0. -1.
    10030    2    1    2    0    0  0.00000000000E+00  0.00000000000E+00  0.20641606622E+04  0.25459740726E+04  0.14903773813E+04 0.  0.
        1    1    3    3  502    0 -0.41156803679E+03 -0.26440567848E+03  0.19923793185E+04  0.20515540355E+04  0.50400001928E-02 0.  1.
       -1    1    3    3    0  502  0.41156803679E+03  0.26440567848E+03  0.71781343683E+02  0.49442003706E+03  0.50400001928E-02 0. -1.
</event>
<event>
 5   0  0.1308893E-04  0.1797908E+04  0.7818609E-02  0.8707413E-01
       -1   -1    0    0    0  501  0.00000000000E+00  0.00000000000E+00  0.91291460382E+03  0.91291460383E+03  0.50400001928E-02 0.  1.
        1   -1    0    0  501    0  0.00000000000E+00  0.00000000000E+00 -0.88520735669E+03  0.88520735670E+03  0.50400001928E-02 0. -1.
    10030    2    1    2    0    0  0.00000000000E+00  0.00000000000E+00  0.27707247127E+02  0.17981219605E+04  0.17979084775E+04 0.  0.
        4    1    3    3  502    0  0.75721498983E+03 -0.23251707484E+03  0.43896689019E+03  0.90561154724E+03  0.12699999809E+01 0. -1.
       -4    1    3    3    0  502 -0.75721498983E+03  0.23251707484E+03 -0.41125964306E+03  0.89251041329E+03  0.12699999809E+01 0.  1.
</event>
<event>
 5   0  0.2417106E-04  0.1804165E+04  0.7818609E-02  0.8704088E-01
        2   -1    0    0  501    0  0.00000000000E+00  0.00000000000E+00  0.64897770961E+03  0.64897770962E+03  0.25500000920E-02 0. -1.
       -2   -1    0    0    0  501  0.00000000000E+00  0.00000000000E+00 -0.12538999613E+04  0.12538999613E+04  0.25500000920E-02 0.  1.
    10030    2    1    2    0    0  0.00000000000E+00  0.00000000000E+00 -0.60492225165E+03  0.19028776709E+04  0.18041653194E+04 0.  0.
        4    1    3    3  502    0  0.87773705198E+03 -0.19030323346E+03 -0.39141956724E+03  0.97971860429E+03  0.12699999809E+01 0.  1.
       -4    1    3    3    0  502 -0.87773705198E+03  0.19030323346E+03 -0.21350268441E+03  0.92315906659E+03  0.12699999809E+01 0. -1.
</event>
<event>
 5   0  0.2417106E-04  0.1794799E+04  0.7818609E-02  0.8709070E-01
        2   -1    0    0  501    0  0.00000000000E+00  0.00000000000E+00  0.20863069889E+04  0.20863069889E+04  0.25500000920E-02 0.  1.
       -2   -1    0    0    0  501  0.00000000000E+00  0.00000000000E+00 -0.38600566024E+03  0.38600566025E+03  0.25500000920E-02 0. -1.
    10030    2    1    2    0    0  0.00000000000E+00  0.00000000000E+00  0.17003013287E+04  0.24723126492E+04  0.17947994949E+04 0.  0.
        4    1    3    3  502    0 -0.86836489261E+02 -0.50769612939E+03 -0.16211824029E+03  0.53998136301E+03  0.12699999809E+01 0. -1.
       -4    1    3    3    0  502  0.86836489261E+02  0.50769612939E+03  0.18624195690E+04  0.19323312862E+04  0.12699999809E+01 0.  1.
</event>
<event>
 5   0  0.2393421E-04  0.1792007E+04  0.7818609E-02  0.8710561E-01
       -2   -1    0    0    0  501  0.00000000000E+00  0.00000000000E+00  0.43269731067E+03  0.43269731068E+03  0.25500000920E-02 0.  1.
        2   -1    0    0  501    0  0.00000000000E+00  0.00000000000E+00 -0.18553906528E+04  0.18553906529E+04  0.25500000920E-02 0. -1.
    10030    2    1    2    0    0  0.00000000000E+00  0.00000000000E+00 -0.14226933422E+04  0.22880879635E+04  0.17920073055E+04 0.  0.
        5    1    3    3  502    0 -0.40832853422E+03 -0.22869923078E+02 -0.17292491514E+04  0.17769580589E+04  0.46999998093E+01 0. -1.
       -5    1    3    3    0  502  0.40832853422E+03  0.22869923078E+02  0.30655580927E+03  0.51112990465E+03  0.46999998093E+01 0.  1.
</event>
<event>
 5   0  0.2550616E-04  0.1801812E+04  0.7818609E-02  0.8705336E-01
        2   -1    0    0  501    0  0.00000000000E+00  0.00000000000E+00  0.11391199844E+04  0.11391199844E+04  0.25500000920E-02 0.  1.
       -2   -1    0    0    0  501  0.00000000000E+00  0.00000000000E+00 -0.71250777868E+03  0.71250777868E+03  0.25500000920E-02 0. -1.
    10030    2    1    2    0    0  0.00000000000E+00  0.00000000000E+00  0.42661220569E+03  0.18516277631E+04  0.18018122541E+04 0.  0.
        1    1    3    3  502    0 -0.23266970965E+03  0.67385145791E+03 -0.35275963774E+03  0.79539320034E+03  0.50400001928E-02 0. -1.
       -1    1    3    3    0  502  0.23266970965E+03 -0.67385145791E+03  0.77937184343E+03  0.10562345627E+04  0.50400001928E-02 0.  1.
</event>
<event>
 5   0  0.1239119E-04  0.1796818E+04  0.7818609E-02  0.8707994E-01
        1   -1    0    0  501    0  0.00000000000E+00  0.00000000000E+00  0.15540647499E+04  0.15540647499E+04  0.50400001928E-02 0.  1.
       -1   -1    0    0    0  501  0.00000000000E+00  0.00000000000E+00 -0.51937240350E+03  0.51937240353E+03  0.50400001928E-02 0. -1.
    10030    2    1    2    0    0  0.00000000000E+00  0.00000000000E+00  0.10346923464E+04  0.20734371534E+04  0.17968175693E+04 0.  0.
        5    1    3    3  502    0  0.83241889867E+03  0.16476260067E+03  0.85780694558E+03  0.12066162535E+04  0.46999998093E+01 0.  1.
       -5    1    3    3    0  502 -0.83241889867E+03 -0.16476260067E+03  0.17688540080E+03  0.86682089987E+03  0.46999998093E+01 0. -1.
</event>
<event>
 5   0  0.2393421E-04  0.1867721E+04  0.7818609E-02  0.8671093E-01
        2   -1    0    0  501    0  0.00000000000E+00  0.00000000000E+00  0.11340302776E+04  0.11340302777E+04  0.25500000920E-02 0. -1.
       -2   -1    0    0    0  501  0.00000000000E+00  0.00000000000E+00 -0.76902297374E+03  0.76902297375E+03  0.25500000920E-02 0.  1.
    10030    2    1    2    0    0  0.00000000000E+00  0.00000000000E+00  0.36500730391E+03  0.19030532514E+04  0.18677208961E+04 0.  0.
        5    1    3    3  502    0 -0.35719791270E+03 -0.86032605164E+03  0.24948909964E+03  0.96437449406E+03  0.46999998093E+01 0. -1.
       -5    1    3    3    0  502  0.35719791270E+03  0.86032605164E+03  0.11551820427E+03  0.93867875734E+03  0.46999998093E+01 0.  1.
</event>
<event>
 5   0  0.9144875E-05  0.1613136E+04  0.7818609E-02  0.8812519E-01
       -4   -1    0    0    0  501  0.00000000000E+00  0.00000000000E+00  0.14465805254E+04  0.14465810828E+04  0.12699999809E+01 0. -1.
        4   -1    0    0  501    0  0.00000000000E+00  0.00000000000E+00 -0.44971545440E+03  0.44971724764E+03  0.12699999809E+01 0.  1.
    10030    2    1    2    0    0  0.00000000000E+00  0.00000000000E+00  0.99686507096E+03  0.18962983305E+04  0.16131358866E+04 0.  0.
        5    1    3    3  502    0  0.64557839698E+03 -0.19152947071E+03  0.10202891645E+04  0.12224839770E+04  0.46999998093E+01 0. -1.
       -5    1    3    3    0  502 -0.64557839698E+03  0.19152947071E+03 -0.23424093555E+02  0.67381435348E+03  0.46999998093E+01 0.  1.
</event>
<event>
 5   0  0.2393421E-04  0.1838245E+04  0.7818609E-02  0.8686222E-01
        2   -1    0    0  501    0  0.00000000000E+00  0.00000000000E+00  0.11012117067E+04  0.11012117067E+04  0.25500000920E-02 0.  1.
       -2   -1    0    0    0  501  0.00000000000E+00  0.00000000000E+00 -0.76714197190E+03  0.76714197190E+03  0.25500000920E-02 0. -1.
    10030    2    1    2    0    0  0.00000000000E+00  0.00000000000E+00  0.33406973481E+03  0.18683536786E+04  0.18382445106E+04 0.  0.
        5    1    3    3  502    0  0.50916700735E+03  0.72087472276E+02 -0.60722737410E+03  0.79573539502E+03  0.46999998093E+01 0. -1.
       -5    1    3    3    0  502 -0.50916700735E+03 -0.72087472276E+02  0.94129710891E+03  0.10726182836E+04  0.46999998093E+01 0.  1.
</event>
<event>
 5   0  0.1330225E-04  0.1818222E+04  0.7818609E-02  0.8696669E-01
       -1   -1    0    0    0  501  0.00000000000E+00  0.00000000000E+00  0.33636728810E+04  0.33636728810E+04  0.50400001928E-02 0.  1.
        1   -1    0    0  501    0  0.00000000000E+00  0.00000000000E+00 -0.24570845614E+03  0.24570845620E+03  0.50400001928E-02 0. -1.
    10030    2    1    2    0    0  0.00000000000E+00  0.00000000000E+00  0.31179644248E+04  0.36093813372E+04  0.18182220664E+04 0.  0.
        3    1    3    3  502    0 -0.25058050562E+03  0.55542641043E+03  0.28983011218E+04  0.29616614409E+04  0.10100000352E+00 0.  1.
       -3    1    3    3    0  502  0.25058050562E+03 -0.55542641043E+03  0.21966330299E+03  0.64771989631E+03  0.10100000352E+00 0. -1.
</event>
<event>
 5   0  0.1308893E-04  0.1787802E+04  0.7818609E-02  0.8712813E-01
       -1   -1    0    0    0  501  0.00000000000E+00  0.00000000000E+00  0.10370393771E+04  0.10370393771E+04  0.50400001928E-02 0. -1.
        1   -1    0    0  501    0  0.00000000000E+00  0.00000000000E+00 -0.77051903486E+03  0.77051903488E+03  0.50400001928E-02 0.  1.
    10030    2    1    2    0    0  0.00000000000E+00  0.00000000000E+00  0.26652034226E+03  0.18075584120E+04  0.17878015326E+04 0.  0.
        4    1    3    3  502    0  0.70775133076E+03  0.27474765507E+03 -0.34382170195E+03  0.83343457799E+03  0.12699999809E+01 0.  1.
       -4    1    3    3    0  502 -0.70775133076E+03 -0.27474765507E+03  0.61034204422E+03  0.97412383402E+03  0.12699999809E+01 0. -1.
</event>
<event>
 5   0  0.1330225E-04  0.1858051E+04  0.7818609E-02  0.8676024E-01
       -1   -1    0    0    0  501  0.00000000000E+00  0.00000000000E+00  0.88706367919E+03  0.88706367920E+03  0.50400001928E-02 0.  1.
        1   -1    0    0  501    0  0.00000000000E+00  0.00000000000E+00 -0.97297184847E+03  0.97297184849E+03  0.50400001928E-02 0. -1.
    10030    2    1    2    0    0  0.00000000000E+00  0.00000000000E+00 -0.85908169283E+02  0.18600355277E+04  0.18580505781E+04 0.  0.
        3    1    3    3  502    0  0.39429511686E+03  0.80196527710E+03  0.21122863432E+03  0.91827800311E+03  0.10100000352E+00 0.  1.
       -3    1    3    3    0  502 -0.39429511686E+03 -0.80196527710E+03 -0.29713680360E+03  0.94175752458E+03  0.10100000352E+00 0. -1.
</event>
<event>
 5   0  0.1330225E-04  0.1748078E+04  0.7818609E-02  0.8734409E-01
       -1   -1    0    0    0  501  0.00000000000E+00  0.00000000000E+00  0.15617325421E+04  0.15617325421E+04  0.50400001928E-02 0.  1.
        1   -1    0    0  501    0  0.00000000000E+00  0.00000000000E+00 -0.48916463110E+03  0.48916463113E+03  0.50400001928E-02 0. -1.
    10030    2    1    2    0    0  0.00000000000E+00  0.00000000000E+00  0.10725679110E+04  0.20508971732E+04  0.17480781709E+04 0.  0.
        3    1    3    3  502    0 -0.52004178246E+03 -0.70010248239E+03  0.46830371071E+03  0.98989661936E+03  0.10100000352E+00 0. -1.
       -3    1    3    3    0  502  0.52004178246E+03  0.70010248239E+03  0.60426420027E+03  0.10610005539E+04  0.10100000352E+00 0.  1.
</event>
<event>
 5   0  0.2569405E-04  0.1648313E+04  0.7818609E-02  0.8791405E-01
        2   -1    0    0  501    0  0.00000000000E+00  0.00000000000E+00  0.22703752954E+04  0.22703752954E+04  0.25500000920E-02 0.  1.
       -2   -1    0    0    0  501  0.00000000000E+00  0.00000000000E+00 -0.29917236377E+03  0.29917236378E+03  0.25500000920E-02 0. -1.
    10030    2    1    2    0    0  0.00000000000E+00  0.00000000000E+00  0.19712029316E+04  0.25695476591E+04  0.16483125235E+04 0.  0.
        2    1    3    3  502    0 -0.79799291821E+03 -0.20009553517E+03  0.90918975208E+03  0.12261553433E+04  0.25500000920E-02 0.  1.
       -2    1    3    3    0  502  0.79799291821E+03  0.20009553517E+03  0.10620131795E+04  0.13433923158E+04  0.25500000920E-02 0. -1.
</event>
<event>
 5   0  0.1239119E-04  0.1807005E+04  0.7818609E-02  0.8702583E-01
       -1   -1    0    0    0  501  0.00000000000E+00  0.00000000000E+00  0.85458782394E+03  0.85458782395E+03  0.50400001928E-02 0. -1.
        1   -1    0    0  501    0  0.00000000000E+00  0.00000000000E+00 -0.95521735213E+03  0.95521735214E+03  0.50400001928E-02 0.  1.
    10030    2    1    2    0    0  0.00000000000E+00  0.00000000000E+00 -0.10062952819E+03  0.18098051761E+04  0.18070053883E+04 0.  0.
        5    1    3    3  502    0 -0.71709657539E+03  0.41365668672E+03  0.31212391660E+03  0.88475012417E+03  0.46999998093E+01 0. -1.
       -5    1    3    3    0  502  0.71709657539E+03 -0.41365668672E+03 -0.41275344479E+03  0.92505505193E+03  0.46999998093E+01 0.  1.
</event>
<event>
 5   0  0.1253925E-04  0.1770026E+04  0.7818609E-02  0.8722404E-01
       -1   -1    0    0    0  501  0.00000000000E+00  0.00000000000E+00  0.45686963419E+03  0.45686963422E+03  0.50400001928E-02 0.  1.
        1   -1    0    0  501    0  0.00000000000E+00  0.00000000000E+00 -0.17143797321E+04  0.17143797321E+04  0.50400001928E-02 0. -1.
    10030    2    1    2    0    0  0.00000000000E+00  0.00000000000E+00 -0.12575100979E+04  0.21712493663E+04  0.17700260349E+04 0.  0.
        2    1    3    3  502    0 -0.54963499349E+03 -0.62823168297E+03 -0.98947797694E+03  0.12945425217E+04  0.25500000920E-02 0. -1.
       -2    1    3    3    0  502  0.54963499349E+03  0.62823168297E+03 -0.26803212095E+03  0.87670684464E+03  0.25500000920E-02 0.  1.
</event>
<event>
 5   0  0.1330225E-04  0.1750431E+04  0.7818609E-02  0.8733113E-01
       -1   -1    0    0    0  501  0.00000000000E+00  0.00000000000E+00  0.62625840895E+03  0.62625840897E+03  0.50400001928E-02 0.  1.
        1   -1    0    0  501    0  0.00000000000E+00  0.00000000000E+00 -0.12231410328E+04  0.12231410328E+04  0.50400001928E-02 0. -1.
    10030    2    1    2    0    0  0.00000000000E+00  0.00000000000E+00 -0.59688262384E+03  0.18493994418E+04  0.17504312122E+04 0.  0.
        3    1    3    3  502    0  0.20587782164E+03  0.80955295918E+03 -0.57444020038E+03  0.10137767137E+04  0.10100000352E+00 0.  1.
       -3    1    3    3    0  502 -0.20587782164E+03 -0.80955295918E+03 -0.22442423460E+02  0.83562272811E+03  0.10100000352E+00 0. -1.
</event>
<event>
 5   0  0.2550616E-04  0.1749447E+04  0.7818609E-02  0.8733655E-01
       -2   -1    0    0    0  501  0.00000000000E+00  0.00000000000E+00  0.11402774481E+04  0.11402774481E+04  0.25500000920E-02 0. -1.
        2   -1    0    0  501    0  0.00000000000E+00  0.00000000000E+00 -0.67101314920E+03  0.67101314921E+03  0.25500000920E-02 0.  1.
    10030    2    1    2    0    0  0.00000000000E+00  0.00000000000E+00  0.46926429894E+03  0.18112905974E+04  0.17494469543E+04 0.  0.
        1    1    3    3  502    0 -0.61212057177E+03 -0.24015039685E+03 -0.36262895924E+03  0.75090849616E+03  0.50400001928E-02 0.  1.
       -1    1    3    3    0  502  0.61212057177E+03  0.24015039685E+03  0.83189325819E+03  0.10603821012E+04  0.50400001928E-02 0. -1.
</event>
<event>
 5   0  0.2569405E-04  0.1786544E+04  0.7818609E-02  0.8713488E-01
       -2   -1    0    0    0  501  0.00000000000E+00  0.00000000000E+00  0.47470232726E+03  0.47470232726E+03  0.25500000920E-02 0. -1.
        2   -1    0    0  501    0  0.00000000000E+00  0.00000000000E+00 -0.16809168848E+04  0.16809168848E+04  0.25500000920E-02 0.  1.
    10030    2    1    2    0    0  0.00000000000E+00  0.00000000000E+00 -0.12062145575E+04  0.21556192120E+04  0.17865443259E+04 0.  0.
        2    1    3    3  502    0  0.42003236309E+03 -0.68342187734E+03 -0.12892898091E+03  0.81247481844E+03  0.25500000920E-02 0. -1.
       -2    1    3    3    0  502 -0.42003236309E+03  0.68342187734E+03 -0.10772855766E+04  0.13431443936E+04  0.25500000920E-02 0.  1.
</event>
<event>
 5   0  0.1330225E-04  0.1781938E+04  0.7818609E-02  0.8715964E-01
        1   -1    0    0  501    0  0.00000000000E+00  0.00000000000E+00  0.64794763667E+03  0.64794763668E+03  0.50400001928E-02 0. -1.
       -1   -1    0    0    0  501  0.00000000000E+00  0.00000000000E+00 -0.12251392320E+04  0.12251392321E+04  0.50400001928E-02 0.  1.
    10030    2    1    2    0    0  0.00000000000E+00  0.00000000000E+00 -0.57719159538E+03  0.18730868687E+04  0.17819383491E+04 0.  0.
        3    1    3    3  502    0  0.46850029411E+02 -0.34114214406E+03 -0.11523666829E+04  0.12027143758E+04  0.10100000352E+00 0.  1.
       -3    1    3    3    0  502 -0.46850029411E+02  0.34114214406E+03  0.57517508755E+03  0.67037249291E+03  0.10100000352E+00 0. -1.
</event>
<event>
 5   0  0.2550616E-04  0.1772975E+04  0.7818609E-02  0.8720805E-01
       -2   -1    0    0    0  501  0.00000000000E+00  0.00000000000E+00  0.85335349048E+03  0.85335349049E+03  0.25500000920E-02 0.  1.
        2   -1    0    0  501    0  0.00000000000E+00  0.00000000000E+00 -0.92090793382E+03  0.92090793383E+03  0.25500000920E-02 0. -1.
    10030    2    1    2    0    0  0.00000000000E+00  0.00000000000E+00 -0.67554443340E+02  0.17742614243E+04  0.17729749008E+04 0.  0.
        1    1    3    3  502    0 -0.14448518426E+03 -0.56830612881E+03  0.63154516814E+03  0.86179877230E+03  0.50400001928E-02 0.  1.
       -1    1    3    3    0  502  0.14448518426E+03  0.56830612881E+03 -0.69909961148E+03  0.91246265201E+03  0.50400001928E-02 0. -1.
</event>
<event>
 5   0  0.1214723E-04  0.1785103E+04  0.7818609E-02  0.8714262E-01
        1   -1    0    0  501    0  0.00000000000E+00  0.00000000000E+00  0.67345971035E+03  0.67345971036E+03  0.50400001928E-02 0.  1.
       -1   -1    0    0    0  501  0.00000000000E+00  0.00000000000E+00 -0.11829189617E+04  0.11829189617E+04  0.50400001928E-02 0. -1.
    10030    2    1    2    0    0  0.00000000000E+00  0.00000000000E+00 -0.50945925135E+03  0.18563786721E+04  0.17851030910E+04 0.  0.
        1    1    3    3  502    0 -0.95236297995E+02 -0.21438498569E+03  0.64082734722E+03  0.68241524273E+03  0.50400001928E-02 0.  1.
       -1    1    3    3    0  502  0.95236297995E+02  0.21438498569E+03 -0.11502865986E+04  0.11739634293E+04  0.50400001928E-02 0. -1.
</event>
<event>
 5   0  0.1330225E-04  0.1707567E+04  0.7818609E-02  0.8757060E-01
       -1   -1    0    0    0  501  0.00000000000E+00  0.00000000000E+00  0.83324616404E+03  0.83324616405E+03  0.50400001928E-02 0. -1.
        1   -1    0    0  501    0  0.00000000000E+00  0.00000000000E+00 -0.87482716617E+03  0.87482716618E+03  0.50400001928E-02 0.  1.
    10030    2    1    2    0    0  0.00000000000E+00  0.00000000000E+00 -0.41581002131E+02  0.17080733302E+04  0.17075671354E+04 0.  0.
        3    1    3    3  502    0  0.15906472405E+03 -0.19439163769E+02  0.81806820004E+03  0.83361565343E+03  0.10100000352E+00 0. -1.
       -3    1    3    3    0  502 -0.15906472405E+03  0.19439163769E+02 -0.85964920217E+03  0.87445767681E+03  0.10100000352E+00 0.  1.
</event>
<event>
 5   0  0.2417106E-04  0.1808440E+04  0.7818609E-02  0.8701824E-01
       -2   -1    0    0    0  501  0.00000000000E+00  0.00000000000E+00  0.66949802855E+03  0.66949802856E+03  0.25500000920E-02 0. -1.
        2   -1    0    0  501    0  0.00000000000E+00  0.00000000000E+00 -0.12212335299E+04  0.12212335299E+04  0.25500000920E-02 0.  1.
    10030    2    1    2    0    0  0.00000000000E+00  0.00000000000E+00 -0.55173550133E+03  0.18907315584E+04  0.18084395933E+04 0.  0.
        4    1    3    3  502    0  0.49196256143E+03  0.33988651471E+03 -0.98501098594E+03  0.11523012887E+04  0.12699999809E+01 0.  1.
       -4    1    3    3    0  502 -0.49196256143E+03 -0.33988651471E+03  0.43327548461E+03  0.73843026969E+03  0.12699999809E+01 0. -1.
</event>
<event>
 5   0  0.2393421E-04  0.1799631E+04  0.7818609E-02  0.8706496E-01
        2   -1    0    0  501    0  0.00000000000E+00  0.00000000000E+00  0.16322434217E+04  0.16322434217E+04  0.25500000920E-02 0. -1.
       -2   -1    0    0    0  501  0.00000000000E+00  0.00000000000E+00 -0.49604622804E+03  0.49604622805E+03  0.25500000920E-02 0.  1.
    10030    2    1    2    0    0  0.00000000000E+00  0.00000000000E+00  0.11361971937E+04  0.21282896498E+04  0.17996312874E+04 0.  0.
        5    1    3    3  502    0  0.81951871801E+02  0.36184048388E+03 -0.40136678470E+03  0.54659128325E+03  0.46999998093E+01 0.  1.
       -5    1    3    3    0  502 -0.81951871801E+02 -0.36184048388E+03  0.15375639784E+04  0.15816983665E+04  0.46999998093E+01 0. -1.
</event>
<event>
 5   0  0.9144875E-05  0.1804218E+04  0.7818609E-02  0.8704059E-01
        3   -1    0    0  501    0  0.00000000000E+00  0.00000000000E+00  0.58625191051E+03  0.58625191921E+03  0.10100000352E+00 0. -1.
       -3   -1    0    0    0  501  0.00000000000E+00  0.00000000000E+00 -0.13881421416E+04  0.13881421453E+04  0.10100000352E+00 0.  1.
    10030    2    1    2    0    0  0.00000000000E+00  0.00000000000E+00 -0.80189023110E+03  0.19743940645E+04  0.18042183845E+04 0.  0.
        3    1    3    3  502    0 -0.84105031844E-01  0.38150327171E+03  0.49362882221E+03  0.62387032123E+03  0.10100000352E+00 0. -1.
       -3    1    3    3    0  502  0.84105031844E-01 -0.38150327171E+03 -0.12955190533E+04  0.13505237433E+04  0.10100000352E+00 0.  1.
</event>
<event>
 5   0  0.2550616E-04  0.1792634E+04  0.7818609E-02  0.8710226E-01
        2   -1    0    0  501    0  0.00000000000E+00  0.00000000000E+00  0.96772036366E+03  0.96772036366E+03  0.25500000920E-02 0. -1.
       -2   -1    0    0    0  501  0.00000000000E+00  0.00000000000E+00 -0.83018236588E+03  0.83018236588E+03  0.25500000920E-02 0.  1.
    10030    2    1    2    0    0  0.00000000000E+00  0.00000000000E+00  0.13753799778E+03  0.17979027295E+04  0.17926342416E+04 0.  0.
        1    1    3    3  502    0 -0.54077286143E+03  0.71194388078E+03  0.13287087562E+03  0.90385510269E+03  0.50400001928E-02 0.  1.
       -1    1    3    3    0  502  0.54077286143E+03 -0.71194388078E+03  0.46671221593E+01  0.89404762686E+03  0.50400001928E-02 0. -1.
</event>
<event>
 5   0  0.2393421E-04  0.1557774E+04  0.7818609E-02  0.8846917E-01
       -2   -1    0    0    0  501  0.00000000000E+00  0.00000000000E+00  0.11373017086E+04  0.11373017086E+04  0.25500000920E-02 0.  1.
        2   -1    0    0  501    0  0.00000000000E+00  0.00000000000E+00 -0.53342511761E+03  0.53342511762E+03  0.25500000920E-02 0. -1.
    10030    2    1    2    0    0  0.00000000000E+00  0.00000000000E+00  0.60387659095E+03  0.16707268262E+04  0.15577744351E+04 0.  0.
        5    1    3    3  502    0 -0.62456709662E+03 -0.10888776495E+03  0.78718495848E+03  0.10107536062E+04  0.46999998093E+01 0.  1.
       -5    1    3    3    0  502  0.62456709662E+03  0.10888776495E+03 -0.18330836753E+03  0.65997322001E+03  0.46999998093E+01 0. -1.
</event>
<event>
 5   0  0.2417106E-04  0.1782996E+04  0.7818609E-02  0.8715395E-01
        2   -1    0    0  501    0  0.00000000000E+00  0.00000000000E+00  0.22812332953E+04  0.22812332953E+04  0.25500000920E-02 0. -1.
       -2   -1    0    0    0  501  0.00000000000E+00  0.00000000000E+00 -0.34839433771E+03  0.34839433772E+03  0.25500000920E-02 0.  1.
    10030    2    1    2    0    0  0.00000000000E+00  0.00000000000E+00  0.19328389576E+04  0.26296276330E+04  0.17829960887E+04 0.  0.
        4    1    3    3  502    0 -0.47898152025E+01  0.52738860303E+03 -0.93623232359E+02  0.53565716972E+03  0.12699999809E+01 0.  1.
       -4    1    3    3    0  502  0.47898152025E+01 -0.52738860303E+03  0.20264621900E+04  0.20939704633E+04  0.12699999809E+01 0. -1.
</event>
<event>
 5   0  0.1330225E-04  0.1785182E+04  0.7818609E-02  0.8714219E-01
       -1   -1    0    0    0  501  0.00000000000E+00  0.00000000000E+00  0.35188247366E+03  0.35188247369E+03  0.50400001928E-02 0. -1.
        1   -1    0    0  501    0  0.00000000000E+00  0.00000000000E+00 -0.22641610953E+04  0.22641610953E+04  0.50400001928E-02 0.  1.
    10030    2    1    2    0    0  0.00000000000E+00  0.00000000000E+00 -0.19122786216E+04  0.26160435690E+04  0.17851819033E+04 0.  0.
        3    1    3    3  502    0  0.85647280507E+03 -0.19883386639E+03 -0.11814428877E+04  0.14727144596E+04  0.10100000352E+00 0.  1.
       -3    1    3    3    0  502 -0.85647280507E+03  0.19883386639E+03 -0.73083573385E+03  0.11433291094E+04  0.10100000352E+00 0. -1.
</event>
<event>
 5   0  0.1330225E-04  0.1742817E+04  0.7818609E-02  0.8737314E-01
        1   -1    0    0  501    0  0.00000000000E+00  0.00000000000E+00  0.83078081123E+03  0.83078081125E+03  0.50400001928E-02 0. -1.
       -1   -1    0    0    0  501  0.00000000000E+00  0.00000000000E+00 -0.91402307542E+03  0.91402307543E+03  0.50400001928E-02 0.  1.
    10030    2    1    2    0    0  0.00000000000E+00  0.00000000000E+00 -0.83242264187E+02  0.17448038867E+04  0.17428170668E+04 0.  0.
        3    1    3    3  502    0 -0.80658017003E+03  0.96029557023E+02  0.27426919949E+03  0.85733123732E+03  0.10100000352E+00 0. -1.
       -3    1    3    3    0  502  0.80658017003E+03 -0.96029557023E+02 -0.35751146367E+03  0.88747264936E+03  0.10100000352E+00 0.  1.
</event>
<event>
 5   0  0.2431811E-04  0.1719632E+04  0.7818609E-02  0.8750246E-01
       -2   -1    0    0    0  501  0.00000000000E+00  0.00000000000E+00  0.42283231957E+03  0.42283231958E+03  0.25500000920E-02 0.  1.
        2   -1    0    0  501    0  0.00000000000E+00  0.00000000000E+00 -0.17484091516E+04  0.17484091516E+04  0.25500000920E-02 0. -1.
    10030    2    1    2    0    0  0.00000000000E+00  0.00000000000E+00 -0.13255768320E+04  0.21712414712E+04  0.17196323993E+04 0.  0.
        3    1    3    3  502    0  0.25682719490E+02  0.35273414638E+03 -0.16523172195E+04  0.16897435261E+04  0.10100000352E+00 0. -1.
       -3    1    3    3    0  502 -0.25682719490E+02 -0.35273414638E+03  0.32674038744E+03  0.48149794506E+03  0.10100000352E+00 0.  1.
</event>
<event>
 5   0  0.2417106E-04  0.1802050E+04  0.7818609E-02  0.8705210E-01
        2   -1    0    0  501    0  0.00000000000E+00  0.00000000000E+00  0.12776550159E+04  0.12776550159E+04  0.25500000920E-02 0. -1.
       -2   -1    0    0    0  501  0.00000000000E+00  0.00000000000E+00 -0.63541917549E+03  0.63541917550E+03  0.25500000920E-02 0.  1.
    10030    2    1    2    0    0  0.00000000000E+00  0.00000000000E+00  0.64223584040E+03  0.19130741914E+04  0.18020504951E+04 0.  0.
        4    1    3    3  502    0  0.68576958831E+03  0.57935655138E+03  0.23949855649E+03  0.92913675708E+03  0.12699999809E+01 0.  1.
       -4    1    3    3    0  502 -0.68576958831E+03 -0.57935655138E+03  0.40273728390E+03  0.98393743431E+03  0.12699999809E+01 0. -1.
</event>
<event>
 5   0  0.1253925E-04  0.1795420E+04  0.7818609E-02  0.8708739E-01
       -1   -1    0    0    0  501  0.00000000000E+00  0.00000000000E+00  0.49027492761E+03  0.49027492764E+03  0.50400001928E-02 0.  1.
        1   -1    0    0  501    0  0.00000000000E+00  0.00000000000E+00 -0.16437382055E+04  0.16437382055E+04  0.50400001928E-02 0. -1.
    10030    2    1    2    0    0  0.00000000000E+00  0.00000000000E+00 -0.11534632779E+04  0.21340131332E+04  0.17954204296E+04 0.  0.
        2    1    3    3  502    0  0.75320295284E+03 -0.18061391835E+03 -0.11161295305E+04  0.13585585024E+04  0.25500000920E-02 0. -1.
       -2    1    3    3    0  502 -0.75320295284E+03  0.18061391835E+03 -0.37333747435E+02  0.77545463076E+03  0.25500000920E-02 0.  1.
</event>
<event>
 5   0  0.1214723E-04  0.1861026E+04  0.7818609E-02  0.8674503E-01
       -1   -1    0    0    0  501  0.00000000000E+00  0.00000000000E+00  0.91076912135E+03  0.91076912136E+03  0.50400001928E-02 0. -1.
        1   -1    0    0  501    0  0.00000000000E+00  0.00000000000E+00 -0.95068499154E+03  0.95068499156E+03  0.50400001928E-02 0.  1.
    10030    2    1    2    0    0  0.00000000000E+00  0.00000000000E+00 -0.39915870194E+02  0.18614541129E+04  0.18610260981E+04 0.  0.
        1    1    3    3  502    0 -0.60107576217E+03 -0.67400492701E+03  0.20432525899E+03  0.92591766642E+03  0.50400001928E-02 0.  1.
       -1    1    3    3    0  502  0.60107576217E+03  0.67400492701E+03 -0.24424112919E+03  0.93553644649E+03  0.50400001928E-02 0. -1.
</event>
<event>
 5   0  0.1253925E-04  0.1788149E+04  0.7818609E-02  0.8712627E-01
        1   -1    0    0  501    0  0.00000000000E+00  0.00000000000E+00  0.86372612666E+03  0.86372612667E+03  0.50400001928E-02 0. -1.
       -1   -1    0    0    0  501  0.00000000000E+00  0.00000000000E+00 -0.92548947376E+03  0.92548947378E+03  0.50400001928E-02 0.  1.
    10030    2    1    2    0    0  0.00000000000E+00  0.00000000000E+00 -0.61763347104E+02  0.17892156004E+04  0.17881492538E+04 0.  0.
        2    1    3    3  502    0  0.71186529993E+03 -0.46298924361E+03  0.24903181036E+03  0.88494524549E+03  0.25500000920E-02 0. -1.
       -2    1    3    3    0  502 -0.71186529993E+03  0.46298924361E+03 -0.31079515747E+03  0.90427035496E+03  0.25500000920E-02 0.  1.
</event>
<event>
 5   0  0.2417106E-04  0.1855720E+04  0.7818609E-02  0.8677217E-01
        2   -1    0    0  501    0  0.00000000000E+00  0.00000000000E+00  0.11066293953E+04  0.11066293953E+04  0.25500000920E-02 0. -1.
       -2   -1    0    0    0  501  0.00000000000E+00  0.00000000000E+00 -0.77796936808E+03  0.77796936809E+03  0.25500000920E-02 0.  1.
    10030    2    1    2    0    0  0.00000000000E+00  0.00000000000E+00  0.32866002720E+03  0.18845987634E+04  0.18557195600E+04 0.  0.
        4    1    3    3  502    0  0.37617862348E+02  0.81731795004E+03 -0.28008544577E+03  0.86479662630E+03  0.12699999809E+01 0.  1.
       -4    1    3    3    0  502 -0.37617862348E+02 -0.81731795004E+03  0.60874547298E+03  0.10198021371E+04  0.12699999809E+01 0. -1.
</event>
<event>
 5   0  0.2417106E-04  0.1797063E+04  0.7818609E-02  0.8707863E-01
       -2   -1    0    0    0  501  0.00000000000E+00  0.00000000000E+00  0.46429118228E+03  0.46429118229E+03  0.25500000920E-02 0.  1.
        2   -1    0    0  501    0  0.00000000000E+00  0.00000000000E+00 -0.17389059620E+04  0.17389059620E+04  0.25500000920E-02 0. -1.
    10030    2    1    2    0    0  0.00000000000E+00  0.00000000000E+00 -0.12746147797E+04  0.22031971443E+04  0.17970628314E+04 0.  0.
        4    1    3    3  502    0  0.20568364808E+03 -0.26725314184E+03  0.38375697726E+03  0.51088260433E+03  0.12699999809E+01 0.  1.
       -4    1    3    3    0  502 -0.20568364808E+03  0.26725314184E+03 -0.16583717570E+04  0.16923145399E+04  0.12699999809E+01 0. -1.
</event>
<event>
 5   0  0.2393421E-04  0.1784452E+04  0.7818609E-02  0.8714612E-01
       -2   -1    0    0    0  501  0.00000000000E+00  0.00000000000E+00  0.80757812380E+03  0.80757812380E+03  0.25500000920E-02 0.  1.
        2   -1    0    0  501    0  0.00000000000E+00  0.00000000000E+00 -0.98574640541E+03  0.98574640541E+03  0.25500000920E-02 0. -1.
    10030    2    1    2    0    0  0.00000000000E+00  0.00000000000E+00 -0.17816828161E+03  0.17933245292E+04  0.17844519973E+04 0.  0.
        5    1    3    3  502    0 -0.57940054622E+03  0.16720925790E+03 -0.74991060560E+03  0.96231592280E+03  0.46999998093E+01 0. -1.
       -5    1    3    3    0  502  0.57940054622E+03 -0.16720925790E+03  0.57174232399E+03  0.83100860641E+03  0.46999998093E+01 0.  1.
</event>
<event>
 5   0  0.1330225E-04  0.1792336E+04  0.7818609E-02  0.8710386E-01
        1   -1    0    0  501    0  0.00000000000E+00  0.00000000000E+00  0.87420765663E+03  0.87420765664E+03  0.50400001928E-02 0. -1.
       -1   -1    0    0    0  501  0.00000000000E+00  0.00000000000E+00 -0.91867962141E+03  0.91867962142E+03  0.50400001928E-02 0.  1.
    10030    2    1    2    0    0  0.00000000000E+00  0.00000000000E+00 -0.44471964783E+02  0.17928872781E+04  0.17923356372E+04 0.  0.
        3    1    3    3  502    0 -0.49398744731E+03 -0.69581677356E+03 -0.29605764037E+03  0.90323569299E+03  0.10100000352E+00 0. -1.
       -3    1    3    3    0  502  0.49398744731E+03  0.69581677356E+03  0.25158567559E+03  0.88965158508E+03  0.10100000352E+00 0.  1.
</event>
<event>
 5   0  0.1253925E-04  0.1875261E+04  0.7818609E-02  0.8667269E-01
       -1   -1    0    0    0  501  0.00000000000E+00  0.00000000000E+00  0.83975058180E+03  0.83975058182E+03  0.50400001928E-02 0.  1.
        1   -1    0    0  501    0  0.00000000000E+00  0.00000000000E+00 -0.10469193624E+04  0.10469193624E+04  0.50400001928E-02 0. -1.
    10030    2    1    2    0    0  0.00000000000E+00  0.00000000000E+00 -0.20716878063E+03  0.18866699443E+04  0.18752612018E+04 0.  0.
        2    1    3    3  502    0 -0.12920599163E+03 -0.12083840807E+03 -0.10299767492E+04  0.10450589520E+04  0.25500000920E-02 0. -1.
       -2    1    3    3    0  502  0.12920599163E+03  0.12083840807E+03  0.82280796860E+03  0.84161099229E+03  0.25500000920E-02 0.  1.
</event>
<event>
 5   0  0.2550616E-04  0.1802039E+04  0.7818609E-02  0.8705216E-01
       -2   -1    0    0    0  501  0.00000000000E+00  0.00000000000E+00  0.75067411455E+03  0.75067411455E+03  0.25500000920E-02 0.  1.
        2   -1    0    0  501    0  0.00000000000E+00  0.00000000000E+00 -0.10814762877E+04  0.10814762877E+04  0.25500000920E-02 0. -1.
    10030    2    1    2    0    0  0.00000000000E+00  0.00000000000E+00 -0.33080217314E+03  0.18321504022E+04  0.18020391280E+04 0.  0.
        1    1    3    3  502    0 -0.25562538406E+03 -0.79571248313E+03 -0.50767687116E+03  0.97787447984E+03  0.50400001928E-02 0.  1.
       -1    1    3    3    0  502  0.25562538406E+03  0.79571248313E+03  0.17687469803E+03  0.85427592241E+03  0.50400001928E-02 0. -1.
</event>
<event>
 5   0  0.1308893E-04  0.1782701E+04  0.7818609E-02  0.8715553E-01
       -1   -1    0    0    0  501  0.00000000000E+00  0.00000000000E+00  0.97006827571E+03  0.97006827573E+03  0.50400001928E-02 0.  1.
        1   -1    0    0  501    0  0.00000000000E+00  0.00000000000E+00 -0.81902057845E+03  0.81902057847E+03  0.50400001928E-02 0. -1.
    10030    2    1    2    0    0  0.00000000000E+00  0.00000000000E+00  0.15104769726E+03  0.17890888542E+04  0.17827011868E+04 0.  0.
        4    1    3    3  502    0  0.29403801076E+02 -0.69958015615E+03 -0.47802052424E+03  0.84781024581E+03  0.12699999809E+01 0. -1.
       -4    1    3    3    0  502 -0.29403801076E+02  0.69958015615E+03  0.62906822150E+03  0.94127860839E+03  0.12699999809E+01 0.  1.
</event>
<event>
 5   0  0.2417106E-04  0.1812284E+04  0.7818609E-02  0.8699794E-01
       -2   -1    0    0    0  501  0.00000000000E+00  0.00000000000E+00  0.34385600781E+03  0.34385600782E+03  0.25500000920E-02 0.  1.
        2   -1    0    0  501    0  0.00000000000E+00  0.00000000000E+00 -0.23878975655E+04  0.23878975655E+04  0.25500000920E-02 0. -1.
    10030    2    1    2    0    0  0.00000000000E+00  0.00000000000E+00 -0.20440415577E+04  0.27317535734E+04  0.18122835583E+04 0.  0.
        4    1    3    3  502    0 -0.73495844214E+03  0.17263519965E+03 -0.17773910717E+04  0.19310845291E+04  0.12699999809E+01 0. -1.
       -4    1    3    3    0  502  0.73495844214E+03 -0.17263519965E+03 -0.26665048601E+03  0.80066904425E+03  0.12699999809E+01 0.  1.
</event>
<event>
 5   0  0.9144875E-05  0.1820653E+04  0.7818609E-02  0.8695393E-01
        3   -1    0    0  501    0  0.00000000000E+00  0.00000000000E+00  0.66388489970E+03  0.66388490738E+03  0.10100000352E+00 0. -1.
       -3   -1    0    0    0  501  0.00000000000E+00  0.00000000000E+00 -0.12482501123E+04  0.12482501163E+04  0.10100000352E+00 0.  1.
    10030    2    1    2    0    0  0.00000000000E+00  0.00000000000E+00 -0.58436521256E+03  0.19121350237E+04  0.18206530826E+04 0.  0.
        1    1    3    3  502    0  0.49992139025E+03 -0.75767103963E+03 -0.22012303998E+03  0.93404547720E+03  0.50400001928E-02 0.  1.
       -1    1    3    3    0  502 -0.49992139025E+03  0.75767103963E+03 -0.36424217258E+03  0.97808954653E+03  0.50400001928E-02 0. -1.
</event>
<event>
 5   0  0.2569405E-04  0.1790089E+04  0.7818609E-02  0.8711588E-01
        2   -1    0    0  501    0  0.00000000000E+00  0.00000000000E+00  0.12564851882E+04  0.12564851882E+04  0.25500000920E-02 0.  1.
       -2   -1    0    0    0  501  0.00000000000E+00  0.00000000000E+00 -0.63757563401E+03  0.63757563401E+03  0.25500000920E-02 0. -1.
    10030    2    1    2    0    0  0.00000000000E+00  0.00000000000E+00  0.61890955419E+03  0.18940608222E+04  0.17900886464E+04 0.  0.
        2    1    3    3  502    0 -0.66014004943E+03 -0.59689251295E+03  0.41004930982E+03  0.97990101203E+03  0.25500000920E-02 0. -1.
       -2    1    3    3    0  502  0.66014004943E+03  0.59689251295E+03  0.20886024437E+03  0.91415981019E+03  0.25500000920E-02 0.  1.
</event>
<event>
 5   0  0.1308893E-04  0.1793202E+04  0.7818609E-02  0.8709923E-01
       -1   -1    0    0    0  501  0.00000000000E+00  0.00000000000E+00  0.35498683669E+03  0.35498683673E+03  0.50400001928E-02 0. -1.
        1   -1    0    0  501    0  0.00000000000E+00  0.00000000000E+00 -0.22645728549E+04  0.22645728549E+04  0.50400001928E-02 0.  1.
    10030    2    1    2    0    0  0.00000000000E+00  0.00000000000E+00 -0.19095860182E+04  0.26195596916E+04  0.17932022242E+04 0.  0.
        4    1    3    3  502    0 -0.11409745783E+03 -0.70739067216E+03 -0.16747301837E+03  0.73584551213E+03  0.12699999809E+01 0. -1.
       -4    1    3    3    0  502  0.11409745783E+03  0.70739067216E+03 -0.17421129998E+04  0.18837141795E+04  0.12699999809E+01 0.  1.
</event>
<event>
 5   0  0.2417106E-04  0.1827951E+04  0.7818609E-02  0.8691575E-01
        2   -1    0    0  501    0  0.00000000000E+00  0.00000000000E+00  0.21315645319E+04  0.21315645319E+04  0.25500000920E-02 0. -1.
       -2   -1    0    0    0  501  0.00000000000E+00  0.00000000000E+00 -0.39189585902E+03  0.39189585903E+03  0.25500000920E-02 0.  1.
    10030    2    1    2    0    0  0.00000000000E+00  0.00000000000E+00  0.17396686729E+04  0.25234603909E+04  0.18279511080E+04 0.  0.
        4    1    3    3  502    0  0.50245927398E+03  0.54867688876E+03  0.16027124117E+04  0.17669749114E+04  0.12699999809E+01 0.  1.
       -4    1    3    3    0  502 -0.50245927398E+03 -0.54867688876E+03  0.13695626120E+03  0.75648547947E+03  0.12699999809E+01 0. -1.
</event>
<event>
 5   0  0.1330225E-04  0.1798304E+04  0.7818609E-02  0.8707202E-01
        1   -1    0    0  501    0  0.00000000000E+00  0.00000000000E+00  0.22672278521E+04  0.22672278521E+04  0.50400001928E-02 0.  1.
       -1   -1    0    0    0  501  0.00000000000E+00  0.00000000000E+00 -0.35659160813E+03  0.35659160816E+03  0.50400001928E-02 0. -1.
    10030    2    1    2    0    0  0.00000000000E+00  0.00000000000E+00  0.19106362440E+04  0.26238194603E+04  0.17983041187E+04 0.  0.
        3    1    3    3  502    0  0.45393894695E+03 -0.64997905691E+03  0.33639606026E+03  0.86121754600E+03  0.10100000352E+00 0. -1.
       -3    1    3    3    0  502 -0.45393894695E+03  0.64997905691E+03  0.15742401837E+04  0.17626019143E+04  0.10100000352E+00 0.  1.
</event>
<event>
 5   0  0.2393421E-04  0.1823360E+04  0.7818609E-02  0.8693975E-01
        2   -1    0    0  501    0  0.00000000000E+00  0.00000000000E+00  0.10099471745E+04  0.10099471745E+04  0.25500000920E-02 0. -1.
       -2   -1    0    0    0  501  0.00000000000E+00  0.00000000000E+00 -0.82297404523E+03  0.82297404524E+03  0.25500000920E-02 0.  1.
    10030    2    1    2    0    0  0.00000000000E+00  0.00000000000E+00  0.18697312923E+03  0.18329212197E+04  0.18233598785E+04 0.  0.
        5    1    3    3  502    0  0.41332003161E+03  0.16884020391E+03  0.89251170707E+03  0.99796778518E+03  0.46999998093E+01 0. -1.
       -5    1    3    3    0  502 -0.41332003161E+03 -0.16884020391E+03 -0.70553857785E+03  0.83495343452E+03  0.46999998093E+01 0.  1.
</event>
<event>
 5   0  0.2393421E-04  0.1817990E+04  0.7818609E-02  0.8696791E-01
       -2   -1    0    0    0  501  0.00000000000E+00  0.00000000000E+00  0.38665148694E+03  0.38665148695E+03  0.25500000920E-02 0.  1.
        2   -1    0    0  501    0  0.00000000000E+00  0.00000000000E+00 -0.21369939096E+04  0.21369939096E+04  0.25500000920E-02 0. -1.
    10030    2    1    2    0    0  0.00000000000E+00  0.00000000000E+00 -0.17503424226E+04  0.25236453965E+04  0.18179899590E+04 0.  0.
        5    1    3    3  502    0  0.12232764549E+03 -0.60809788851E+03  0.47195300732E+02  0.62209049283E+03  0.46999998093E+01 0.  1.
       -5    1    3    3    0  502 -0.12232764549E+03  0.60809788851E+03 -0.17975377234E+04  0.19015549037E+04  0.46999998093E+01 0. -1.
</event>
<event>
 5   0  0.2550616E-04  0.1782521E+04  0.7818609E-02  0.8715650E-01
       -2   -1    0    0    0  501  0.00000000000E+00  0.00000000000E+00  0.48691138557E+03  0.48691138558E+03  0.25500000920E-02 0. -1.
        2   -1    0    0  501    0  0.00000000000E+00  0.00000000000E+00 -0.16313953374E+04  0.16313953374E+04  0.25500000920E-02 0.  1.
    10030    2    1    2    0    0  0.00000000000E+00  0.00000000000E+00 -0.11444839518E+04  0.21183067230E+04  0.17825206469E+04 0.  0.
        1    1    3    3  502    0  0.48216624770E+03 -0.61651279083E+03 -0.65579725388E+02  0.78541263809E+03  0.50400001928E-02 0. -1.
       -1    1    3    3    0  502 -0.48216624770E+03  0.61651279083E+03 -0.10789042264E+04  0.13328940849E+04  0.50400001928E-02 0.  1.
</event>
<event>
 5   0  0.1253925E-04  0.1810626E+04  0.7818609E-02  0.8700669E-01
        1   -1    0    0  501    0  0.00000000000E+00  0.00000000000E+00  0.11469983815E+04  0.11469983816E+04  0.50400001928E-02 0. -1.
       -1   -1    0    0    0  501  0.00000000000E+00  0.00000000000E+00 -0.71455322942E+03  0.71455322944E+03  0.50400001928E-02 0.  1.
    10030    2    1    2    0    0  0.00000000000E+00  0.00000000000E+00  0.43244515212E+03  0.18615516110E+04  0.18106257457E+04 0.  0.
        2    1    3    3  502    0 -0.47113855107E+03 -0.47355576623E+03 -0.41199932897E+03  0.78483759155E+03  0.25500000920E-02 0.  1.
       -2    1    3    3    0  502  0.47113855107E+03  0.47355576623E+03  0.84444448109E+03  0.10767140195E+04  0.25500000920E-02 0. -1.
</event>
<event>
 5   0  0.1330225E-04  0.1778802E+04  0.7818609E-02  0.8717654E-01
        1   -1    0    0  501    0  0.00000000000E+00  0.00000000000E+00  0.15849465713E+04  0.15849465714E+04  0.50400001928E-02 0. -1.
       -1   -1    0    0    0  501  0.00000000000E+00  0.00000000000E+00 -0.49909221277E+03  0.49909221280E+03  0.50400001928E-02 0.  1.
    10030    2    1    2    0    0  0.00000000000E+00  0.00000000000E+00  0.10858543586E+04  0.20840387842E+04  0.17788023965E+04 0.  0.
        3    1    3    3  502    0  0.15001290618E+03  0.29575575947E+03  0.15098025641E+04  0.15457940141E+04  0.10100000352E+00 0. -1.
       -3    1    3    3    0  502 -0.15001290618E+03 -0.29575575947E+03 -0.42394820555E+03  0.53824477003E+03  0.10100000352E+00 0.  1.
</event>
<event>
 5   0  0.1214723E-04  0.1796913E+04  0.7818609E-02  0.8707943E-01
       -1   -1    0    0    0  501  0.00000000000E+00  0.00000000000E+00  0.18385894986E+04  0.18385894987E+04  0.50400001928E-02 0. -1.
        1   -1    0    0  501    0  0.00000000000E+00  0.00000000000E+00 -0.43904541019E+03  0.43904541022E+03  0.50400001928E-02 0.  1.
    10030    2    1    2    0    0  0.00000000000E+00  0.00000000000E+00  0.13995440885E+04  0.22776349089E+04  0.17969132207E+04 0.  0.
        1    1    3    3  502    0  0.37984109068E+03 -0.96601749670E+02  0.17245207771E+04  0.17684974025E+04  0.50400001928E-02 0. -1.
       -1    1    3    3    0  502 -0.37984109068E+03  0.96601749670E+02 -0.32497668860E+03  0.50913750635E+03  0.50400001928E-02 0.  1.
</event>
<event>
 5   0  0.2417106E-04  0.1797189E+04  0.7818609E-02  0.8707796E-01
        2   -1    0    0  501    0  0.00000000000E+00  0.00000000000E+00  0.28507813063E+04  0.28507813063E+04  0.25500000920E-02 0.  1.
       -2   -1    0    0    0  501  0.00000000000E+00  0.00000000000E+00 -0.28324598248E+03  0.28324598249E+03  0.25500000920E-02 0. -1.
    10030    2    1    2    0    0  0.00000000000E+00  0.00000000000E+00  0.25675353238E+04  0.31340272888E+04  0.17971893077E+04 0.  0.
        4    1    3    3  502    0  0.79952027875E+03  0.92577067372E+02  0.19805823196E+04  0.21378753769E+04  0.12699999809E+01 0.  1.
       -4    1    3    3    0  502 -0.79952027875E+03 -0.92577067372E+02  0.58695300425E+03  0.99615191193E+03  0.12699999809E+01 0. -1.
</event>
<event>
 5   0  0.1239119E-04  0.1702865E+04  0.7818609E-02  0.8759732E-01
       -1   -1    0    0    0  501  0.00000000000E+00  0.00000000000E+00  0.61694136689E+03  0.61694136691E+03  0.50400001928E-02 0. -1.
        1   -1    0    0  501    0  0.00000000000E+00  0.00000000000E+00 -0.11750509538E+04  0.11750509538E+04  0.50400001928E-02 0.  1.
    10030    2    1    2    0    0  0.00000000000E+00  0.00000000000E+00 -0.55810958689E+03  0.17919923207E+04  0.17028652814E+04 0.  0.
        5    1    3    3  502    0  0.48604426700E+02 -0.39607394456E+03  0.51242655747E+03  0.64949212979E+03  0.46999998093E+01 0. -1.
       -5    1    3    3    0  502 -0.48604426700E+02  0.39607394456E+03 -0.10705361444E+04  0.11425001909E+04  0.46999998093E+01 0.  1.
</event>
<event>
 5   0  0.1308893E-04  0.1790266E+04  0.7818609E-02  0.8711493E-01
       -1   -1    0    0    0  501  0.00000000000E+00  0.00000000000E+00  0.83135877813E+03  0.83135877814E+03  0.50400001928E-02 0.  1.
        1   -1    0    0  501    0  0.00000000000E+00  0.00000000000E+00 -0.96379921894E+03  0.96379921895E+03  0.50400001928E-02 0. -1.
    10030    2    1    2    0    0  0.00000000000E+00  0.00000000000E+00 -0.13244044081E+03  0.17951579971E+04  0.17902658362E+04 0.  0.
        4    1    3    3  502    0  0.11491394374E+03 -0.87688438561E+03 -0.20490901300E+03  0.90781096969E+03  0.12699999809E+01 0. -1.
       -4    1    3    3    0  502 -0.11491394374E+03  0.87688438561E+03  0.72468572187E+02  0.88734702740E+03  0.12699999809E+01 0.  1.
</event>
<event>
 5   0  0.1253925E-04  0.1811641E+04  0.7818609E-02  0.8700133E-01
       -1   -1    0    0    0  501  0.00000000000E+00  0.00000000000E+00  0.50857525138E+03  0.50857525140E+03  0.50400001928E-02 0.  1.
        1   -1    0    0  501    0  0.00000000000E+00  0.00000000000E+00 -0.16133524518E+04  0.16133524518E+04  0.50400001928E-02 0. -1.
    10030    2    1    2    0    0  0.00000000000E+00  0.00000000000E+00 -0.11047772004E+04  0.21219277032E+04  0.18116413870E+04 0.  0.
        2    1    3    3  502    0 -0.74288458682E+03  0.59522923194E+02 -0.11554416899E+04  0.13749421757E+04  0.25500000920E-02 0. -1.
       -2    1    3    3    0  502  0.74288458682E+03 -0.59522923194E+02  0.50664489545E+02  0.74698552746E+03  0.25500000920E-02 0.  1.
</event>
<event>
 5   0  0.2431811E-04  0.1797064E+04  0.7818609E-02  0.8707862E-01
        2   -1    0    0  501    0  0.00000000000E+00  0.00000000000E+00  0.77961509471E+03  0.77961509472E+03  0.25500000920E-02 0.  1.
       -2   -1    0    0    0  501  0.00000000000E+00  0.00000000000E+00 -0.10355874860E+04  0.10355874860E+04  0.25500000920E-02 0. -1.
    10030    2    1    2    0    0  0.00000000000E+00  0.00000000000E+00 -0.25597239130E+03  0.18152025807E+04  0.17970638675E+04 0.  0.
        3    1    3    3  502    0 -0.52337435531E+03 -0.72623434901E+03 -0.20637479208E+03  0.91865532736E+03  0.10100000352E+00 0. -1.
       -3    1    3    3    0  502  0.52337435531E+03  0.72623434901E+03 -0.49597599222E+02  0.89654725337E+03  0.10100000352E+00 0.  1.
</event>
<event>
 5   0  0.2417106E-04  0.1801191E+04  0.7818609E-02  0.8705667E-01
        2   -1    0    0  501    0  0.00000000000E+00  0.00000000000E+00  0.15127156692E+04  0.15127156692E+04  0.25500000920E-02 0.  1.
       -2   -1    0    0    0  501  0.00000000000E+00  0.00000000000E+00 -0.53616943164E+03  0.53616943164E+03  0.25500000920E-02 0. -1.
    10030    2    1    2    0    0  0.00000000000E+00  0.00000000000E+00  0.97654623760E+03  0.20488851009E+04  0.18011906069E+04 0.  0.
        4    1    3    3  502    0  0.29130139117E+03  0.81507424109E+03  0.77121038800E+03  0.11592970260E+04  0.12699999809E+01 0.  1.
       -4    1    3    3    0  502 -0.29130139117E+03 -0.81507424109E+03  0.20533584960E+03  0.88958807490E+03  0.12699999809E+01 0. -1.
</event>
<event>
 5   0  0.2550616E-04  0.1840578E+04  0.7818609E-02  0.8685013E-01
       -2   -1    0    0    0  501  0.00000000000E+00  0.00000000000E+00  0.12995940798E+04  0.12995940798E+04  0.25500000920E-02 0.  1.
        2   -1    0    0  501    0  0.00000000000E+00  0.00000000000E+00 -0.65168953304E+03  0.65168953304E+03  0.25500000920E-02 0. -1.
    10030    2    1    2    0    0  0.00000000000E+00  0.00000000000E+00  0.64790454674E+03  0.19512836128E+04  0.18405780168E+04 0.  0.
        1    1    3    3  502    0 -0.41829718251E+03 -0.48748350493E+03 -0.37471541747E+03  0.74365606606E+03  0.50400001928E-02 0. -1.
       -1    1    3    3    0  502  0.41829718251E+03  0.48748350493E+03  0.10226199642E+04  0.12076275468E+04  0.50400001928E-02 0.  1.
</event>
<event>
 5   0  0.2431811E-04  0.1812123E+04  0.7818609E-02  0.8699879E-01
        2   -1    0    0  501    0  0.00000000000E+00  0.00000000000E+00  0.14319523165E+04  0.14319523165E+04  0.25500000920E-02 0.  1.
       -2   -1    0    0    0  501  0.00000000000E+00  0.00000000000E+00 -0.57330609541E+03  0.57330609542E+03  0.25500000920E-02 0. -1.
    10030    2    1    2    0    0  0.00000000000E+00  0.00000000000E+00  0.85864622106E+03  0.20052584119E+04  0.18121225029E+04 0.  0.
        3    1    3    3  502    0 -0.21672071417E+03 -0.36704367050E+03  0.13140737774E+04  0.13814770453E+04  0.10100000352E+00 0.  1.
       -3    1    3    3    0  502  0.21672071417E+03  0.36704367050E+03 -0.45542755636E+03  0.62378136658E+03  0.10100000352E+00 0. -1.
</event>
<event>
 5   0  0.1239119E-04  0.1848846E+04  0.7818609E-02  0.8680746E-01
       -1   -1    0    0    0  501  0.00000000000E+00  0.00000000000E+00  0.10985095227E+04  0.10985095227E+04  0.50400001928E-02 0.  1.
        1   -1    0    0  501    0  0.00000000000E+00  0.00000000000E+00 -0.77792522117E+03  0.77792522118E+03  0.50400001928E-02 0. -1.
    10030    2    1    2    0    0  0.00000000000E+00  0.00000000000E+00  0.32058430153E+03  0.18764347439E+04  0.18488464116E+04 0.  0.
        5    1    3    3  502    0  0.36134700278E+03 -0.83047099094E+03  0.34821022709E+03  0.97032271717E+03  0.46999998093E+01 0. -1.
       -5    1    3    3    0  502 -0.36134700278E+03  0.83047099094E+03 -0.27625925568E+02  0.90611202672E+03  0.46999998093E+01 0.  1.
</event>
<event>
 5   0  0.1308893E-04  0.1806624E+04  0.7818609E-02  0.8702785E-01
       -1   -1    0    0    0  501  0.00000000000E+00  0.00000000000E+00  0.41341593532E+03  0.41341593535E+03  0.50400001928E-02 0.  1.
        1   -1    0    0  501    0  0.00000000000E+00  0.00000000000E+00 -0.19737335755E+04  0.19737335755E+04  0.50400001928E-02 0. -1.
    10030    2    1    2    0    0  0.00000000000E+00  0.00000000000E+00 -0.15603176401E+04  0.23871495108E+04  0.18066243796E+04 0.  0.
        4    1    3    3  502    0 -0.66180192029E+02 -0.78681376644E+03 -0.13599140741E+04  0.15725214220E+04  0.12699999809E+01 0. -1.
       -4    1    3    3    0  502  0.66180192029E+02  0.78681376644E+03 -0.20040356602E+03  0.81462808879E+03  0.12699999809E+01 0.  1.
</event>
<event>
 5   0  0.1239119E-04  0.1801599E+04  0.7818609E-02  0.8705450E-01
        1   -1    0    0  501    0  0.00000000000E+00  0.00000000000E+00  0.74431049484E+03  0.74431049485E+03  0.50400001928E-02 0. -1.
       -1   -1    0    0    0  501  0.00000000000E+00  0.00000000000E+00 -0.10901899962E+04  0.10901899962E+04  0.50400001928E-02 0.  1.
    10030    2    1    2    0    0  0.00000000000E+00  0.00000000000E+00 -0.34587950139E+03  0.18345004911E+04  0.18015991292E+04 0.  0.
        5    1    3    3  502    0 -0.46167606241E+03  0.37009728463E+03 -0.86453477041E+03  0.10476446182E+04  0.46999998093E+01 0.  1.
       -5    1    3    3    0  502  0.46167606241E+03 -0.37009728463E+03  0.51865526903E+03  0.78685587294E+03  0.46999998093E+01 0. -1.
</event>
<event>
 5   0  0.1214723E-04  0.1805189E+04  0.7818609E-02  0.8703545E-01
        1   -1    0    0  501    0  0.00000000000E+00  0.00000000000E+00  0.12621903194E+04  0.12621903194E+04  0.50400001928E-02 0. -1.
       -1   -1    0    0    0  501  0.00000000000E+00  0.00000000000E+00 -0.64544723781E+03  0.64544723783E+03  0.50400001928E-02 0.  1.
    10030    2    1    2    0    0  0.00000000000E+00  0.00000000000E+00  0.61674308163E+03  0.19076375573E+04  0.18051894696E+04 0.  0.
        1    1    3    3  502    0  0.82641789153E+02  0.29861670315E+03 -0.58748720805E+03  0.66418583271E+03  0.50400001928E-02 0.  1.
       -1    1    3    3    0  502 -0.82641789153E+02 -0.29861670315E+03  0.12042302897E+04  0.12434517246E+04  0.50400001928E-02 0. -1.
</event>
<event>
 5   0  0.2417106E-04  0.1813680E+04  0.7818609E-02  0.8699058E-01
        2   -1    0    0  501    0  0.00000000000E+00  0.00000000000E+00  0.16430847495E+04  0.16430847495E+04  0.25500000920E-02 0. -1.
       -2   -1    0    0    0  501  0.00000000000E+00  0.00000000000E+00 -0.50049688395E+03  0.50049688395E+03  0.25500000920E-02 0.  1.
    10030    2    1    2    0    0  0.00000000000E+00  0.00000000000E+00  0.11425878655E+04  0.21435816334E+04  0.18136800128E+04 0.  0.
        4    1    3    3  502    0 -0.81353109972E+03  0.15906625326E+03  0.13668018768E+03  0.84012975768E+03  0.12699999809E+01 0.  1.
       -4    1    3    3    0  502  0.81353109972E+03 -0.15906625326E+03  0.10059076779E+04  0.13034518758E+04  0.12699999809E+01 0. -1.
</event>
<event>
 5   0  0.2550616E-04  0.1803138E+04  0.7818609E-02  0.8704633E-01
        2   -1    0    0  501    0  0.00000000000E+00  0.00000000000E+00  0.10578291340E+04  0.10578291340E+04  0.25500000920E-02 0. -1.
       -2   -1    0    0    0  501  0.00000000000E+00  0.00000000000E+00 -0.76839085042E+03  0.76839085043E+03  0.25500000920E-02 0.  1.
    10030    2    1    2    0    0  0.00000000000E+00  0.00000000000E+00  0.28943828356E+03  0.18262199844E+04  0.18031375187E+04 0.  0.
        1    1    3    3  502    0  0.41583725799E+03  0.62080255667E+03 -0.36622860209E+03  0.83212969452E+03  0.50400001928E-02 0.  1.
       -1    1    3    3    0  502 -0.41583725799E+03 -0.62080255667E+03  0.65566688565E+03  0.99409028989E+03  0.50400001928E-02 0. -1.
</event>
<event>
 5   0  0.2569405E-04  0.1783585E+04  0.7818609E-02  0.8715078E-01
       -2   -1    0    0    0  501  0.00000000000E+00  0.00000000000E+00  0.64399222644E+03  0.64399222644E+03  0.25500000920E-02 0. -1.
        2   -1    0    0  501    0  0.00000000000E+00  0.00000000000E+00 -0.12349434578E+04  0.12349434578E+04  0.25500000920E-02 0.  1.
    10030    2    1    2    0    0  0.00000000000E+00  0.00000000000E+00 -0.59095123138E+03  0.18789356843E+04  0.17835851389E+04 0.  0.
        2    1    3    3  502    0  0.35550030327E+02  0.50590157298E+02 -0.12326826140E+04  0.12342323912E+04  0.25500000920E-02 0.  1.
       -2    1    3    3    0  502 -0.35550030327E+02 -0.50590157298E+02  0.64173138260E+03  0.64470329307E+03  0.25500000920E-02 0. -1.
</event>
<event>
 5   0  0.1330225E-04  0.2016880E+04  0.7818609E-02  0.8598769E-01
       -1   -1    0    0    0  501  0.00000000000E+00  0.00000000000E+00  0.86373120405E+03  0.86373120406E+03  0.50400001928E-02 0. -1.
        1   -1    0    0  501    0  0.00000000000E+00  0.00000000000E+00 -0.11773934400E+04  0.11773934400E+04  0.50400001928E-02 0.  1.
    10030    2    1    2    0    0  0.00000000000E+00  0.00000000000E+00 -0.31366223596E+03  0.20411246441E+04  0.20168802182E+04 0.  0.
        3    1    3    3  502    0 -0.25327378699E+03  0.96486472897E+03 -0.30639082772E+03  0.10435453540E+04  0.10100000352E+00 0.  1.
       -3    1    3    3    0  502  0.25327378699E+03 -0.96486472897E+03 -0.72714082320E+01  0.99757929006E+03  0.10100000352E+00 0. -1.
</event>
<event>
 5   0  0.2431811E-04  0.1786232E+04  0.7818609E-02  0.8713656E-01
       -2   -1    0    0    0  501  0.00000000000E+00  0.00000000000E+00  0.10782628157E+04  0.10782628157E+04  0.25500000920E-02 0.  1.
        2   -1    0    0  501    0  0.00000000000E+00  0.00000000000E+00 -0.73976039101E+03  0.73976039102E+03  0.25500000920E-02 0. -1.
    10030    2    1    2    0    0  0.00000000000E+00  0.00000000000E+00  0.33850242469E+03  0.18180232067E+04  0.17862319247E+04 0.  0.
        3    1    3    3  502    0 -0.65072338216E+03 -0.58451713136E+03 -0.14389876246E+02  0.87481899596E+03  0.10100000352E+00 0.  1.
       -3    1    3    3    0  502  0.65072338216E+03  0.58451713136E+03  0.35289230093E+03  0.94320421076E+03  0.10100000352E+00 0. -1.
</event>
<event>
 5   0  0.2393421E-04  0.1829090E+04  0.7818609E-02  0.8690981E-01
        2   -1    0    0  501    0  0.00000000000E+00  0.00000000000E+00  0.80912472643E+03  0.80912472644E+03  0.25500000920E-02 0. -1.
       -2   -1    0    0    0  501  0.00000000000E+00  0.00000000000E+00 -0.10337008138E+04  0.10337008138E+04  0.25500000920E-02 0.  1.
    10030    2    1    2    0    0  0.00000000000E+00  0.00000000000E+00 -0.22457608732E+03  0.18428255402E+04  0.18290903621E+04 0.  0.
        5    1    3    3  502    0  0.76726266970E+03 -0.11861042020E+03 -0.59925008860E+03  0.98075644010E+03  0.46999998093E+01 0.  1.
       -5    1    3    3    0  502 -0.76726266970E+03  0.11861042020E+03  0.37467400128E+03  0.86206910009E+03  0.46999998093E+01 0. -1.
</event>
<event>
 5   0  0.2550616E-04  0.1820933E+04  0.7818609E-02  0.8695246E-01
        2   -1    0    0  501    0  0.00000000000E+00  0.00000000000E+00  0.17528910091E+04  0.17528910091E+04  0.25500000920E-02 0. -1.
       -2   -1    0    0    0  501  0.00000000000E+00  0.00000000000E+00 -0.47290394680E+03  0.47290394680E+03  0.25500000920E-02 0.  1.
    10030    2    1    2    0    0  0.00000000000E+00  0.00000000000E+00  0.12799870623E+04  0.22257949559E+04  0.18209328120E+04 0.  0.
        1    1    3    3  502    0  0.12867215460E+03  0.34516759804E+03  0.16577333368E+04  0.16981687225E+04  0.50400001928E-02 0. -1.
       -1    1    3    3    0  502 -0.12867215460E+03 -0.34516759804E+03 -0.37774627458E+03  0.52762623332E+03  0.50400001928E-02 0.  1.
</event>
<event>
 5   0  0.1330225E-04  0.1694717E+04  0.7818609E-02  0.8764383E-01
        1   -1    0    0  501    0  0.00000000000E+00  0.00000000000E+00  0.10490109490E+04  0.10490109491E+04  0.50400001928E-02 0.  1.
       -1   -1    0    0    0  501  0.00000000000E+00  0.00000000000E+00 -0.68447009315E+03  0.68447009317E+03  0.50400001928E-02 0. -1.
    10030    2    1    2    0    0  0.00000000000E+00  0.00000000000E+00  0.36454085589E+03  0.17334810422E+04  0.16947172295E+04 0.  0.
        3    1    3    3  502    0 -0.17642036408E+03  0.26720229094E+03  0.98475050367E+03  0.10354973558E+04  0.10100000352E+00 0.  1.
       -3    1    3    3    0  502  0.17642036408E+03 -0.26720229094E+03 -0.62020964777E+03  0.69798368644E+03  0.10100000352E+00 0. -1.
</event>
<event>
 5   0  0.1308893E-04  0.1957227E+04  0.7818609E-02  0.8626884E-01
       -1   -1    0    0    0  501  0.00000000000E+00  0.00000000000E+00  0.96481707281E+03  0.96481707283E+03  0.50400001928E-02 0. -1.
        1   -1    0    0  501    0  0.00000000000E+00  0.00000000000E+00 -0.99260707141E+03  0.99260707142E+03  0.50400001928E-02 0.  1.
    10030    2    1    2    0    0  0.00000000000E+00  0.00000000000E+00 -0.27789998597E+02  0.19574241442E+04  0.19572268638E+04 0.  0.
        4    1    3    3  502    0  0.35920922029E+03 -0.44625506425E+03  0.77960024322E+03  0.96744663855E+03  0.12699999809E+01 0. -1.
       -4    1    3    3    0  502 -0.35920922029E+03  0.44625506425E+03 -0.80739024182E+03  0.98997750570E+03  0.12699999809E+01 0.  1.
</event>
<event>
 5   0  0.1330225E-04  0.1634619E+04  0.7818609E-02  0.8799558E-01
       -1   -1    0    0    0  501  0.00000000000E+00  0.00000000000E+00  0.62911080892E+03  0.62911080894E+03  0.50400001928E-02 0.  1.
        1   -1    0    0  501    0  0.00000000000E+00  0.00000000000E+00 -0.10618073870E+04  0.10618073870E+04  0.50400001928E-02 0. -1.
    10030    2    1    2    0    0  0.00000000000E+00  0.00000000000E+00 -0.43269657806E+03  0.16909181959E+04  0.16346186150E+04 0.  0.
        3    1    3    3  502    0 -0.35587210945E+03 -0.36068390601E+03  0.44703209739E+03  0.67570374029E+03  0.10100000352E+00 0.  1.
       -3    1    3    3    0  502  0.35587210945E+03  0.36068390601E+03 -0.87972867545E+03  0.10152144556E+04  0.10100000352E+00 0. -1.
</event>
<event>
 5   0  0.2417106E-04  0.1749353E+04  0.7818609E-02  0.8733707E-01
        2   -1    0    0  501    0  0.00000000000E+00  0.00000000000E+00  0.64410914825E+03  0.64410914826E+03  0.25500000920E-02 0. -1.
       -2   -1    0    0    0  501  0.00000000000E+00  0.00000000000E+00 -0.11877780731E+04  0.11877780731E+04  0.25500000920E-02 0.  1.
    10030    2    1    2    0    0  0.00000000000E+00  0.00000000000E+00 -0.54366892488E+03  0.18318872214E+04  0.17493527066E+04 0.  0.
        4    1    3    3  502    0 -0.32454275274E+03  0.48859623104E+02 -0.11208526484E+04  0.11679158931E+04  0.12699999809E+01 0.  1.
       -4    1    3    3    0  502  0.32454275274E+03 -0.48859623104E+02  0.57718372353E+03  0.66397132824E+03  0.12699999809E+01 0. -1.
</event>
<event>
 5   0  0.2393421E-04  0.1795650E+04  0.7818609E-02  0.8708616E-01
        2   -1    0    0  501    0  0.00000000000E+00  0.00000000000E+00  0.12237695047E+04  0.12237695047E+04  0.25500000920E-02 0. -1.
       -2   -1    0    0    0  501  0.00000000000E+00  0.00000000000E+00 -0.65869418856E+03  0.65869418856E+03  0.25500000920E-02 0.  1.
    10030    2    1    2    0    0  0.00000000000E+00  0.00000000000E+00  0.56507531612E+03  0.18824636932E+04  0.17956501451E+04 0.  0.
        5    1    3    3  502    0  0.80963365308E+03  0.36053495219E+03  0.13216050991E+03  0.89609184481E+03  0.46999998093E+01 0.  1.
       -5    1    3    3    0  502 -0.80963365308E+03 -0.36053495219E+03  0.43291480621E+03  0.98637184844E+03  0.46999998093E+01 0. -1.
</event>
<event>
 5   0  0.2569405E-04  0.1792782E+04  0.7818609E-02  0.8710147E-01
        2   -1    0    0  501    0  0.00000000000E+00  0.00000000000E+00  0.19776492859E+04  0.19776492859E+04  0.25500000920E-02 0.  1.
       -2   -1    0    0    0  501  0.00000000000E+00  0.00000000000E+00 -0.40629908394E+03  0.40629908395E+03  0.25500000920E-02 0. -1.
    10030    2    1    2    0    0  0.00000000000E+00  0.00000000000E+00  0.15713502020E+04  0.23839483699E+04  0.17927822994E+04 0.  0.
        2    1    3    3  502    0 -0.68078956896E+02 -0.61619189792E+03 -0.75268478683E+02  0.62449382969E+03  0.25500000920E-02 0. -1.
       -2    1    3    3    0  502  0.68078956896E+02  0.61619189792E+03  0.16466186807E+04  0.17594545402E+04  0.25500000920E-02 0.  1.
</event>
<event>
 5   0  0.2431811E-04  0.1787079E+04  0.7818609E-02  0.8713201E-01
       -2   -1    0    0    0  501  0.00000000000E+00  0.00000000000E+00  0.49215264070E+03  0.49215264071E+03  0.25500000920E-02 0. -1.
        2   -1    0    0  501    0  0.00000000000E+00  0.00000000000E+00 -0.16222872598E+04  0.16222872598E+04  0.25500000920E-02 0.  1.
    10030    2    1    2    0    0  0.00000000000E+00  0.00000000000E+00 -0.11301346191E+04  0.21144399005E+04  0.17870791352E+04 0.  0.
        3    1    3    3  502    0  0.18837591682E+02 -0.81489967467E+03 -0.13195704802E+03  0.82572937901E+03  0.10100000352E+00 0. -1.
       -3    1    3    3    0  502 -0.18837591682E+02  0.81489967467E+03 -0.99817757110E+03  0.12887105215E+04  0.10100000352E+00 0.  1.
</event>
<event>
 5   0  0.2569405E-04  0.1798228E+04  0.7818609E-02  0.8707242E-01
       -2   -1    0    0    0  501  0.00000000000E+00  0.00000000000E+00  0.55477371849E+03  0.55477371849E+03  0.25500000920E-02 0. -1.
        2   -1    0    0  501    0  0.00000000000E+00  0.00000000000E+00 -0.14571813024E+04  0.14571813024E+04  0.25500000920E-02 0.  1.
    10030    2    1    2    0    0  0.00000000000E+00  0.00000000000E+00 -0.90240758389E+03  0.20119550209E+04  0.17982278939E+04 0.  0.
        2    1    3    3  502    0  0.29126770717E+03  0.42201759790E+03 -0.12775442867E+04  0.13766100154E+04  0.25500000920E-02 0.  1.
       -2    1    3    3    0  502 -0.29126770717E+03 -0.42201759790E+03  0.37513670277E+03  0.63534500545E+03  0.25500000920E-02 0. -1.
</event>
<event>
 5   0  0.2431811E-04  0.1742182E+04  0.7818609E-02  0.8737666E-01
       -2   -1    0    0    0  501  0.00000000000E+00  0.00000000000E+00  0.68790338146E+03  0.68790338146E+03  0.25500000920E-02 0. -1.
        2   -1    0    0  501    0  0.00000000000E+00  0.00000000000E+00 -0.11030606174E+04  0.11030606174E+04  0.25500000920E-02 0.  1.
    10030    2    1    2    0    0  0.00000000000E+00  0.00000000000E+00 -0.41515723593E+03  0.17909639989E+04  0.17421815389E+04 0.  0.
        3    1    3    3  502    0  0.46201819752E+03 -0.60943259716E+03 -0.63630574443E+03  0.99486376752E+03  0.10100000352E+00 0.  1.
       -3    1    3    3    0  502 -0.46201819752E+03  0.60943259716E+03  0.22114850850E+03  0.79610023134E+03  0.10100000352E+00 0. -1.
</event>
<event>
 5   0  0.2431811E-04  0.1831883E+04  0.7818609E-02  0.8689526E-01
       -2   -1    0    0    0  501  0.00000000000E+00  0.00000000000E+00  0.10384827136E+04  0.10384827136E+04  0.25500000920E-02 0.  1.
        2   -1    0    0  501    0  0.00000000000E+00  0.00000000000E+00 -0.80786035498E+03  0.80786035498E+03  0.25500000920E-02 0. -1.
    10030    2    1    2    0    0  0.00000000000E+00  0.00000000000E+00  0.23062235862E+03  0.18463430686E+04  0.18318831990E+04 0.  0.
        3    1    3    3  502    0 -0.30781191762E+03  0.37938494936E+03 -0.66557399211E+03  0.82563300903E+03  0.10100000352E+00 0. -1.
       -3    1    3    3    0  502  0.30781191762E+03 -0.37938494936E+03  0.89619635073E+03  0.10207100596E+04  0.10100000352E+00 0.  1.
</event>
<event>
 5   0  0.2417106E-04  0.1796468E+04  0.7818609E-02  0.8708180E-01
       -2   -1    0    0    0  501  0.00000000000E+00  0.00000000000E+00  0.48249124227E+03  0.48249124228E+03  0.25500000920E-02 0. -1.
        2   -1    0    0  501    0  0.00000000000E+00  0.00000000000E+00 -0.16722051099E+04  0.16722051099E+04  0.25500000920E-02 0.  1.
    10030    2    1    2    0    0  0.00000000000E+00  0.00000000000E+00 -0.11897138676E+04  0.21546963522E+04  0.17964680023E+04 0.  0.
        4    1    3    3  502    0 -0.40180190193E+02 -0.33320199117E+02  0.48066949767E+03  0.48349711710E+03  0.12699999809E+01 0. -1.
       -4    1    3    3    0  502  0.40180190193E+02  0.33320199117E+02 -0.16703833653E+04  0.16711992351E+04  0.12699999809E+01 0.  1.
</event>
<event>
 5   0  0.1330225E-04  0.1814363E+04  0.7818609E-02  0.8698699E-01
        1   -1    0    0  501    0  0.00000000000E+00  0.00000000000E+00  0.20873026591E+04  0.20873026591E+04  0.50400001928E-02 0.  1.
       -1   -1    0    0    0  501  0.00000000000E+00  0.00000000000E+00 -0.39427826183E+03  0.39427826187E+03  0.50400001928E-02 0. -1.
    10030    2    1    2    0    0  0.00000000000E+00  0.00000000000E+00  0.16930243972E+04  0.24815809209E+04  0.18143627690E+04 0.  0.
        3    1    3    3  502    0 -0.64014888398E+03 -0.57483449547E+03  0.12399676514E+04  0.15092200229E+04  0.10100000352E+00 0.  1.
       -3    1    3    3    0  502  0.64014888398E+03  0.57483449547E+03  0.45305674583E+03  0.97236089802E+03  0.10100000352E+00 0. -1.
</event>
<event>
 5   0  0.1253925E-04  0.1792473E+04  0.7818609E-02  0.8710312E-01
        1   -1    0    0  501    0  0.00000000000E+00  0.00000000000E+00  0.16028776933E+04  0.16028776933E+04  0.50400001928E-02 0. -1.
       -1   -1    0    0    0  501  0.00000000000E+00  0.00000000000E+00 -0.50112377413E+03  0.50112377415E+03  0.50400001928E-02 0.  1.
    10030    2    1    2    0    0  0.00000000000E+00  0.00000000000E+00  0.11017539191E+04  0.21040014674E+04  0.17924732848E+04 0.  0.
        2    1    3    3  502    0 -0.24285302423E+03  0.39557252637E+03  0.14507941767E+04  0.15232396260E+04  0.25500000920E-02 0. -1.
       -2    1    3    3    0  502  0.24285302423E+03 -0.39557252637E+03 -0.34904025760E+03  0.58076184141E+03  0.25500000920E-02 0.  1.
</event>
<event>
 5   0  0.1253925E-04  0.1799463E+04  0.7818609E-02  0.8706585E-01
        1   -1    0    0  501    0  0.00000000000E+00  0.00000000000E+00  0.24940639168E+04  0.24940639168E+04  0.50400001928E-02 0.  1.
       -1   -1    0    0    0  501  0.00000000000E+00  0.00000000000E+00 -0.32457745333E+03  0.32457745337E+03  0.50400001928E-02 0. -1.
    10030    2    1    2    0    0  0.00000000000E+00  0.00000000000E+00  0.21694864635E+04  0.28186413702E+04  0.17994631584E+04 0.  0.
        2    1    3    3  502    0 -0.10365189667E+03  0.12678614200E+03  0.24705226465E+04  0.24759443831E+04  0.25500000920E-02 0.  1.
       -2    1    3    3    0  502  0.10365189667E+03 -0.12678614200E+03 -0.30103618299E+03  0.34269698709E+03  0.25500000920E-02 0. -1.
</event>
<event>
 5   0  0.1330225E-04  0.1774624E+04  0.7818609E-02  0.8719912E-01
       -1   -1    0    0    0  501  0.00000000000E+00  0.00000000000E+00  0.38507306775E+03  0.38507306778E+03  0.50400001928E-02 0.  1.
        1   -1    0    0  501    0  0.00000000000E+00  0.00000000000E+00 -0.20446056335E+04  0.20446056335E+04  0.50400001928E-02 0. -1.
    10030    2    1    2    0    0  0.00000000000E+00  0.00000000000E+00 -0.16595325657E+04  0.24296787013E+04  0.17746239756E+04 0.  0.
        3    1    3    3  502    0  0.63695549656E+03 -0.34007262420E+03 -0.12369041972E+03  0.73257151491E+03  0.10100000352E+00 0.  1.
       -3    1    3    3    0  502 -0.63695549656E+03  0.34007262420E+03 -0.15358421460E+04  0.16971071864E+04  0.10100000352E+00 0. -1.
</event>
<event>
 5   0  0.2550616E-04  0.1717489E+04  0.7818609E-02  0.8751452E-01
       -2   -1    0    0    0  501  0.00000000000E+00  0.00000000000E+00  0.11726839036E+04  0.11726839036E+04  0.25500000920E-02 0.  1.
        2   -1    0    0  501    0  0.00000000000E+00  0.00000000000E+00 -0.62884999679E+03  0.62884999680E+03  0.25500000920E-02 0. -1.
    10030    2    1    2    0    0  0.00000000000E+00  0.00000000000E+00  0.54383390682E+03  0.18015339004E+04  0.17174891779E+04 0.  0.
        1    1    3    3  502    0 -0.35709616482E+03  0.55311332284E+03  0.85025033025E+03  0.10753500095E+04  0.50400001928E-02 0.  1.
       -1    1    3    3    0  502  0.35709616482E+03 -0.55311332284E+03 -0.30641642343E+03  0.72618389090E+03  0.50400001928E-02 0. -1.
</event>
<event>
 5   0  0.1330225E-04  0.1884097E+04  0.7818609E-02  0.8662813E-01
        1   -1    0    0  501    0  0.00000000000E+00  0.00000000000E+00  0.13472909174E+04  0.13472909174E+04  0.50400001928E-02 0.  1.
       -1   -1    0    0    0  501  0.00000000000E+00  0.00000000000E+00 -0.65869644093E+03  0.65869644095E+03  0.50400001928E-02 0. -1.
    10030    2    1    2    0    0  0.00000000000E+00  0.00000000000E+00  0.68859447650E+03  0.20059873584E+04  0.18840973778E+04 0.  0.
        3    1    3    3  502    0 -0.85321133540E+03 -0.31193678501E+03  0.60979186002E+03  0.10941299116E+04  0.10100000352E+00 0.  1.
       -3    1    3    3    0  502  0.85321133540E+03  0.31193678501E+03  0.78802616477E+02  0.91185744679E+03  0.10100000352E+00 0. -1.
</event>
<event>
 5   0  0.2431811E-04  0.1788393E+04  0.7818609E-02  0.8712496E-01
        2   -1    0    0  501    0  0.00000000000E+00  0.00000000000E+00  0.13632215563E+04  0.13632215564E+04  0.25500000920E-02 0.  1.
       -2   -1    0    0    0  501  0.00000000000E+00  0.00000000000E+00 -0.58654275542E+03  0.58654275542E+03  0.25500000920E-02 0. -1.
    10030    2    1    2    0    0  0.00000000000E+00  0.00000000000E+00  0.77667880093E+03  0.19497643118E+04  0.17883933884E+04 0.  0.
        3    1    3    3  502    0  0.44641101789E+03  0.98501260651E+02  0.12261901706E+04  0.13086357935E+04  0.10100000352E+00 0.  1.
       -3    1    3    3    0  502 -0.44641101789E+03 -0.98501260651E+02 -0.44951136971E+03  0.64112851827E+03  0.10100000352E+00 0. -1.
</event>
<event>
 5   0  0.1214723E-04  0.1725350E+04  0.7818609E-02  0.8747037E-01
       -1   -1    0    0    0  501  0.00000000000E+00  0.00000000000E+00  0.13497261875E+04  0.13497261875E+04  0.50400001928E-02 0. -1.
        1   -1    0    0  501    0  0.00000000000E+00  0.00000000000E+00 -0.55137728148E+03  0.55137728151E+03  0.50400001928E-02 0.  1.
    10030    2    1    2    0    0  0.00000000000E+00  0.00000000000E+00  0.79834890604E+03  0.19011034690E+04  0.17253502323E+04 0.  0.
        1    1    3    3  502    0 -0.55204361403E+02  0.83590116462E+03  0.62614285513E+03  0.10458647874E+04  0.50400001928E-02 0. -1.
       -1    1    3    3    0  502  0.55204361403E+02 -0.83590116462E+03  0.17220605090E+03  0.85523868161E+03  0.50400001928E-02 0.  1.
</event>
<event>
 5   0  0.2417106E-04  0.1804714E+04  0.7818609E-02  0.8703797E-01
       -2   -1    0    0    0  501  0.00000000000E+00  0.00000000000E+00  0.42264118136E+03  0.42264118137E+03  0.25500000920E-02 0. -1.
        2   -1    0    0  501    0  0.00000000000E+00  0.00000000000E+00 -0.19265704853E+04  0.19265704854E+04  0.25500000920E-02 0.  1.
    10030    2    1    2    0    0  0.00000000000E+00  0.00000000000E+00 -0.15039293040E+04  0.23492116667E+04  0.18047138564E+04 0.  0.
        4    1    3    3  502    0 -0.43636156756E+03  0.37721107219E+03 -0.16552668101E+04  0.17528860306E+04  0.12699999809E+01 0.  1.
       -4    1    3    3    0  502  0.43636156756E+03 -0.37721107219E+03  0.15133750614E+03  0.59632563612E+03  0.12699999809E+01 0. -1.
</event>
<event>
 5   0  0.2417106E-04  0.1803258E+04  0.7818609E-02  0.8704569E-01
       -2   -1    0    0    0  501  0.00000000000E+00  0.00000000000E+00  0.65657755064E+03  0.65657755065E+03  0.25500000920E-02 0. -1.
        2   -1    0    0  501    0  0.00000000000E+00  0.00000000000E+00 -0.12381401356E+04  0.12381401356E+04  0.25500000920E-02 0.  1.
    10030    2    1    2    0    0  0.00000000000E+00  0.00000000000E+00 -0.58156258495E+03  0.18947176862E+04  0.18032581818E+04 0.  0.
        4    1    3    3  502    0 -0.57606425586E+03  0.15713268393E+03 -0.10006138926E+04  0.11652340890E+04  0.12699999809E+01 0.  1.
       -4    1    3    3    0  502  0.57606425586E+03 -0.15713268393E+03  0.41905130767E+03  0.72948359721E+03  0.12699999809E+01 0. -1.
</event>
<event>
 5   0  0.1239119E-04  0.1764022E+04  0.7818609E-02  0.8725670E-01
        1   -1    0    0  501    0  0.00000000000E+00  0.00000000000E+00  0.69627527931E+03  0.69627527933E+03  0.50400001928E-02 0. -1.
       -1   -1    0    0    0  501  0.00000000000E+00  0.00000000000E+00 -0.11172928787E+04  0.11172928787E+04  0.50400001928E-02 0.  1.
    10030    2    1    2    0    0  0.00000000000E+00  0.00000000000E+00 -0.42101759936E+03  0.18135681580E+04  0.17640220080E+04 0.  0.
        5    1    3    3  502    0 -0.19787619567E+03 -0.39497975040E+03 -0.99533547359E+03  0.10889806183E+04  0.46999998093E+01 0.  1.
       -5    1    3    3    0  502  0.19787619567E+03  0.39497975040E+03  0.57431787423E+03  0.72458753971E+03  0.46999998093E+01 0. -1.
</event>
<event>
 5   0  0.1330225E-04  0.1796092E+04  0.7818609E-02  0.8708381E-01
       -1   -1    0    0    0  501  0.00000000000E+00  0.00000000000E+00  0.53882758554E+03  0.53882758556E+03  0.50400001928E-02 0. -1.
        1   -1    0    0  501    0  0.00000000000E+00  0.00000000000E+00 -0.14967427373E+04  0.14967427373E+04  0.50400001928E-02 0.  1.
    10030    2    1    2    0    0  0.00000000000E+00  0.00000000000E+00 -0.95791515172E+03  0.20355703228E+04  0.17960916183E+04 0.  0.
        3    1    3    3  502    0  0.13922479643E+03 -0.68317532216E+03  0.16252725629E+03  0.71591003903E+03  0.10100000352E+00 0.  1.
       -3    1    3    3    0  502 -0.13922479643E+03  0.68317532216E+03 -0.11204424080E+04  0.13196602838E+04  0.10100000352E+00 0. -1.
</event>
<event>
 5   0  0.1253925E-04  0.1798693E+04  0.7818609E-02  0.8706995E-01
        1   -1    0    0  501    0  0.00000000000E+00  0.00000000000E+00  0.10744631133E+04  0.10744631133E+04  0.50400001928E-02 0.  1.
       -1   -1    0    0    0  501  0.00000000000E+00  0.00000000000E+00 -0.75277024664E+03  0.75277024665E+03  0.50400001928E-02 0. -1.
    10030    2    1    2    0    0  0.00000000000E+00  0.00000000000E+00  0.32169286664E+03  0.18272333599E+04  0.17986927062E+04 0.  0.
        2    1    3    3  502    0 -0.87509630099E+03 -0.17489585976E+03  0.47533876410E+02  0.89366748133E+03  0.25500000920E-02 0. -1.
       -2    1    3    3    0  502  0.87509630099E+03  0.17489585976E+03  0.27415899023E+03  0.93356587861E+03  0.25500000920E-02 0.  1.
</event>
<event>
 5   0  0.2417106E-04  0.1809719E+04  0.7818609E-02  0.8701148E-01
        2   -1    0    0  501    0  0.00000000000E+00  0.00000000000E+00  0.92954054895E+03  0.92954054895E+03  0.25500000920E-02 0.  1.
       -2   -1    0    0    0  501  0.00000000000E+00  0.00000000000E+00 -0.88083401166E+03  0.88083401166E+03  0.25500000920E-02 0. -1.
    10030    2    1    2    0    0  0.00000000000E+00  0.00000000000E+00  0.48706537292E+02  0.18103745606E+04  0.18097192387E+04 0.  0.
        4    1    3    3  502    0  0.13381456082E+03  0.65529892651E+02  0.91718349538E+03  0.92920809328E+03  0.12699999809E+01 0.  1.
       -4    1    3    3    0  502 -0.13381456082E+03 -0.65529892651E+02 -0.86847695809E+03  0.88116646733E+03  0.12699999809E+01 0. -1.
</event>
<event>
 5   0  0.1330225E-04  0.1763500E+04  0.7818609E-02  0.8725954E-01
       -1   -1    0    0    0  501  0.00000000000E+00  0.00000000000E+00  0.98557329973E+03  0.98557329974E+03  0.50400001928E-02 0.  1.
        1   -1    0    0  501    0  0.00000000000E+00  0.00000000000E+00 -0.78886375567E+03  0.78886375569E+03  0.50400001928E-02 0. -1.
    10030    2    1    2    0    0  0.00000000000E+00  0.00000000000E+00  0.19670954406E+03  0.17744370554E+04  0.17634999912E+04 0.  0.
        3    1    3    3  502    0  0.87627988820E+02  0.74954269421E+03 -0.36053301482E+03  0.83634740380E+03  0.10100000352E+00 0. -1.
       -3    1    3    3    0  502 -0.87627988820E+02 -0.74954269421E+03  0.55724255888E+03  0.93808965163E+03  0.10100000352E+00 0.  1.
</event>
<event>
 5   0  0.2569405E-04  0.1618317E+04  0.7818609E-02  0.8809374E-01
        2   -1    0    0  501    0  0.00000000000E+00  0.00000000000E+00  0.11322423866E+04  0.11322423866E+04  0.25500000920E-02 0. -1.
       -2   -1    0    0    0  501  0.00000000000E+00  0.00000000000E+00 -0.57826610304E+03  0.57826610305E+03  0.25500000920E-02 0.  1.
    10030    2    1    2    0    0  0.00000000000E+00  0.00000000000E+00  0.55397628356E+03  0.17105084896E+04  0.16183168943E+04 0.  0.
        2    1    3    3  502    0 -0.32537056051E+03 -0.20955748339E+03  0.10280727929E+04  0.10985053518E+04  0.25500000920E-02 0. -1.
       -2    1    3    3    0  502  0.32537056051E+03  0.20955748339E+03 -0.47409650936E+03  0.61200313780E+03  0.25500000920E-02 0.  1.
</event>
<event>
 5   0  0.2417106E-04  0.1799148E+04  0.7818609E-02  0.8706753E-01
       -2   -1    0    0    0  501  0.00000000000E+00  0.00000000000E+00  0.83630343815E+03  0.83630343816E+03  0.25500000920E-02 0. -1.
        2   -1    0    0  501    0  0.00000000000E+00  0.00000000000E+00 -0.96763156672E+03  0.96763156672E+03  0.25500000920E-02 0.  1.
    10030    2    1    2    0    0  0.00000000000E+00  0.00000000000E+00 -0.13132812857E+03  0.18039350049E+04  0.17991482497E+04 0.  0.
        4    1    3    3  502    0 -0.31268027977E+03  0.59845777101E+01  0.78004147356E+03  0.84039936096E+03  0.12699999809E+01 0. -1.
       -4    1    3    3    0  502  0.31268027977E+03 -0.59845777101E+01 -0.91136960213E+03  0.96353564392E+03  0.12699999809E+01 0.  1.
</event>
<event>
 5   0  0.1239119E-04  0.1795822E+04  0.7818609E-02  0.8708525E-01
        1   -1    0    0  501    0  0.00000000000E+00  0.00000000000E+00  0.14752806388E+04  0.14752806388E+04  0.50400001928E-02 0.  1.
       -1   -1    0    0    0  501  0.00000000000E+00  0.00000000000E+00 -0.54650213952E+03  0.54650213954E+03  0.50400001928E-02 0. -1.
    10030    2    1    2    0    0  0.00000000000E+00  0.00000000000E+00  0.92877849931E+03  0.20217827784E+04  0.17958218459E+04 0.  0.
        5    1    3    3  502    0 -0.63451391531E+03  0.40035105824E+03 -0.90967172724E+02  0.75576847980E+03  0.46999998093E+01 0. -1.
       -5    1    3    3    0  502  0.63451391531E+03 -0.40035105824E+03  0.10197456720E+04  0.12660142986E+04  0.46999998093E+01 0.  1.
</event>
<event>
 5   0  0.9144875E-05  0.1787465E+04  0.7818609E-02  0.8712994E-01
       -4   -1    0    0    0  501  0.00000000000E+00  0.00000000000E+00  0.51357082952E+03  0.51357239980E+03  0.12699999809E+01 0. -1.
        4   -1    0    0  501    0  0.00000000000E+00  0.00000000000E+00 -0.15552977778E+04  0.15552982963E+04  0.12699999809E+01 0.  1.
    10030    2    1    2    0    0  0.00000000000E+00  0.00000000000E+00 -0.10417269482E+04  0.20688706961E+04  0.17874649430E+04 0.  0.
        1    1    3    3  502    0  0.62465471489E+03 -0.51251656270E+03 -0.96295282336E+03  0.12570381378E+04  0.50400001928E-02 0.  1.
       -1    1    3    3    0  502 -0.62465471489E+03  0.51251656270E+03 -0.78774124879E+02  0.81183255826E+03  0.50400001928E-02 0. -1.
</event>
<event>
 5   0  0.2569405E-04  0.1730337E+04  0.7818609E-02  0.8744249E-01
        2   -1    0    0  501    0  0.00000000000E+00  0.00000000000E+00  0.85084832587E+03  0.85084832587E+03  0.25500000920E-02 0. -1.
       -2   -1    0    0    0  501  0.00000000000E+00  0.00000000000E+00 -0.87972976887E+03  0.87972976887E+03  0.25500000920E-02 0.  1.
    10030    2    1    2    0    0  0.00000000000E+00  0.00000000000E+00 -0.28881443004E+02  0.17305780947E+04  0.17303370782E+04 0.  0.
        2    1    3    3  502    0  0.64937960842E+03 -0.39513761183E+03  0.39876206935E+03  0.85839314774E+03  0.25500000920E-02 0. -1.
       -2    1    3    3    0  502 -0.64937960842E+03  0.39513761183E+03 -0.42764351235E+03  0.87218494701E+03  0.25500000920E-02 0.  1.
</event>
<event>
 5   0  0.2431811E-04  0.1793302E+04  0.7818609E-02  0.8709869E-01
        2   -1    0    0  501    0  0.00000000000E+00  0.00000000000E+00  0.24545243255E+04  0.24545243255E+04  0.25500000920E-02 0. -1.
       -2   -1    0    0    0  501  0.00000000000E+00  0.00000000000E+00 -0.32755155554E+03  0.32755155555E+03  0.25500000920E-02 0.  1.
    10030    2    1    2    0    0  0.00000000000E+00  0.00000000000E+00  0.21269727699E+04  0.27820758810E+04  0.17933022734E+04 0.  0.
        3    1    3    3  502    0 -0.45663758746E+03  0.49664982436E+03  0.14725239818E+03  0.69055210759E+03  0.10100000352E+00 0.  1.
       -3    1    3    3    0  502  0.45663758746E+03 -0.49664982436E+03  0.19797203717E+04  0.20915237734E+04  0.10100000352E+00 0. -1.
</event>
<event>
 5   0  0.2393421E-04  0.1809859E+04  0.7818609E-02  0.8701074E-01
       -2   -1    0    0    0  501  0.00000000000E+00  0.00000000000E+00  0.53637961608E+03  0.53637961608E+03  0.25500000920E-02 0.  1.
        2   -1    0    0  501    0  0.00000000000E+00  0.00000000000E+00 -0.15267119883E+04  0.15267119883E+04  0.25500000920E-02 0. -1.
    10030    2    1    2    0    0  0.00000000000E+00  0.00000000000E+00 -0.99033237220E+03  0.20630916044E+04  0.18098587681E+04 0.  0.
        5    1    3    3  502    0  0.81429785282E+03  0.15636613662E+03 -0.82044006236E+02  0.83323746360E+03  0.46999998093E+01 0.  1.
       -5    1    3    3    0  502 -0.81429785282E+03 -0.15636613662E+03 -0.90828836596E+03  0.12298541408E+04  0.46999998093E+01 0. -1.
</event>
<event>
 5   0  0.1253925E-04  0.1808251E+04  0.7818609E-02  0.8701924E-01
       -1   -1    0    0    0  501  0.00000000000E+00  0.00000000000E+00  0.82840757904E+03  0.82840757906E+03  0.50400001928E-02 0. -1.
        1   -1    0    0  501    0  0.00000000000E+00  0.00000000000E+00 -0.98676467953E+03  0.98676467955E+03  0.50400001928E-02 0.  1.
    10030    2    1    2    0    0  0.00000000000E+00  0.00000000000E+00 -0.15835710049E+03  0.18151722586E+04  0.18082514640E+04 0.  0.
        2    1    3    3  502    0 -0.50684292539E+03 -0.70273220895E+03  0.18011421165E+03  0.88496521839E+03  0.25500000920E-02 0. -1.
       -2    1    3    3    0  502  0.50684292539E+03  0.70273220895E+03 -0.33847131214E+03  0.93020704021E+03  0.25500000920E-02 0.  1.
</event>
<event>
 5   0  0.2569405E-04  0.1801667E+04  0.7818609E-02  0.8705414E-01
       -2   -1    0    0    0  501  0.00000000000E+00  0.00000000000E+00  0.31998052557E+03  0.31998052558E+03  0.25500000920E-02 0.  1.
        2   -1    0    0  501    0  0.00000000000E+00  0.00000000000E+00 -0.25360941057E+04  0.25360941057E+04  0.25500000920E-02 0. -1.
    10030    2    1    2    0    0  0.00000000000E+00  0.00000000000E+00 -0.22161135801E+04  0.28560746312E+04  0.18016667004E+04 0.  0.
        2    1    3    3  502    0  0.91859052354E+02 -0.70342014486E+03 -0.22790897230E+03  0.74510434528E+03  0.25500000920E-02 0.  1.
       -2    1    3    3    0  502 -0.91859052354E+02  0.70342014486E+03 -0.19882046078E+04  0.21109702860E+04  0.25500000920E-02 0. -1.
</event>
<event>
 5   0  0.1253925E-04  0.1811499E+04  0.7818609E-02  0.8700208E-01
        1   -1    0    0  501    0  0.00000000000E+00  0.00000000000E+00  0.23535043685E+04  0.23535043685E+04  0.50400001928E-02 0. -1.
       -1   -1    0    0    0  501  0.00000000000E+00  0.00000000000E+00 -0.34857910848E+03  0.34857910851E+03  0.50400001928E-02 0.  1.
    10030    2    1    2    0    0  0.00000000000E+00  0.00000000000E+00  0.20049252600E+04  0.27020834770E+04  0.18114993289E+04 0.  0.
        2    1    3    3  502    0  0.54752180927E+03 -0.69545417440E+03  0.12891728710E+04  0.15637785431E+04  0.25500000920E-02 0. -1.
       -2    1    3    3    0  502 -0.54752180927E+03  0.69545417440E+03  0.71575238899E+03  0.11383049340E+04  0.25500000920E-02 0.  1.
</event>
<event>
 5   0  0.2393421E-04  0.1798413E+04  0.7818609E-02  0.8707144E-01
        2   -1    0    0  501    0  0.00000000000E+00  0.00000000000E+00  0.12311646997E+04  0.12311646997E+04  0.25500000920E-02 0. -1.
       -2   -1    0    0    0  501  0.00000000000E+00  0.00000000000E+00 -0.65675381269E+03  0.65675381269E+03  0.25500000920E-02 0.  1.
    10030    2    1    2    0    0  0.00000000000E+00  0.00000000000E+00  0.57441088700E+03  0.18879185124E+04  0.17984127564E+04 0.  0.
        5    1    3    3  502    0  0.31912134208E+03 -0.61718030361E+03  0.88640219783E+03  0.11262685756E+04  0.46999998093E+01 0. -1.
       -5    1    3    3    0  502 -0.31912134208E+03  0.61718030361E+03 -0.31199131083E+03  0.76164993676E+03  0.46999998093E+01 0.  1.
</event>
<event>
 5   0  0.1214723E-04  0.1796906E+04  0.7818609E-02  0.8707946E-01
        1   -1    0    0  501    0  0.00000000000E+00  0.00000000000E+00  0.11867717791E+04  0.11867717791E+04  0.50400001928E-02 0. -1.
       -1   -1    0    0    0  501  0.00000000000E+00  0.00000000000E+00 -0.68017978500E+03  0.68017978502E+03  0.50400001928E-02 0.  1.
    10030    2    1    2    0    0  0.00000000000E+00  0.00000000000E+00  0.50659199410E+03  0.18669515641E+04  0.17969064234E+04 0.  0.
        1    1    3    3  502    0  0.21755427407E+03  0.87161775163E+03  0.26687474433E+03  0.93716033650E+03  0.50400001928E-02 0.  1.
       -1    1    3    3    0  502 -0.21755427407E+03 -0.87161775163E+03  0.23971724977E+03  0.92979122763E+03  0.50400001928E-02 0. -1.
</event>
<event>
 5   0  0.1253925E-04  0.1854826E+04  0.7818609E-02  0.8677675E-01
       -1   -1    0    0    0  501  0.00000000000E+00  0.00000000000E+00  0.81912473334E+03  0.81912473336E+03  0.50400001928E-02 0.  1.
        1   -1    0    0  501    0  0.00000000000E+00  0.00000000000E+00 -0.10500174058E+04  0.10500174058E+04  0.50400001928E-02 0. -1.
    10030    2    1    2    0    0  0.00000000000E+00  0.00000000000E+00 -0.23089267249E+03  0.18691421392E+04  0.18548263828E+04 0.  0.
        2    1    3    3  502    0 -0.48273986217E+03  0.41570877762E+03 -0.79462417048E+03  0.10184690151E+04  0.25500000920E-02 0. -1.
       -2    1    3    3    0  502  0.48273986217E+03 -0.41570877762E+03  0.56373149799E+03  0.85067312415E+03  0.25500000920E-02 0.  1.
</event>
<event>
 5   0  0.1214723E-04  0.1850381E+04  0.7818609E-02  0.8679957E-01
       -1   -1    0    0    0  501  0.00000000000E+00  0.00000000000E+00  0.77318319744E+03  0.77318319746E+03  0.50400001928E-02 0. -1.
        1   -1    0    0  501    0  0.00000000000E+00  0.00000000000E+00 -0.11070824262E+04  0.11070824262E+04  0.50400001928E-02 0.  1.
    10030    2    1    2    0    0  0.00000000000E+00  0.00000000000E+00 -0.33389922873E+03  0.18802656236E+04  0.18503810744E+04 0.  0.
        1    1    3    3  502    0 -0.78273912973E+03  0.47633555259E+03 -0.36813200237E+02  0.91702307256E+03  0.50400001928E-02 0. -1.
       -1    1    3    3    0  502  0.78273912973E+03 -0.47633555259E+03 -0.29708602849E+03  0.96324255108E+03  0.50400001928E-02 0.  1.
</event>
<event>
 5   0  0.2393421E-04  0.1797145E+04  0.7818609E-02  0.8707819E-01
        2   -1    0    0  501    0  0.00000000000E+00  0.00000000000E+00  0.18624661325E+04  0.18624661325E+04  0.25500000920E-02 0.  1.
       -2   -1    0    0    0  501  0.00000000000E+00  0.00000000000E+00 -0.43352851526E+03  0.43352851527E+03  0.25500000920E-02 0. -1.
    10030    2    1    2    0    0  0.00000000000E+00  0.00000000000E+00  0.14289376172E+04  0.22959946477E+04  0.17971445987E+04 0.  0.
        5    1    3    3  502    0  0.50253812044E+03 -0.27753917194E+02 -0.23653019278E+03  0.55613259616E+03  0.46999998093E+01 0. -1.
       -5    1    3    3    0  502 -0.50253812044E+03  0.27753917194E+02  0.16654678100E+04  0.17398620516E+04  0.46999998093E+01 0.  1.
</event>
<event>
 5   0  0.1239119E-04  0.1767309E+04  0.7818609E-02  0.8723880E-01
       -1   -1    0    0    0  501  0.00000000000E+00  0.00000000000E+00  0.82545901158E+03  0.82545901159E+03  0.50400001928E-02 0.  1.
        1   -1    0    0  501    0  0.00000000000E+00  0.00000000000E+00 -0.94595271114E+03  0.94595271115E+03  0.50400001928E-02 0. -1.
    10030    2    1    2    0    0  0.00000000000E+00  0.00000000000E+00 -0.12049369956E+03  0.17714117227E+04  0.17673089033E+04 0.  0.
        5    1    3    3  502    0 -0.56563212146E+03  0.62933029119E+03  0.19495528331E+03  0.86834668464E+03  0.46999998093E+01 0.  1.
       -5    1    3    3    0  502  0.56563212146E+03 -0.62933029119E+03 -0.31544898287E+03  0.90306503810E+03  0.46999998093E+01 0. -1.
</event>
<event>
 5   0  0.1330225E-04  0.1775934E+04  0.7818609E-02  0.8719203E-01
       -1   -1    0    0    0  501  0.00000000000E+00  0.00000000000E+00  0.60734424128E+03  0.60734424130E+03  0.50400001928E-02 0. -1.
        1   -1    0    0  501    0  0.00000000000E+00  0.00000000000E+00 -0.12982518743E+04  0.12982518743E+04  0.50400001928E-02 0.  1.
    10030    2    1    2    0    0  0.00000000000E+00  0.00000000000E+00 -0.69090763306E+03  0.19055961156E+04  0.17759344578E+04 0.  0.
        3    1    3    3  502    0  0.44326145994E+03  0.15956037826E+03  0.46219273427E+03  0.65997149180E+03  0.10100000352E+00 0. -1.
       -3    1    3    3    0  502 -0.44326145994E+03 -0.15956037826E+03 -0.11531003673E+04  0.12456246238E+04  0.10100000352E+00 0.  1.
</event>
<event>
 5   0  0.2550616E-04  0.1793550E+04  0.7818609E-02  0.8709737E-01
       -2   -1    0    0    0  501  0.00000000000E+00  0.00000000000E+00  0.11259727637E+04  0.11259727637E+04  0.25500000920E-02 0.  1.
        2   -1    0    0  501    0  0.00000000000E+00  0.00000000000E+00 -0.71423190463E+03  0.71423190463E+03  0.25500000920E-02 0. -1.
    10030    2    1    2    0    0  0.00000000000E+00  0.00000000000E+00  0.41174085906E+03  0.18402046683E+04  0.17935503021E+04 0.  0.
        1    1    3    3  502    0 -0.19480729065E+03  0.87368541884E+02  0.10995162625E+04  0.11200531925E+04  0.50400001928E-02 0.  1.
       -1    1    3    3    0  502  0.19480729065E+03 -0.87368541884E+02 -0.68777540339E+03  0.72015147583E+03  0.50400001928E-02 0. -1.
</event>
<event>
 5   0  0.1214723E-04  0.1718087E+04  0.7818609E-02  0.8751115E-01
        1   -1    0    0  501    0  0.00000000000E+00  0.00000000000E+00  0.17996562312E+04  0.17996562312E+04  0.50400001928E-02 0.  1.
       -1   -1    0    0    0  501  0.00000000000E+00  0.00000000000E+00 -0.41005366739E+03  0.41005366742E+03  0.50400001928E-02 0. -1.
    10030    2    1    2    0    0  0.00000000000E+00  0.00000000000E+00  0.13896025638E+04  0.22097098986E+04  0.17180868868E+04 0.  0.
        1    1    3    3  502    0  0.86273750134E+01 -0.81550765898E+03  0.10418901729E+04  0.13231259600E+04  0.50400001928E-02 0.  1.
       -1    1    3    3    0  502 -0.86273750134E+01  0.81550765898E+03  0.34771239085E+03  0.88658393863E+03  0.50400001928E-02 0. -1.
</event>
<event>
 5   0  0.2431811E-04  0.1797463E+04  0.7818609E-02  0.8707650E-01
        2   -1    0    0  501    0  0.00000000000E+00  0.00000000000E+00  0.24956061818E+04  0.24956061818E+04  0.25500000920E-02 0. -1.
       -2   -1    0    0    0  501  0.00000000000E+00  0.00000000000E+00 -0.32365603713E+03  0.32365603714E+03  0.25500000920E-02 0.  1.
    10030    2    1    2    0    0  0.00000000000E+00  0.00000000000E+00  0.21719501447E+04  0.28192622190E+04  0.17974626639E+04 0.  0.
        3    1    3    3  502    0  0.22840633659E+03  0.43501080652E+03  0.22663073840E+04  0.23189551581E+04  0.10100000352E+00 0. -1.
       -3    1    3    3    0  502 -0.22840633659E+03 -0.43501080652E+03 -0.94357239261E+02  0.50030706090E+03  0.10100000352E+00 0.  1.
</event>
<event>
 5   0  0.1214723E-04  0.1807709E+04  0.7818609E-02  0.8702211E-01
       -1   -1    0    0    0  501  0.00000000000E+00  0.00000000000E+00  0.30502048940E+03  0.30502048944E+03  0.50400001928E-02 0.  1.
        1   -1    0    0  501    0  0.00000000000E+00  0.00000000000E+00 -0.26783549325E+04  0.26783549325E+04  0.50400001928E-02 0. -1.
    10030    2    1    2    0    0  0.00000000000E+00  0.00000000000E+00 -0.23733344431E+04  0.29833754220E+04  0.18077091938E+04 0.  0.
        1    1    3    3  502    0 -0.20218436315E+03  0.86676826920E+03 -0.92683399838E+03  0.12849852177E+04  0.50400001928E-02 0. -1.
       -1    1    3    3    0  502  0.20218436315E+03 -0.86676826920E+03 -0.14465004448E+04  0.16983902043E+04  0.50400001928E-02 0.  1.
</event>
<event>
 5   0  0.1308893E-04  0.1806438E+04  0.7818609E-02  0.8702884E-01
        1   -1    0    0  501    0  0.00000000000E+00  0.00000000000E+00  0.85195492814E+03  0.85195492815E+03  0.50400001928E-02 0.  1.
       -1   -1    0    0    0  501  0.00000000000E+00  0.00000000000E+00 -0.95756730301E+03  0.95756730302E+03  0.50400001928E-02 0. -1.
    10030    2    1    2    0    0  0.00000000000E+00  0.00000000000E+00 -0.10561237487E+03  0.18095222312E+04  0.18064375803E+04 0.  0.
        4    1    3    3  502    0  0.21657479576E+03  0.64165451865E+03  0.54585755089E+03  0.86982023558E+03  0.12699999809E+01 0.  1.
       -4    1    3    3    0  502 -0.21657479576E+03 -0.64165451865E+03 -0.65146992576E+03  0.93970199560E+03  0.12699999809E+01 0. -1.
</event>
<event>
 5   0  0.2550616E-04  0.1810138E+04  0.7818609E-02  0.8700927E-01
        2   -1    0    0  501    0  0.00000000000E+00  0.00000000000E+00  0.88001107968E+03  0.88001107969E+03  0.25500000920E-02 0.  1.
       -2   -1    0    0    0  501  0.00000000000E+00  0.00000000000E+00 -0.93084063046E+03  0.93084063046E+03  0.25500000920E-02 0. -1.
    10030    2    1    2    0    0  0.00000000000E+00  0.00000000000E+00 -0.50829550777E+02  0.18108517101E+04  0.18101381917E+04 0.  0.
        1    1    3    3  502    0 -0.32469117243E+03 -0.79325608328E+03  0.26533787414E+03  0.89726459787E+03  0.50400001928E-02 0.  1.
       -1    1    3    3    0  502  0.32469117243E+03  0.79325608328E+03 -0.31616742491E+03  0.91358711228E+03  0.50400001928E-02 0. -1.
</event>
<event>
 5   0  0.1214723E-04  0.1777440E+04  0.7818609E-02  0.8718389E-01
        1   -1    0    0  501    0  0.00000000000E+00  0.00000000000E+00  0.87234738879E+03  0.87234738881E+03  0.50400001928E-02 0. -1.
       -1   -1    0    0    0  501  0.00000000000E+00  0.00000000000E+00 -0.90540015759E+03  0.90540015760E+03  0.50400001928E-02 0.  1.
    10030    2    1    2    0    0  0.00000000000E+00  0.00000000000E+00 -0.33052768794E+02  0.17777475464E+04  0.17774402531E+04 0.  0.
        1    1    3    3  502    0  0.67735390096E+03 -0.34875655617E+03 -0.47419048150E+03  0.89738289230E+03  0.50400001928E-02 0.  1.
       -1    1    3    3    0  502 -0.67735390096E+03  0.34875655617E+03  0.44113771270E+03  0.88036465411E+03  0.50400001928E-02 0. -1.
</event>
<event>
 5   0  0.1214723E-04  0.1802546E+04  0.7818609E-02  0.8704947E-01
        1   -1    0    0  501    0  0.00000000000E+00  0.00000000000E+00  0.12592872821E+04  0.12592872821E+04  0.50400001928E-02 0.  1.
       -1   -1    0    0    0  501  0.00000000000E+00  0.00000000000E+00 -0.64504168477E+03  0.64504168479E+03  0.50400001928E-02 0. -1.
    10030    2    1    2    0    0  0.00000000000E+00  0.00000000000E+00  0.61424559736E+03  0.19043289669E+04  0.18025457443E+04 0.  0.
        1    1    3    3  502    0 -0.78041749311E+03  0.40112726881E+03  0.89741548169E+02  0.88204767151E+03  0.50400001928E-02 0. -1.
       -1    1    3    3    0  502  0.78041749311E+03 -0.40112726881E+03  0.52450404919E+03  0.10222812954E+04  0.50400001928E-02 0.  1.
</event>
<event>
 5   0  0.2431811E-04  0.1789474E+04  0.7818609E-02  0.8711917E-01
       -2   -1    0    0    0  501  0.00000000000E+00  0.00000000000E+00  0.53687754254E+03  0.53687754254E+03  0.25500000920E-02 0.  1.
        2   -1    0    0  501    0  0.00000000000E+00  0.00000000000E+00 -0.14911303843E+04  0.14911303843E+04  0.25500000920E-02 0. -1.
    10030    2    1    2    0    0  0.00000000000E+00  0.00000000000E+00 -0.95425284178E+03  0.20280079269E+04  0.17894741310E+04 0.  0.
        3    1    3    3  502    0  0.31600480025E+03 -0.74634993048E+03 -0.47582227800E+02  0.81188751137E+03  0.10100000352E+00 0.  1.
       -3    1    3    3    0  502 -0.31600480025E+03  0.74634993048E+03 -0.90667061398E+03  0.12161204155E+04  0.10100000352E+00 0. -1.
</event>
<event>
 5   0  0.2393421E-04  0.1806482E+04  0.7818609E-02  0.8702860E-01
       -2   -1    0    0    0  501  0.00000000000E+00  0.00000000000E+00  0.30440857957E+03  0.30440857958E+03  0.25500000920E-02 0. -1.
        2   -1    0    0  501    0  0.00000000000E+00  0.00000000000E+00 -0.26800951349E+04  0.26800951349E+04  0.25500000920E-02 0.  1.
    10030    2    1    2    0    0  0.00000000000E+00  0.00000000000E+00 -0.23756865553E+04  0.29845037144E+04  0.18064816115E+04 0.  0.
        5    1    3    3  502    0 -0.63595457094E+03 -0.55527789124E+03 -0.65749298951E+03  0.10700891898E+04  0.46999998093E+01 0. -1.
       -5    1    3    3    0  502  0.63595457094E+03  0.55527789124E+03 -0.17181935658E+04  0.19144145247E+04  0.46999998093E+01 0.  1.
</event>
<event>
 5   0  0.2569405E-04  0.1759039E+04  0.7818609E-02  0.8728390E-01
        2   -1    0    0  501    0  0.00000000000E+00  0.00000000000E+00  0.79777325834E+03  0.79777325835E+03  0.25500000920E-02 0. -1.
       -2   -1    0    0    0  501  0.00000000000E+00  0.00000000000E+00 -0.96964230594E+03  0.96964230594E+03  0.25500000920E-02 0.  1.
    10030    2    1    2    0    0  0.00000000000E+00  0.00000000000E+00 -0.17186904760E+03  0.17674155643E+04  0.17590391716E+04 0.  0.
        2    1    3    3  502    0  0.23546604145E+03 -0.57564067615E+03  0.53891773920E+03  0.82294518307E+03  0.25500000920E-02 0. -1.
       -2    1    3    3    0  502 -0.23546604145E+03  0.57564067615E+03 -0.71078678679E+03  0.94447038122E+03  0.25500000920E-02 0.  1.
</event>
<event>
 5   0  0.2569405E-04  0.1795452E+04  0.7818609E-02  0.8708722E-01
       -2   -1    0    0    0  501  0.00000000000E+00  0.00000000000E+00  0.11284864824E+04  0.11284864824E+04  0.25500000920E-02 0.  1.
        2   -1    0    0  501    0  0.00000000000E+00  0.00000000000E+00 -0.71415263164E+03  0.71415263165E+03  0.25500000920E-02 0. -1.
    10030    2    1    2    0    0  0.00000000000E+00  0.00000000000E+00  0.41433385077E+03  0.18426391141E+04  0.17954515768E+04 0.  0.
        2    1    3    3  502    0  0.48503509166E+03  0.71331619360E+03 -0.48029859918E+02  0.86393628217E+03  0.25500000920E-02 0.  1.
       -2    1    3    3    0  502 -0.48503509166E+03 -0.71331619360E+03  0.46236371069E+03  0.97870283190E+03  0.25500000920E-02 0. -1.
</event>
<event>
 5   0  0.2431811E-04  0.1814109E+04  0.7818609E-02  0.8698832E-01
       -2   -1    0    0    0  501  0.00000000000E+00  0.00000000000E+00  0.65618253833E+03  0.65618253833E+03  0.25500000920E-02 0.  1.
        2   -1    0    0  501    0  0.00000000000E+00  0.00000000000E+00 -0.12538401774E+04  0.12538401774E+04  0.25500000920E-02 0. -1.
    10030    2    1    2    0    0  0.00000000000E+00  0.00000000000E+00 -0.59765763903E+03  0.19100227157E+04  0.18141091811E+04 0.  0.
        3    1    3    3  502    0  0.60837456942E+03  0.67139793118E+03 -0.34415391795E+03  0.96919385479E+03  0.10100000352E+00 0. -1.
       -3    1    3    3    0  502 -0.60837456942E+03 -0.67139793118E+03 -0.25350372108E+03  0.94082886090E+03  0.10100000352E+00 0.  1.
</event>
<event>
 5   0  0.1253925E-04  0.1782356E+04  0.7818609E-02  0.8715739E-01
       -1   -1    0    0    0  501  0.00000000000E+00  0.00000000000E+00  0.10141515052E+04  0.10141515052E+04  0.50400001928E-02 0. -1.
        1   -1    0    0  501    0  0.00000000000E+00  0.00000000000E+00 -0.78311625757E+03  0.78311625759E+03  0.50400001928E-02 0.  1.
    10030    2    1    2    0    0  0.00000000000E+00  0.00000000000E+00  0.23103524760E+03  0.17972677628E+04  0.17823563408E+04 0.  0.
        2    1    3    3  502    0  0.73509230952E+02  0.47319371234E+03  0.87339223979E+03  0.99605717756E+03  0.25500000920E-02 0. -1.
       -2    1    3    3    0  502 -0.73509230952E+02 -0.47319371234E+03 -0.64235699220E+03  0.80121058522E+03  0.25500000920E-02 0.  1.
</event>
<event>
 5   0  0.2550616E-04  0.1803088E+04  0.7818609E-02  0.8704659E-01
        2   -1    0    0  501    0  0.00000000000E+00  0.00000000000E+00  0.74593172993E+03  0.74593172993E+03  0.25500000920E-02 0.  1.
       -2   -1    0    0    0  501  0.00000000000E+00  0.00000000000E+00 -0.10896195931E+04  0.10896195931E+04  0.25500000920E-02 0. -1.
    10030    2    1    2    0    0  0.00000000000E+00  0.00000000000E+00 -0.34368786320E+03  0.18355513231E+04  0.18030882708E+04 0.  0.
        1    1    3    3  502    0 -0.85201229649E+02 -0.53533273420E+03 -0.90518958307E+03  0.10550869951E+04  0.50400001928E-02 0. -1.
       -1    1    3    3    0  502  0.85201229649E+02  0.53533273420E+03  0.56150171986E+03  0.78046432800E+03  0.50400001928E-02 0.  1.
</event>
<event>
 5   0  0.1214723E-04  0.1740347E+04  0.7818609E-02  0.8738682E-01
       -1   -1    0    0    0  501  0.00000000000E+00  0.00000000000E+00  0.76995548935E+03  0.76995548937E+03  0.50400001928E-02 0. -1.
        1   -1    0    0  501    0  0.00000000000E+00  0.00000000000E+00 -0.98343553480E+03  0.98343553481E+03  0.50400001928E-02 0.  1.
    10030    2    1    2    0    0  0.00000000000E+00  0.00000000000E+00 -0.21348004545E+03  0.17533910242E+04  0.17403466189E+04 0.  0.
        1    1    3    3  502    0  0.41726049399E+03 -0.75744389666E+03 -0.20428519452E+03  0.88857189758E+03  0.50400001928E-02 0.  1.
       -1    1    3    3    0  502 -0.41726049399E+03  0.75744389666E+03 -0.91948509303E+01  0.86481912661E+03  0.50400001928E-02 0. -1.
</event>
<event>
 5   0  0.1330225E-04  0.1633239E+04  0.7818609E-02  0.8800384E-01
       -1   -1    0    0    0  501  0.00000000000E+00  0.00000000000E+00  0.92050491292E+03  0.92050491293E+03  0.50400001928E-02 0.  1.
        1   -1    0    0  501    0  0.00000000000E+00  0.00000000000E+00 -0.72445817099E+03  0.72445817101E+03  0.50400001928E-02 0. -1.
    10030    2    1    2    0    0  0.00000000000E+00  0.00000000000E+00  0.19604674193E+03  0.16449630839E+04  0.16332388749E+04 0.  0.
        3    1    3    3  502    0 -0.37541585863E+02  0.14487182991E+03  0.90657513038E+03  0.91884476110E+03  0.10100000352E+00 0.  1.
       -3    1    3    3    0  502  0.37541585863E+02 -0.14487182991E+03 -0.71052838845E+03  0.72611832284E+03  0.10100000352E+00 0. -1.
</event>
<event>
 5   0  0.1308893E-04  0.1807090E+04  0.7818609E-02  0.8702538E-01
        1   -1    0    0  501    0  0.00000000000E+00  0.00000000000E+00  0.13587198894E+04  0.13587198894E+04  0.50400001928E-02 0.  1.
       -1   -1    0    0    0  501  0.00000000000E+00  0.00000000000E+00 -0.60085471945E+03  0.60085471947E+03  0.50400001928E-02 0. -1.
    10030    2    1    2    0    0  0.00000000000E+00  0.00000000000E+00  0.75786516990E+03  0.19595746088E+04  0.18070896579E+04 0.  0.
        4    1    3    3  502    0  0.39348593801E+03  0.36739822869E+03 -0.40795713575E+03  0.67545782945E+03  0.12699999809E+01 0. -1.
       -4    1    3    3    0  502 -0.39348593801E+03 -0.36739822869E+03  0.11658223056E+04  0.12841167794E+04  0.12699999809E+01 0.  1.
</event>
<event>
 5   0  0.2417106E-04  0.1797171E+04  0.7818609E-02  0.8707805E-01
       -2   -1    0    0    0  501  0.00000000000E+00  0.00000000000E+00  0.25517751286E+03  0.25517751288E+03  0.25500000920E-02 0. -1.
        2   -1    0    0  501    0  0.00000000000E+00  0.00000000000E+00 -0.31642919916E+04  0.31642919916E+04  0.25500000920E-02 0.  1.
    10030    2    1    2    0    0  0.00000000000E+00  0.00000000000E+00 -0.29091144787E+04  0.34194695044E+04  0.17971712889E+04 0.  0.
        4    1    3    3  502    0 -0.31234404578E+03  0.78694674233E+03 -0.88181568645E+03  0.12224747425E+04  0.12699999809E+01 0. -1.
       -4    1    3    3    0  502  0.31234404578E+03 -0.78694674233E+03 -0.20272987923E+04  0.21969947620E+04  0.12699999809E+01 0.  1.
</event>
<event>
 5   0  0.1330225E-04  0.1733214E+04  0.7818609E-02  0.8742645E-01
        1   -1    0    0  501    0  0.00000000000E+00  0.00000000000E+00  0.15985942588E+04  0.15985942588E+04  0.50400001928E-02 0.  1.
       -1   -1    0    0    0  501  0.00000000000E+00  0.00000000000E+00 -0.46979262378E+03  0.46979262381E+03  0.50400001928E-02 0. -1.
    10030    2    1    2    0    0  0.00000000000E+00  0.00000000000E+00  0.11288016350E+04  0.20683868826E+04  0.17332141140E+04 0.  0.
        3    1    3    3  502    0 -0.76570293700E+03 -0.22735927285E+03  0.96558772008E+03  0.12531372160E+04  0.10100000352E+00 0.  1.
       -3    1    3    3    0  502  0.76570293700E+03  0.22735927285E+03  0.16321391490E+03  0.81524966660E+03  0.10100000352E+00 0. -1.
</event>
<event>
 5   0  0.2393421E-04  0.1812967E+04  0.7818609E-02  0.8699434E-01
        2   -1    0    0  501    0  0.00000000000E+00  0.00000000000E+00  0.11540317532E+04  0.11540317532E+04  0.25500000920E-02 0. -1.
       -2   -1    0    0    0  501  0.00000000000E+00  0.00000000000E+00 -0.71203635673E+03  0.71203635673E+03  0.25500000920E-02 0.  1.
    10030    2    1    2    0    0  0.00000000000E+00  0.00000000000E+00  0.44199539642E+03  0.18660681099E+04  0.18129672530E+04 0.  0.
        5    1    3    3  502    0  0.50215496741E+03  0.53260757774E+03  0.77131637266E+03  0.10633820950E+04  0.46999998093E+01 0. -1.
       -5    1    3    3    0  502 -0.50215496741E+03 -0.53260757774E+03 -0.32932097624E+03  0.80268601492E+03  0.46999998093E+01 0.  1.
</event>
<event>
 5   0  0.1330225E-04  0.1908663E+04  0.7818609E-02  0.8650556E-01
       -1   -1    0    0    0  501  0.00000000000E+00  0.00000000000E+00  0.86509839365E+03  0.86509839366E+03  0.50400001928E-02 0.  1.
        1   -1    0    0  501    0  0.00000000000E+00  0.00000000000E+00 -0.10527684242E+04  0.10527684242E+04  0.50400001928E-02 0. -1.
    10030    2    1    2    0    0  0.00000000000E+00  0.00000000000E+00 -0.18767003055E+03  0.19178668179E+04  0.19086626446E+04 0.  0.
        3    1    3    3  502    0  0.34186064306E+03 -0.45214679834E+03 -0.86528916288E+03  0.10344229174E+04  0.10100000352E+00 0. -1.
       -3    1    3    3    0  502 -0.34186064306E+03  0.45214679834E+03  0.67761913233E+03  0.88344390044E+03  0.10100000352E+00 0.  1.
</event>
<event>
 5   0  0.2550616E-04  0.1819268E+04  0.7818609E-02  0.8696119E-01
       -2   -1    0    0    0  501  0.00000000000E+00  0.00000000000E+00  0.14728099748E+04  0.14728099748E+04  0.25500000920E-02 0. -1.
        2   -1    0    0  501    0  0.00000000000E+00  0.00000000000E+00 -0.56180666121E+03  0.56180666121E+03  0.25500000920E-02 0.  1.
    10030    2    1    2    0    0  0.00000000000E+00  0.00000000000E+00  0.91100331364E+03  0.20346166361E+04  0.18192684844E+04 0.  0.
        1    1    3    3  502    0 -0.16176260917E+03 -0.18747136094E+03  0.14343934909E+04  0.14556089240E+04  0.50400001928E-02 0. -1.
       -1    1    3    3    0  502  0.16176260917E+03  0.18747136094E+03 -0.52339017728E+03  0.57900771203E+03  0.50400001928E-02 0.  1.
</event>
<event>
 5   0  0.1330225E-04  0.1810846E+04  0.7818609E-02  0.8700553E-01
       -1   -1    0    0    0  501  0.00000000000E+00  0.00000000000E+00  0.59805524137E+03  0.59805524139E+03  0.50400001928E-02 0. -1.
        1   -1    0    0  501    0  0.00000000000E+00  0.00000000000E+00 -0.13707616665E+04  0.13707616665E+04  0.50400001928E-02 0.  1.
    10030    2    1    2    0    0  0.00000000000E+00  0.00000000000E+00 -0.77270642516E+03  0.19688169079E+04  0.18108464312E+04 0.  0.
        3    1    3    3  502    0 -0.20239848861E+03  0.83754819136E+03 -0.68871240470E+03  0.11030761114E+04  0.10100000352E+00 0.  1.
       -3    1    3    3    0  502  0.20239848861E+03 -0.83754819136E+03 -0.83994020466E+02  0.86574079650E+03  0.10100000352E+00 0. -1.
</event>
<event>
 5   0  0.2393421E-04  0.1798362E+04  0.7818609E-02  0.8707171E-01
       -2   -1    0    0    0  501  0.00000000000E+00  0.00000000000E+00  0.44289117151E+03  0.44289117152E+03  0.25500000920E-02 0.  1.
        2   -1    0    0  501    0  0.00000000000E+00  0.00000000000E+00 -0.18255649150E+04  0.18255649150E+04  0.25500000920E-02 0. -1.
    10030    2    1    2    0    0  0.00000000000E+00  0.00000000000E+00 -0.13826737435E+04  0.22684560865E+04  0.17983621258E+04 0.  0.
        5    1    3    3  502    0 -0.72541831698E+02  0.72655522890E+03 -0.29420078116E+02  0.73077523835E+03  0.46999998093E+01 0.  1.
       -5    1    3    3    0  502  0.72541831698E+02 -0.72655522890E+03 -0.13532536654E+04  0.15376808482E+04  0.46999998093E+01 0. -1.
</event>
<event>
 5   0  0.2431811E-04  0.1794519E+04  0.7818609E-02  0.8709220E-01
        2   -1    0    0  501    0  0.00000000000E+00  0.00000000000E+00  0.87369432825E+03  0.87369432825E+03  0.25500000920E-02 0. -1.
       -2   -1    0    0    0  501  0.00000000000E+00  0.00000000000E+00 -0.92146032349E+03  0.92146032349E+03  0.25500000920E-02 0.  1.
    10030    2    1    2    0    0  0.00000000000E+00  0.00000000000E+00 -0.47765995236E+02  0.17951546517E+04  0.17945190535E+04 0.  0.
        3    1    3    3  502    0  0.20671430961E+03 -0.81129158587E+02 -0.89353658459E+03  0.92071732055E+03  0.10100000352E+00 0.  1.
       -3    1    3    3    0  502 -0.20671430961E+03  0.81129158587E+02  0.84577058935E+03  0.87443733119E+03  0.10100000352E+00 0. -1.
</event>
<event>
 5   0  0.2431811E-04  0.1796669E+04  0.7818609E-02  0.8708073E-01
       -2   -1    0    0    0  501  0.00000000000E+00  0.00000000000E+00  0.67031116630E+03  0.67031116630E+03  0.25500000920E-02 0.  1.
        2   -1    0    0  501    0  0.00000000000E+00  0.00000000000E+00 -0.12039257243E+04  0.12039257243E+04  0.25500000920E-02 0. -1.
    10030    2    1    2    0    0  0.00000000000E+00  0.00000000000E+00 -0.53361455798E+03  0.18742368906E+04  0.17966689805E+04 0.  0.
        3    1    3    3  502    0  0.11523848785E+03  0.40669821495E+03 -0.10936965789E+04  0.11725423506E+04  0.10100000352E+00 0. -1.
       -3    1    3    3    0  502 -0.11523848785E+03 -0.40669821495E+03  0.56008202088E+03  0.70169453998E+03  0.10100000352E+00 0.  1.
</event>
<event>
 5   0  0.1214723E-04  0.1655308E+04  0.7818609E-02  0.8787273E-01
        1   -1    0    0  501    0  0.00000000000E+00  0.00000000000E+00  0.19257886960E+04  0.19257886960E+04  0.50400001928E-02 0. -1.
       -1   -1    0    0    0  501  0.00000000000E+00  0.00000000000E+00 -0.35570401185E+03  0.35570401188E+03  0.50400001928E-02 0.  1.
    10030    2    1    2    0    0  0.00000000000E+00  0.00000000000E+00  0.15700846842E+04  0.22814927079E+04  0.16553075427E+04 0.  0.
        1    1    3    3  502    0 -0.55764056271E+02 -0.43104370585E+02 -0.35156020703E+03  0.35855570826E+03  0.50400001928E-02 0.  1.
       -1    1    3    3    0  502  0.55764056271E+02  0.43104370585E+02  0.19216448912E+04  0.19229369996E+04  0.50400001928E-02 0. -1.
</event>
<event>
 5   0  0.1308893E-04  0.1802536E+04  0.7818609E-02  0.8704952E-01
        1   -1    0    0  501    0  0.00000000000E+00  0.00000000000E+00  0.11919329585E+04  0.11919329585E+04  0.50400001928E-02 0.  1.
       -1   -1    0    0    0  501  0.00000000000E+00  0.00000000000E+00 -0.68148438382E+03  0.68148438383E+03  0.50400001928E-02 0. -1.
    10030    2    1    2    0    0  0.00000000000E+00  0.00000000000E+00  0.51044857468E+03  0.18734173423E+04  0.18025356560E+04 0.  0.
        4    1    3    3  502    0 -0.29246504229E+03 -0.73511244124E+03 -0.19344086751E+03  0.81446122335E+03  0.12699999809E+01 0. -1.
       -4    1    3    3    0  502  0.29246504229E+03  0.73511244124E+03  0.70388944219E+03  0.10589561190E+04  0.12699999809E+01 0.  1.
</event>
<event>
 5   0  0.1214723E-04  0.1800148E+04  0.7818609E-02  0.8706221E-01
        1   -1    0    0  501    0  0.00000000000E+00  0.00000000000E+00  0.12376946369E+04  0.12376946369E+04  0.50400001928E-02 0. -1.
       -1   -1    0    0    0  501  0.00000000000E+00  0.00000000000E+00 -0.65455030267E+03  0.65455030269E+03  0.50400001928E-02 0.  1.
    10030    2    1    2    0    0  0.00000000000E+00  0.00000000000E+00  0.58314433420E+03  0.18922449396E+04  0.18001482152E+04 0.  0.
        1    1    3    3  502    0  0.27427557431E+03 -0.37281141568E+02 -0.60870038584E+03  0.66868014321E+03  0.50400001928E-02 0.  1.
       -1    1    3    3    0  502 -0.27427557431E+03  0.37281141568E+02  0.11918447200E+04  0.12235647964E+04  0.50400001928E-02 0. -1.
</event>
<event>
 5   0  0.1239119E-04  0.1692693E+04  0.7818609E-02  0.8765543E-01
        1   -1    0    0  501    0  0.00000000000E+00  0.00000000000E+00  0.11986864908E+04  0.11986864908E+04  0.50400001928E-02 0. -1.
       -1   -1    0    0    0  501  0.00000000000E+00  0.00000000000E+00 -0.59757303844E+03  0.59757303846E+03  0.50400001928E-02 0.  1.
    10030    2    1    2    0    0  0.00000000000E+00  0.00000000000E+00  0.60111345238E+03  0.17962595293E+04  0.16926933904E+04 0.  0.
        5    1    3    3  502    0  0.19720172416E+03 -0.53220680187E+02 -0.57101066943E+03  0.60646206428E+03  0.46999998093E+01 0.  1.
       -5    1    3    3    0  502 -0.19720172416E+03  0.53220680187E+02  0.11721241218E+04  0.11897974650E+04  0.46999998093E+01 0. -1.
</event>
<event>
 5   0  0.1330225E-04  0.1791045E+04  0.7818609E-02  0.8711076E-01
       -1   -1    0    0    0  501  0.00000000000E+00  0.00000000000E+00  0.39235530492E+03  0.39235530495E+03  0.50400001928E-02 0. -1.
        1   -1    0    0  501    0  0.00000000000E+00  0.00000000000E+00 -0.20439648802E+04  0.20439648802E+04  0.50400001928E-02 0.  1.
    10030    2    1    2    0    0  0.00000000000E+00  0.00000000000E+00 -0.16516095753E+04  0.24363201851E+04  0.17910449060E+04 0.  0.
        3    1    3    3  502    0 -0.70862910686E+03 -0.28602789700E+03 -0.19069406327E+03  0.78761120162E+03  0.10100000352E+00 0. -1.
       -3    1    3    3    0  502  0.70862910686E+03  0.28602789700E+03 -0.14609155120E+04  0.16487089835E+04  0.10100000352E+00 0.  1.
</event>
<event>
 5   0  0.1308893E-04  0.1822430E+04  0.7818609E-02  0.8694462E-01
        1   -1    0    0  501    0  0.00000000000E+00  0.00000000000E+00  0.61622221837E+03  0.61622221839E+03  0.50400001928E-02 0.  1.
       -1   -1    0    0    0  501  0.00000000000E+00  0.00000000000E+00 -0.13474239788E+04  0.13474239788E+04  0.50400001928E-02 0. -1.
    10030    2    1    2    0    0  0.00000000000E+00  0.00000000000E+00 -0.73120176047E+03  0.19636461972E+04  0.18224297993E+04 0.  0.
        4    1    3    3  502    0  0.38184567813E+03  0.64143649722E+03  0.19744621086E+03  0.77216158993E+03  0.12699999809E+01 0.  1.
       -4    1    3    3    0  502 -0.38184567813E+03 -0.64143649722E+03 -0.92864797133E+03  0.11914846073E+04  0.12699999809E+01 0. -1.
</event>
<event>
 5   0  0.1253925E-04  0.1820364E+04  0.7818609E-02  0.8695544E-01
       -1   -1    0    0    0  501  0.00000000000E+00  0.00000000000E+00  0.79065671524E+03  0.79065671526E+03  0.50400001928E-02 0.  1.
        1   -1    0    0  501    0  0.00000000000E+00  0.00000000000E+00 -0.10477761610E+04  0.10477761610E+04  0.50400001928E-02 0. -1.
    10030    2    1    2    0    0  0.00000000000E+00  0.00000000000E+00 -0.25711944578E+03  0.18384328763E+04  0.18203639832E+04 0.  0.
        2    1    3    3  502    0  0.25788753369E+03 -0.61783492827E+03 -0.75128804046E+03  0.10063099415E+04  0.25500000920E-02 0. -1.
       -2    1    3    3    0  502 -0.25788753369E+03  0.61783492827E+03  0.49416859468E+03  0.83212293479E+03  0.25500000920E-02 0.  1.
</event>
<event>
 5   0  0.2569405E-04  0.1791821E+04  0.7818609E-02  0.8710661E-01
       -2   -1    0    0    0  501  0.00000000000E+00  0.00000000000E+00  0.99239548360E+03  0.99239548361E+03  0.25500000920E-02 0.  1.
        2   -1    0    0  501    0  0.00000000000E+00  0.00000000000E+00 -0.80880650489E+03  0.80880650489E+03  0.25500000920E-02 0. -1.
    10030    2    1    2    0    0  0.00000000000E+00  0.00000000000E+00  0.18358897872E+03  0.18012019885E+04  0.17918213332E+04 0.  0.
        2    1    3    3  502    0  0.72692990125E+03 -0.32387770902E+03  0.50544858109E+03  0.94276302423E+03  0.25500000920E-02 0.  1.
       -2    1    3    3    0  502 -0.72692990125E+03  0.32387770902E+03 -0.32185960238E+03  0.85843896427E+03  0.25500000920E-02 0. -1.
</event>
<event>
 5   0  0.1239119E-04  0.1801637E+04  0.7818609E-02  0.8705429E-01
        1   -1    0    0  501    0  0.00000000000E+00  0.00000000000E+00  0.71444399810E+03  0.71444399812E+03  0.50400001928E-02 0.  1.
       -1   -1    0    0    0  501  0.00000000000E+00  0.00000000000E+00 -0.11358124743E+04  0.11358124743E+04  0.50400001928E-02 0. -1.
    10030    2    1    2    0    0  0.00000000000E+00  0.00000000000E+00 -0.42136847617E+03  0.18502564724E+04  0.18016374832E+04 0.  0.
        5    1    3    3  502    0  0.95855370306E+02 -0.87696743548E+03 -0.23580521651E+02  0.88251813914E+03  0.46999998093E+01 0.  1.
       -5    1    3    3    0  502 -0.95855370306E+02  0.87696743548E+03 -0.39778795452E+03  0.96773833326E+03  0.46999998093E+01 0. -1.
</event>
<event>
 5   0  0.1330225E-04  0.1824479E+04  0.7818609E-02  0.8693389E-01
        1   -1    0    0  501    0  0.00000000000E+00  0.00000000000E+00  0.69099810353E+03  0.69099810355E+03  0.50400001928E-02 0.  1.
       -1   -1    0    0    0  501  0.00000000000E+00  0.00000000000E+00 -0.12043168316E+04  0.12043168316E+04  0.50400001928E-02 0. -1.
    10030    2    1    2    0    0  0.00000000000E+00  0.00000000000E+00 -0.51331872803E+03  0.18953149351E+04  0.18244787164E+04 0.  0.
        3    1    3    3  502    0 -0.59996682048E+03 -0.58658495762E+03  0.11520320581E+03  0.84694385116E+03  0.10100000352E+00 0.  1.
       -3    1    3    3    0  502  0.59996682048E+03  0.58658495762E+03 -0.62852193384E+03  0.10483710840E+04  0.10100000352E+00 0. -1.
</event>
<event>
 5   0  0.2569405E-04  0.1778439E+04  0.7818609E-02  0.8717850E-01
       -2   -1    0    0    0  501  0.00000000000E+00  0.00000000000E+00  0.88808497375E+03  0.88808497376E+03  0.25500000920E-02 0.  1.
        2   -1    0    0  501    0  0.00000000000E+00  0.00000000000E+00 -0.89035559779E+03  0.89035559780E+03  0.25500000920E-02 0. -1.
    10030    2    1    2    0    0  0.00000000000E+00  0.00000000000E+00 -0.22706240393E+01  0.17784405716E+04  0.17784391220E+04 0.  0.
        2    1    3    3  502    0  0.28256878525E+03  0.82296078585E+03  0.18217292300E+03  0.88898624698E+03  0.25500000920E-02 0.  1.
       -2    1    3    3    0  502 -0.28256878525E+03 -0.82296078585E+03 -0.18444354704E+03  0.88945432457E+03  0.25500000920E-02 0. -1.
</event>
<event>
 5   0  0.1253925E-04  0.1804201E+04  0.7818609E-02  0.8704069E-01
       -1   -1    0    0    0  501  0.00000000000E+00  0.00000000000E+00  0.13671004330E+04  0.13671004330E+04  0.50400001928E-02 0. -1.
        1   -1    0    0  501    0  0.00000000000E+00  0.00000000000E+00 -0.59526384818E+03  0.59526384820E+03  0.50400001928E-02 0.  1.
    10030    2    1    2    0    0  0.00000000000E+00  0.00000000000E+00  0.77183658477E+03  0.19623642812E+04  0.18042011690E+04 0.  0.
        2    1    3    3  502    0  0.33559142385E+03 -0.63888271638E+03 -0.20282110186E+03  0.74961932234E+03  0.25500000920E-02 0.  1.
       -2    1    3    3    0  502 -0.33559142385E+03  0.63888271638E+03  0.97465768663E+03  0.12127449588E+04  0.25500000920E-02 0. -1.
</event>
<event>
 5   0  0.1239119E-04  0.1768237E+04  0.7818609E-02  0.8723376E-01
        1   -1    0    0  501    0  0.00000000000E+00  0.00000000000E+00  0.14201385515E+04  0.14201385515E+04  0.50400001928E-02 0.  1.
       -1   -1    0    0    0  501  0.00000000000E+00  0.00000000000E+00 -0.55041470043E+03  0.55041470045E+03  0.50400001928E-02 0. -1.
    10030    2    1    2    0    0  0.00000000000E+00  0.00000000000E+00  0.86972385105E+03  0.19705532519E+04  0.17682365627E+04 0.  0.
        5    1    3    3  502    0  0.36253313227E+01 -0.79902992911E+03  0.13174531591E+02  0.79916057768E+03  0.46999998093E+01 0. -1.
       -5    1    3    3    0  502 -0.36253313227E+01  0.79902992911E+03  0.85654931946E+03  0.11713926743E+04  0.46999998093E+01 0.  1.
</event>
<event>
 5   0  0.2550616E-04  0.1803899E+04  0.7818609E-02  0.8704229E-01
       -2   -1    0    0    0  501  0.00000000000E+00  0.00000000000E+00  0.50667222989E+03  0.50667222990E+03  0.25500000920E-02 0. -1.
        2   -1    0    0  501    0  0.00000000000E+00  0.00000000000E+00 -0.16056003026E+04  0.16056003026E+04  0.25500000920E-02 0.  1.
    10030    2    1    2    0    0  0.00000000000E+00  0.00000000000E+00 -0.10989280728E+04  0.21122725325E+04  0.18038992052E+04 0.  0.
        1    1    3    3  502    0  0.67042409183E+03 -0.29704539819E+03 -0.11644166178E+04  0.13760706709E+04  0.50400001928E-02 0.  1.
       -1    1    3    3    0  502 -0.67042409183E+03  0.29704539819E+03  0.65488545066E+02  0.73620186162E+03  0.50400001928E-02 0. -1.
</event>
<event>
 5   0  0.2569405E-04  0.1825544E+04  0.7818609E-02  0.8692832E-01
        2   -1    0    0  501    0  0.00000000000E+00  0.00000000000E+00  0.11234165974E+04  0.11234165974E+04  0.25500000920E-02 0.  1.
       -2   -1    0    0    0  501  0.00000000000E+00  0.00000000000E+00 -0.74162374937E+03  0.74162374937E+03  0.25500000920E-02 0. -1.
    10030    2    1    2    0    0  0.00000000000E+00  0.00000000000E+00  0.38179284807E+03  0.18650403468E+04  0.18255436769E+04 0.  0.
        2    1    3    3  502    0 -0.54880592722E+03  0.23002067494E+03  0.89800919261E+03  0.10772733946E+04  0.25500000920E-02 0.  1.
       -2    1    3    3    0  502  0.54880592722E+03 -0.23002067494E+03 -0.51621634454E+03  0.78776695223E+03  0.25500000920E-02 0. -1.
</event>
<event>
 5   0  0.2417106E-04  0.1782695E+04  0.7818609E-02  0.8715556E-01
       -2   -1    0    0    0  501  0.00000000000E+00  0.00000000000E+00  0.44675188934E+03  0.44675188935E+03  0.25500000920E-02 0.  1.
        2   -1    0    0  501    0  0.00000000000E+00  0.00000000000E+00 -0.17783935846E+04  0.17783935846E+04  0.25500000920E-02 0. -1.
    10030    2    1    2    0    0  0.00000000000E+00  0.00000000000E+00 -0.13316416952E+04  0.22251454739E+04  0.17826953681E+04 0.  0.
        4    1    3    3  502    0 -0.59841684503E+03  0.35817747036E+02 -0.14891671264E+04  0.16053055705E+04  0.12699999809E+01 0. -1.
       -4    1    3    3    0  502  0.59841684503E+03 -0.35817747036E+02  0.15752543122E+03  0.61983990337E+03  0.12699999809E+01 0.  1.
</event>
<event>
 5   0  0.2393421E-04  0.1788417E+04  0.7818609E-02  0.8712483E-01
       -2   -1    0    0    0  501  0.00000000000E+00  0.00000000000E+00  0.10117422063E+04  0.10117422063E+04  0.25500000920E-02 0.  1.
        2   -1    0    0  501    0  0.00000000000E+00  0.00000000000E+00 -0.79032876824E+03  0.79032876824E+03  0.25500000920E-02 0. -1.
    10030    2    1    2    0    0  0.00000000000E+00  0.00000000000E+00  0.22141343808E+03  0.18020709746E+04  0.17884171456E+04 0.  0.
        5    1    3    3  502    0  0.52857790235E+01  0.38908625040E+03  0.92194382803E+03  0.10007090295E+04  0.46999998093E+01 0.  1.
       -5    1    3    3    0  502 -0.52857790235E+01 -0.38908625040E+03 -0.70053038996E+03  0.80136194504E+03  0.46999998093E+01 0. -1.
</event>
<event>
 5   0  0.2417106E-04  0.1796403E+04  0.7818609E-02  0.8708215E-01
       -2   -1    0    0    0  501  0.00000000000E+00  0.00000000000E+00  0.60010612131E+03  0.60010612131E+03  0.25500000920E-02 0. -1.
        2   -1    0    0  501    0  0.00000000000E+00  0.00000000000E+00 -0.13443717582E+04  0.13443717582E+04  0.25500000920E-02 0.  1.
    10030    2    1    2    0    0  0.00000000000E+00  0.00000000000E+00 -0.74426563688E+03  0.19444778795E+04  0.17964027626E+04 0.  0.
        4    1    3    3  502    0  0.32790391821E+03  0.71864042691E+03 -0.83492528262E+03  0.11493767369E+04  0.12699999809E+01 0.  1.
       -4    1    3    3    0  502 -0.32790391821E+03 -0.71864042691E+03  0.90659645738E+02  0.79510114264E+03  0.12699999809E+01 0. -1.
</event>
<event>
 5   0  0.2550616E-04  0.1735047E+04  0.7818609E-02  0.8741624E-01
        2   -1    0    0  501    0  0.00000000000E+00  0.00000000000E+00  0.84751337474E+03  0.84751337474E+03  0.25500000920E-02 0.  1.
       -2   -1    0    0    0  501  0.00000000000E+00  0.00000000000E+00 -0.88800606079E+03  0.88800606079E+03  0.25500000920E-02 0. -1.
    10030    2    1    2    0    0  0.00000000000E+00  0.00000000000E+00 -0.40492686047E+02  0.17355194355E+04  0.17350469888E+04 0.  0.
        1    1    3    3  502    0  0.13100290485E+03  0.97524956252E+02  0.83199747289E+03  0.84787538771E+03  0.50400001928E-02 0.  1.
       -1    1    3    3    0  502 -0.13100290485E+03 -0.97524956252E+02 -0.87249015893E+03  0.88764404782E+03  0.50400001928E-02 0. -1.
</event>
<event>
 5   0  0.1253925E-04  0.1790054E+04  0.7818609E-02  0.8711607E-01
       -1   -1    0    0    0  501  0.00000000000E+00  0.00000000000E+00  0.50813449854E+03  0.50813449857E+03  0.50400001928E-02 0.  1.
        1   -1    0    0  501    0  0.00000000000E+00  0.00000000000E+00 -0.15764982072E+04  0.15764982072E+04  0.50400001928E-02 0. -1.
    10030    2    1    2    0    0  0.00000000000E+00  0.00000000000E+00 -0.10683637087E+04  0.20846327058E+04  0.17900537713E+04 0.  0.
        2    1    3    3  502    0 -0.41241621784E+03  0.52206201892E+03  0.16303845804E+03  0.68499447234E+03  0.25500000920E-02 0.  1.
       -2    1    3    3    0  502  0.41241621784E+03 -0.52206201892E+03 -0.12314021667E+04  0.13996382334E+04  0.25500000920E-02 0. -1.
</event>
<event>
 5   0  0.2569405E-04  0.1823771E+04  0.7818609E-02  0.8693760E-01
       -2   -1    0    0    0  501  0.00000000000E+00  0.00000000000E+00  0.88177642002E+03  0.88177642002E+03  0.25500000920E-02 0.  1.
        2   -1    0    0  501    0  0.00000000000E+00  0.00000000000E+00 -0.94302253833E+03  0.94302253833E+03  0.25500000920E-02 0. -1.
    10030    2    1    2    0    0  0.00000000000E+00  0.00000000000E+00 -0.61246118310E+02  0.18247989584E+04  0.18237708604E+04 0.  0.
        2    1    3    3  502    0 -0.86793518847E+03 -0.10427685941E+03  0.22904179703E+03  0.90368429199E+03  0.25500000920E-02 0.  1.
       -2    1    3    3    0  502  0.86793518847E+03  0.10427685941E+03 -0.29028791534E+03  0.92111466637E+03  0.25500000920E-02 0. -1.
</event>
<event>
 5   0  0.2431811E-04  0.1819216E+04  0.7818609E-02  0.8696147E-01
        2   -1    0    0  501    0  0.00000000000E+00  0.00000000000E+00  0.19217629323E+04  0.19217629323E+04  0.25500000920E-02 0. -1.
       -2   -1    0    0    0  501  0.00000000000E+00  0.00000000000E+00 -0.43053519131E+03  0.43053519132E+03  0.25500000920E-02 0.  1.
    10030    2    1    2    0    0  0.00000000000E+00  0.00000000000E+00  0.14912277410E+04  0.23522981236E+04  0.18192158440E+04 0.  0.
        3    1    3    3  502    0 -0.52793917603E+03  0.16904907319E+03 -0.18688228430E+03  0.58499774454E+03  0.10100000352E+00 0.  1.
       -3    1    3    3    0  502  0.52793917603E+03 -0.16904907319E+03  0.16781100253E+04  0.17673003791E+04  0.10100000352E+00 0. -1.
</event>
<event>
 5   0  0.2393421E-04  0.1731427E+04  0.7818609E-02  0.8743641E-01
        2   -1    0    0  501    0  0.00000000000E+00  0.00000000000E+00  0.62487882967E+03  0.62487882968E+03  0.25500000920E-02 0.  1.
       -2   -1    0    0    0  501  0.00000000000E+00  0.00000000000E+00 -0.11993677069E+04  0.11993677069E+04  0.25500000920E-02 0. -1.
    10030    2    1    2    0    0  0.00000000000E+00  0.00000000000E+00 -0.57448887723E+03  0.18242465366E+04  0.17314265668E+04 0.  0.
        5    1    3    3  502    0 -0.16580623852E+03  0.55428750257E+03 -0.96574820000E+03  0.11257966158E+04  0.46999998093E+01 0. -1.
       -5    1    3    3    0  502  0.16580623852E+03 -0.55428750257E+03  0.39125932278E+03  0.69844992082E+03  0.46999998093E+01 0.  1.
</event>
<event>
 5   0  0.2550616E-04  0.1794207E+04  0.7818609E-02  0.8709386E-01
        2   -1    0    0  501    0  0.00000000000E+00  0.00000000000E+00  0.10809020583E+04  0.10809020583E+04  0.25500000920E-02 0.  1.
       -2   -1    0    0    0  501  0.00000000000E+00  0.00000000000E+00 -0.74455869492E+03  0.74455869493E+03  0.25500000920E-02 0. -1.
    10030    2    1    2    0    0  0.00000000000E+00  0.00000000000E+00  0.33634336336E+03  0.18254607532E+04  0.17942073747E+04 0.  0.
        1    1    3    3  502    0 -0.83456336413E+03 -0.14476467662E+03  0.46885680385E+03  0.96813197597E+03  0.50400001928E-02 0.  1.
       -1    1    3    3    0  502  0.83456336413E+03  0.14476467662E+03 -0.13251344049E+03  0.85732877724E+03  0.50400001928E-02 0. -1.
</event>
<event>
 5   0  0.1214723E-04  0.1790324E+04  0.7818609E-02  0.8711462E-01
       -1   -1    0    0    0  501  0.00000000000E+00  0.00000000000E+00  0.71084605642E+03  0.71084605644E+03  0.50400001928E-02 0.  1.
        1   -1    0    0  501    0  0.00000000000E+00  0.00000000000E+00 -0.11272692330E+04  0.11272692330E+04  0.50400001928E-02 0. -1.
    10030    2    1    2    0    0  0.00000000000E+00  0.00000000000E+00 -0.41642317656E+03  0.18381152894E+04  0.17903238688E+04 0.  0.
        1    1    3    3  502    0  0.11365691196E+03  0.61570456124E+03  0.44863600281E+03  0.77024948128E+03  0.50400001928E-02 0.  1.
       -1    1    3    3    0  502 -0.11365691196E+03 -0.61570456124E+03 -0.86505917937E+03  0.10678658081E+04  0.50400001928E-02 0. -1.
</event>
<event>
 5   0  0.2569405E-04  0.1822746E+04  0.7818609E-02  0.8694296E-01
        2   -1    0    0  501    0  0.00000000000E+00  0.00000000000E+00  0.23009605489E+04  0.23009605489E+04  0.25500000920E-02 0.  1.
       -2   -1    0    0    0  501  0.00000000000E+00  0.00000000000E+00 -0.36097991319E+03  0.36097991320E+03  0.25500000920E-02 0. -1.
    10030    2    1    2    0    0  0.00000000000E+00  0.00000000000E+00  0.19399806357E+04  0.26619404621E+04  0.18227457741E+04 0.  0.
        2    1    3    3  502    0 -0.44016063399E+00  0.25841781625E+03 -0.30635419253E+03  0.40079028529E+03  0.25500000920E-02 0. -1.
       -2    1    3    3    0  502  0.44016063399E+00 -0.25841781625E+03  0.22463348283E+04  0.22611501768E+04  0.25500000920E-02 0.  1.
</event>
<event>
 5   0  0.1330225E-04  0.1796830E+04  0.7818609E-02  0.8707987E-01
        1   -1    0    0  501    0  0.00000000000E+00  0.00000000000E+00  0.95443238044E+03  0.95443238046E+03  0.50400001928E-02 0. -1.
       -1   -1    0    0    0  501  0.00000000000E+00  0.00000000000E+00 -0.84568491757E+03  0.84568491759E+03  0.50400001928E-02 0.  1.
    10030    2    1    2    0    0  0.00000000000E+00  0.00000000000E+00  0.10874746287E+03  0.18001172980E+04  0.17968295067E+04 0.  0.
        3    1    3    3  502    0  0.33823733395E+03  0.83227902017E+03  0.46863527348E+02  0.89960494768E+03  0.10100000352E+00 0.  1.
       -3    1    3    3    0  502 -0.33823733395E+03 -0.83227902017E+03  0.61883935521E+02  0.90051235037E+03  0.10100000352E+00 0. -1.
</event>
<event>
 5   0  0.2393421E-04  0.1801991E+04  0.7818609E-02  0.8705242E-01
        2   -1    0    0  501    0  0.00000000000E+00  0.00000000000E+00  0.82040634227E+03  0.82040634227E+03  0.25500000920E-02 0.  1.
       -2   -1    0    0    0  501  0.00000000000E+00  0.00000000000E+00 -0.98950058854E+03  0.98950058855E+03  0.25500000920E-02 0. -1.
    10030    2    1    2    0    0  0.00000000000E+00  0.00000000000E+00 -0.16909424628E+03  0.18099069308E+04  0.18019906310E+04 0.  0.
        5    1    3    3  502    0 -0.63890711002E+03 -0.18137286256E+03 -0.69605018949E+03  0.96208438653E+03  0.46999998093E+01 0. -1.
       -5    1    3    3    0  502  0.63890711002E+03  0.18137286256E+03  0.52695594322E+03  0.84782254429E+03  0.46999998093E+01 0.  1.
</event>
<event>
 5   0  0.1253925E-04  0.1775293E+04  0.7818609E-02  0.8719550E-01
       -1   -1    0    0    0  501  0.00000000000E+00  0.00000000000E+00  0.15734961913E+04  0.15734961913E+04  0.50400001928E-02 0. -1.
        1   -1    0    0  501    0  0.00000000000E+00  0.00000000000E+00 -0.50074250957E+03  0.50074250960E+03  0.50400001928E-02 0.  1.
    10030    2    1    2    0    0  0.00000000000E+00  0.00000000000E+00  0.10727536817E+04  0.20742387009E+04  0.17752931382E+04 0.  0.
        2    1    3    3  502    0  0.39466031307E+03 -0.16189973685E+03 -0.37313087630E+03  0.56674062706E+03  0.25500000920E-02 0.  1.
       -2    1    3    3    0  502 -0.39466031307E+03  0.16189973685E+03  0.14458845580E+04  0.15074980739E+04  0.25500000920E-02 0. -1.
</event>
<event>
 5   0  0.2417106E-04  0.1816436E+04  0.7818609E-02  0.8697608E-01
       -2   -1    0    0    0  501  0.00000000000E+00  0.00000000000E+00  0.97766761258E+03  0.97766761259E+03  0.25500000920E-02 0.  1.
        2   -1    0    0  501    0  0.00000000000E+00  0.00000000000E+00 -0.84370147009E+03  0.84370147009E+03  0.25500000920E-02 0. -1.
    10030    2    1    2    0    0  0.00000000000E+00  0.00000000000E+00  0.13396614250E+03  0.18213690827E+04  0.18164356328E+04 0.  0.
        4    1    3    3  502    0  0.82087089683E+03 -0.30046947038E+03 -0.18015552156E+03  0.89250689451E+03  0.12699999809E+01 0.  1.
       -4    1    3    3    0  502 -0.82087089683E+03  0.30046947038E+03  0.31412166405E+03  0.92886218817E+03  0.12699999809E+01 0. -1.
</event>
<event>
 5   0  0.1214723E-04  0.1811982E+04  0.7818609E-02  0.8699954E-01
       -1   -1    0    0    0  501  0.00000000000E+00  0.00000000000E+00  0.60322807718E+03  0.60322807720E+03  0.50400001928E-02 0.  1.
        1   -1    0    0  501    0  0.00000000000E+00  0.00000000000E+00 -0.13607116632E+04  0.13607116632E+04  0.50400001928E-02 0. -1.
    10030    2    1    2    0    0  0.00000000000E+00  0.00000000000E+00 -0.75748358602E+03  0.19639397404E+04  0.18119817662E+04 0.  0.
        1    1    3    3  502    0 -0.57569419410E+03  0.63719448896E+03 -0.65772083224E+02  0.86125872353E+03  0.50400001928E-02 0.  1.
       -1    1    3    3    0  502  0.57569419410E+03 -0.63719448896E+03 -0.69171150280E+03  0.11026810169E+04  0.50400001928E-02 0. -1.
</event>
<event>
 5   0  0.2550616E-04  0.1804140E+04  0.7818609E-02  0.8704101E-01
        2   -1    0    0  501    0  0.00000000000E+00  0.00000000000E+00  0.68169656121E+03  0.68169656121E+03  0.25500000920E-02 0.  1.
       -2   -1    0    0    0  501  0.00000000000E+00  0.00000000000E+00 -0.11936838661E+04  0.11936838661E+04  0.25500000920E-02 0. -1.
    10030    2    1    2    0    0  0.00000000000E+00  0.00000000000E+00 -0.51198730489E+03  0.18753804273E+04  0.18041398911E+04 0.  0.
        1    1    3    3  502    0 -0.78254890248E+03  0.27277751812E+03  0.11436127040E+03  0.83658165134E+03  0.50400001928E-02 0.  1.
       -1    1    3    3    0  502  0.78254890248E+03 -0.27277751812E+03 -0.62634857529E+03  0.10387987760E+04  0.50400001928E-02 0. -1.
</event>
<event>
 5   0  0.1308893E-04  0.1815215E+04  0.7818609E-02  0.8698250E-01
        1   -1    0    0  501    0  0.00000000000E+00  0.00000000000E+00  0.71371260243E+03  0.71371260245E+03  0.50400001928E-02 0. -1.
       -1   -1    0    0    0  501  0.00000000000E+00  0.00000000000E+00 -0.11541777241E+04  0.11541777241E+04  0.50400001928E-02 0.  1.
    10030    2    1    2    0    0  0.00000000000E+00  0.00000000000E+00 -0.44046512167E+03  0.18678903266E+04  0.18152147941E+04 0.  0.
        4    1    3    3  502    0  0.63917460771E+03  0.34934593477E+03  0.33692469499E+03  0.80256253606E+03  0.12699999809E+01 0. -1.
       -4    1    3    3    0  502 -0.63917460771E+03 -0.34934593477E+03 -0.77738981667E+03  0.10653277905E+04  0.12699999809E+01 0.  1.
</event>
<event>
 5   0  0.9144875E-05  0.1826239E+04  0.7818609E-02  0.8692469E-01
        3   -1    0    0  501    0  0.00000000000E+00  0.00000000000E+00  0.12742975274E+04  0.12742975314E+04  0.10100000352E+00 0. -1.
       -3   -1    0    0    0  501  0.00000000000E+00  0.00000000000E+00 -0.65431136823E+03  0.65431137603E+03  0.10100000352E+00 0.  1.
    10030    2    1    2    0    0  0.00000000000E+00  0.00000000000E+00  0.61998615912E+03  0.19286089074E+04  0.18262391629E+04 0.  0.
        5    1    3    3  502    0  0.76741083310E+03  0.15858140172E+03 -0.18500031369E+03  0.80517988909E+03  0.46999998093E+01 0.  1.
       -5    1    3    3    0  502 -0.76741083310E+03 -0.15858140172E+03  0.80498647281E+03  0.11234290183E+04  0.46999998093E+01 0. -1.
</event>
<event>
 5   0  0.2431811E-04  0.1801247E+04  0.7818609E-02  0.8705637E-01
        2   -1    0    0  501    0  0.00000000000E+00  0.00000000000E+00  0.13770117672E+04  0.13770117672E+04  0.25500000920E-02 0. -1.
       -2   -1    0    0    0  501  0.00000000000E+00  0.00000000000E+00 -0.58904535316E+03  0.58904535317E+03  0.25500000920E-02 0.  1.
    10030    2    1    2    0    0  0.00000000000E+00  0.00000000000E+00  0.78796641406E+03  0.19660571204E+04  0.18012466602E+04 0.  0.
        3    1    3    3  502    0 -0.59867327821E+03  0.21493367811E+03  0.10899072925E+04  0.12619445695E+04  0.10100000352E+00 0. -1.
       -3    1    3    3    0  502  0.59867327821E+03 -0.21493367811E+03 -0.30194087846E+03  0.70411255088E+03  0.10100000352E+00 0.  1.
</event>
<event>
 5   0  0.1330225E-04  0.1782226E+04  0.7818609E-02  0.8715809E-01
       -1   -1    0    0    0  501  0.00000000000E+00  0.00000000000E+00  0.49678376228E+03  0.49678376231E+03  0.50400001928E-02 0. -1.
        1   -1    0    0  501    0  0.00000000000E+00  0.00000000000E+00 -0.15984467161E+04  0.15984467161E+04  0.50400001928E-02 0.  1.
    10030    2    1    2    0    0  0.00000000000E+00  0.00000000000E+00 -0.11016629538E+04  0.20952304784E+04  0.17822259941E+04 0.  0.
        3    1    3    3  502    0  0.10506825687E+03 -0.56029811090E+03 -0.13560354993E+04  0.14709879664E+04  0.10100000352E+00 0.  1.
       -3    1    3    3    0  502 -0.10506825687E+03  0.56029811090E+03  0.25437254552E+03  0.62424251201E+03  0.10100000352E+00 0. -1.
</event>
<event>
 5   0  0.2550616E-04  0.1794755E+04  0.7818609E-02  0.8709093E-01
        2   -1    0    0  501    0  0.00000000000E+00  0.00000000000E+00  0.12513408539E+04  0.12513408539E+04  0.25500000920E-02 0. -1.
       -2   -1    0    0    0  501  0.00000000000E+00  0.00000000000E+00 -0.64353910181E+03  0.64353910181E+03  0.25500000920E-02 0.  1.
    10030    2    1    2    0    0  0.00000000000E+00  0.00000000000E+00  0.60780175210E+03  0.18948799557E+04  0.17947554365E+04 0.  0.
        1    1    3    3  502    0 -0.14092818726E+03 -0.73459916454E+03  0.82733086616E+03  0.11153353974E+04  0.50400001928E-02 0. -1.
       -1    1    3    3    0  502  0.14092818726E+03  0.73459916454E+03 -0.21952911406E+03  0.77954455835E+03  0.50400001928E-02 0.  1.
</event>
<event>
 5   0  0.1308893E-04  0.1838813E+04  0.7818609E-02  0.8685927E-01
        1   -1    0    0  501    0  0.00000000000E+00  0.00000000000E+00  0.79761003308E+03  0.79761003309E+03  0.50400001928E-02 0. -1.
       -1   -1    0    0    0  501  0.00000000000E+00  0.00000000000E+00 -0.10598018003E+04  0.10598018003E+04  0.50400001928E-02 0.  1.
    10030    2    1    2    0    0  0.00000000000E+00  0.00000000000E+00 -0.26219176723E+03  0.18574118334E+04  0.18388132575E+04 0.  0.
        4    1    3    3  502    0 -0.86940052524E+03 -0.19047612250E+03  0.10181931294E+03  0.89582766865E+03  0.12699999809E+01 0. -1.
       -4    1    3    3    0  502  0.86940052524E+03  0.19047612250E+03 -0.36401108016E+03  0.96158416476E+03  0.12699999809E+01 0.  1.
</event>
<event>
 5   0  0.2431811E-04  0.1791692E+04  0.7818609E-02  0.8710730E-01
        2   -1    0    0  501    0  0.00000000000E+00  0.00000000000E+00  0.20739291866E+04  0.20739291866E+04  0.25500000920E-02 0.  1.
       -2   -1    0    0    0  501  0.00000000000E+00  0.00000000000E+00 -0.38696580764E+03  0.38696580765E+03  0.25500000920E-02 0. -1.
    10030    2    1    2    0    0  0.00000000000E+00  0.00000000000E+00  0.16869633789E+04  0.24608949942E+04  0.17916915836E+04 0.  0.
        3    1    3    3  502    0 -0.69804985227E+03  0.39052067248E+03  0.28936243185E+03  0.85059427405E+03  0.10100000352E+00 0. -1.
       -3    1    3    3    0  502  0.69804985227E+03 -0.39052067248E+03  0.13976009471E+04  0.16103007202E+04  0.10100000352E+00 0.  1.
</event>
<event>
 5   0  0.1308893E-04  0.1868480E+04  0.7818609E-02  0.8670707E-01
        1   -1    0    0  501    0  0.00000000000E+00  0.00000000000E+00  0.19904356612E+04  0.19904356613E+04  0.50400001928E-02 0.  1.
       -1   -1    0    0    0  501  0.00000000000E+00  0.00000000000E+00 -0.43849937189E+03  0.43849937192E+03  0.50400001928E-02 0. -1.
    10030    2    1    2    0    0  0.00000000000E+00  0.00000000000E+00  0.15519362894E+04  0.24289350332E+04  0.18684804385E+04 0.  0.
        4    1    3    3  502    0  0.29728350517E+02  0.86359298619E+03  0.12376370324E+04  0.15094448176E+04  0.12699999809E+01 0.  1.
       -4    1    3    3    0  502 -0.29728350517E+02 -0.86359298619E+03  0.31429925695E+03  0.91949021552E+03  0.12699999809E+01 0. -1.
</event>
<event>
 5   0  0.1239119E-04  0.1803512E+04  0.7818609E-02  0.8704434E-01
       -1   -1    0    0    0  501  0.00000000000E+00  0.00000000000E+00  0.38185511106E+03  0.38185511109E+03  0.50400001928E-02 0.  1.
        1   -1    0    0  501    0  0.00000000000E+00  0.00000000000E+00 -0.21295089914E+04  0.21295089914E+04  0.50400001928E-02 0. -1.
    10030    2    1    2    0    0  0.00000000000E+00  0.00000000000E+00 -0.17476538803E+04  0.25113641025E+04  0.18035120099E+04 0.  0.
        5    1    3    3  502    0  0.67848962789E+03 -0.13431801050E+03 -0.68165779203E+02  0.69502386042E+03  0.46999998093E+01 0.  1.
       -5    1    3    3    0  502 -0.67848962789E+03  0.13431801050E+03 -0.16794881011E+04  0.18163402420E+04  0.46999998093E+01 0. -1.
</event>
<event>
 5   0  0.1308893E-04  0.1799015E+04  0.7818609E-02  0.8706823E-01
       -1   -1    0    0    0  501  0.00000000000E+00  0.00000000000E+00  0.39419811399E+03  0.39419811402E+03  0.50400001928E-02 0.  1.
        1   -1    0    0  501    0  0.00000000000E+00  0.00000000000E+00 -0.20525560461E+04  0.20525560461E+04  0.50400001928E-02 0. -1.
    10030    2    1    2    0    0  0.00000000000E+00  0.00000000000E+00 -0.16583579321E+04  0.24467541601E+04  0.17990149774E+04 0.  0.
        4    1    3    3  502    0 -0.61694003308E+03  0.15114933779E+03 -0.16954061777E+04  0.18104874612E+04  0.12699999809E+01 0. -1.
       -4    1    3    3    0  502  0.61694003308E+03 -0.15114933779E+03  0.37048245646E+02  0.63626669891E+03  0.12699999809E+01 0.  1.
</event>
<event>
 5   0  0.1239119E-04  0.1779425E+04  0.7818609E-02  0.8717318E-01
        1   -1    0    0  501    0  0.00000000000E+00  0.00000000000E+00  0.56130302889E+03  0.56130302891E+03  0.50400001928E-02 0. -1.
       -1   -1    0    0    0  501  0.00000000000E+00  0.00000000000E+00 -0.14102691206E+04  0.14102691206E+04  0.50400001928E-02 0.  1.
    10030    2    1    2    0    0  0.00000000000E+00  0.00000000000E+00 -0.84896609175E+03  0.19715721496E+04  0.17794249959E+04 0.  0.
        5    1    3    3  502    0  0.86346068216E+03 -0.49257082581E+02 -0.65577196207E+03  0.10853799178E+04  0.46999998093E+01 0.  1.
       -5    1    3    3    0  502 -0.86346068216E+03  0.49257082581E+02 -0.19319412968E+03  0.88619223172E+03  0.46999998093E+01 0. -1.
</event>
<event>
 5   0  0.2569405E-04  0.1802577E+04  0.7818609E-02  0.8704930E-01
        2   -1    0    0  501    0  0.00000000000E+00  0.00000000000E+00  0.17448489845E+04  0.17448489845E+04  0.25500000920E-02 0. -1.
       -2   -1    0    0    0  501  0.00000000000E+00  0.00000000000E+00 -0.46555378583E+03  0.46555378583E+03  0.25500000920E-02 0.  1.
    10030    2    1    2    0    0  0.00000000000E+00  0.00000000000E+00  0.12792951987E+04  0.22104027703E+04  0.18025771001E+04 0.  0.
        2    1    3    3  502    0 -0.72609998818E+03  0.51389426095E+03  0.81740058614E+03  0.12080779042E+04  0.25500000920E-02 0.  1.
       -2    1    3    3    0  502  0.72609998818E+03 -0.51389426095E+03  0.46189461252E+03  0.10023248662E+04  0.25500000920E-02 0. -1.
</event>
<event>
 5   0  0.2417106E-04  0.1752924E+04  0.7818609E-02  0.8731742E-01
        2   -1    0    0  501    0  0.00000000000E+00  0.00000000000E+00  0.10762940071E+04  0.10762940071E+04  0.25500000920E-02 0.  1.
       -2   -1    0    0    0  501  0.00000000000E+00  0.00000000000E+00 -0.71373254725E+03  0.71373254726E+03  0.25500000920E-02 0. -1.
    10030    2    1    2    0    0  0.00000000000E+00  0.00000000000E+00  0.36256145981E+03  0.17900265543E+04  0.17529244858E+04 0.  0.
        4    1    3    3  502    0 -0.45344690991E+03 -0.40612154800E+03  0.82521111242E+03  0.10254383476E+04  0.12699999809E+01 0.  1.
       -4    1    3    3    0  502  0.45344690991E+03  0.40612154800E+03 -0.46264965261E+03  0.76458820669E+03  0.12699999809E+01 0. -1.
</event>
<event>
 5   0  0.2393421E-04  0.1556592E+04  0.7818609E-02  0.8847668E-01
        2   -1    0    0  501    0  0.00000000000E+00  0.00000000000E+00  0.21737893020E+04  0.21737893020E+04  0.25500000920E-02 0. -1.
       -2   -1    0    0    0  501  0.00000000000E+00  0.00000000000E+00 -0.27865832554E+03  0.27865832555E+03  0.25500000920E-02 0.  1.
    10030    2    1    2    0    0  0.00000000000E+00  0.00000000000E+00  0.18951309765E+04  0.24524476276E+04  0.15565917731E+04 0.  0.
        5    1    3    3  502    0  0.48567248300E+03 -0.44096778823E+03  0.16073922987E+04  0.17361055391E+04  0.46999998093E+01 0. -1.
       -5    1    3    3    0  502 -0.48567248300E+03  0.44096778823E+03  0.28773867777E+03  0.71634208845E+03  0.46999998093E+01 0.  1.
</event>
<event>
 5   0  0.2393421E-04  0.1812688E+04  0.7818609E-02  0.8699581E-01
       -2   -1    0    0    0  501  0.00000000000E+00  0.00000000000E+00  0.17291329364E+04  0.17291329364E+04  0.25500000920E-02 0.  1.
        2   -1    0    0  501    0  0.00000000000E+00  0.00000000000E+00 -0.47507014302E+03  0.47507014303E+03  0.25500000920E-02 0. -1.
    10030    2    1    2    0    0  0.00000000000E+00  0.00000000000E+00  0.12540627934E+04  0.22042030795E+04  0.18126879835E+04 0.  0.
        5    1    3    3  502    0 -0.57555592406E+03  0.57163191000E+03  0.11185810993E+04  0.13817646066E+04  0.46999998093E+01 0.  1.
       -5    1    3    3    0  502  0.57555592406E+03 -0.57163191000E+03  0.13548169410E+03  0.82243847289E+03  0.46999998093E+01 0. -1.
</event>
<event>
 5   0  0.1308893E-04  0.1781912E+04  0.7818609E-02  0.8715978E-01
        1   -1    0    0  501    0  0.00000000000E+00  0.00000000000E+00  0.21964510214E+04  0.21964510214E+04  0.50400001928E-02 0. -1.
       -1   -1    0    0    0  501  0.00000000000E+00  0.00000000000E+00 -0.36140256573E+03  0.36140256577E+03  0.50400001928E-02 0.  1.
    10030    2    1    2    0    0  0.00000000000E+00  0.00000000000E+00  0.18350484557E+04  0.25578535872E+04  0.17819124947E+04 0.  0.
        4    1    3    3  502    0 -0.14668448240E+03  0.28397000410E+02 -0.34329051100E+03  0.37439646746E+03  0.12699999809E+01 0.  1.
       -4    1    3    3    0  502  0.14668448240E+03 -0.28397000410E+02  0.21783389667E+04  0.21834571197E+04  0.12699999809E+01 0. -1.
</event>
<event>
 5   0  0.1214723E-04  0.1806699E+04  0.7818609E-02  0.8702745E-01
       -1   -1    0    0    0  501  0.00000000000E+00  0.00000000000E+00  0.55787129297E+03  0.55787129299E+03  0.50400001928E-02 0.  1.
        1   -1    0    0  501    0  0.00000000000E+00  0.00000000000E+00 -0.14627752351E+04  0.14627752351E+04  0.50400001928E-02 0. -1.
    10030    2    1    2    0    0  0.00000000000E+00  0.00000000000E+00 -0.90490394216E+03  0.20206465281E+04  0.18066989918E+04 0.  0.
        1    1    3    3  502    0 -0.40826036832E+02  0.82709426919E+03 -0.48752869653E+02  0.82953513351E+03  0.50400001928E-02 0.  1.
       -1    1    3    3    0  502  0.40826036832E+02 -0.82709426919E+03 -0.85615107250E+03  0.11911113946E+04  0.50400001928E-02 0. -1.
</event>
<event>
 5   0  0.2431811E-04  0.1795943E+04  0.7818609E-02  0.8708460E-01
       -2   -1    0    0    0  501  0.00000000000E+00  0.00000000000E+00  0.13938869312E+04  0.13938869312E+04  0.25500000920E-02 0. -1.
        2   -1    0    0  501    0  0.00000000000E+00  0.00000000000E+00 -0.57849210264E+03  0.57849210265E+03  0.25500000920E-02 0.  1.
    10030    2    1    2    0    0  0.00000000000E+00  0.00000000000E+00  0.81539482860E+03  0.19723790339E+04  0.17959427404E+04 0.  0.
        3    1    3    3  502    0  0.66851553832E+03  0.30170235590E+03 -0.16128844403E+03  0.75096691599E+03  0.10100000352E+00 0.  1.
       -3    1    3    3    0  502 -0.66851553832E+03 -0.30170235590E+03  0.97668327263E+03  0.12214121179E+04  0.10100000352E+00 0. -1.
</event>
<event>
 5   0  0.2550616E-04  0.1806628E+04  0.7818609E-02  0.8702783E-01
        2   -1    0    0  501    0  0.00000000000E+00  0.00000000000E+00  0.15275467251E+04  0.15275467251E+04  0.25500000920E-02 0. -1.
       -2   -1    0    0    0  501  0.00000000000E+00  0.00000000000E+00 -0.53417408670E+03  0.53417408671E+03  0.25500000920E-02 0.  1.
    10030    2    1    2    0    0  0.00000000000E+00  0.00000000000E+00  0.99337263844E+03  0.20617208118E+04  0.18066276615E+04 0.  0.
        1    1    3    3  502    0 -0.58150227404E+03 -0.61282650053E+03  0.13172635402E+03  0.85501640150E+03  0.50400001928E-02 0.  1.
       -1    1    3    3    0  502  0.58150227404E+03  0.61282650053E+03  0.86164628441E+03  0.12067044103E+04  0.50400001928E-02 0. -1.
</event>
<event>
 5   0  0.9144875E-05  0.1782953E+04  0.7818609E-02  0.8715418E-01
        3   -1    0    0  501    0  0.00000000000E+00  0.00000000000E+00  0.51424016338E+03  0.51424017330E+03  0.10100000352E+00 0.  1.
       -3   -1    0    0    0  501  0.00000000000E+00  0.00000000000E+00 -0.15454455143E+04  0.15454455176E+04  0.10100000352E+00 0. -1.
    10030    2    1    2    0    0  0.00000000000E+00  0.00000000000E+00 -0.10312053509E+04  0.20596856909E+04  0.17829527951E+04 0.  0.
        3    1    3    3  502    0  0.45131631552E+02  0.73564773905E+03  0.63750849936E+02  0.73978283381E+03  0.10100000352E+00 0. -1.
       -3    1    3    3    0  502 -0.45131631552E+02 -0.73564773905E+03 -0.10949562009E+04  0.13199028571E+04  0.10100000352E+00 0.  1.
</event>
<event>
 5   0  0.2393421E-04  0.1799030E+04  0.7818609E-02  0.8706815E-01
       -2   -1    0    0    0  501  0.00000000000E+00  0.00000000000E+00  0.14628304231E+04  0.14628304231E+04  0.25500000920E-02 0. -1.
        2   -1    0    0  501    0  0.00000000000E+00  0.00000000000E+00 -0.55312447657E+03  0.55312447658E+03  0.25500000920E-02 0.  1.
    10030    2    1    2    0    0  0.00000000000E+00  0.00000000000E+00  0.90970594653E+03  0.20159548997E+04  0.17990300855E+04 0.  0.
        5    1    3    3  502    0 -0.61123632098E+02 -0.52401758918E+03 -0.36153667345E+03  0.63957907128E+03  0.46999998093E+01 0.  1.
       -5    1    3    3    0  502  0.61123632098E+02  0.52401758918E+03  0.12712426200E+04  0.13763758284E+04  0.46999998093E+01 0. -1.
</event>
<event>
 5   0  0.1330225E-04  0.1808015E+04  0.7818609E-02  0.8702049E-01
        1   -1    0    0  501    0  0.00000000000E+00  0.00000000000E+00  0.10680642527E+04  0.10680642527E+04  0.50400001928E-02 0. -1.
       -1   -1    0    0    0  501  0.00000000000E+00  0.00000000000E+00 -0.76515059607E+03  0.76515059609E+03  0.50400001928E-02 0.  1.
    10030    2    1    2    0    0  0.00000000000E+00  0.00000000000E+00  0.30291365659E+03  0.18332148488E+04  0.18080154862E+04 0.  0.
        3    1    3    3  502    0 -0.51989823799E+02  0.28872203829E+03  0.10184574364E+04  0.10598674054E+04  0.10100000352E+00 0. -1.
       -3    1    3    3    0  502  0.51989823799E+02 -0.28872203829E+03 -0.71554377977E+03  0.77334744335E+03  0.10100000352E+00 0.  1.
</event>
<event>
 5   0  0.2569405E-04  0.1789765E+04  0.7818609E-02  0.8711761E-01
       -2   -1    0    0    0  501  0.00000000000E+00  0.00000000000E+00  0.35081155980E+03  0.35081155981E+03  0.25500000920E-02 0.  1.
        2   -1    0    0  501    0  0.00000000000E+00  0.00000000000E+00 -0.22827500186E+04  0.22827500186E+04  0.25500000920E-02 0. -1.
    10030    2    1    2    0    0  0.00000000000E+00  0.00000000000E+00 -0.19319384588E+04  0.26335615784E+04  0.17897654535E+04 0.  0.
        2    1    3    3  502    0 -0.50839147017E+03 -0.25754275311E+03 -0.19811940083E+04  0.20615333747E+04  0.25500000920E-02 0. -1.
       -2    1    3    3    0  502  0.50839147017E+03  0.25754275311E+03  0.49255549506E+02  0.57202820366E+03  0.25500000920E-02 0.  1.
</event>
<event>
 5   0  0.1214723E-04  0.1797961E+04  0.7818609E-02  0.8707384E-01
       -1   -1    0    0    0  501  0.00000000000E+00  0.00000000000E+00  0.43626854403E+03  0.43626854406E+03  0.50400001928E-02 0.  1.
        1   -1    0    0  501    0  0.00000000000E+00  0.00000000000E+00 -0.18524510546E+04  0.18524510546E+04  0.50400001928E-02 0. -1.
    10030    2    1    2    0    0  0.00000000000E+00  0.00000000000E+00 -0.14161825105E+04  0.22887195986E+04  0.17979612059E+04 0.  0.
        1    1    3    3  502    0 -0.74926578493E+02 -0.69318803394E+02 -0.18450504318E+04  0.18478717988E+04  0.50400001928E-02 0. -1.
       -1    1    3    3    0  502  0.74926578493E+02  0.69318803394E+02  0.42886792132E+03  0.44084779985E+03  0.50400001928E-02 0.  1.
</event>
<event>
 5   0  0.2431811E-04  0.1774862E+04  0.7818609E-02  0.8719783E-01
       -2   -1    0    0    0  501  0.00000000000E+00  0.00000000000E+00  0.59563809179E+03  0.59563809180E+03  0.25500000920E-02 0.  1.
        2   -1    0    0  501    0  0.00000000000E+00  0.00000000000E+00 -0.13221689551E+04  0.13221689551E+04  0.25500000920E-02 0. -1.
    10030    2    1    2    0    0  0.00000000000E+00  0.00000000000E+00 -0.72653086335E+03  0.19178070469E+04  0.17748624662E+04 0.  0.
        3    1    3    3  502    0 -0.40031587356E+02  0.49854023070E+03 -0.11553739974E+04  0.12589813238E+04  0.10100000352E+00 0. -1.
       -3    1    3    3    0  502  0.40031587356E+02 -0.49854023070E+03  0.42884313407E+03  0.65882572312E+03  0.10100000352E+00 0.  1.
</event>
<event>
 5   0  0.2569405E-04  0.1814869E+04  0.7818609E-02  0.8698432E-01
       -2   -1    0    0    0  501  0.00000000000E+00  0.00000000000E+00  0.42165297532E+03  0.42165297533E+03  0.25500000920E-02 0. -1.
        2   -1    0    0  501    0  0.00000000000E+00  0.00000000000E+00 -0.19528796186E+04  0.19528796186E+04  0.25500000920E-02 0.  1.
    10030    2    1    2    0    0  0.00000000000E+00  0.00000000000E+00 -0.15312266433E+04  0.23745325940E+04  0.18148691431E+04 0.  0.
        2    1    3    3  502    0  0.20425618891E+03  0.86438776048E+03 -0.52241458771E+03  0.10304386409E+04  0.25500000920E-02 0. -1.
       -2    1    3    3    0  502 -0.20425618891E+03 -0.86438776048E+03 -0.10088120556E+04  0.13440939531E+04  0.25500000920E-02 0.  1.
</event>
<event>
 5   0  0.1214723E-04  0.1796072E+04  0.7818609E-02  0.8708391E-01
       -1   -1    0    0    0  501  0.00000000000E+00  0.00000000000E+00  0.66477790076E+03  0.66477790078E+03  0.50400001928E-02 0.  1.
        1   -1    0    0  501    0  0.00000000000E+00  0.00000000000E+00 -0.12131398420E+04  0.12131398420E+04  0.50400001928E-02 0. -1.
    10030    2    1    2    0    0  0.00000000000E+00  0.00000000000E+00 -0.54836194123E+03  0.18779177428E+04  0.17960718889E+04 0.  0.
        1    1    3    3  502    0  0.38883793981E+03 -0.44118095662E+03  0.43544640804E+03  0.73174391301E+03  0.50400001928E-02 0.  1.
       -1    1    3    3    0  502 -0.38883793981E+03  0.44118095662E+03 -0.98380834928E+03  0.11461738298E+04  0.50400001928E-02 0. -1.
</event>
<event>
 5   0  0.2393421E-04  0.1795467E+04  0.7818609E-02  0.8708714E-01
        2   -1    0    0  501    0  0.00000000000E+00  0.00000000000E+00  0.94157477564E+03  0.94157477564E+03  0.25500000920E-02 0. -1.
       -2   -1    0    0    0  501  0.00000000000E+00  0.00000000000E+00 -0.85593315958E+03  0.85593315958E+03  0.25500000920E-02 0.  1.
    10030    2    1    2    0    0  0.00000000000E+00  0.00000000000E+00  0.85641616057E+02  0.17975079352E+04  0.17954665942E+04 0.  0.
        5    1    3    3  502    0  0.22223775511E+03 -0.51512674585E+03  0.74444411806E+03  0.93218255669E+03  0.46999998093E+01 0. -1.
       -5    1    3    3    0  502 -0.22223775511E+03  0.51512674585E+03 -0.65880250200E+03  0.86532537853E+03  0.46999998093E+01 0.  1.
</event>
<event>
 5   0  0.2569405E-04  0.1809344E+04  0.7818609E-02  0.8701346E-01
        2   -1    0    0  501    0  0.00000000000E+00  0.00000000000E+00  0.18283257050E+04  0.18283257050E+04  0.25500000920E-02 0. -1.
       -2   -1    0    0    0  501  0.00000000000E+00  0.00000000000E+00 -0.44764003912E+03  0.44764003913E+03  0.25500000920E-02 0.  1.
    10030    2    1    2    0    0  0.00000000000E+00  0.00000000000E+00  0.13806856659E+04  0.22759657441E+04  0.18093444007E+04 0.  0.
        2    1    3    3  502    0  0.53529941614E+03 -0.38549056808E+03  0.14691043018E+04  0.16104086104E+04  0.25500000920E-02 0. -1.
       -2    1    3    3    0  502 -0.53529941614E+03  0.38549056808E+03 -0.88418635931E+02  0.66555713368E+03  0.25500000920E-02 0.  1.
</event>
<event>
 5   0  0.2393421E-04  0.1809644E+04  0.7818609E-02  0.8701188E-01
       -2   -1    0    0    0  501  0.00000000000E+00  0.00000000000E+00  0.94516595307E+03  0.94516595307E+03  0.25500000920E-02 0.  1.
        2   -1    0    0  501    0  0.00000000000E+00  0.00000000000E+00 -0.86619994201E+03  0.86619994202E+03  0.25500000920E-02 0. -1.
    10030    2    1    2    0    0  0.00000000000E+00  0.00000000000E+00  0.78966011051E+02  0.18113658951E+04  0.18096438254E+04 0.  0.
        5    1    3    3  502    0 -0.23078920295E+03 -0.87311244355E+03  0.95138151305E+02  0.90810921872E+03  0.46999998093E+01 0.  1.
       -5    1    3    3    0  502  0.23078920295E+03  0.87311244355E+03 -0.16172140254E+02  0.90325667637E+03  0.46999998093E+01 0. -1.
</event>
<event>
 5   0  0.1214723E-04  0.1918004E+04  0.7818609E-02  0.8645946E-01
       -1   -1    0    0    0  501  0.00000000000E+00  0.00000000000E+00  0.53625854542E+03  0.53625854544E+03  0.50400001928E-02 0. -1.
        1   -1    0    0  501    0  0.00000000000E+00  0.00000000000E+00 -0.17150030192E+04  0.17150030192E+04  0.50400001928E-02 0.  1.
    10030    2    1    2    0    0  0.00000000000E+00  0.00000000000E+00 -0.11787444738E+04  0.22512615646E+04  0.19180041965E+04 0.  0.
        1    1    3    3  502    0  0.17019395287E+03  0.71375902023E+03 -0.13141269887E+04  0.15051071932E+04  0.50400001928E-02 0.  1.
       -1    1    3    3    0  502 -0.17019395287E+03 -0.71375902023E+03  0.13538251499E+03  0.74615437139E+03  0.50400001928E-02 0. -1.
</event>
<event>
 5   0  0.2417106E-04  0.1544062E+04  0.7818609E-02  0.8855669E-01
        2   -1    0    0  501    0  0.00000000000E+00  0.00000000000E+00  0.81415726905E+03  0.81415726905E+03  0.25500000920E-02 0.  1.
       -2   -1    0    0    0  501  0.00000000000E+00  0.00000000000E+00 -0.73208472873E+03  0.73208472873E+03  0.25500000920E-02 0. -1.
    10030    2    1    2    0    0  0.00000000000E+00  0.00000000000E+00  0.82072540321E+02  0.15462419978E+04  0.15440623089E+04 0.  0.
        4    1    3    3  502    0 -0.44354192842E+03 -0.26698498191E+03  0.61457513206E+03  0.80356370543E+03  0.12699999809E+01 0.  1.
       -4    1    3    3    0  502  0.44354192842E+03  0.26698498191E+03 -0.53250259174E+03  0.74267829236E+03  0.12699999809E+01 0. -1.
</event>
<event>
 5   0  0.2431811E-04  0.1792645E+04  0.7818609E-02  0.8710221E-01
       -2   -1    0    0    0  501  0.00000000000E+00  0.00000000000E+00  0.55062076543E+03  0.55062076543E+03  0.25500000920E-02 0. -1.
        2   -1    0    0  501    0  0.00000000000E+00  0.00000000000E+00 -0.14590692379E+04  0.14590692379E+04  0.25500000920E-02 0.  1.
    10030    2    1    2    0    0  0.00000000000E+00  0.00000000000E+00 -0.90844847250E+03  0.20096900034E+04  0.17926447731E+04 0.  0.
        3    1    3    3  502    0 -0.67612164277E+03  0.30465303059E+03 -0.10186051233E+04  0.12599644250E+04  0.10100000352E+00 0.  1.
       -3    1    3    3    0  502  0.67612164277E+03 -0.30465303059E+03  0.11015665084E+03  0.74972557832E+03  0.10100000352E+00 0. -1.
</event>
<event>
 5   0  0.2393421E-04  0.1800661E+04  0.7818609E-02  0.8705948E-01
       -2   -1    0    0    0  501  0.00000000000E+00  0.00000000000E+00  0.42667548448E+03  0.42667548448E+03  0.25500000920E-02 0.  1.
        2   -1    0    0  501    0  0.00000000000E+00  0.00000000000E+00 -0.18997934290E+04  0.18997934290E+04  0.25500000920E-02 0. -1.
    10030    2    1    2    0    0  0.00000000000E+00  0.00000000000E+00 -0.14731179446E+04  0.23264689135E+04  0.18006613027E+04 0.  0.
        5    1    3    3  502    0 -0.27855318201E+03 -0.76149914662E+03 -0.23102151792E+03  0.84312861252E+03  0.46999998093E+01 0.  1.
       -5    1    3    3    0  502  0.27855318201E+03  0.76149914662E+03 -0.12420964266E+04  0.14833403010E+04  0.46999998093E+01 0. -1.
</event>
<event>
 5   0  0.2431811E-04  0.1831022E+04  0.7818609E-02  0.8689974E-01
        2   -1    0    0  501    0  0.00000000000E+00  0.00000000000E+00  0.11357866725E+04  0.11357866725E+04  0.25500000920E-02 0. -1.
       -2   -1    0    0    0  501  0.00000000000E+00  0.00000000000E+00 -0.73795545073E+03  0.73795545073E+03  0.25500000920E-02 0.  1.
    10030    2    1    2    0    0  0.00000000000E+00  0.00000000000E+00  0.39783122179E+03  0.18737421233E+04  0.18310215355E+04 0.  0.
        3    1    3    3  502    0  0.16151637549E+03  0.80517549476E+03  0.61303608150E+03  0.10247967429E+04  0.10100000352E+00 0. -1.
       -3    1    3    3    0  502 -0.16151637549E+03 -0.80517549476E+03 -0.21520485971E+03  0.84894538031E+03  0.10100000352E+00 0.  1.
</event>
<event>
 5   0  0.1330225E-04  0.1823580E+04  0.7818609E-02  0.8693860E-01
        1   -1    0    0  501    0  0.00000000000E+00  0.00000000000E+00  0.65471721756E+03  0.65471721758E+03  0.50400001928E-02 0.  1.
       -1   -1    0    0    0  501  0.00000000000E+00  0.00000000000E+00 -0.12698011931E+04  0.12698011931E+04  0.50400001928E-02 0. -1.
    10030    2    1    2    0    0  0.00000000000E+00  0.00000000000E+00 -0.61508397553E+03  0.19245184107E+04  0.18235796709E+04 0.  0.
        3    1    3    3  502    0 -0.26164120738E+03 -0.36496157862E+03 -0.11450072503E+04  0.12299165373E+04  0.10100000352E+00 0. -1.
       -3    1    3    3    0  502  0.26164120738E+03  0.36496157862E+03  0.52992327473E+03  0.69460187343E+03  0.10100000352E+00 0.  1.
</event>
<event>
 5   0  0.1330225E-04  0.1793908E+04  0.7818609E-02  0.8709546E-01
        1   -1    0    0  501    0  0.00000000000E+00  0.00000000000E+00  0.16025729674E+04  0.16025729674E+04  0.50400001928E-02 0. -1.
       -1   -1    0    0    0  501  0.00000000000E+00  0.00000000000E+00 -0.50202178450E+03  0.50202178453E+03  0.50400001928E-02 0.  1.
    10030    2    1    2    0    0  0.00000000000E+00  0.00000000000E+00  0.11005511829E+04  0.21045947519E+04  0.17939080700E+04 0.  0.
        3    1    3    3  502    0 -0.50567267370E+00  0.43655061958E+03  0.14695279266E+04  0.15330000119E+04  0.10100000352E+00 0. -1.
       -3    1    3    3    0  502  0.50567267370E+00 -0.43655061958E+03 -0.36897674376E+03  0.57159474000E+03  0.10100000352E+00 0.  1.
</event>
<event>
 5   0  0.2417106E-04  0.1803938E+04  0.7818609E-02  0.8704208E-01
       -2   -1    0    0    0  501  0.00000000000E+00  0.00000000000E+00  0.85505652663E+03  0.85505652664E+03  0.25500000920E-02 0.  1.
        2   -1    0    0  501    0  0.00000000000E+00  0.00000000000E+00 -0.95145522118E+03  0.95145522118E+03  0.25500000920E-02 0. -1.
    10030    2    1    2    0    0  0.00000000000E+00  0.00000000000E+00 -0.96398694547E+02  0.18065117478E+04  0.18039379110E+04 0.  0.
        4    1    3    3  502    0 -0.77303270762E+03  0.33991149381E+03  0.26915498716E+03  0.88632127961E+03  0.12699999809E+01 0.  1.
       -4    1    3    3    0  502  0.77303270762E+03 -0.33991149381E+03 -0.36555368171E+03  0.92019046821E+03  0.12699999809E+01 0. -1.
</event>
<event>
 5   0  0.1239119E-04  0.1794833E+04  0.7818609E-02  0.8709052E-01
       -1   -1    0    0    0  501  0.00000000000E+00  0.00000000000E+00  0.57824311275E+03  0.57824311278E+03  0.50400001928E-02 0.  1.
        1   -1    0    0  501    0  0.00000000000E+00  0.00000000000E+00 -0.13927641340E+04  0.13927641340E+04  0.50400001928E-02 0. -1.
    10030    2    1    2    0    0  0.00000000000E+00  0.00000000000E+00 -0.81452102128E+03  0.19710072468E+04  0.17948328816E+04 0.  0.
        5    1    3    3  502    0  0.15264129650E+03  0.15394374265E+03 -0.13635625451E+04  0.13806965437E+04  0.46999998093E+01 0. -1.
       -5    1    3    3    0  502 -0.15264129650E+03 -0.15394374265E+03  0.54904152386E+03  0.59031070312E+03  0.46999998093E+01 0.  1.
</event>
<event>
 5   0  0.9144875E-05  0.1792837E+04  0.7818609E-02  0.8710118E-01
       -3   -1    0    0    0  501  0.00000000000E+00  0.00000000000E+00  0.14191461142E+04  0.14191461178E+04  0.10100000352E+00 0.  1.
        3   -1    0    0  501    0  0.00000000000E+00  0.00000000000E+00 -0.56623229553E+03  0.56623230453E+03  0.10100000352E+00 0. -1.
    10030    2    1    2    0    0  0.00000000000E+00  0.00000000000E+00  0.85291381866E+03  0.19853784223E+04  0.17928372759E+04 0.  0.
        1    1    3    3  502    0  0.30747998170E+03  0.80598517790E+03  0.69637587455E+03  0.11086457526E+04  0.50400001928E-02 0.  1.
       -1    1    3    3    0  502 -0.30747998170E+03 -0.80598517790E+03  0.15653794411E+03  0.87673266969E+03  0.50400001928E-02 0. -1.
</event>
<event>
 5   0  0.1330225E-04  0.1787267E+04  0.7818609E-02  0.8713100E-01
       -1   -1    0    0    0  501  0.00000000000E+00  0.00000000000E+00  0.44045654397E+03  0.44045654400E+03  0.50400001928E-02 0.  1.
        1   -1    0    0  501    0  0.00000000000E+00  0.00000000000E+00 -0.18130749189E+04  0.18130749189E+04  0.50400001928E-02 0. -1.
    10030    2    1    2    0    0  0.00000000000E+00  0.00000000000E+00 -0.13726183750E+04  0.22535314629E+04  0.17872668663E+04 0.  0.
        3    1    3    3  502    0  0.77821500401E+03  0.30427925426E+03 -0.28683410464E+03  0.88344681268E+03  0.10100000352E+00 0.  1.
       -3    1    3    3    0  502 -0.77821500401E+03 -0.30427925426E+03 -0.10857842703E+04  0.13700846503E+04  0.10100000352E+00 0. -1.
</event>
<event>
 5   0  0.9144875E-05  0.1635432E+04  0.7818609E-02  0.8799072E-01
        3   -1    0    0  501    0  0.00000000000E+00  0.00000000000E+00  0.12919993585E+04  0.12919993625E+04  0.10100000352E+00 0. -1.
       -3   -1    0    0    0  501  0.00000000000E+00  0.00000000000E+00 -0.51753841324E+03  0.51753842309E+03  0.10100000352E+00 0.  1.
    10030    2    1    2    0    0  0.00000000000E+00  0.00000000000E+00  0.77446094529E+03  0.18095377856E+04  0.16354318211E+04 0.  0.
        2    1    3    3  502    0  0.14590149401E+02 -0.74677117035E+02  0.12880739078E+04  0.12903193156E+04  0.25500000920E-02 0. -1.
       -2    1    3    3    0  502 -0.14590149401E+02  0.74677117035E+02 -0.51361296252E+03  0.51921846995E+03  0.25500000920E-02 0.  1.
</event>
<event>
 5   0  0.1330225E-04  0.1696843E+04  0.7818609E-02  0.8763167E-01
        1   -1    0    0  501    0  0.00000000000E+00  0.00000000000E+00  0.10833271551E+04  0.10833271552E+04  0.50400001928E-02 0. -1.
       -1   -1    0    0    0  501  0.00000000000E+00  0.00000000000E+00 -0.66445228924E+03  0.66445228926E+03  0.50400001928E-02 0.  1.
    10030    2    1    2    0    0  0.00000000000E+00  0.00000000000E+00  0.41887486591E+03  0.17477794444E+04  0.16968431964E+04 0.  0.
        3    1    3    3  502    0 -0.75452604258E+03 -0.37559877855E+03  0.10938661931E+03  0.84991142719E+03  0.10100000352E+00 0.  1.
       -3    1    3    3    0  502  0.75452604258E+03  0.37559877855E+03  0.30948824660E+03  0.89786801723E+03  0.10100000352E+00 0. -1.
</event>
<event>
 5   0  0.2550616E-04  0.1818034E+04  0.7818609E-02  0.8696767E-01
        2   -1    0    0  501    0  0.00000000000E+00  0.00000000000E+00  0.24332098049E+04  0.24332098049E+04  0.25500000920E-02 0.  1.
       -2   -1    0    0    0  501  0.00000000000E+00  0.00000000000E+00 -0.33959756949E+03  0.33959756950E+03  0.25500000920E-02 0. -1.
    10030    2    1    2    0    0  0.00000000000E+00  0.00000000000E+00  0.20936122354E+04  0.27728073744E+04  0.18180342525E+04 0.  0.
        1    1    3    3  502    0  0.73175239733E+03 -0.53866490854E+03  0.10067234675E+04  0.13561392239E+04  0.50400001928E-02 0. -1.
       -1    1    3    3    0  502 -0.73175239733E+03  0.53866490854E+03  0.10868887679E+04  0.14166681505E+04  0.50400001928E-02 0.  1.
</event>
<event>
 5   0  0.1253925E-04  0.1511817E+04  0.7818609E-02  0.8876633E-01
       -1   -1    0    0    0  501  0.00000000000E+00  0.00000000000E+00  0.80043246791E+03  0.80043246793E+03  0.50400001928E-02 0.  1.
        1   -1    0    0  501    0  0.00000000000E+00  0.00000000000E+00 -0.71386115013E+03  0.71386115014E+03  0.50400001928E-02 0. -1.
    10030    2    1    2    0    0  0.00000000000E+00  0.00000000000E+00  0.86571317787E+02  0.15142936181E+04  0.15118169759E+04 0.  0.
        2    1    3    3  502    0  0.17278012832E+03  0.84626076284E+02 -0.68892699595E+03  0.71528662177E+03  0.25500000920E-02 0. -1.
       -2    1    3    3    0  502 -0.17278012832E+03 -0.84626076284E+02  0.77549831373E+03  0.79900699630E+03  0.25500000920E-02 0.  1.
</event>
<event>
 5   0  0.1330225E-04  0.1801941E+04  0.7818609E-02  0.8705268E-01
       -1   -1    0    0    0  501  0.00000000000E+00  0.00000000000E+00  0.49540429631E+03  0.49540429633E+03  0.50400001928E-02 0.  1.
        1   -1    0    0  501    0  0.00000000000E+00  0.00000000000E+00 -0.16385557020E+04  0.16385557020E+04  0.50400001928E-02 0. -1.
    10030    2    1    2    0    0  0.00000000000E+00  0.00000000000E+00 -0.11431514057E+04  0.21339599983E+04  0.18019406589E+04 0.  0.
        3    1    3    3  502    0  0.13429355671E+03  0.88777290795E+03 -0.48317566146E+03  0.10196245512E+04  0.10100000352E+00 0.  1.
       -3    1    3    3    0  502 -0.13429355671E+03 -0.88777290795E+03 -0.65997574419E+03  0.11143354471E+04  0.10100000352E+00 0. -1.
</event>
<event>
 5   0  0.1253925E-04  0.1789766E+04  0.7818609E-02  0.8711761E-01
        1   -1    0    0  501    0  0.00000000000E+00  0.00000000000E+00  0.19747294346E+04  0.19747294346E+04  0.50400001928E-02 0. -1.
       -1   -1    0    0    0  501  0.00000000000E+00  0.00000000000E+00 -0.40553172147E+03  0.40553172150E+03  0.50400001928E-02 0.  1.
    10030    2    1    2    0    0  0.00000000000E+00  0.00000000000E+00  0.15691977131E+04  0.23802611561E+04  0.17897658250E+04 0.  0.
        2    1    3    3  502    0  0.43895458220E+03 -0.18748980300E+03  0.17912960100E+04  0.18538001367E+04  0.25500000920E-02 0. -1.
       -2    1    3    3    0  502 -0.43895458220E+03  0.18748980300E+03 -0.22209829686E+03  0.52646101939E+03  0.25500000920E-02 0.  1.
</event>
<event>
 5   0  0.1330225E-04  0.1803109E+04  0.7818609E-02  0.8704648E-01
        1   -1    0    0  501    0  0.00000000000E+00  0.00000000000E+00  0.11646874344E+04  0.11646874344E+04  0.50400001928E-02 0.  1.
       -1   -1    0    0    0  501  0.00000000000E+00  0.00000000000E+00 -0.69786971556E+03  0.69786971558E+03  0.50400001928E-02 0. -1.
    10030    2    1    2    0    0  0.00000000000E+00  0.00000000000E+00  0.46681771886E+03  0.18625571500E+04  0.18031085254E+04 0.  0.
        3    1    3    3  502    0 -0.12584766371E+03  0.17862361704E+03  0.11369217784E+04  0.11577284532E+04  0.10100000352E+00 0.  1.
       -3    1    3    3    0  502  0.12584766371E+03 -0.17862361704E+03 -0.67010405953E+03  0.70482869679E+03  0.10100000352E+00 0. -1.
</event>
<event>
 5   0  0.2393421E-04  0.1847637E+04  0.7818609E-02  0.8681369E-01
        2   -1    0    0  501    0  0.00000000000E+00  0.00000000000E+00  0.62121376804E+03  0.62121376804E+03  0.25500000920E-02 0.  1.
       -2   -1    0    0    0  501  0.00000000000E+00  0.00000000000E+00 -0.13738275399E+04  0.13738275399E+04  0.25500000920E-02 0. -1.
    10030    2    1    2    0    0  0.00000000000E+00  0.00000000000E+00 -0.75261377182E+03  0.19950413079E+04  0.18476369586E+04 0.  0.
        5    1    3    3  502    0  0.25909620565E+03 -0.49305874266E+03  0.41949951258E+03  0.69730889751E+03  0.46999998093E+01 0.  1.
       -5    1    3    3    0  502 -0.25909620565E+03  0.49305874266E+03 -0.11721132844E+04  0.12977324104E+04  0.46999998093E+01 0. -1.
</event>
<event>
 5   0  0.2550616E-04  0.1788889E+04  0.7818609E-02  0.8712231E-01
       -2   -1    0    0    0  501  0.00000000000E+00  0.00000000000E+00  0.55073534273E+03  0.55073534273E+03  0.25500000920E-02 0.  1.
        2   -1    0    0  501    0  0.00000000000E+00  0.00000000000E+00 -0.14526589685E+04  0.14526589685E+04  0.25500000920E-02 0. -1.
    10030    2    1    2    0    0  0.00000000000E+00  0.00000000000E+00 -0.90192362581E+03  0.20033943113E+04  0.17888886325E+04 0.  0.
        1    1    3    3  502    0  0.67054136527E+03 -0.22245150162E+03 -0.10653018688E+04  0.12782716710E+04  0.50400001928E-02 0. -1.
       -1    1    3    3    0  502 -0.67054136527E+03  0.22245150162E+03  0.16337824302E+03  0.72512264027E+03  0.50400001928E-02 0.  1.
</event>
<event>
 5   0  0.1214723E-04  0.1795977E+04  0.7818609E-02  0.8708442E-01
        1   -1    0    0  501    0  0.00000000000E+00  0.00000000000E+00  0.12155200280E+04  0.12155200280E+04  0.50400001928E-02 0. -1.
       -1   -1    0    0    0  501  0.00000000000E+00  0.00000000000E+00 -0.66340624477E+03  0.66340624479E+03  0.50400001928E-02 0.  1.
    10030    2    1    2    0    0  0.00000000000E+00  0.00000000000E+00  0.55211378320E+03  0.18789262728E+04  0.17959772573E+04 0.  0.
        1    1    3    3  502    0  0.33690813344E+03 -0.74076001572E+03 -0.12115099741E+03  0.82274543783E+03  0.50400001928E-02 0.  1.
       -1    1    3    3    0  502 -0.33690813344E+03  0.74076001572E+03  0.67326478061E+03  0.10561808349E+04  0.50400001928E-02 0. -1.
</event>
<event>
 5   0  0.2569405E-04  0.1769211E+04  0.7818609E-02  0.8722846E-01
       -2   -1    0    0    0  501  0.00000000000E+00  0.00000000000E+00  0.62311685695E+03  0.62311685696E+03  0.25500000920E-02 0. -1.
        2   -1    0    0  501    0  0.00000000000E+00  0.00000000000E+00 -0.12558271135E+04  0.12558271135E+04  0.25500000920E-02 0.  1.
    10030    2    1    2    0    0  0.00000000000E+00  0.00000000000E+00 -0.63271025659E+03  0.18789439705E+04  0.17692111732E+04 0.  0.
        2    1    3    3  502    0  0.43490225501E+00 -0.51917140014E+03 -0.10770101244E+04  0.11956127884E+04  0.25500000920E-02 0. -1.
       -2    1    3    3    0  502 -0.43490225501E+00  0.51917140014E+03  0.44429986778E+03  0.68333118207E+03  0.25500000920E-02 0.  1.
</event>
<event>
 5   0  0.2393421E-04  0.1788818E+04  0.7818609E-02  0.8712269E-01
        2   -1    0    0  501    0  0.00000000000E+00  0.00000000000E+00  0.14591853192E+04  0.14591853192E+04  0.25500000920E-02 0.  1.
       -2   -1    0    0    0  501  0.00000000000E+00  0.00000000000E+00 -0.54822861346E+03  0.54822861346E+03  0.25500000920E-02 0. -1.
    10030    2    1    2    0    0  0.00000000000E+00  0.00000000000E+00  0.91095670572E+03  0.20074139326E+04  0.17888176479E+04 0.  0.
        5    1    3    3  502    0  0.57730137458E+03 -0.27836131287E+03 -0.24460198664E+03  0.68601320648E+03  0.46999998093E+01 0. -1.
       -5    1    3    3    0  502 -0.57730137458E+03  0.27836131287E+03  0.11555586924E+04  0.13214007262E+04  0.46999998093E+01 0.  1.
</event>
<event>
 5   0  0.1253925E-04  0.1805392E+04  0.7818609E-02  0.8703437E-01
       -1   -1    0    0    0  501  0.00000000000E+00  0.00000000000E+00  0.54985644816E+03  0.54985644818E+03  0.50400001928E-02 0. -1.
        1   -1    0    0  501    0  0.00000000000E+00  0.00000000000E+00 -0.14819512674E+04  0.14819512674E+04  0.50400001928E-02 0.  1.
    10030    2    1    2    0    0  0.00000000000E+00  0.00000000000E+00 -0.93209481925E+03  0.20318077156E+04  0.18053924341E+04 0.  0.
        2    1    3    3  502    0 -0.70906007658E+03  0.31110713493E+02 -0.10937868460E+04  0.13038802603E+04  0.25500000920E-02 0.  1.
       -2    1    3    3    0  502  0.70906007658E+03 -0.31110713493E+02  0.16169202674E+03  0.72792745532E+03  0.25500000920E-02 0. -1.
</event>
<event>
 5   0  0.2569405E-04  0.1798490E+04  0.7818609E-02  0.8707103E-01
        2   -1    0    0  501    0  0.00000000000E+00  0.00000000000E+00  0.12157511163E+04  0.12157511163E+04  0.25500000920E-02 0. -1.
       -2   -1    0    0    0  501  0.00000000000E+00  0.00000000000E+00 -0.66513758629E+03  0.66513758630E+03  0.25500000920E-02 0.  1.
    10030    2    1    2    0    0  0.00000000000E+00  0.00000000000E+00  0.55061353003E+03  0.18808887026E+04  0.17984902147E+04 0.  0.
        2    1    3    3  502    0 -0.64160477015E+03 -0.39640438333E+03 -0.23687446056E+03  0.79050782809E+03  0.25500000920E-02 0.  1.
       -2    1    3    3    0  502  0.64160477015E+03  0.39640438333E+03  0.78748799059E+03  0.10903808745E+04  0.25500000920E-02 0. -1.
</event>
<event>
 5   0  0.2431811E-04  0.1804927E+04  0.7818609E-02  0.8703684E-01
        2   -1    0    0  501    0  0.00000000000E+00  0.00000000000E+00  0.93972691141E+03  0.93972691141E+03  0.25500000920E-02 0. -1.
       -2   -1    0    0    0  501  0.00000000000E+00  0.00000000000E+00 -0.86667733281E+03  0.86667733281E+03  0.25500000920E-02 0.  1.
    10030    2    1    2    0    0  0.00000000000E+00  0.00000000000E+00  0.73049578604E+02  0.18064042442E+04  0.18049266059E+04 0.  0.
        3    1    3    3  502    0  0.26236592356E+03  0.43260628434E+03  0.78443566889E+03  0.93344705469E+03  0.10100000352E+00 0. -1.
       -3    1    3    3    0  502 -0.26236592356E+03 -0.43260628434E+03 -0.71138609028E+03  0.87295718953E+03  0.10100000352E+00 0.  1.
</event>
<event>
 5   0  0.1239119E-04  0.1799870E+04  0.7818609E-02  0.8706369E-01
       -1   -1    0    0    0  501  0.00000000000E+00  0.00000000000E+00  0.62877472336E+03  0.62877472338E+03  0.50400001928E-02 0.  1.
        1   -1    0    0  501    0  0.00000000000E+00  0.00000000000E+00 -0.12880332066E+04  0.12880332066E+04  0.50400001928E-02 0. -1.
    10030    2    1    2    0    0  0.00000000000E+00  0.00000000000E+00 -0.65925848327E+03  0.19168079300E+04  0.17998696877E+04 0.  0.
        5    1    3    3  502    0 -0.52258904721E+03 -0.55634357641E+03  0.17804243095E+03  0.78379760429E+03  0.46999998093E+01 0.  1.
       -5    1    3    3    0  502  0.52258904721E+03  0.55634357641E+03 -0.83730091422E+03  0.11330103257E+04  0.46999998093E+01 0. -1.
</event>
<event>
 5   0  0.1239119E-04  0.1794081E+04  0.7818609E-02  0.8709453E-01
       -1   -1    0    0    0  501  0.00000000000E+00  0.00000000000E+00  0.72405094064E+03  0.72405094065E+03  0.50400001928E-02 0. -1.
        1   -1    0    0  501    0  0.00000000000E+00  0.00000000000E+00 -0.11113610646E+04  0.11113610646E+04  0.50400001928E-02 0.  1.
    10030    2    1    2    0    0  0.00000000000E+00  0.00000000000E+00 -0.38731012398E+03  0.18354120053E+04  0.17940814076E+04 0.  0.
        5    1    3    3  502    0  0.21118107756E+03 -0.80160962906E+03  0.15700127295E+03  0.84371021959E+03  0.46999998093E+01 0. -1.
       -5    1    3    3    0  502 -0.21118107756E+03  0.80160962906E+03 -0.54431139693E+03  0.99170178570E+03  0.46999998093E+01 0.  1.
</event>
<event>
 5   0  0.2550616E-04  0.1797762E+04  0.7818609E-02  0.8707490E-01
        2   -1    0    0  501    0  0.00000000000E+00  0.00000000000E+00  0.67540505897E+03  0.67540505898E+03  0.25500000920E-02 0.  1.
       -2   -1    0    0    0  501  0.00000000000E+00  0.00000000000E+00 -0.11963000149E+04  0.11963000149E+04  0.25500000920E-02 0. -1.
    10030    2    1    2    0    0  0.00000000000E+00  0.00000000000E+00 -0.52089495595E+03  0.18717050739E+04  0.17977620333E+04 0.  0.
        1    1    3    3  502    0 -0.34695941696E+03  0.36647889326E+03  0.51398817539E+03  0.72032732886E+03  0.50400001928E-02 0.  1.
       -1    1    3    3    0  502  0.34695941696E+03 -0.36647889326E+03 -0.10348831313E+04  0.11513777450E+04  0.50400001928E-02 0. -1.
</event>
<event>
 5   0  0.1308893E-04  0.1795361E+04  0.7818609E-02  0.8708770E-01
        1   -1    0    0  501    0  0.00000000000E+00  0.00000000000E+00  0.10442201163E+04  0.10442201163E+04  0.50400001928E-02 0.  1.
       -1   -1    0    0    0  501  0.00000000000E+00  0.00000000000E+00 -0.77170560407E+03  0.77170560409E+03  0.50400001928E-02 0. -1.
    10030    2    1    2    0    0  0.00000000000E+00  0.00000000000E+00  0.27251451219E+03  0.18159257204E+04  0.17953612624E+04 0.  0.
        4    1    3    3  502    0  0.58503087266E+03  0.22117226654E+03  0.78756671203E+03  0.10057043463E+04  0.12699999809E+01 0.  1.
       -4    1    3    3    0  502 -0.58503087266E+03 -0.22117226654E+03 -0.51505219984E+03  0.81022137402E+03  0.12699999809E+01 0. -1.
</event>
<event>
 5   0  0.1253925E-04  0.1792537E+04  0.7818609E-02  0.8710278E-01
        1   -1    0    0  501    0  0.00000000000E+00  0.00000000000E+00  0.86168644033E+03  0.86168644034E+03  0.50400001928E-02 0. -1.
       -1   -1    0    0    0  501  0.00000000000E+00  0.00000000000E+00 -0.93223894766E+03  0.93223894767E+03  0.50400001928E-02 0.  1.
    10030    2    1    2    0    0  0.00000000000E+00  0.00000000000E+00 -0.70552507331E+02  0.17939253880E+04  0.17925374868E+04 0.  0.
        2    1    3    3  502    0 -0.70969842752E+03 -0.25918773860E+03 -0.51777766337E+03  0.91593878101E+03  0.25500000920E-02 0.  1.
       -2    1    3    3    0  502  0.70969842752E+03  0.25918773860E+03  0.44722515604E+03  0.87798660700E+03  0.25500000920E-02 0. -1.
</event>
<event>
 5   0  0.2417106E-04  0.1680212E+04  0.7818609E-02  0.8772731E-01
        2   -1    0    0  501    0  0.00000000000E+00  0.00000000000E+00  0.57549255044E+03  0.57549255044E+03  0.25500000920E-02 0.  1.
       -2   -1    0    0    0  501  0.00000000000E+00  0.00000000000E+00 -0.12263892372E+04  0.12263892372E+04  0.25500000920E-02 0. -1.
    10030    2    1    2    0    0  0.00000000000E+00  0.00000000000E+00 -0.65089668679E+03  0.18018817877E+04  0.16802117366E+04 0.  0.
        4    1    3    3  502    0  0.80101160975E+03 -0.16848222973E+03 -0.12262209488E+03  0.82767363843E+03  0.12699999809E+01 0.  1.
       -4    1    3    3    0  502 -0.80101160975E+03  0.16848222973E+03 -0.52827459191E+03  0.97420814925E+03  0.12699999809E+01 0. -1.
</event>
<event>
 5   0  0.2569405E-04  0.1809635E+04  0.7818609E-02  0.8701192E-01
       -2   -1    0    0    0  501  0.00000000000E+00  0.00000000000E+00  0.81489004919E+03  0.81489004920E+03  0.25500000920E-02 0. -1.
        2   -1    0    0  501    0  0.00000000000E+00  0.00000000000E+00 -0.10046688611E+04  0.10046688611E+04  0.25500000920E-02 0.  1.
    10030    2    1    2    0    0  0.00000000000E+00  0.00000000000E+00 -0.18977881191E+03  0.18195589103E+04  0.18096349440E+04 0.  0.
        2    1    3    3  502    0 -0.35334769114E+02 -0.88154520885E+03  0.10702057733E+03  0.88872037511E+03  0.25500000920E-02 0. -1.
       -2    1    3    3    0  502  0.35334769114E+02  0.88154520885E+03 -0.29679938925E+03  0.93083853520E+03  0.25500000920E-02 0.  1.
</event>
<event>
 5   0  0.2431811E-04  0.1811117E+04  0.7818609E-02  0.8700410E-01
        2   -1    0    0  501    0  0.00000000000E+00  0.00000000000E+00  0.11720072277E+04  0.11720072277E+04  0.25500000920E-02 0.  1.
       -2   -1    0    0    0  501  0.00000000000E+00  0.00000000000E+00 -0.69968546039E+03  0.69968546039E+03  0.25500000920E-02 0. -1.
    10030    2    1    2    0    0  0.00000000000E+00  0.00000000000E+00  0.47232176727E+03  0.18716926881E+04  0.18111172427E+04 0.  0.
        3    1    3    3  502    0  0.83591294245E+03 -0.34573982602E+03  0.27939220829E+03  0.94675577152E+03  0.10100000352E+00 0.  1.
       -3    1    3    3    0  502 -0.83591294245E+03  0.34573982602E+03  0.19292955898E+03  0.92493691654E+03  0.10100000352E+00 0. -1.
</event>
<event>
 5   0  0.9144875E-05  0.1784219E+04  0.7818609E-02  0.8714737E-01
       -4   -1    0    0    0  501  0.00000000000E+00  0.00000000000E+00  0.98560948430E+03  0.98561030252E+03  0.12699999809E+01 0. -1.
        4   -1    0    0  501    0  0.00000000000E+00  0.00000000000E+00 -0.80747811755E+03  0.80747911628E+03  0.12699999809E+01 0.  1.
    10030    2    1    2    0    0  0.00000000000E+00  0.00000000000E+00  0.17813136675E+03  0.17930894188E+04  0.17842194035E+04 0.  0.
        4    1    3    3  502    0  0.72003231232E+03  0.14048958426E+03  0.59920547751E+03  0.94722366484E+03  0.12699999809E+01 0. -1.
       -4    1    3    3    0  502 -0.72003231232E+03 -0.14048958426E+03 -0.42107411076E+03  0.84586575396E+03  0.12699999809E+01 0.  1.
</event>
<event>
 5   0  0.2417106E-04  0.1762025E+04  0.7818609E-02  0.8726759E-01
        2   -1    0    0  501    0  0.00000000000E+00  0.00000000000E+00  0.15229527271E+04  0.15229527271E+04  0.25500000920E-02 0. -1.
       -2   -1    0    0    0  501  0.00000000000E+00  0.00000000000E+00 -0.50965655633E+03  0.50965655633E+03  0.25500000920E-02 0.  1.
    10030    2    1    2    0    0  0.00000000000E+00  0.00000000000E+00  0.10132961708E+04  0.20326092834E+04  0.17620247925E+04 0.  0.
        4    1    3    3  502    0  0.84795932900E+02 -0.65300499794E+03 -0.16853250061E+03  0.67971368548E+03  0.12699999809E+01 0.  1.
       -4    1    3    3    0  502 -0.84795932900E+02  0.65300499794E+03  0.11818286714E+04  0.13528955980E+04  0.12699999809E+01 0. -1.
</event>
<event>
 5   0  0.2431811E-04  0.1798051E+04  0.7818609E-02  0.8707336E-01
        2   -1    0    0  501    0  0.00000000000E+00  0.00000000000E+00  0.11877721751E+04  0.11877721751E+04  0.25500000920E-02 0.  1.
       -2   -1    0    0    0  501  0.00000000000E+00  0.00000000000E+00 -0.68047331476E+03  0.68047331476E+03  0.25500000920E-02 0. -1.
    10030    2    1    2    0    0  0.00000000000E+00  0.00000000000E+00  0.50729886033E+03  0.18682454898E+04  0.17980514666E+04 0.  0.
        3    1    3    3  502    0 -0.65552872577E+03 -0.68511238156E+02 -0.38164072926E+03  0.76161759204E+03  0.10100000352E+00 0. -1.
       -3    1    3    3    0  502  0.65552872577E+03  0.68511238156E+02  0.88893958959E+03  0.11066278978E+04  0.10100000352E+00 0.  1.
</event>
<event>
 5   0  0.1330225E-04  0.1941519E+04  0.7818609E-02  0.8634461E-01
        1   -1    0    0  501    0  0.00000000000E+00  0.00000000000E+00  0.11975330930E+04  0.11975330930E+04  0.50400001928E-02 0. -1.
       -1   -1    0    0    0  501  0.00000000000E+00  0.00000000000E+00 -0.78692941810E+03  0.78692941811E+03  0.50400001928E-02 0.  1.
    10030    2    1    2    0    0  0.00000000000E+00  0.00000000000E+00  0.41060367490E+03  0.19844625111E+04  0.19415190136E+04 0.  0.
        3    1    3    3  502    0 -0.39716436534E+03  0.54878022960E+03 -0.50540115421E+03  0.84518022361E+03  0.10100000352E+00 0.  1.
       -3    1    3    3    0  502  0.39716436534E+03 -0.54878022960E+03  0.91600482911E+03  0.11392822875E+04  0.10100000352E+00 0. -1.
</event>
<event>
 5   0  0.2431811E-04  0.1777466E+04  0.7818609E-02  0.8718375E-01
       -2   -1    0    0    0  501  0.00000000000E+00  0.00000000000E+00  0.50709557207E+03  0.50709557208E+03  0.25500000920E-02 0.  1.
        2   -1    0    0  501    0  0.00000000000E+00  0.00000000000E+00 -0.15575889807E+04  0.15575889807E+04  0.25500000920E-02 0. -1.
    10030    2    1    2    0    0  0.00000000000E+00  0.00000000000E+00 -0.10504934086E+04  0.20646845528E+04  0.17774661462E+04 0.  0.
        3    1    3    3  502    0  0.61240325778E+03  0.47697779250E+03 -0.22531172626E+02  0.77656501892E+03  0.10100000352E+00 0.  1.
       -3    1    3    3    0  502 -0.61240325778E+03 -0.47697779250E+03 -0.10279622360E+04  0.12881195339E+04  0.10100000352E+00 0. -1.
</event>
<event>
 5   0  0.1253925E-04  0.1800030E+04  0.7818609E-02  0.8706284E-01
        1   -1    0    0  501    0  0.00000000000E+00  0.00000000000E+00  0.74853321001E+03  0.74853321003E+03  0.50400001928E-02 0. -1.
       -1   -1    0    0    0  501  0.00000000000E+00  0.00000000000E+00 -0.10821518022E+04  0.10821518022E+04  0.50400001928E-02 0.  1.
    10030    2    1    2    0    0  0.00000000000E+00  0.00000000000E+00 -0.33361859222E+03  0.18306850123E+04  0.18000295134E+04 0.  0.
        2    1    3    3  502    0 -0.80479315629E+03 -0.32479074923E+03  0.75674137164E+02  0.87115304639E+03  0.25500000920E-02 0. -1.
       -2    1    3    3    0  502  0.80479315629E+03  0.32479074923E+03 -0.40929272938E+03  0.95953196587E+03  0.25500000920E-02 0.  1.
</event>
<event>
 5   0  0.1214723E-04  0.1944558E+04  0.7818609E-02  0.8632989E-01
       -1   -1    0    0    0  501  0.00000000000E+00  0.00000000000E+00  0.58279299317E+03  0.58279299319E+03  0.50400001928E-02 0.  1.
        1   -1    0    0  501    0  0.00000000000E+00  0.00000000000E+00 -0.16220621090E+04  0.16220621090E+04  0.50400001928E-02 0. -1.
    10030    2    1    2    0    0  0.00000000000E+00  0.00000000000E+00 -0.10392691158E+04  0.22048551022E+04  0.19445579771E+04 0.  0.
        1    1    3    3  502    0  0.65603180453E+03  0.55329051090E+03 -0.10377701782E+04  0.13466532816E+04  0.50400001928E-02 0. -1.
       -1    1    3    3    0  502 -0.65603180453E+03 -0.55329051090E+03 -0.14989376066E+01  0.85820182058E+03  0.50400001928E-02 0.  1.
</event>
<event>
 5   0  0.2417106E-04  0.1812533E+04  0.7818609E-02  0.8699663E-01
       -2   -1    0    0    0  501  0.00000000000E+00  0.00000000000E+00  0.10296098565E+04  0.10296098565E+04  0.25500000920E-02 0.  1.
        2   -1    0    0  501    0  0.00000000000E+00  0.00000000000E+00 -0.79769939973E+03  0.79769939973E+03  0.25500000920E-02 0. -1.
    10030    2    1    2    0    0  0.00000000000E+00  0.00000000000E+00  0.23191045674E+03  0.18273092562E+04  0.18125332157E+04 0.  0.
        4    1    3    3  502    0 -0.38952181793E+03  0.72687165441E+02  0.93764987131E+03  0.10179388806E+04  0.12699999809E+01 0.  1.
       -4    1    3    3    0  502  0.38952181793E+03 -0.72687165441E+02 -0.70573941457E+03  0.80937037556E+03  0.12699999809E+01 0. -1.
</event>
<event>
 5   0  0.2417106E-04  0.1735267E+04  0.7818609E-02  0.8741502E-01
       -2   -1    0    0    0  501  0.00000000000E+00  0.00000000000E+00  0.32015466451E+03  0.32015466452E+03  0.25500000920E-02 0.  1.
        2   -1    0    0  501    0  0.00000000000E+00  0.00000000000E+00 -0.23513245505E+04  0.23513245505E+04  0.25500000920E-02 0. -1.
    10030    2    1    2    0    0  0.00000000000E+00  0.00000000000E+00 -0.20311698860E+04  0.26714792151E+04  0.17352665762E+04 0.  0.
        4    1    3    3  502    0  0.71839201352E+03 -0.48282328578E+03 -0.92346420715E+03  0.12656986866E+04  0.12699999809E+01 0.  1.
       -4    1    3    3    0  502 -0.71839201352E+03  0.48282328578E+03 -0.11077056789E+04  0.14057805285E+04  0.12699999809E+01 0. -1.
</event>
<event>
 5   0  0.2417106E-04  0.1802596E+04  0.7818609E-02  0.8704920E-01
        2   -1    0    0  501    0  0.00000000000E+00  0.00000000000E+00  0.14842688529E+04  0.14842688529E+04  0.25500000920E-02 0. -1.
       -2   -1    0    0    0  501  0.00000000000E+00  0.00000000000E+00 -0.54729857350E+03  0.54729857351E+03  0.25500000920E-02 0.  1.
    10030    2    1    2    0    0  0.00000000000E+00  0.00000000000E+00  0.93697027939E+03  0.20315674264E+04  0.18025961565E+04 0.  0.
        4    1    3    3  502    0  0.68261584787E+03  0.40200878557E+03 -0.15952782422E+02  0.79235822934E+03  0.12699999809E+01 0.  1.
       -4    1    3    3    0  502 -0.68261584787E+03 -0.40200878557E+03  0.95292306181E+03  0.12392091971E+04  0.12699999809E+01 0. -1.
</event>
<event>
 5   0  0.9144875E-05  0.1778709E+04  0.7818609E-02  0.8717704E-01
       -3   -1    0    0    0  501  0.00000000000E+00  0.00000000000E+00  0.10392898427E+04  0.10392898476E+04  0.10100000352E+00 0. -1.
        3   -1    0    0  501    0  0.00000000000E+00  0.00000000000E+00 -0.76105013265E+03  0.76105013936E+03  0.10100000352E+00 0.  1.
    10030    2    1    2    0    0  0.00000000000E+00  0.00000000000E+00  0.27823971000E+03  0.18003399869E+04  0.17787092883E+04 0.  0.
        3    1    3    3  502    0 -0.53455652326E+03 -0.37008217098E+03  0.75332739503E+03  0.99509480159E+03  0.10100000352E+00 0. -1.
       -3    1    3    3    0  502  0.53455652326E+03  0.37008217098E+03 -0.47508768503E+03  0.80524518534E+03  0.10100000352E+00 0.  1.
</event>
<event>
 5   0  0.1214723E-04  0.1807777E+04  0.7818609E-02  0.8702174E-01
       -1   -1    0    0    0  501  0.00000000000E+00  0.00000000000E+00  0.85299755871E+03  0.85299755872E+03  0.50400001928E-02 0.  1.
        1   -1    0    0  501    0  0.00000000000E+00  0.00000000000E+00 -0.95781614152E+03  0.95781614153E+03  0.50400001928E-02 0. -1.
    10030    2    1    2    0    0  0.00000000000E+00  0.00000000000E+00 -0.10481858281E+03  0.18108137003E+04  0.18077774536E+04 0.  0.
        1    1    3    3  502    0 -0.39132515249E+03 -0.79886477278E+03  0.10815506657E+03  0.89611261492E+03  0.50400001928E-02 0.  1.
       -1    1    3    3    0  502  0.39132515249E+03  0.79886477278E+03 -0.21297364938E+03  0.91470108534E+03  0.50400001928E-02 0. -1.
</event>
<event>
 5   0  0.9144875E-05  0.1776450E+04  0.7818609E-02  0.8718924E-01
       -3   -1    0    0    0  501  0.00000000000E+00  0.00000000000E+00  0.91454581610E+03  0.91454582168E+03  0.10100000352E+00 0.  1.
        3   -1    0    0  501    0  0.00000000000E+00  0.00000000000E+00 -0.86266148089E+03  0.86266148681E+03  0.10100000352E+00 0. -1.
    10030    2    1    2    0    0  0.00000000000E+00  0.00000000000E+00  0.51884335205E+02  0.17772073085E+04  0.17764497834E+04 0.  0.
        3    1    3    3  502    0  0.34182148063E+03  0.43043736956E+03  0.72396829395E+03  0.90898204305E+03  0.10100000352E+00 0.  1.
       -3    1    3    3    0  502 -0.34182148063E+03 -0.43043736956E+03 -0.67208395875E+03  0.86822526544E+03  0.10100000352E+00 0. -1.
</event>
<event>
 5   0  0.2431811E-04  0.1788761E+04  0.7818609E-02  0.8712299E-01
       -2   -1    0    0    0  501  0.00000000000E+00  0.00000000000E+00  0.20163928101E+04  0.20163928101E+04  0.25500000920E-02 0.  1.
        2   -1    0    0  501    0  0.00000000000E+00  0.00000000000E+00 -0.39670648968E+03  0.39670648969E+03  0.25500000920E-02 0. -1.
    10030    2    1    2    0    0  0.00000000000E+00  0.00000000000E+00  0.16196863204E+04  0.24130992998E+04  0.17887605916E+04 0.  0.
        3    1    3    3  502    0 -0.54445288902E+02 -0.74207027419E+03  0.14035846518E+03  0.75718761893E+03  0.10100000352E+00 0. -1.
       -3    1    3    3    0  502  0.54445288902E+02  0.74207027419E+03  0.14793278552E+04  0.16559116808E+04  0.10100000352E+00 0.  1.
</event>
<event>
 5   0  0.2550616E-04  0.1822932E+04  0.7818609E-02  0.8694199E-01
        2   -1    0    0  501    0  0.00000000000E+00  0.00000000000E+00  0.67628121935E+03  0.67628121936E+03  0.25500000920E-02 0. -1.
       -2   -1    0    0    0  501  0.00000000000E+00  0.00000000000E+00 -0.12284390558E+04  0.12284390559E+04  0.25500000920E-02 0.  1.
    10030    2    1    2    0    0  0.00000000000E+00  0.00000000000E+00 -0.55215783650E+03  0.19047202752E+04  0.18229319928E+04 0.  0.
        1    1    3    3  502    0 -0.29978791822E+03 -0.21009767222E+03 -0.11482490945E+04  0.12051928521E+04  0.50400001928E-02 0.  1.
       -1    1    3    3    0  502  0.29978791822E+03  0.21009767222E+03  0.59609125799E+03  0.69952742309E+03  0.50400001928E-02 0. -1.
</event>
<event>
 5   0  0.9144875E-05  0.1799145E+04  0.7818609E-02  0.8706754E-01
        4   -1    0    0  501    0  0.00000000000E+00  0.00000000000E+00  0.73141549025E+03  0.73141659284E+03  0.12699999809E+01 0.  1.
       -4   -1    0    0    0  501  0.00000000000E+00  0.00000000000E+00 -0.11063876882E+04  0.11063884171E+04  0.12699999809E+01 0. -1.
    10030    2    1    2    0    0  0.00000000000E+00  0.00000000000E+00 -0.37497219796E+03  0.18378050100E+04  0.17991451040E+04 0.  0.
        4    1    3    3  502    0  0.15913006288E+03 -0.45244746923E+03 -0.96489014096E+03  0.10775182998E+04  0.12699999809E+01 0. -1.
       -4    1    3    3    0  502 -0.15913006288E+03  0.45244746923E+03  0.58991794299E+03  0.76028671019E+03  0.12699999809E+01 0.  1.
</event>
<event>
 5   0  0.1214723E-04  0.1799437E+04  0.7818609E-02  0.8706599E-01
        1   -1    0    0  501    0  0.00000000000E+00  0.00000000000E+00  0.10027808930E+04  0.10027808930E+04  0.50400001928E-02 0.  1.
       -1   -1    0    0    0  501  0.00000000000E+00  0.00000000000E+00 -0.80724865671E+03  0.80724865672E+03  0.50400001928E-02 0. -1.
    10030    2    1    2    0    0  0.00000000000E+00  0.00000000000E+00  0.19553223627E+03  0.18100295497E+04  0.17994371663E+04 0.  0.
        1    1    3    3  502    0 -0.86267923147E+03  0.25166641137E+03  0.53437557297E+02  0.90022608915E+03  0.50400001928E-02 0. -1.
       -1    1    3    3    0  502  0.86267923147E+03 -0.25166641137E+03  0.14209467897E+03  0.90980346056E+03  0.50400001928E-02 0.  1.
</event>
<event>
 5   0  0.1253925E-04  0.1821521E+04  0.7818609E-02  0.8694938E-01
       -1   -1    0    0    0  501  0.00000000000E+00  0.00000000000E+00  0.36677780334E+03  0.36677780337E+03  0.50400001928E-02 0. -1.
        1   -1    0    0  501    0  0.00000000000E+00  0.00000000000E+00 -0.22615449763E+04  0.22615449763E+04  0.50400001928E-02 0.  1.
    10030    2    1    2    0    0  0.00000000000E+00  0.00000000000E+00 -0.18947671729E+04  0.26283227797E+04  0.18215207916E+04 0.  0.
        2    1    3    3  502    0 -0.26404395099E+03  0.26177612762E+03  0.25227741589E+03  0.44932153701E+03  0.25500000920E-02 0. -1.
       -2    1    3    3    0  502  0.26404395099E+03 -0.26177612762E+03 -0.21470445888E+04  0.21790012427E+04  0.25500000920E-02 0.  1.
</event>
<event>
 5   0  0.2431811E-04  0.1792085E+04  0.7818609E-02  0.8710520E-01
        2   -1    0    0  501    0  0.00000000000E+00  0.00000000000E+00  0.10321276170E+04  0.10321276170E+04  0.25500000920E-02 0.  1.
       -2   -1    0    0    0  501  0.00000000000E+00  0.00000000000E+00 -0.77790023864E+03  0.77790023864E+03  0.25500000920E-02 0. -1.
    10030    2    1    2    0    0  0.00000000000E+00  0.00000000000E+00  0.25422737833E+03  0.18100278556E+04  0.17920851760E+04 0.  0.
        3    1    3    3  502    0  0.42865352602E+03 -0.46565523118E+03 -0.51351886771E+03  0.81503391181E+03  0.10100000352E+00 0. -1.
       -3    1    3    3    0  502 -0.42865352602E+03  0.46565523118E+03  0.76774624604E+03  0.99499394380E+03  0.10100000352E+00 0.  1.
</event>
<event>
 5   0  0.1253925E-04  0.1679130E+04  0.7818609E-02  0.8773358E-01
        1   -1    0    0  501    0  0.00000000000E+00  0.00000000000E+00  0.83755171285E+03  0.83755171287E+03  0.50400001928E-02 0. -1.
       -1   -1    0    0    0  501  0.00000000000E+00  0.00000000000E+00 -0.84158287190E+03  0.84158287192E+03  0.50400001928E-02 0.  1.
    10030    2    1    2    0    0  0.00000000000E+00  0.00000000000E+00 -0.40311590523E+01  0.16791345848E+04  0.16791297459E+04 0.  0.
        2    1    3    3  502    0  0.48379404209E+03  0.16909171610E+03  0.66298294757E+03  0.83797080641E+03  0.25500000920E-02 0. -1.
       -2    1    3    3    0  502 -0.48379404209E+03 -0.16909171610E+03 -0.66701410662E+03  0.84116377838E+03  0.25500000920E-02 0.  1.
</event>
<event>
 5   0  0.2417106E-04  0.1771584E+04  0.7818609E-02  0.8721558E-01
       -2   -1    0    0    0  501  0.00000000000E+00  0.00000000000E+00  0.40697061595E+03  0.40697061595E+03  0.25500000920E-02 0. -1.
        2   -1    0    0  501    0  0.00000000000E+00  0.00000000000E+00 -0.19279717192E+04  0.19279717192E+04  0.25500000920E-02 0.  1.
    10030    2    1    2    0    0  0.00000000000E+00  0.00000000000E+00 -0.15210011033E+04  0.23349423352E+04  0.17715844187E+04 0.  0.
        4    1    3    3  502    0 -0.28789326744E+03 -0.30176132154E+03  0.26946454117E+03  0.49654323121E+03  0.12699999809E+01 0. -1.
       -4    1    3    3    0  502  0.28789326744E+03  0.30176132154E+03 -0.17904656444E+04  0.18383991039E+04  0.12699999809E+01 0.  1.
</event>
<event>
 5   0  0.1330225E-04  0.1775707E+04  0.7818609E-02  0.8719326E-01
        1   -1    0    0  501    0  0.00000000000E+00  0.00000000000E+00  0.92971272139E+03  0.92971272140E+03  0.50400001928E-02 0. -1.
       -1   -1    0    0    0  501  0.00000000000E+00  0.00000000000E+00 -0.84787891327E+03  0.84787891328E+03  0.50400001928E-02 0.  1.
    10030    2    1    2    0    0  0.00000000000E+00  0.00000000000E+00  0.81833808125E+02  0.17775916347E+04  0.17757069712E+04 0.  0.
        3    1    3    3  502    0  0.63241963697E+03  0.18555771481E+03 -0.55460737137E+03  0.86138006091E+03  0.10100000352E+00 0.  1.
       -3    1    3    3    0  502 -0.63241963697E+03 -0.18555771481E+03  0.63644117950E+03  0.91621157377E+03  0.10100000352E+00 0. -1.
</event>
<event>
 5   0  0.1214723E-04  0.1801405E+04  0.7818609E-02  0.8705553E-01
        1   -1    0    0  501    0  0.00000000000E+00  0.00000000000E+00  0.93735694721E+03  0.93735694723E+03  0.50400001928E-02 0.  1.
       -1   -1    0    0    0  501  0.00000000000E+00  0.00000000000E+00 -0.86548093301E+03  0.86548093303E+03  0.50400001928E-02 0. -1.
    10030    2    1    2    0    0  0.00000000000E+00  0.00000000000E+00  0.71876014200E+02  0.18028378803E+04  0.18014045245E+04 0.  0.
        1    1    3    3  502    0  0.13747781758E+03 -0.78709004133E+03 -0.38014956343E+03  0.88483025156E+03  0.50400001928E-02 0.  1.
       -1    1    3    3    0  502 -0.13747781758E+03  0.78709004133E+03  0.45202557763E+03  0.91800762869E+03  0.50400001928E-02 0. -1.
</event>
<event>
 5   0  0.2417106E-04  0.1713780E+04  0.7818609E-02  0.8753544E-01
       -2   -1    0    0    0  501  0.00000000000E+00  0.00000000000E+00  0.39548580964E+03  0.39548580965E+03  0.25500000920E-02 0. -1.
        2   -1    0    0  501    0  0.00000000000E+00  0.00000000000E+00 -0.18566038869E+04  0.18566038869E+04  0.25500000920E-02 0.  1.
    10030    2    1    2    0    0  0.00000000000E+00  0.00000000000E+00 -0.14611180773E+04  0.22520896966E+04  0.17137800225E+04 0.  0.
        4    1    3    3  502    0  0.15693342297E+03  0.79595621411E+03 -0.36808353755E+03  0.89087681390E+03  0.12699999809E+01 0. -1.
       -4    1    3    3    0  502 -0.15693342297E+03 -0.79595621411E+03 -0.10930345398E+04  0.13612128827E+04  0.12699999809E+01 0.  1.
</event>
<event>
 5   0  0.2393421E-04  0.1807296E+04  0.7818609E-02  0.8702429E-01
        2   -1    0    0  501    0  0.00000000000E+00  0.00000000000E+00  0.15593371876E+04  0.15593371876E+04  0.25500000920E-02 0.  1.
       -2   -1    0    0    0  501  0.00000000000E+00  0.00000000000E+00 -0.52367107666E+03  0.52367107666E+03  0.25500000920E-02 0. -1.
    10030    2    1    2    0    0  0.00000000000E+00  0.00000000000E+00  0.10356661109E+04  0.20830082642E+04  0.18072960841E+04 0.  0.
        5    1    3    3  502    0 -0.25078645689E+03  0.86064662428E+03  0.64899784841E+03  0.11067189147E+04  0.46999998093E+01 0. -1.
       -5    1    3    3    0  502  0.25078645689E+03 -0.86064662428E+03  0.38666826251E+03  0.97628934957E+03  0.46999998093E+01 0.  1.
</event>
<event>
 5   0  0.1253925E-04  0.1757583E+04  0.7818609E-02  0.8729187E-01
       -1   -1    0    0    0  501  0.00000000000E+00  0.00000000000E+00  0.71553675954E+03  0.71553675956E+03  0.50400001928E-02 0. -1.
        1   -1    0    0  501    0  0.00000000000E+00  0.00000000000E+00 -0.10792941086E+04  0.10792941086E+04  0.50400001928E-02 0.  1.
    10030    2    1    2    0    0  0.00000000000E+00  0.00000000000E+00 -0.36375734903E+03  0.17948308681E+04  0.17575831236E+04 0.  0.
        2    1    3    3  502    0 -0.48244833297E+03  0.51474799433E+03  0.35320355693E+03  0.78897062321E+03  0.25500000920E-02 0. -1.
       -2    1    3    3    0  502  0.48244833297E+03 -0.51474799433E+03 -0.71696090596E+03  0.10058602449E+04  0.25500000920E-02 0.  1.
</event>
<event>
 5   0  0.1253925E-04  0.1799109E+04  0.7818609E-02  0.8706773E-01
       -1   -1    0    0    0  501  0.00000000000E+00  0.00000000000E+00  0.74575277581E+03  0.74575277583E+03  0.50400001928E-02 0. -1.
        1   -1    0    0  501    0  0.00000000000E+00  0.00000000000E+00 -0.10850762754E+04  0.10850762754E+04  0.50400001928E-02 0.  1.
    10030    2    1    2    0    0  0.00000000000E+00  0.00000000000E+00 -0.33932349954E+03  0.18308290512E+04  0.17991093845E+04 0.  0.
        2    1    3    3  502    0 -0.22672416275E+03  0.43389692243E+03  0.59831463400E+03  0.77307877123E+03  0.25500000920E-02 0. -1.
       -2    1    3    3    0  502  0.22672416275E+03 -0.43389692243E+03 -0.93763813354E+03  0.10577502800E+04  0.25500000920E-02 0.  1.
</event>
<event>
 5   0  0.1214723E-04  0.1947138E+04  0.7818609E-02  0.8631742E-01
        1   -1    0    0  501    0  0.00000000000E+00  0.00000000000E+00  0.23279305790E+04  0.23279305790E+04  0.50400001928E-02 0. -1.
       -1   -1    0    0    0  501  0.00000000000E+00  0.00000000000E+00 -0.40715855891E+03  0.40715855894E+03  0.50400001928E-02 0.  1.
    10030    2    1    2    0    0  0.00000000000E+00  0.00000000000E+00  0.19207720201E+04  0.27350891379E+04  0.19471382692E+04 0.  0.
        1    1    3    3  502    0  0.49485284786E+03  0.48349314120E+03  0.19225518762E+04  0.20432451334E+04  0.50400001928E-02 0. -1.
       -1    1    3    3    0  502 -0.49485284786E+03 -0.48349314120E+03 -0.17798561170E+01  0.69184400449E+03  0.50400001928E-02 0.  1.
</event>
<event>
 5   0  0.1239119E-04  0.1498682E+04  0.7818609E-02  0.8885330E-01
       -1   -1    0    0    0  501  0.00000000000E+00  0.00000000000E+00  0.45566445822E+03  0.45566445825E+03  0.50400001928E-02 0. -1.
        1   -1    0    0  501    0  0.00000000000E+00  0.00000000000E+00 -0.12322922842E+04  0.12322922842E+04  0.50400001928E-02 0.  1.
    10030    2    1    2    0    0  0.00000000000E+00  0.00000000000E+00 -0.77662782597E+03  0.16879567425E+04  0.14986818156E+04 0.  0.
        5    1    3    3  502    0  0.36281175923E+03 -0.58424258003E+03 -0.72340858828E+03  0.99815521867E+03  0.46999998093E+01 0.  1.
       -5    1    3    3    0  502 -0.36281175923E+03  0.58424258003E+03 -0.53219237683E+02  0.68980152378E+03  0.46999998093E+01 0. -1.
</event>
<event>
 5   0  0.1330225E-04  0.1815170E+04  0.7818609E-02  0.8698274E-01
        1   -1    0    0  501    0  0.00000000000E+00  0.00000000000E+00  0.72275716553E+03  0.72275716555E+03  0.50400001928E-02 0.  1.
       -1   -1    0    0    0  501  0.00000000000E+00  0.00000000000E+00 -0.11396781440E+04  0.11396781440E+04  0.50400001928E-02 0. -1.
    10030    2    1    2    0    0  0.00000000000E+00  0.00000000000E+00 -0.41692097848E+03  0.18624353096E+04  0.18151700141E+04 0.  0.
        3    1    3    3  502    0  0.27703045705E+03  0.57648796687E+03  0.45222124986E+03  0.78331878511E+03  0.10100000352E+00 0.  1.
       -3    1    3    3    0  502 -0.27703045705E+03 -0.57648796687E+03 -0.86914222833E+03  0.10791165245E+04  0.10100000352E+00 0. -1.
</event>
<event>
 5   0  0.2550616E-04  0.1739679E+04  0.7818609E-02  0.8739052E-01
       -2   -1    0    0    0  501  0.00000000000E+00  0.00000000000E+00  0.58272213804E+03  0.58272213805E+03  0.25500000920E-02 0.  1.
        2   -1    0    0  501    0  0.00000000000E+00  0.00000000000E+00 -0.12984246174E+04  0.12984246174E+04  0.25500000920E-02 0. -1.
    10030    2    1    2    0    0  0.00000000000E+00  0.00000000000E+00 -0.71570247939E+03  0.18811467555E+04  0.17396790154E+04 0.  0.
        1    1    3    3  502    0 -0.46181121972E+03  0.28091814032E+03 -0.10947648336E+04  0.12209400662E+04  0.50400001928E-02 0. -1.
       -1    1    3    3    0  502  0.46181121972E+03 -0.28091814032E+03  0.37906235422E+03  0.66020668933E+03  0.50400001928E-02 0.  1.
</event>
<event>
 5   0  0.1239119E-04  0.1792474E+04  0.7818609E-02  0.8710312E-01
        1   -1    0    0  501    0  0.00000000000E+00  0.00000000000E+00  0.14279656831E+04  0.14279656831E+04  0.50400001928E-02 0. -1.
       -1   -1    0    0    0  501  0.00000000000E+00  0.00000000000E+00 -0.56250726936E+03  0.56250726939E+03  0.50400001928E-02 0.  1.
    10030    2    1    2    0    0  0.00000000000E+00  0.00000000000E+00  0.86545841370E+03  0.19904729525E+04  0.17924743537E+04 0.  0.
        5    1    3    3  502    0 -0.71479491956E+03  0.53594139509E+03  0.51167378118E+03  0.10295616078E+04  0.46999998093E+01 0.  1.
       -5    1    3    3    0  502  0.71479491956E+03 -0.53594139509E+03  0.35378463252E+03  0.96091134461E+03  0.46999998093E+01 0. -1.
</event>
<event>
 5   0  0.1214723E-04  0.1797870E+04  0.7818609E-02  0.8707433E-01
        1   -1    0    0  501    0  0.00000000000E+00  0.00000000000E+00  0.16335149557E+04  0.16335149557E+04  0.50400001928E-02 0. -1.
       -1   -1    0    0    0  501  0.00000000000E+00  0.00000000000E+00 -0.49469018118E+03  0.49469018120E+03  0.50400001928E-02 0.  1.
    10030    2    1    2    0    0  0.00000000000E+00  0.00000000000E+00  0.11388247745E+04  0.21282051369E+04  0.17978696387E+04 0.  0.
        1    1    3    3  502    0 -0.70530097380E+03  0.34941080537E+02  0.12278655598E+04  0.14164477314E+04  0.50400001928E-02 0. -1.
       -1    1    3    3    0  502  0.70530097380E+03 -0.34941080537E+02 -0.89040785347E+02  0.71175740547E+03  0.50400001928E-02 0.  1.
</event>
<event>
 5   0  0.1214723E-04  0.1744206E+04  0.7818609E-02  0.8736546E-01
        1   -1    0    0  501    0  0.00000000000E+00  0.00000000000E+00  0.11220671874E+04  0.11220671874E+04  0.50400001928E-02 0. -1.
       -1   -1    0    0    0  501  0.00000000000E+00  0.00000000000E+00 -0.67782365644E+03  0.67782365646E+03  0.50400001928E-02 0.  1.
    10030    2    1    2    0    0  0.00000000000E+00  0.00000000000E+00  0.44424353097E+03  0.17998908439E+04  0.17442060472E+04 0.  0.
        1    1    3    3  502    0 -0.37636199472E+03  0.69332299190E+03  0.60576855157E+03  0.99463594358E+03  0.50400001928E-02 0. -1.
       -1    1    3    3    0  502  0.37636199472E+03 -0.69332299190E+03 -0.16152502060E+03  0.80525490031E+03  0.50400001928E-02 0.  1.
</event>
<event>
 5   0  0.1253925E-04  0.1795165E+04  0.7818609E-02  0.8708875E-01
        1   -1    0    0  501    0  0.00000000000E+00  0.00000000000E+00  0.12929132120E+04  0.12929132120E+04  0.50400001928E-02 0.  1.
       -1   -1    0    0    0  501  0.00000000000E+00  0.00000000000E+00 -0.62313077740E+03  0.62313077742E+03  0.50400001928E-02 0. -1.
    10030    2    1    2    0    0  0.00000000000E+00  0.00000000000E+00  0.66978243460E+03  0.19160439894E+04  0.17951646331E+04 0.  0.
        2    1    3    3  502    0  0.34869795835E+03 -0.75279218746E+03  0.70054951737E+03  0.10858434371E+04  0.25500000920E-02 0.  1.
       -2    1    3    3    0  502 -0.34869795835E+03  0.75279218746E+03 -0.30767082772E+02  0.83020055231E+03  0.25500000920E-02 0. -1.
</event>
<event>
 5   0  0.1330225E-04  0.1826370E+04  0.7818609E-02  0.8692400E-01
        1   -1    0    0  501    0  0.00000000000E+00  0.00000000000E+00  0.92614094665E+03  0.92614094666E+03  0.50400001928E-02 0.  1.
       -1   -1    0    0    0  501  0.00000000000E+00  0.00000000000E+00 -0.90041077760E+03  0.90041077762E+03  0.50400001928E-02 0. -1.
    10030    2    1    2    0    0  0.00000000000E+00  0.00000000000E+00  0.25730169046E+02  0.18265517243E+04  0.18263704881E+04 0.  0.
        3    1    3    3  502    0 -0.64333772089E+03  0.46725971476E+03  0.46201121512E+03  0.91960286932E+03  0.10100000352E+00 0.  1.
       -3    1    3    3    0  502  0.64333772089E+03 -0.46725971476E+03 -0.43628104608E+03  0.90694885496E+03  0.10100000352E+00 0. -1.
</event>
<event>
 5   0  0.2550616E-04  0.1696996E+04  0.7818609E-02  0.8763079E-01
        2   -1    0    0  501    0  0.00000000000E+00  0.00000000000E+00  0.18600691917E+04  0.18600691917E+04  0.25500000920E-02 0.  1.
       -2   -1    0    0    0  501  0.00000000000E+00  0.00000000000E+00 -0.38705501594E+03  0.38705501595E+03  0.25500000920E-02 0. -1.
    10030    2    1    2    0    0  0.00000000000E+00  0.00000000000E+00  0.14730141757E+04  0.22471242076E+04  0.16969963001E+04 0.  0.
        1    1    3    3  502    0 -0.46517098228E+03 -0.11636161601E+03  0.16634549779E+04  0.17311864521E+04  0.50400001928E-02 0.  1.
       -1    1    3    3    0  502  0.46517098228E+03  0.11636161601E+03 -0.19044080216E+03  0.51593775553E+03  0.50400001928E-02 0. -1.
</event>
<event>
 5   0  0.2431811E-04  0.1798685E+04  0.7818609E-02  0.8706999E-01
        2   -1    0    0  501    0  0.00000000000E+00  0.00000000000E+00  0.17895343976E+04  0.17895343976E+04  0.25500000920E-02 0.  1.
       -2   -1    0    0    0  501  0.00000000000E+00  0.00000000000E+00 -0.45197057436E+03  0.45197057437E+03  0.25500000920E-02 0. -1.
    10030    2    1    2    0    0  0.00000000000E+00  0.00000000000E+00  0.13375638232E+04  0.22415049719E+04  0.17986849524E+04 0.  0.
        3    1    3    3  502    0  0.67345547018E+02 -0.97007494546E+02 -0.44226637017E+03  0.45776132327E+03  0.10100000352E+00 0. -1.
       -3    1    3    3    0  502 -0.67345547018E+02  0.97007494546E+02  0.17798301934E+04  0.17837436487E+04  0.10100000352E+00 0.  1.
</event>
<event>
 5   0  0.1330225E-04  0.1793010E+04  0.7818609E-02  0.8710025E-01
       -1   -1    0    0    0  501  0.00000000000E+00  0.00000000000E+00  0.12938973039E+04  0.12938973039E+04  0.50400001928E-02 0. -1.
        1   -1    0    0  501    0  0.00000000000E+00  0.00000000000E+00 -0.62116308983E+03  0.62116308985E+03  0.50400001928E-02 0.  1.
    10030    2    1    2    0    0  0.00000000000E+00  0.00000000000E+00  0.67273421404E+03  0.19150603937E+04  0.17930100359E+04 0.  0.
        3    1    3    3  502    0  0.60744438220E+03  0.27720837367E+03 -0.30259244842E+03  0.73307254752E+03  0.10100000352E+00 0.  1.
       -3    1    3    3    0  502 -0.60744438220E+03 -0.27720837367E+03  0.97532666246E+03  0.11819878462E+04  0.10100000352E+00 0. -1.
</event>
<event>
 5   0  0.2393421E-04  0.1755548E+04  0.7818609E-02  0.8730303E-01
       -2   -1    0    0    0  501  0.00000000000E+00  0.00000000000E+00  0.60495759361E+03  0.60495759362E+03  0.25500000920E-02 0. -1.
        2   -1    0    0  501    0  0.00000000000E+00  0.00000000000E+00 -0.12736213166E+04  0.12736213166E+04  0.25500000920E-02 0.  1.
    10030    2    1    2    0    0  0.00000000000E+00  0.00000000000E+00 -0.66866372301E+03  0.18785789102E+04  0.17555476489E+04 0.  0.
        5    1    3    3  502    0 -0.63795522749E+03 -0.54191209515E+03 -0.61706269225E+03  0.10399250201E+04  0.46999998093E+01 0.  1.
       -5    1    3    3    0  502  0.63795522749E+03  0.54191209515E+03 -0.51601030751E+02  0.83865389019E+03  0.46999998093E+01 0. -1.
</event>
<event>
 5   0  0.1308893E-04  0.1804045E+04  0.7818609E-02  0.8704151E-01
       -1   -1    0    0    0  501  0.00000000000E+00  0.00000000000E+00  0.29623287404E+04  0.29623287404E+04  0.50400001928E-02 0.  1.
        1   -1    0    0  501    0  0.00000000000E+00  0.00000000000E+00 -0.27466378854E+03  0.27466378859E+03  0.50400001928E-02 0. -1.
    10030    2    1    2    0    0  0.00000000000E+00  0.00000000000E+00  0.26876649519E+04  0.32369925290E+04  0.18040448274E+04 0.  0.
        4    1    3    3  502    0  0.27985574401E+03 -0.47869803956E+03  0.26203986513E+04  0.26784252380E+04  0.12699999809E+01 0.  1.
       -4    1    3    3    0  502 -0.27985574401E+03  0.47869803956E+03  0.67266300537E+02  0.55856729104E+03  0.12699999809E+01 0. -1.
</event>
<event>
 5   0  0.1253925E-04  0.1797742E+04  0.7818609E-02  0.8707501E-01
        1   -1    0    0  501    0  0.00000000000E+00  0.00000000000E+00  0.13986052118E+04  0.13986052118E+04  0.50400001928E-02 0.  1.
       -1   -1    0    0    0  501  0.00000000000E+00  0.00000000000E+00 -0.57769653505E+03  0.57769653507E+03  0.50400001928E-02 0. -1.
    10030    2    1    2    0    0  0.00000000000E+00  0.00000000000E+00  0.82090867673E+03  0.19763017469E+04  0.17977423450E+04 0.  0.
        2    1    3    3  502    0 -0.57347479077E+03  0.48681105720E+02  0.11694867413E+04  0.13034348560E+04  0.25500000920E-02 0.  1.
       -2    1    3    3    0  502  0.57347479077E+03 -0.48681105720E+02 -0.34857806458E+03  0.67286689087E+03  0.25500000920E-02 0. -1.
</event>
<event>
 5   0  0.1214723E-04  0.1781509E+04  0.7818609E-02  0.8716195E-01
       -1   -1    0    0    0  501  0.00000000000E+00  0.00000000000E+00  0.10767259862E+04  0.10767259862E+04  0.50400001928E-02 0. -1.
        1   -1    0    0  501    0  0.00000000000E+00  0.00000000000E+00 -0.73690369189E+03  0.73690369190E+03  0.50400001928E-02 0.  1.
    10030    2    1    2    0    0  0.00000000000E+00  0.00000000000E+00  0.33982229430E+03  0.18136296781E+04  0.17815087475E+04 0.  0.
        1    1    3    3  502    0 -0.36776793062E+03  0.25333931773E+03  0.95452735424E+03  0.10538294600E+04  0.50400001928E-02 0. -1.
       -1    1    3    3    0  502  0.36776793062E+03 -0.25333931773E+03 -0.61470505994E+03  0.75980021812E+03  0.50400001928E-02 0.  1.
</event>
<event>
 5   0  0.1239119E-04  0.1778204E+04  0.7818609E-02  0.8717977E-01
       -1   -1    0    0    0  501  0.00000000000E+00  0.00000000000E+00  0.67805608366E+03  0.67805608368E+03  0.50400001928E-02 0. -1.
        1   -1    0    0  501    0  0.00000000000E+00  0.00000000000E+00 -0.11658368916E+04  0.11658368916E+04  0.50400001928E-02 0.  1.
    10030    2    1    2    0    0  0.00000000000E+00  0.00000000000E+00 -0.48778080789E+03  0.18438929752E+04  0.17782044842E+04 0.  0.
        5    1    3    3  502    0 -0.10228622735E+03  0.85947877712E+03 -0.45465860173E+03  0.97770280492E+03  0.46999998093E+01 0.  1.
       -5    1    3    3    0  502  0.10228622735E+03 -0.85947877712E+03 -0.33122206165E+02  0.86619017032E+03  0.46999998093E+01 0. -1.
</event>
<event>
 5   0  0.2393421E-04  0.1709798E+04  0.7818609E-02  0.8755796E-01
        2   -1    0    0  501    0  0.00000000000E+00  0.00000000000E+00  0.11108716670E+04  0.11108716670E+04  0.25500000920E-02 0.  1.
       -2   -1    0    0    0  501  0.00000000000E+00  0.00000000000E+00 -0.65790902840E+03  0.65790902840E+03  0.25500000920E-02 0. -1.
    10030    2    1    2    0    0  0.00000000000E+00  0.00000000000E+00  0.45296263857E+03  0.17687806954E+04  0.17097982327E+04 0.  0.
        5    1    3    3  502    0  0.66791196423E+03 -0.35794683990E+02 -0.32427794132E+03  0.74334778172E+03  0.46999998093E+01 0. -1.
       -5    1    3    3    0  502 -0.66791196423E+03  0.35794683990E+02  0.77724057989E+03  0.10254329136E+04  0.46999998093E+01 0.  1.
</event>
<event>
 5   0  0.2417106E-04  0.1739451E+04  0.7818609E-02  0.8739179E-01
        2   -1    0    0  501    0  0.00000000000E+00  0.00000000000E+00  0.22919331216E+04  0.22919331216E+04  0.25500000920E-02 0.  1.
       -2   -1    0    0    0  501  0.00000000000E+00  0.00000000000E+00 -0.33003672151E+03  0.33003672152E+03  0.25500000920E-02 0. -1.
    10030    2    1    2    0    0  0.00000000000E+00  0.00000000000E+00  0.19618964001E+04  0.26219698431E+04  0.17394505953E+04 0.  0.
        4    1    3    3  502    0 -0.54777931381E+03  0.44117571189E+03  0.20980336505E+03  0.73397360326E+03  0.12699999809E+01 0. -1.
       -4    1    3    3    0  502  0.54777931381E+03 -0.44117571189E+03  0.17520930350E+04  0.18879962398E+04  0.12699999809E+01 0.  1.
</event>
<event>
 5   0  0.1239119E-04  0.1799165E+04  0.7818609E-02  0.8706744E-01
       -1   -1    0    0    0  501  0.00000000000E+00  0.00000000000E+00  0.13605252840E+04  0.13605252840E+04  0.50400001928E-02 0.  1.
        1   -1    0    0  501    0  0.00000000000E+00  0.00000000000E+00 -0.59480609562E+03  0.59480609564E+03  0.50400001928E-02 0. -1.
    10030    2    1    2    0    0  0.00000000000E+00  0.00000000000E+00  0.76571918840E+03  0.19553313797E+04  0.17991650644E+04 0.  0.
        5    1    3    3  502    0  0.45078671394E+03  0.15650004857E+03  0.12116292138E+04  0.13022167133E+04  0.46999998093E+01 0.  1.
       -5    1    3    3    0  502 -0.45078671394E+03 -0.15650004857E+03 -0.44591002540E+03  0.65311466636E+03  0.46999998093E+01 0. -1.
</event>
<event>
 5   0  0.9144875E-05  0.1804442E+04  0.7818609E-02  0.8703941E-01
        3   -1    0    0  501    0  0.00000000000E+00  0.00000000000E+00  0.99107813320E+03  0.99107813834E+03  0.10100000352E+00 0.  1.
       -3   -1    0    0    0  501  0.00000000000E+00  0.00000000000E+00 -0.82133041480E+03  0.82133042101E+03  0.10100000352E+00 0. -1.
    10030    2    1    2    0    0  0.00000000000E+00  0.00000000000E+00  0.16974771839E+03  0.18124085594E+04  0.18044418800E+04 0.  0.
        2    1    3    3  502    0  0.20061021960E+02 -0.14237184211E+03  0.97949728307E+03  0.98999349169E+03  0.25500000920E-02 0.  1.
       -2    1    3    3    0  502 -0.20061021960E+02  0.14237184211E+03 -0.80974956468E+03  0.82241506767E+03  0.25500000920E-02 0. -1.
</event>
<event>
 5   0  0.2550616E-04  0.1778337E+04  0.7818609E-02  0.8717905E-01
        2   -1    0    0  501    0  0.00000000000E+00  0.00000000000E+00  0.13851111427E+04  0.13851111427E+04  0.25500000920E-02 0. -1.
       -2   -1    0    0    0  501  0.00000000000E+00  0.00000000000E+00 -0.57079915120E+03  0.57079915121E+03  0.25500000920E-02 0.  1.
    10030    2    1    2    0    0  0.00000000000E+00  0.00000000000E+00  0.81431199149E+03  0.19559102939E+04  0.17783365987E+04 0.  0.
        1    1    3    3  502    0 -0.63294953611E+03 -0.27531478405E+03 -0.20934804424E+03  0.72128354288E+03  0.50400001928E-02 0.  1.
       -1    1    3    3    0  502  0.63294953611E+03  0.27531478405E+03  0.10236600357E+04  0.12346267510E+04  0.50400001928E-02 0. -1.
</event>
<event>
 5   0  0.2417106E-04  0.1870818E+04  0.7818609E-02  0.8669520E-01
       -2   -1    0    0    0  501  0.00000000000E+00  0.00000000000E+00  0.60908615677E+03  0.60908615677E+03  0.25500000920E-02 0.  1.
        2   -1    0    0  501    0  0.00000000000E+00  0.00000000000E+00 -0.14365626022E+04  0.14365626022E+04  0.25500000920E-02 0. -1.
    10030    2    1    2    0    0  0.00000000000E+00  0.00000000000E+00 -0.82747644545E+03  0.20456487590E+04  0.18708184245E+04 0.  0.
        4    1    3    3  502    0  0.16240158801E+03 -0.12068527896E+03  0.58487050995E+03  0.61888152231E+03  0.12699999809E+01 0.  1.
       -4    1    3    3    0  502 -0.16240158801E+03  0.12068527896E+03 -0.14123469554E+04  0.14267672367E+04  0.12699999809E+01 0. -1.
</event>
<event>
 5   0  0.2417106E-04  0.1841609E+04  0.7818609E-02  0.8684480E-01
        2   -1    0    0  501    0  0.00000000000E+00  0.00000000000E+00  0.15218954725E+04  0.15218954725E+04  0.25500000920E-02 0. -1.
       -2   -1    0    0    0  501  0.00000000000E+00  0.00000000000E+00 -0.55712187619E+03  0.55712187620E+03  0.25500000920E-02 0.  1.
    10030    2    1    2    0    0  0.00000000000E+00  0.00000000000E+00  0.96477359626E+03  0.20790173487E+04  0.18416093625E+04 0.  0.
        4    1    3    3  502    0 -0.18873593066E+03 -0.47598521702E+03  0.13463532965E+04  0.14404346532E+04  0.12699999809E+01 0. -1.
       -4    1    3    3    0  502  0.18873593066E+03  0.47598521702E+03 -0.38157970025E+03  0.63858269542E+03  0.12699999809E+01 0.  1.
</event>
<event>
 5   0  0.1308893E-04  0.1790514E+04  0.7818609E-02  0.8711360E-01
        1   -1    0    0  501    0  0.00000000000E+00  0.00000000000E+00  0.72117726134E+03  0.72117726136E+03  0.50400001928E-02 0.  1.
       -1   -1    0    0    0  501  0.00000000000E+00  0.00000000000E+00 -0.11113567755E+04  0.11113567755E+04  0.50400001928E-02 0. -1.
    10030    2    1    2    0    0  0.00000000000E+00  0.00000000000E+00 -0.39017951418E+03  0.18325340369E+04  0.17905141561E+04 0.  0.
        4    1    3    3  502    0 -0.67207353022E+03 -0.17974963581E+03 -0.77177641709E+03  0.10390539988E+04  0.12699999809E+01 0. -1.
       -4    1    3    3    0  502  0.67207353022E+03  0.17974963581E+03  0.38159690291E+03  0.79348003807E+03  0.12699999809E+01 0.  1.
</event>
<event>
 5   0  0.1330225E-04  0.1809483E+04  0.7818609E-02  0.8701273E-01
       -1   -1    0    0    0  501  0.00000000000E+00  0.00000000000E+00  0.40074402383E+03  0.40074402386E+03  0.50400001928E-02 0.  1.
        1   -1    0    0  501    0  0.00000000000E+00  0.00000000000E+00 -0.20425940641E+04  0.20425940641E+04  0.50400001928E-02 0. -1.
    10030    2    1    2    0    0  0.00000000000E+00  0.00000000000E+00 -0.16418500402E+04  0.24433380879E+04  0.18094832017E+04 0.  0.
        3    1    3    3  502    0 -0.45491097129E+03  0.73307888664E+03 -0.45308714478E+03  0.97449300500E+03  0.10100000352E+00 0.  1.
       -3    1    3    3    0  502  0.45491097129E+03 -0.73307888664E+03 -0.11887628955E+04  0.14688450829E+04  0.10100000352E+00 0. -1.
</event>
<event>
 5   0  0.1330225E-04  0.1793482E+04  0.7818609E-02  0.8709773E-01
       -1   -1    0    0    0  501  0.00000000000E+00  0.00000000000E+00  0.10080415335E+04  0.10080415335E+04  0.50400001928E-02 0. -1.
        1   -1    0    0  501    0  0.00000000000E+00  0.00000000000E+00 -0.79772958475E+03  0.79772958477E+03  0.50400001928E-02 0.  1.
    10030    2    1    2    0    0  0.00000000000E+00  0.00000000000E+00  0.21031194874E+03  0.18057711183E+04  0.17934821482E+04 0.  0.
        3    1    3    3  502    0  0.46583168621E+03  0.44439974783E+03  0.73365607568E+03  0.97608480335E+03  0.10100000352E+00 0. -1.
       -3    1    3    3    0  502 -0.46583168621E+03 -0.44439974783E+03 -0.52334412694E+03  0.82968631492E+03  0.10100000352E+00 0.  1.
</event>
<event>
 5   0  0.2417106E-04  0.1800244E+04  0.7818609E-02  0.8706170E-01
       -2   -1    0    0    0  501  0.00000000000E+00  0.00000000000E+00  0.10267341998E+04  0.10267341998E+04  0.25500000920E-02 0. -1.
        2   -1    0    0  501    0  0.00000000000E+00  0.00000000000E+00 -0.78912277690E+03  0.78912277690E+03  0.25500000920E-02 0.  1.
    10030    2    1    2    0    0  0.00000000000E+00  0.00000000000E+00  0.23761142290E+03  0.18158569767E+04  0.18002436978E+04 0.  0.
        4    1    3    3  502    0  0.80793158204E+03  0.33167357602E+03 -0.10092974961E+03  0.87917531218E+03  0.12699999809E+01 0.  1.
       -4    1    3    3    0  502 -0.80793158204E+03 -0.33167357602E+03  0.33854117251E+03  0.93668166453E+03  0.12699999809E+01 0. -1.
</event>
<event>
 5   0  0.1308893E-04  0.1807048E+04  0.7818609E-02  0.8702560E-01
        1   -1    0    0  501    0  0.00000000000E+00  0.00000000000E+00  0.22062227608E+04  0.22062227608E+04  0.50400001928E-02 0.  1.
       -1   -1    0    0    0  501  0.00000000000E+00  0.00000000000E+00 -0.37002416208E+03  0.37002416211E+03  0.50400001928E-02 0. -1.
    10030    2    1    2    0    0  0.00000000000E+00  0.00000000000E+00  0.18361985987E+04  0.25762469229E+04  0.18070481216E+04 0.  0.
        4    1    3    3  502    0  0.48430379018E+03 -0.75998773684E+03  0.10107411971E+04  0.13541532047E+04  0.12699999809E+01 0. -1.
       -4    1    3    3    0  502 -0.48430379018E+03  0.75998773684E+03  0.82545740161E+03  0.12220937182E+04  0.12699999809E+01 0.  1.
</event>
<event>
 5   0  0.2550616E-04  0.1784208E+04  0.7818609E-02  0.8714743E-01
        2   -1    0    0  501    0  0.00000000000E+00  0.00000000000E+00  0.19754680874E+04  0.19754680874E+04  0.25500000920E-02 0. -1.
       -2   -1    0    0    0  501  0.00000000000E+00  0.00000000000E+00 -0.40286641582E+03  0.40286641583E+03  0.25500000920E-02 0.  1.
    10030    2    1    2    0    0  0.00000000000E+00  0.00000000000E+00  0.15726016715E+04  0.23783345032E+04  0.17842082254E+04 0.  0.
        1    1    3    3  502    0 -0.10493352944E+03 -0.74936963858E+03  0.15642339785E+03  0.77267986918E+03  0.50400001928E-02 0. -1.
       -1    1    3    3    0  502  0.10493352944E+03  0.74936963858E+03  0.14161782737E+04  0.16056546340E+04  0.50400001928E-02 0.  1.
</event>
<event>
 5   0  0.1239119E-04  0.1812254E+04  0.7818609E-02  0.8699810E-01
        1   -1    0    0  501    0  0.00000000000E+00  0.00000000000E+00  0.11188194148E+04  0.11188194148E+04  0.50400001928E-02 0. -1.
       -1   -1    0    0    0  501  0.00000000000E+00  0.00000000000E+00 -0.73386827140E+03  0.73386827142E+03  0.50400001928E-02 0.  1.
    10030    2    1    2    0    0  0.00000000000E+00  0.00000000000E+00  0.38495114342E+03  0.18526876862E+04  0.18122539226E+04 0.  0.
        5    1    3    3  502    0 -0.28159659544E+02  0.82741447119E+03  0.56898091497E+03  0.10045740616E+04  0.46999998093E+01 0. -1.
       -5    1    3    3    0  502  0.28159659544E+02 -0.82741447119E+03 -0.18402977155E+03  0.84811362469E+03  0.46999998093E+01 0.  1.
</event>
<event>
 5   0  0.2431811E-04  0.1480203E+04  0.7818609E-02  0.8897726E-01
       -2   -1    0    0    0  501  0.00000000000E+00  0.00000000000E+00  0.44154205589E+03  0.44154205590E+03  0.25500000920E-02 0. -1.
        2   -1    0    0  501    0  0.00000000000E+00  0.00000000000E+00 -0.12405387788E+04  0.12405387788E+04  0.25500000920E-02 0.  1.
    10030    2    1    2    0    0  0.00000000000E+00  0.00000000000E+00 -0.79899672286E+03  0.16820808347E+04  0.14802027466E+04 0.  0.
        3    1    3    3  502    0 -0.72216648365E+03 -0.15929666071E+03 -0.36636388034E+03  0.82530137479E+03  0.10100000352E+00 0. -1.
       -3    1    3    3    0  502  0.72216648365E+03  0.15929666071E+03 -0.43263284252E+03  0.85677945986E+03  0.10100000352E+00 0.  1.
</event>
<event>
 5   0  0.2550616E-04  0.1777826E+04  0.7818609E-02  0.8718181E-01
        2   -1    0    0  501    0  0.00000000000E+00  0.00000000000E+00  0.14618229223E+04  0.14618229223E+04  0.25500000920E-02 0.  1.
       -2   -1    0    0    0  501  0.00000000000E+00  0.00000000000E+00 -0.54053504776E+03  0.54053504776E+03  0.25500000920E-02 0. -1.
    10030    2    1    2    0    0  0.00000000000E+00  0.00000000000E+00  0.92128787459E+03  0.20023579701E+04  0.17778262268E+04 0.  0.
        1    1    3    3  502    0 -0.32058789085E+03 -0.49381012251E+03  0.12107445803E+04  0.13463014044E+04  0.50400001928E-02 0.  1.
       -1    1    3    3    0  502  0.32058789085E+03  0.49381012251E+03 -0.28945670571E+03  0.65605656567E+03  0.50400001928E-02 0. -1.
</event>
<event>
 5   0  0.1239119E-04  0.1732884E+04  0.7818609E-02  0.8742828E-01
        1   -1    0    0  501    0  0.00000000000E+00  0.00000000000E+00  0.37003115268E+03  0.37003115271E+03  0.50400001928E-02 0.  1.
       -1   -1    0    0    0  501  0.00000000000E+00  0.00000000000E+00 -0.20288072604E+04  0.20288072604E+04  0.50400001928E-02 0. -1.
    10030    2    1    2    0    0  0.00000000000E+00  0.00000000000E+00 -0.16587761077E+04  0.23988384131E+04  0.17328841729E+04 0.  0.
        5    1    3    3  502    0  0.62198974206E+03 -0.34394257862E+03 -0.15153271637E+04  0.16737401948E+04  0.46999998093E+01 0. -1.
       -5    1    3    3    0  502 -0.62198974206E+03  0.34394257862E+03 -0.14344894396E+03  0.72509821827E+03  0.46999998093E+01 0.  1.
</event>
<event>
 5   0  0.1253925E-04  0.1814296E+04  0.7818609E-02  0.8698734E-01
       -1   -1    0    0    0  501  0.00000000000E+00  0.00000000000E+00  0.49992419803E+03  0.49992419806E+03  0.50400001928E-02 0. -1.
        1   -1    0    0  501    0  0.00000000000E+00  0.00000000000E+00 -0.16460846807E+04  0.16460846807E+04  0.50400001928E-02 0.  1.
    10030    2    1    2    0    0  0.00000000000E+00  0.00000000000E+00 -0.11461604827E+04  0.21460088788E+04  0.18142960772E+04 0.  0.
        2    1    3    3  502    0  0.88253879865E+03 -0.17785168532E+03 -0.44130390535E+03  0.10026241020E+04  0.25500000920E-02 0. -1.
       -2    1    3    3    0  502 -0.88253879865E+03  0.17785168532E+03 -0.70485657734E+03  0.11433847768E+04  0.25500000920E-02 0.  1.
</event>
<event>
 5   0  0.2569405E-04  0.1790497E+04  0.7818609E-02  0.8711370E-01
       -2   -1    0    0    0  501  0.00000000000E+00  0.00000000000E+00  0.60276022164E+03  0.60276022164E+03  0.25500000920E-02 0. -1.
        2   -1    0    0  501    0  0.00000000000E+00  0.00000000000E+00 -0.13296656877E+04  0.13296656877E+04  0.25500000920E-02 0.  1.
    10030    2    1    2    0    0  0.00000000000E+00  0.00000000000E+00 -0.72690546610E+03  0.19324259094E+04  0.17904966737E+04 0.  0.
        2    1    3    3  502    0 -0.53010182334E+03 -0.45365425667E+03  0.24195745843E+03  0.73848056129E+03  0.25500000920E-02 0. -1.
       -2    1    3    3    0  502  0.53010182334E+03  0.45365425667E+03 -0.96886292452E+03  0.11939453481E+04  0.25500000920E-02 0.  1.
</event>
<event>
 5   0  0.2569405E-04  0.1785554E+04  0.7818609E-02  0.8714020E-01
       -2   -1    0    0    0  501  0.00000000000E+00  0.00000000000E+00  0.38154532320E+03  0.38154532320E+03  0.25500000920E-02 0. -1.
        2   -1    0    0  501    0  0.00000000000E+00  0.00000000000E+00 -0.20890060370E+04  0.20890060370E+04  0.25500000920E-02 0.  1.
    10030    2    1    2    0    0  0.00000000000E+00  0.00000000000E+00 -0.17074607138E+04  0.24705513602E+04  0.17855536772E+04 0.  0.
        2    1    3    3  502    0 -0.24698708133E+03 -0.27092033314E+03  0.27259299946E+03  0.45684503786E+03  0.25500000920E-02 0. -1.
       -2    1    3    3    0  502  0.24698708133E+03  0.27092033314E+03 -0.19800537132E+04  0.20137063223E+04  0.25500000920E-02 0.  1.
</event>
<event>
 5   0  0.1330225E-04  0.1790356E+04  0.7818609E-02  0.8711445E-01
        1   -1    0    0  501    0  0.00000000000E+00  0.00000000000E+00  0.17017344897E+04  0.17017344897E+04  0.50400001928E-02 0.  1.
       -1   -1    0    0    0  501  0.00000000000E+00  0.00000000000E+00 -0.47089830963E+03  0.47089830966E+03  0.50400001928E-02 0. -1.
    10030    2    1    2    0    0  0.00000000000E+00  0.00000000000E+00  0.12308361801E+04  0.21726327994E+04  0.17903562715E+04 0.  0.
        3    1    3    3  502    0  0.27475669664E+03  0.10483826785E+03  0.16414428659E+04  0.16675781831E+04  0.10100000352E+00 0.  1.
       -3    1    3    3    0  502 -0.27475669664E+03 -0.10483826785E+03 -0.41060668580E+03  0.50505461624E+03  0.10100000352E+00 0. -1.
</event>
<event>
 5   0  0.1253925E-04  0.1799451E+04  0.7818609E-02  0.8706591E-01
       -1   -1    0    0    0  501  0.00000000000E+00  0.00000000000E+00  0.11809462954E+04  0.11809462954E+04  0.50400001928E-02 0.  1.
        1   -1    0    0  501    0  0.00000000000E+00  0.00000000000E+00 -0.68547241135E+03  0.68547241136E+03  0.50400001928E-02 0. -1.
    10030    2    1    2    0    0  0.00000000000E+00  0.00000000000E+00  0.49547388405E+03  0.18664187068E+04  0.17994511439E+04 0.  0.
        2    1    3    3  502    0 -0.50731700285E+03 -0.72981482069E+03  0.39259808735E+03  0.97166530867E+03  0.25500000920E-02 0. -1.
       -2    1    3    3    0  502  0.50731700285E+03  0.72981482069E+03  0.10287579670E+03  0.89475339811E+03  0.25500000920E-02 0.  1.
</event>
<event>
 5   0  0.2550616E-04  0.1720034E+04  0.7818609E-02  0.8750020E-01
        2   -1    0    0  501    0  0.00000000000E+00  0.00000000000E+00  0.19118799198E+04  0.19118799198E+04  0.25500000920E-02 0.  1.
       -2   -1    0    0    0  501  0.00000000000E+00  0.00000000000E+00 -0.38685975885E+03  0.38685975886E+03  0.25500000920E-02 0. -1.
    10030    2    1    2    0    0  0.00000000000E+00  0.00000000000E+00  0.15250201610E+04  0.22987396787E+04  0.17200341912E+04 0.  0.
        1    1    3    3  502    0 -0.39161817778E+03  0.56975524713E+03  0.14461190337E+04  0.16028868015E+04  0.50400001928E-02 0.  1.
       -1    1    3    3    0  502  0.39161817778E+03 -0.56975524713E+03  0.78901127301E+02  0.69585287720E+03  0.50400001928E-02 0. -1.
</event>
<event>
 5   0  0.1308893E-04  0.1800498E+04  0.7818609E-02  0.8706035E-01
       -1   -1    0    0    0  501  0.00000000000E+00  0.00000000000E+00  0.10157062575E+04  0.10157062575E+04  0.50400001928E-02 0.  1.
        1   -1    0    0  501    0  0.00000000000E+00  0.00000000000E+00 -0.79791617265E+03  0.79791617267E+03  0.50400001928E-02 0. -1.
    10030    2    1    2    0    0  0.00000000000E+00  0.00000000000E+00  0.21779008484E+03  0.18136224302E+04  0.18004982083E+04 0.  0.
        4    1    3    3  502    0 -0.16054335186E+03 -0.82969409748E+03  0.42144760773E+03  0.94434430278E+03  0.12699999809E+01 0.  1.
       -4    1    3    3    0  502  0.16054335186E+03  0.82969409748E+03 -0.20365752290E+03  0.86927812739E+03  0.12699999809E+01 0. -1.
</event>
<event>
 5   0  0.2550616E-04  0.1797002E+04  0.7818609E-02  0.8707895E-01
       -2   -1    0    0    0  501  0.00000000000E+00  0.00000000000E+00  0.27846165401E+03  0.27846165402E+03  0.25500000920E-02 0.  1.
        2   -1    0    0  501    0  0.00000000000E+00  0.00000000000E+00 -0.28991577931E+04  0.28991577931E+04  0.25500000920E-02 0. -1.
    10030    2    1    2    0    0  0.00000000000E+00  0.00000000000E+00 -0.26206961391E+04  0.31776194471E+04  0.17970022530E+04 0.  0.
        1    1    3    3  502    0  0.17379466589E+03  0.42311023994E+03 -0.26778626446E+04  0.27166477881E+04  0.50400001928E-02 0. -1.
       -1    1    3    3    0  502 -0.17379466589E+03 -0.42311023994E+03  0.57166505540E+02  0.46097165902E+03  0.50400001928E-02 0.  1.
</event>
<event>
 5   0  0.1214723E-04  0.1804394E+04  0.7818609E-02  0.8703966E-01
       -1   -1    0    0    0  501  0.00000000000E+00  0.00000000000E+00  0.59841904192E+03  0.59841904194E+03  0.50400001928E-02 0.  1.
        1   -1    0    0  501    0  0.00000000000E+00  0.00000000000E+00 -0.13601832636E+04  0.13601832636E+04  0.50400001928E-02 0. -1.
    10030    2    1    2    0    0  0.00000000000E+00  0.00000000000E+00 -0.76176422171E+03  0.19586023056E+04  0.18043941537E+04 0.  0.
        1    1    3    3  502    0  0.21122938625E+03  0.57430725889E+03  0.33873363167E+03  0.69941915507E+03  0.50400001928E-02 0.  1.
       -1    1    3    3    0  502 -0.21122938625E+03 -0.57430725889E+03 -0.11004978534E+04  0.12591831505E+04  0.50400001928E-02 0. -1.
</event>
<event>
 5   0  0.2417106E-04  0.1805868E+04  0.7818609E-02  0.8703185E-01
       -2   -1    0    0    0  501  0.00000000000E+00  0.00000000000E+00  0.46147293256E+03  0.46147293256E+03  0.25500000920E-02 0.  1.
        2   -1    0    0  501    0  0.00000000000E+00  0.00000000000E+00 -0.17667112451E+04  0.17667112451E+04  0.25500000920E-02 0. -1.
    10030    2    1    2    0    0  0.00000000000E+00  0.00000000000E+00 -0.13052383126E+04  0.22281841777E+04  0.18058675691E+04 0.  0.
        4    1    3    3  502    0 -0.36319297040E+03 -0.47764875690E+03  0.17987421792E+03  0.62642941812E+03  0.12699999809E+01 0.  1.
       -4    1    3    3    0  502  0.36319297040E+03  0.47764875690E+03 -0.14851125305E+04  0.16017547596E+04  0.12699999809E+01 0. -1.
</event>
<event>
 5   0  0.1239119E-04  0.1781812E+04  0.7818609E-02  0.8716032E-01
       -1   -1    0    0    0  501  0.00000000000E+00  0.00000000000E+00  0.73628856430E+03  0.73628856432E+03  0.50400001928E-02 0. -1.
        1   -1    0    0  501    0  0.00000000000E+00  0.00000000000E+00 -0.10779926698E+04  0.10779926698E+04  0.50400001928E-02 0.  1.
    10030    2    1    2    0    0  0.00000000000E+00  0.00000000000E+00 -0.34170410550E+03  0.18142812341E+04  0.17818121957E+04 0.  0.
        5    1    3    3  502    0  0.70125223149E+02 -0.29894687541E+03 -0.10223958441E+04  0.10675214908E+04  0.46999998093E+01 0.  1.
       -5    1    3    3    0  502 -0.70125223149E+02  0.29894687541E+03  0.68069173863E+03  0.74675974334E+03  0.46999998093E+01 0. -1.
</event>
<event>
 5   0  0.2431811E-04  0.1802796E+04  0.7818609E-02  0.8704814E-01
        2   -1    0    0  501    0  0.00000000000E+00  0.00000000000E+00  0.14582401430E+04  0.14582401430E+04  0.25500000920E-02 0.  1.
       -2   -1    0    0    0  501  0.00000000000E+00  0.00000000000E+00 -0.55719097536E+03  0.55719097536E+03  0.25500000920E-02 0. -1.
    10030    2    1    2    0    0  0.00000000000E+00  0.00000000000E+00  0.90104916768E+03  0.20154311184E+04  0.18027958815E+04 0.  0.
        3    1    3    3  502    0 -0.68268452134E+03  0.38363840816E+02  0.11071589132E+04  0.13012804499E+04  0.10100000352E+00 0.  1.
       -3    1    3    3    0  502  0.68268452134E+03 -0.38363840816E+02 -0.20610974551E+03  0.71415066853E+03  0.10100000352E+00 0. -1.
</event>
<event>
 5   0  0.2569405E-04  0.1747230E+04  0.7818609E-02  0.8734876E-01
       -2   -1    0    0    0  501  0.00000000000E+00  0.00000000000E+00  0.13545102218E+04  0.13545102218E+04  0.25500000920E-02 0.  1.
        2   -1    0    0  501    0  0.00000000000E+00  0.00000000000E+00 -0.56345340589E+03  0.56345340590E+03  0.25500000920E-02 0. -1.
    10030    2    1    2    0    0  0.00000000000E+00  0.00000000000E+00  0.79105681591E+03  0.19179636277E+04  0.17472302628E+04 0.  0.
        2    1    3    3  502    0 -0.18116323998E+03  0.85022515201E+03  0.30046039019E+03  0.91977137089E+03  0.25500000920E-02 0.  1.
       -2    1    3    3    0  502  0.18116323998E+03 -0.85022515201E+03  0.49059642572E+03  0.99819225682E+03  0.25500000920E-02 0. -1.
</event>
<event>
 5   0  0.2550616E-04  0.1819708E+04  0.7818609E-02  0.8695889E-01
        2   -1    0    0  501    0  0.00000000000E+00  0.00000000000E+00  0.11320142126E+04  0.11320142126E+04  0.25500000920E-02 0. -1.
       -2   -1    0    0    0  501  0.00000000000E+00  0.00000000000E+00 -0.73129313393E+03  0.73129313393E+03  0.25500000920E-02 0.  1.
    10030    2    1    2    0    0  0.00000000000E+00  0.00000000000E+00  0.40072107862E+03  0.18633073465E+04  0.18197079119E+04 0.  0.
        1    1    3    3  502    0 -0.65557202690E+02 -0.52627381913E+03 -0.55665821446E+03  0.76884995108E+03  0.50400001928E-02 0.  1.
       -1    1    3    3    0  502  0.65557202690E+02  0.52627381913E+03  0.95737929308E+03  0.10944573954E+04  0.50400001928E-02 0. -1.
</event>
<event>
 5   0  0.1253925E-04  0.1799120E+04  0.7818609E-02  0.8706767E-01
       -1   -1    0    0    0  501  0.00000000000E+00  0.00000000000E+00  0.57868181745E+03  0.57868181748E+03  0.50400001928E-02 0.  1.
        1   -1    0    0  501    0  0.00000000000E+00  0.00000000000E+00 -0.13983652627E+04  0.13983652627E+04  0.50400001928E-02 0. -1.
    10030    2    1    2    0    0  0.00000000000E+00  0.00000000000E+00 -0.81968344523E+03  0.19770470802E+04  0.17991203981E+04 0.  0.
        2    1    3    3  502    0  0.56758336391E+03 -0.69232649848E+03 -0.31315321728E+03  0.94843649918E+03  0.25500000920E-02 0.  1.
       -2    1    3    3    0  502 -0.56758336391E+03  0.69232649848E+03 -0.50653022795E+03  0.10286105810E+04  0.25500000920E-02 0. -1.
</event>
<event>
 5   0  0.2569405E-04  0.1784608E+04  0.7818609E-02  0.8714528E-01
        2   -1    0    0  501    0  0.00000000000E+00  0.00000000000E+00  0.14842858597E+04  0.14842858597E+04  0.25500000920E-02 0. -1.
       -2   -1    0    0    0  501  0.00000000000E+00  0.00000000000E+00 -0.53642386404E+03  0.53642386404E+03  0.25500000920E-02 0.  1.
    10030    2    1    2    0    0  0.00000000000E+00  0.00000000000E+00  0.94786199567E+03  0.20207097238E+04  0.17846079191E+04 0.  0.
        2    1    3    3  502    0 -0.88172767854E+03 -0.18368357283E+02  0.62762889812E+03  0.10824505205E+04  0.25500000920E-02 0. -1.
       -2    1    3    3    0  502  0.88172767854E+03  0.18368357283E+02  0.32023309755E+03  0.93825920322E+03  0.25500000920E-02 0.  1.
</event>
<event>
 5   0  0.1330225E-04  0.1802050E+04  0.7818609E-02  0.8705210E-01
        1   -1    0    0  501    0  0.00000000000E+00  0.00000000000E+00  0.81630164014E+03  0.81630164016E+03  0.50400001928E-02 0. -1.
       -1   -1    0    0    0  501  0.00000000000E+00  0.00000000000E+00 -0.99454130471E+03  0.99454130472E+03  0.50400001928E-02 0.  1.
    10030    2    1    2    0    0  0.00000000000E+00  0.00000000000E+00 -0.17823966457E+03  0.18108429449E+04  0.18020496089E+04 0.  0.
        3    1    3    3  502    0 -0.41525180074E+03 -0.67661099975E+02 -0.88977220887E+03  0.98422897557E+03  0.10100000352E+00 0.  1.
       -3    1    3    3    0  502  0.41525180074E+03  0.67661099975E+02  0.71153254430E+03  0.82661396932E+03  0.10100000352E+00 0. -1.
</event>
<event>
 5   0  0.1308893E-04  0.1727380E+04  0.7818609E-02  0.8745901E-01
       -1   -1    0    0    0  501  0.00000000000E+00  0.00000000000E+00  0.42319985629E+03  0.42319985632E+03  0.50400001928E-02 0. -1.
        1   -1    0    0  501    0  0.00000000000E+00  0.00000000000E+00 -0.17626667517E+04  0.17626667517E+04  0.50400001928E-02 0.  1.
    10030    2    1    2    0    0  0.00000000000E+00  0.00000000000E+00 -0.13394668954E+04  0.21858666081E+04  0.17273798842E+04 0.  0.
        4    1    3    3  502    0  0.40103494179E+03  0.75400098185E+03 -0.83283171501E+03  0.11928775225E+04  0.12699999809E+01 0. -1.
       -4    1    3    3    0  502 -0.40103494179E+03 -0.75400098185E+03 -0.50663518043E+03  0.99298908560E+03  0.12699999809E+01 0.  1.
</event>
<event>
 5   0  0.1253925E-04  0.1763936E+04  0.7818609E-02  0.8725716E-01
       -1   -1    0    0    0  501  0.00000000000E+00  0.00000000000E+00  0.42381671371E+03  0.42381671374E+03  0.50400001928E-02 0.  1.
        1   -1    0    0  501    0  0.00000000000E+00  0.00000000000E+00 -0.18353874317E+04  0.18353874317E+04  0.50400001928E-02 0. -1.
    10030    2    1    2    0    0  0.00000000000E+00  0.00000000000E+00 -0.14115707180E+04  0.22592041455E+04  0.17639363591E+04 0.  0.
        2    1    3    3  502    0 -0.43651730897E+02 -0.47726773333E+03 -0.16540582346E+04  0.17220913467E+04  0.25500000920E-02 0. -1.
       -2    1    3    3    0  502  0.43651730897E+02  0.47726773333E+03  0.24248751660E+03  0.53711279877E+03  0.25500000920E-02 0.  1.
</event>
<event>
 5   0  0.1239119E-04  0.1777316E+04  0.7818609E-02  0.8718457E-01
       -1   -1    0    0    0  501  0.00000000000E+00  0.00000000000E+00  0.84770545182E+03  0.84770545184E+03  0.50400001928E-02 0. -1.
        1   -1    0    0  501    0  0.00000000000E+00  0.00000000000E+00 -0.93158870188E+03  0.93158870189E+03  0.50400001928E-02 0.  1.
    10030    2    1    2    0    0  0.00000000000E+00  0.00000000000E+00 -0.83883250059E+02  0.17792941537E+04  0.17773157530E+04 0.  0.
        5    1    3    3  502    0  0.22281756107E+01  0.10877915977E+03  0.84099979020E+03  0.84802158433E+03  0.46999998093E+01 0. -1.
       -5    1    3    3    0  502 -0.22281756107E+01 -0.10877915977E+03 -0.92488304026E+03  0.93127256940E+03  0.46999998093E+01 0.  1.
</event>
<event>
 5   0  0.2550616E-04  0.1775601E+04  0.7818609E-02  0.8719383E-01
        2   -1    0    0  501    0  0.00000000000E+00  0.00000000000E+00  0.16742680589E+04  0.16742680589E+04  0.25500000920E-02 0. -1.
       -2   -1    0    0    0  501  0.00000000000E+00  0.00000000000E+00 -0.47076678652E+03  0.47076678652E+03  0.25500000920E-02 0.  1.
    10030    2    1    2    0    0  0.00000000000E+00  0.00000000000E+00  0.12035012724E+04  0.21450348454E+04  0.17756010744E+04 0.  0.
        1    1    3    3  502    0  0.26804454846E+03 -0.52140617636E+03  0.14071547610E+04  0.15244004730E+04  0.50400001928E-02 0. -1.
       -1    1    3    3    0  502 -0.26804454846E+03  0.52140617636E+03 -0.20365348865E+03  0.62063437237E+03  0.50400001928E-02 0.  1.
</event>
<event>
 5   0  0.2417106E-04  0.1771026E+04  0.7818609E-02  0.8721861E-01
        2   -1    0    0  501    0  0.00000000000E+00  0.00000000000E+00  0.22654518785E+04  0.22654518785E+04  0.25500000920E-02 0.  1.
       -2   -1    0    0    0  501  0.00000000000E+00  0.00000000000E+00 -0.34612674274E+03  0.34612674274E+03  0.25500000920E-02 0. -1.
    10030    2    1    2    0    0  0.00000000000E+00  0.00000000000E+00  0.19193251358E+04  0.26115786213E+04  0.17710262331E+04 0.  0.
        4    1    3    3  502    0 -0.68720783346E+03  0.86147364982E+02  0.14600755952E+03  0.70781056448E+03  0.12699999809E+01 0. -1.
       -4    1    3    3    0  502  0.68720783346E+03 -0.86147364982E+02  0.17733175763E+04  0.19037680568E+04  0.12699999809E+01 0.  1.
</event>
<event>
 5   0  0.2431811E-04  0.1795966E+04  0.7818609E-02  0.8708448E-01
        2   -1    0    0  501    0  0.00000000000E+00  0.00000000000E+00  0.92981568639E+03  0.92981568640E+03  0.25500000920E-02 0. -1.
       -2   -1    0    0    0  501  0.00000000000E+00  0.00000000000E+00 -0.86723983176E+03  0.86723983177E+03  0.25500000920E-02 0.  1.
    10030    2    1    2    0    0  0.00000000000E+00  0.00000000000E+00  0.62575854630E+02  0.17970555182E+04  0.17959657006E+04 0.  0.
        3    1    3    3  502    0 -0.15882727896E+03 -0.12735336811E+03 -0.84384453388E+03  0.86805448704E+03  0.10100000352E+00 0.  1.
       -3    1    3    3    0  502  0.15882727896E+03  0.12735336811E+03  0.90642038851E+03  0.92900103112E+03  0.10100000352E+00 0. -1.
</event>
<event>
 5   0  0.1253925E-04  0.1631215E+04  0.7818609E-02  0.8801598E-01
       -1   -1    0    0    0  501  0.00000000000E+00  0.00000000000E+00  0.66629731776E+03  0.66629731778E+03  0.50400001928E-02 0.  1.
        1   -1    0    0  501    0  0.00000000000E+00  0.00000000000E+00 -0.99837631071E+03  0.99837631072E+03  0.50400001928E-02 0. -1.
    10030    2    1    2    0    0  0.00000000000E+00  0.00000000000E+00 -0.33207899294E+03  0.16646736285E+04  0.16312148331E+04 0.  0.
        2    1    3    3  502    0 -0.56557748694E+03  0.35497709487E+02  0.43257338760E+03  0.71292195701E+03  0.25500000920E-02 0.  1.
       -2    1    3    3    0  502  0.56557748694E+03 -0.35497709487E+02 -0.76465238054E+03  0.95175167149E+03  0.25500000920E-02 0. -1.
</event>
<event>
 5   0  0.9144875E-05  0.1816949E+04  0.7818609E-02  0.8697338E-01
        4   -1    0    0  501    0  0.00000000000E+00  0.00000000000E+00  0.82506621940E+03  0.82506719684E+03  0.12699999809E+01 0. -1.
       -4   -1    0    0    0  501  0.00000000000E+00  0.00000000000E+00 -0.10003122575E+04  0.10003130637E+04  0.12699999809E+01 0.  1.
    10030    2    1    2    0    0  0.00000000000E+00  0.00000000000E+00 -0.17524603805E+03  0.18253802605E+04  0.18169485192E+04 0.  0.
        4    1    3    3  502    0 -0.28389375821E+03  0.60810113260E+03 -0.70278901046E+03  0.97174927813E+03  0.12699999809E+01 0.  1.
       -4    1    3    3    0  502  0.28389375821E+03 -0.60810113260E+03  0.52754297241E+03  0.85363098237E+03  0.12699999809E+01 0. -1.
</event>
<event>
 5   0  0.9144875E-05  0.1785272E+04  0.7818609E-02  0.8714171E-01
        3   -1    0    0  501    0  0.00000000000E+00  0.00000000000E+00  0.58938997986E+03  0.58938998852E+03  0.10100000352E+00 0. -1.
       -3   -1    0    0    0  501  0.00000000000E+00  0.00000000000E+00 -0.13519049975E+04  0.13519050012E+04  0.10100000352E+00 0.  1.
    10030    2    1    2    0    0  0.00000000000E+00  0.00000000000E+00 -0.76251501761E+03  0.19412949898E+04  0.17852722720E+04 0.  0.
        4    1    3    3  502    0  0.58061739377E+02  0.80798279506E+03 -0.78898007230E+03  0.11307955297E+04  0.12699999809E+01 0.  1.
       -4    1    3    3    0  502 -0.58061739377E+02 -0.80798279506E+03  0.26465054691E+02  0.81049946003E+03  0.12699999809E+01 0. -1.
</event>
<event>
 5   0  0.1239119E-04  0.1670349E+04  0.7818609E-02  0.8778458E-01
       -1   -1    0    0    0  501  0.00000000000E+00  0.00000000000E+00  0.46258468235E+03  0.46258468238E+03  0.50400001928E-02 0.  1.
        1   -1    0    0  501    0  0.00000000000E+00  0.00000000000E+00 -0.15078679745E+04  0.15078679745E+04  0.50400001928E-02 0. -1.
    10030    2    1    2    0    0  0.00000000000E+00  0.00000000000E+00 -0.10452832921E+04  0.19704526568E+04  0.16703492186E+04 0.  0.
        5    1    3    3  502    0  0.11493991480E+03  0.61761906522E+03 -0.11718112946E+04  0.13295970419E+04  0.46999998093E+01 0. -1.
       -5    1    3    3    0  502 -0.11493991480E+03 -0.61761906522E+03  0.12652800251E+03  0.64085561490E+03  0.46999998093E+01 0.  1.
</event>
<event>
 5   0  0.1308893E-04  0.1777102E+04  0.7818609E-02  0.8718572E-01
       -1   -1    0    0    0  501  0.00000000000E+00  0.00000000000E+00  0.54091857901E+03  0.54091857903E+03  0.50400001928E-02 0. -1.
        1   -1    0    0  501    0  0.00000000000E+00  0.00000000000E+00 -0.14595963743E+04  0.14595963743E+04  0.50400001928E-02 0.  1.
    10030    2    1    2    0    0  0.00000000000E+00  0.00000000000E+00 -0.91867779527E+03  0.20005149533E+04  0.17771019067E+04 0.  0.
        4    1    3    3  502    0  0.23439010389E+03 -0.39689808031E+03 -0.13144801133E+04  0.13929559893E+04  0.12699999809E+01 0.  1.
       -4    1    3    3    0  502 -0.23439010389E+03  0.39689808031E+03  0.39580231800E+03  0.60755896405E+03  0.12699999809E+01 0. -1.
</event>
<event>
 5   0  0.1214723E-04  0.1788732E+04  0.7818609E-02  0.8712315E-01
       -1   -1    0    0    0  501  0.00000000000E+00  0.00000000000E+00  0.47777715529E+03  0.47777715531E+03  0.50400001928E-02 0.  1.
        1   -1    0    0  501    0  0.00000000000E+00  0.00000000000E+00 -0.16741914342E+04  0.16741914342E+04  0.50400001928E-02 0. -1.
    10030    2    1    2    0    0  0.00000000000E+00  0.00000000000E+00 -0.11964142789E+04  0.21519685895E+04  0.17887318646E+04 0.  0.
        1    1    3    3  502    0  0.28047179176E+03  0.19897241971E+03  0.39506198285E+03  0.52376370636E+03  0.50400001928E-02 0.  1.
       -1    1    3    3    0  502 -0.28047179176E+03 -0.19897241971E+03 -0.15914762618E+04  0.16282048832E+04  0.50400001928E-02 0. -1.
</event>
<event>
 5   0  0.2417106E-04  0.1807117E+04  0.7818609E-02  0.8702524E-01
       -2   -1    0    0    0  501  0.00000000000E+00  0.00000000000E+00  0.51960646480E+03  0.51960646481E+03  0.25500000920E-02 0.  1.
        2   -1    0    0  501    0  0.00000000000E+00  0.00000000000E+00 -0.15712240202E+04  0.15712240202E+04  0.25500000920E-02 0. -1.
    10030    2    1    2    0    0  0.00000000000E+00  0.00000000000E+00 -0.10516175554E+04  0.20908304850E+04  0.18071172165E+04 0.  0.
        4    1    3    3  502    0 -0.64212236896E+03  0.55120432972E+03 -0.89217570841E+03  0.12296855116E+04  0.12699999809E+01 0.  1.
       -4    1    3    3    0  502  0.64212236896E+03 -0.55120432972E+03 -0.15944184702E+03  0.86114497346E+03  0.12699999809E+01 0. -1.
</event>
<event>
 5   0  0.2393421E-04  0.1811969E+04  0.7818609E-02  0.8699960E-01
        2   -1    0    0  501    0  0.00000000000E+00  0.00000000000E+00  0.21012935411E+04  0.21012935411E+04  0.25500000920E-02 0. -1.
       -2   -1    0    0    0  501  0.00000000000E+00  0.00000000000E+00 -0.39062034419E+03  0.39062034420E+03  0.25500000920E-02 0.  1.
    10030    2    1    2    0    0  0.00000000000E+00  0.00000000000E+00  0.17106731969E+04  0.24919138853E+04  0.18119691016E+04 0.  0.
        5    1    3    3  502    0  0.37502540141E+02  0.89816769852E+03  0.10101624820E+04  0.13522433158E+04  0.46999998093E+01 0.  1.
       -5    1    3    3    0  502 -0.37502540141E+02 -0.89816769852E+03  0.70051071484E+03  0.11396705694E+04  0.46999998093E+01 0. -1.
</event>
<event>
 5   0  0.1239119E-04  0.1795705E+04  0.7818609E-02  0.8708587E-01
        1   -1    0    0  501    0  0.00000000000E+00  0.00000000000E+00  0.56763156943E+03  0.56763156945E+03  0.50400001928E-02 0.  1.
       -1   -1    0    0    0  501  0.00000000000E+00  0.00000000000E+00 -0.14201806407E+04  0.14201806407E+04  0.50400001928E-02 0. -1.
    10030    2    1    2    0    0  0.00000000000E+00  0.00000000000E+00 -0.85254907125E+03  0.19878122101E+04  0.17957052831E+04 0.  0.
        5    1    3    3  502    0  0.75108670063E+03 -0.43216997724E+03 -0.68639195752E+03  0.11054673810E+04  0.46999998093E+01 0.  1.
       -5    1    3    3    0  502 -0.75108670063E+03  0.43216997724E+03 -0.16615711373E+03  0.88234482915E+03  0.46999998093E+01 0. -1.
</event>
<event>
 5   0  0.2550616E-04  0.1787990E+04  0.7818609E-02  0.8712712E-01
        2   -1    0    0  501    0  0.00000000000E+00  0.00000000000E+00  0.13269512117E+04  0.13269512117E+04  0.25500000920E-02 0. -1.
       -2   -1    0    0    0  501  0.00000000000E+00  0.00000000000E+00 -0.60230326387E+03  0.60230326388E+03  0.25500000920E-02 0.  1.
    10030    2    1    2    0    0  0.00000000000E+00  0.00000000000E+00  0.72464794783E+03  0.19292544756E+04  0.17879899841E+04 0.  0.
        1    1    3    3  502    0  0.62946631877E+03 -0.37667099939E+03 -0.18904582122E+03  0.75752703634E+03  0.50400001928E-02 0.  1.
       -1    1    3    3    0  502 -0.62946631877E+03  0.37667099939E+03  0.91369376904E+03  0.11717274392E+04  0.50400001928E-02 0. -1.
</event>
<event>
 5   0  0.2569405E-04  0.1782139E+04  0.7818609E-02  0.8715856E-01
        2   -1    0    0  501    0  0.00000000000E+00  0.00000000000E+00  0.16914718341E+04  0.16914718341E+04  0.25500000920E-02 0. -1.
       -2   -1    0    0    0  501  0.00000000000E+00  0.00000000000E+00 -0.46941648748E+03  0.46941648748E+03  0.25500000920E-02 0.  1.
    10030    2    1    2    0    0  0.00000000000E+00  0.00000000000E+00  0.12220553466E+04  0.21608883216E+04  0.17821389026E+04 0.  0.
        2    1    3    3  502    0  0.17625367355E+03  0.81895967702E+03  0.24276227834E+03  0.87217763892E+03  0.25500000920E-02 0.  1.
       -2    1    3    3    0  502 -0.17625367355E+03 -0.81895967702E+03  0.97929306830E+03  0.12887106827E+04  0.25500000920E-02 0. -1.
</event>
<event>
 5   0  0.2569405E-04  0.1779221E+04  0.7818609E-02  0.8717428E-01
        2   -1    0    0  501    0  0.00000000000E+00  0.00000000000E+00  0.16502557920E+04  0.16502557920E+04  0.25500000920E-02 0.  1.
       -2   -1    0    0    0  501  0.00000000000E+00  0.00000000000E+00 -0.47956634916E+03  0.47956634917E+03  0.25500000920E-02 0. -1.
    10030    2    1    2    0    0  0.00000000000E+00  0.00000000000E+00  0.11706894428E+04  0.21298221412E+04  0.17792213413E+04 0.  0.
        2    1    3    3  502    0  0.18642626941E+03  0.64362734534E+02  0.16237561208E+04  0.16356898408E+04  0.25500000920E-02 0.  1.
       -2    1    3    3    0  502 -0.18642626941E+03 -0.64362734534E+02 -0.45306667798E+03  0.49413230033E+03  0.25500000920E-02 0. -1.
</event>
<event>
 5   0  0.1308893E-04  0.1764451E+04  0.7818609E-02  0.8725436E-01
        1   -1    0    0  501    0  0.00000000000E+00  0.00000000000E+00  0.11396243660E+04  0.11396243660E+04  0.50400001928E-02 0. -1.
       -1   -1    0    0    0  501  0.00000000000E+00  0.00000000000E+00 -0.68296316446E+03  0.68296316448E+03  0.50400001928E-02 0.  1.
    10030    2    1    2    0    0  0.00000000000E+00  0.00000000000E+00  0.45666120154E+03  0.18225875305E+04  0.17644505812E+04 0.  0.
        4    1    3    3  502    0 -0.19686429801E+03  0.41809300617E+03  0.10045988725E+04  0.11057928473E+04  0.12699999809E+01 0. -1.
       -4    1    3    3    0  502  0.19686429801E+03 -0.41809300617E+03 -0.54793767098E+03  0.71679468317E+03  0.12699999809E+01 0.  1.
</event>
<event>
 5   0  0.1214723E-04  0.1769437E+04  0.7818609E-02  0.8722724E-01
       -1   -1    0    0    0  501  0.00000000000E+00  0.00000000000E+00  0.64167020099E+03  0.64167020101E+03  0.50400001928E-02 0. -1.
        1   -1    0    0  501    0  0.00000000000E+00  0.00000000000E+00 -0.12198268586E+04  0.12198268586E+04  0.50400001928E-02 0.  1.
    10030    2    1    2    0    0  0.00000000000E+00  0.00000000000E+00 -0.57815665762E+03  0.18614970596E+04  0.17694366850E+04 0.  0.
        1    1    3    3  502    0 -0.53682038123E+03  0.62389089129E+03  0.52321523561E+02  0.82471419764E+03  0.50400001928E-02 0.  1.
       -1    1    3    3    0  502  0.53682038123E+03 -0.62389089129E+03 -0.63047818118E+03  0.10367828620E+04  0.50400001928E-02 0. -1.
</event>
<event>
 5   0  0.2393421E-04  0.1808301E+04  0.7818609E-02  0.8701898E-01
        2   -1    0    0  501    0  0.00000000000E+00  0.00000000000E+00  0.59349306352E+03  0.59349306353E+03  0.25500000920E-02 0.  1.
       -2   -1    0    0    0  501  0.00000000000E+00  0.00000000000E+00 -0.13774175234E+04  0.13774175234E+04  0.25500000920E-02 0. -1.
    10030    2    1    2    0    0  0.00000000000E+00  0.00000000000E+00 -0.78392445990E+03  0.19709105870E+04  0.18083005787E+04 0.  0.
        5    1    3    3  502    0 -0.79661915568E+03 -0.23361226450E+03 -0.78234515944E+03  0.11407290685E+04  0.46999998093E+01 0. -1.
       -5    1    3    3    0  502  0.79661915568E+03  0.23361226450E+03 -0.15793004609E+01  0.83018151841E+03  0.46999998093E+01 0.  1.
</event>
<event>
 5   0  0.1239119E-04  0.1802971E+04  0.7818609E-02  0.8704721E-01
       -1   -1    0    0    0  501  0.00000000000E+00  0.00000000000E+00  0.48475269754E+03  0.48475269757E+03  0.50400001928E-02 0. -1.
        1   -1    0    0  501    0  0.00000000000E+00  0.00000000000E+00 -0.16764765015E+04  0.16764765016E+04  0.50400001928E-02 0.  1.
    10030    2    1    2    0    0  0.00000000000E+00  0.00000000000E+00 -0.11917238040E+04  0.21612291991E+04  0.18029714435E+04 0.  0.
        5    1    3    3  502    0  0.69199777358E+03  0.43681022324E+03 -0.10491405977E+04  0.13305570914E+04  0.46999998093E+01 0. -1.
       -5    1    3    3    0  502 -0.69199777358E+03 -0.43681022324E+03 -0.14258320627E+03  0.83067210768E+03  0.46999998093E+01 0.  1.
</event>
<event>
 5   0  0.2569405E-04  0.1794108E+04  0.7818609E-02  0.8709439E-01
       -2   -1    0    0    0  501  0.00000000000E+00  0.00000000000E+00  0.56514215353E+03  0.56514215354E+03  0.25500000920E-02 0.  1.
        2   -1    0    0  501    0  0.00000000000E+00  0.00000000000E+00 -0.14238991733E+04  0.14238991733E+04  0.25500000920E-02 0. -1.
    10030    2    1    2    0    0  0.00000000000E+00  0.00000000000E+00 -0.85875701977E+03  0.19890413268E+04  0.17941075165E+04 0.  0.
        2    1    3    3  502    0 -0.35961787657E+03  0.90042777544E+02 -0.13350006431E+04  0.13855177501E+04  0.25500000920E-02 0. -1.
       -2    1    3    3    0  502  0.35961787657E+03 -0.90042777544E+02  0.47624362328E+03  0.60352357672E+03  0.25500000920E-02 0.  1.
</event>
<event>
 5   0  0.2417106E-04  0.1798869E+04  0.7818609E-02  0.8706901E-01
        2   -1    0    0  501    0  0.00000000000E+00  0.00000000000E+00  0.72464121698E+03  0.72464121698E+03  0.25500000920E-02 0.  1.
       -2   -1    0    0    0  501  0.00000000000E+00  0.00000000000E+00 -0.11163903733E+04  0.11163903733E+04  0.25500000920E-02 0. -1.
    10030    2    1    2    0    0  0.00000000000E+00  0.00000000000E+00 -0.39174915636E+03  0.18410315903E+04  0.17988690656E+04 0.  0.
        4    1    3    3  502    0  0.87932793171E+03  0.18448248452E+03 -0.15331298637E+03  0.91145920549E+03  0.12699999809E+01 0. -1.
       -4    1    3    3    0  502 -0.87932793171E+03 -0.18448248452E+03 -0.23843617000E+03  0.92957238484E+03  0.12699999809E+01 0.  1.
</event>
<event>
 5   0  0.1308893E-04  0.1804649E+04  0.7818609E-02  0.8703831E-01
        1   -1    0    0  501    0  0.00000000000E+00  0.00000000000E+00  0.67456530647E+03  0.67456530649E+03  0.50400001928E-02 0. -1.
       -1   -1    0    0    0  501  0.00000000000E+00  0.00000000000E+00 -0.12069836706E+04  0.12069836707E+04  0.50400001928E-02 0.  1.
    10030    2    1    2    0    0  0.00000000000E+00  0.00000000000E+00 -0.53241836418E+03  0.18815489771E+04  0.18046487855E+04 0.  0.
        4    1    3    3  502    0 -0.67751186127E+03  0.16903722491E+03 -0.86204343550E+03  0.11093765831E+04  0.12699999809E+01 0.  1.
       -4    1    3    3    0  502  0.67751186127E+03 -0.16903722491E+03  0.32962507132E+03  0.77217239403E+03  0.12699999809E+01 0. -1.
</event>
<event>
 5   0  0.2393421E-04  0.1830665E+04  0.7818609E-02  0.8690160E-01
       -2   -1    0    0    0  501  0.00000000000E+00  0.00000000000E+00  0.45336571147E+03  0.45336571148E+03  0.25500000920E-02 0.  1.
        2   -1    0    0  501    0  0.00000000000E+00  0.00000000000E+00 -0.18480299953E+04  0.18480299953E+04  0.25500000920E-02 0. -1.
    10030    2    1    2    0    0  0.00000000000E+00  0.00000000000E+00 -0.13946642839E+04  0.23013957068E+04  0.18306648341E+04 0.  0.
        5    1    3    3  502    0  0.59257009319E+03  0.12659464483E+03 -0.15597734794E+04  0.16733442313E+04  0.46999998093E+01 0. -1.
       -5    1    3    3    0  502 -0.59257009319E+03 -0.12659464483E+03  0.16510919552E+03  0.62805147551E+03  0.46999998093E+01 0.  1.
</event>
<event>
 5   0  0.2431811E-04  0.1794238E+04  0.7818609E-02  0.8709369E-01
       -2   -1    0    0    0  501  0.00000000000E+00  0.00000000000E+00  0.13529599533E+04  0.13529599533E+04  0.25500000920E-02 0. -1.
        2   -1    0    0  501    0  0.00000000000E+00  0.00000000000E+00 -0.59486080251E+03  0.59486080252E+03  0.25500000920E-02 0.  1.
    10030    2    1    2    0    0  0.00000000000E+00  0.00000000000E+00  0.75809915082E+03  0.19478207559E+04  0.17942383828E+04 0.  0.
        3    1    3    3  502    0  0.50895057307E+03  0.47475454621E+03  0.99354022948E+03  0.12130724475E+04  0.10100000352E+00 0. -1.
       -3    1    3    3    0  502 -0.50895057307E+03 -0.47475454621E+03 -0.23544107866E+03  0.73474830840E+03  0.10100000352E+00 0.  1.
</event>
<event>
 5   0  0.2417106E-04  0.1791500E+04  0.7818609E-02  0.8710833E-01
       -2   -1    0    0    0  501  0.00000000000E+00  0.00000000000E+00  0.90762673589E+03  0.90762673589E+03  0.25500000920E-02 0.  1.
        2   -1    0    0  501    0  0.00000000000E+00  0.00000000000E+00 -0.88402854274E+03  0.88402854275E+03  0.25500000920E-02 0. -1.
    10030    2    1    2    0    0  0.00000000000E+00  0.00000000000E+00  0.23598193145E+02  0.17916552786E+04  0.17914998640E+04 0.  0.
        4    1    3    3  502    0 -0.61956203502E+03  0.62762611958E+03 -0.14504137650E+03  0.89376186706E+03  0.12699999809E+01 0. -1.
       -4    1    3    3    0  502  0.61956203502E+03 -0.62762611958E+03  0.16863956964E+03  0.89789341158E+03  0.12699999809E+01 0.  1.
</event>
<event>
 5   0  0.1253925E-04  0.1798571E+04  0.7818609E-02  0.8707060E-01
        1   -1    0    0  501    0  0.00000000000E+00  0.00000000000E+00  0.17801308137E+04  0.17801308137E+04  0.50400001928E-02 0.  1.
       -1   -1    0    0    0  501  0.00000000000E+00  0.00000000000E+00 -0.45430036248E+03  0.45430036251E+03  0.50400001928E-02 0. -1.
    10030    2    1    2    0    0  0.00000000000E+00  0.00000000000E+00  0.13258304513E+04  0.22344311763E+04  0.17985706258E+04 0.  0.
        2    1    3    3  502    0 -0.33115764023E+03  0.73637634460E+03  0.11548534117E+04  0.14091138726E+04  0.25500000920E-02 0. -1.
       -2    1    3    3    0  502  0.33115764023E+03 -0.73637634460E+03  0.17097703957E+03  0.82531730361E+03  0.25500000920E-02 0.  1.
</event>
<event>
 5   0  0.2431811E-04  0.1783717E+04  0.7818609E-02  0.8715007E-01
       -2   -1    0    0    0  501  0.00000000000E+00  0.00000000000E+00  0.10618768748E+04  0.10618768748E+04  0.25500000920E-02 0.  1.
        2   -1    0    0  501    0  0.00000000000E+00  0.00000000000E+00 -0.74906223333E+03  0.74906223333E+03  0.25500000920E-02 0. -1.
    10030    2    1    2    0    0  0.00000000000E+00  0.00000000000E+00  0.31281464151E+03  0.18109391082E+04  0.17837173133E+04 0.  0.
        3    1    3    3  502    0 -0.24575859519E+03 -0.76883768597E+03  0.54154234353E+03  0.97199629347E+03  0.10100000352E+00 0.  1.
       -3    1    3    3    0  502  0.24575859519E+03  0.76883768597E+03 -0.22872770202E+03  0.83894281471E+03  0.10100000352E+00 0. -1.
</event>
<event>
 5   0  0.1330225E-04  0.1801991E+04  0.7818609E-02  0.8705241E-01
       -1   -1    0    0    0  501  0.00000000000E+00  0.00000000000E+00  0.35222072966E+03  0.35222072969E+03  0.50400001928E-02 0.  1.
        1   -1    0    0  501    0  0.00000000000E+00  0.00000000000E+00 -0.23047842821E+04  0.23047842821E+04  0.50400001928E-02 0. -1.
    10030    2    1    2    0    0  0.00000000000E+00  0.00000000000E+00 -0.19525635525E+04  0.26570050118E+04  0.18019909008E+04 0.  0.
        3    1    3    3  502    0  0.76662831934E+03 -0.29492082523E+03 -0.15222299389E+04  0.17297055444E+04  0.10100000352E+00 0.  1.
       -3    1    3    3    0  502 -0.76662831934E+03  0.29492082523E+03 -0.43033361357E+03  0.92729946745E+03  0.10100000352E+00 0. -1.
</event>
<event>
 5   0  0.2417106E-04  0.1811650E+04  0.7818609E-02  0.8700129E-01
       -2   -1    0    0    0  501  0.00000000000E+00  0.00000000000E+00  0.10119281895E+04  0.10119281895E+04  0.25500000920E-02 0.  1.
        2   -1    0    0  501    0  0.00000000000E+00  0.00000000000E+00 -0.81084655652E+03  0.81084655652E+03  0.25500000920E-02 0. -1.
    10030    2    1    2    0    0  0.00000000000E+00  0.00000000000E+00  0.20108163296E+03  0.18227747460E+04  0.18116495112E+04 0.  0.
        4    1    3    3  502    0 -0.68643088584E+03 -0.58788290697E+03  0.39148064630E+02  0.90461475624E+03  0.12699999809E+01 0. -1.
       -4    1    3    3    0  502  0.68643088584E+03  0.58788290697E+03  0.16193356833E+03  0.91815998976E+03  0.12699999809E+01 0.  1.
</event>
<event>
 5   0  0.1214723E-04  0.1808908E+04  0.7818609E-02  0.8701577E-01
       -1   -1    0    0    0  501  0.00000000000E+00  0.00000000000E+00  0.38309380316E+03  0.38309380319E+03  0.50400001928E-02 0.  1.
        1   -1    0    0  501    0  0.00000000000E+00  0.00000000000E+00 -0.21353437093E+04  0.21353437093E+04  0.50400001928E-02 0. -1.
    10030    2    1    2    0    0  0.00000000000E+00  0.00000000000E+00 -0.17522499061E+04  0.25184375125E+04  0.18089078945E+04 0.  0.
        1    1    3    3  502    0  0.12627537634E+03 -0.51596706624E+03  0.14303940732E+03  0.55011612973E+03  0.50400001928E-02 0.  1.
       -1    1    3    3    0  502 -0.12627537634E+03  0.51596706624E+03 -0.18952893134E+04  0.19683213827E+04  0.50400001928E-02 0. -1.
</event>
<event>
 5   0  0.2393421E-04  0.1809953E+04  0.7818609E-02  0.8701024E-01
       -2   -1    0    0    0  501  0.00000000000E+00  0.00000000000E+00  0.61953500718E+03  0.61953500718E+03  0.25500000920E-02 0. -1.
        2   -1    0    0  501    0  0.00000000000E+00  0.00000000000E+00 -0.13219310790E+04  0.13219310790E+04  0.25500000920E-02 0.  1.
    10030    2    1    2    0    0  0.00000000000E+00  0.00000000000E+00 -0.70239607185E+03  0.19414660862E+04  0.18099531271E+04 0.  0.
        5    1    3    3  502    0  0.48375112734E+03  0.23792754312E+03 -0.11308800381E+04  0.12528114062E+04  0.46999998093E+01 0.  1.
       -5    1    3    3    0  502 -0.48375112734E+03 -0.23792754312E+03  0.42848396624E+03  0.68865468001E+03  0.46999998093E+01 0. -1.
</event>
<event>
 5   0  0.1239119E-04  0.1936281E+04  0.7818609E-02  0.8637005E-01
       -1   -1    0    0    0  501  0.00000000000E+00  0.00000000000E+00  0.17802666069E+04  0.17802666070E+04  0.50400001928E-02 0.  1.
        1   -1    0    0  501    0  0.00000000000E+00  0.00000000000E+00 -0.52649208774E+03  0.52649208776E+03  0.50400001928E-02 0. -1.
    10030    2    1    2    0    0  0.00000000000E+00  0.00000000000E+00  0.12537745192E+04  0.23067586947E+04  0.19362812633E+04 0.  0.
        5    1    3    3  502    0  0.31127130532E+03  0.44946951729E+03  0.15787341017E+04  0.16707292200E+04  0.46999998093E+01 0.  1.
       -5    1    3    3    0  502 -0.31127130532E+03 -0.44946951729E+03 -0.32495958252E+03  0.63602947476E+03  0.46999998093E+01 0. -1.
</event>
<event>
 5   0  0.1239119E-04  0.1808574E+04  0.7818609E-02  0.8701753E-01
       -1   -1    0    0    0  501  0.00000000000E+00  0.00000000000E+00  0.73031481697E+03  0.73031481699E+03  0.50400001928E-02 0. -1.
        1   -1    0    0  501    0  0.00000000000E+00  0.00000000000E+00 -0.11197021822E+04  0.11197021822E+04  0.50400001928E-02 0.  1.
    10030    2    1    2    0    0  0.00000000000E+00  0.00000000000E+00 -0.38938736521E+03  0.18500169992E+04  0.18085741282E+04 0.  0.
        5    1    3    3  502    0 -0.38319174602E+03 -0.30397076461E+03 -0.97270005297E+03  0.10887615088E+04  0.46999998093E+01 0.  1.
       -5    1    3    3    0  502  0.38319174602E+03  0.30397076461E+03  0.58331268776E+03  0.76125549040E+03  0.46999998093E+01 0. -1.
</event>
<event>
 5   0  0.2393421E-04  0.1808976E+04  0.7818609E-02  0.8701541E-01
       -2   -1    0    0    0  501  0.00000000000E+00  0.00000000000E+00  0.62297096662E+03  0.62297096663E+03  0.25500000920E-02 0.  1.
        2   -1    0    0  501    0  0.00000000000E+00  0.00000000000E+00 -0.13132212084E+04  0.13132212084E+04  0.25500000920E-02 0. -1.
    10030    2    1    2    0    0  0.00000000000E+00  0.00000000000E+00 -0.69025024179E+03  0.19361921750E+04  0.18089761586E+04 0.  0.
        5    1    3    3  502    0  0.44847910160E+03  0.12873145795E+03  0.48420145014E+03  0.67244213666E+03  0.46999998093E+01 0.  1.
       -5    1    3    3    0  502 -0.44847910160E+03 -0.12873145795E+03 -0.11744516919E+04  0.12637500384E+04  0.46999998093E+01 0. -1.
</event>
<event>
 5   0  0.1308893E-04  0.1587216E+04  0.7818609E-02  0.8828440E-01
        1   -1    0    0  501    0  0.00000000000E+00  0.00000000000E+00  0.63114596692E+03  0.63114596694E+03  0.50400001928E-02 0. -1.
       -1   -1    0    0    0  501  0.00000000000E+00  0.00000000000E+00 -0.99788937077E+03  0.99788937079E+03  0.50400001928E-02 0.  1.
    10030    2    1    2    0    0  0.00000000000E+00  0.00000000000E+00 -0.36674340385E+03  0.16290353377E+04  0.15872162447E+04 0.  0.
        4    1    3    3  502    0  0.51277443225E+03 -0.24265130128E+03 -0.75296676330E+03  0.94275014289E+03  0.12699999809E+01 0.  1.
       -4    1    3    3    0  502 -0.51277443225E+03  0.24265130128E+03  0.38622335945E+03  0.68628519484E+03  0.12699999809E+01 0. -1.
</event>
<event>
 5   0  0.1308893E-04  0.1798526E+04  0.7818609E-02  0.8707084E-01
       -1   -1    0    0    0  501  0.00000000000E+00  0.00000000000E+00  0.49777151295E+03  0.49777151298E+03  0.50400001928E-02 0. -1.
        1   -1    0    0  501    0  0.00000000000E+00  0.00000000000E+00 -0.16245878572E+04  0.16245878573E+04  0.50400001928E-02 0.  1.
    10030    2    1    2    0    0  0.00000000000E+00  0.00000000000E+00 -0.11268163443E+04  0.21223593702E+04  0.17985255691E+04 0.  0.
        4    1    3    3  502    0 -0.73364028558E+03  0.99417622106E+02  0.38951916037E+02  0.74137089022E+03  0.12699999809E+01 0. -1.
       -4    1    3    3    0  502  0.73364028558E+03 -0.99417622106E+02 -0.11657682603E+04  0.13809884800E+04  0.12699999809E+01 0.  1.
</event>
<event>
 5   0  0.1239119E-04  0.1781738E+04  0.7818609E-02  0.8716072E-01
        1   -1    0    0  501    0  0.00000000000E+00  0.00000000000E+00  0.18473745280E+04  0.18473745280E+04  0.50400001928E-02 0.  1.
       -1   -1    0    0    0  501  0.00000000000E+00  0.00000000000E+00 -0.42960853845E+03  0.42960853848E+03  0.50400001928E-02 0. -1.
    10030    2    1    2    0    0  0.00000000000E+00  0.00000000000E+00  0.14177659895E+04  0.22769830664E+04  0.17817383320E+04 0.  0.
        5    1    3    3  502    0  0.79902043937E+03  0.23302034379E+03  0.30295615468E+03  0.88574074356E+03  0.46999998093E+01 0. -1.
       -5    1    3    3    0  502 -0.79902043937E+03 -0.23302034379E+03  0.11148098348E+04  0.13912423229E+04  0.46999998093E+01 0.  1.
</event>
<event>
 5   0  0.1253925E-04  0.1793762E+04  0.7818609E-02  0.8709624E-01
        1   -1    0    0  501    0  0.00000000000E+00  0.00000000000E+00  0.12093940936E+04  0.12093940936E+04  0.50400001928E-02 0.  1.
       -1   -1    0    0    0  501  0.00000000000E+00  0.00000000000E+00 -0.66512255925E+03  0.66512255927E+03  0.50400001928E-02 0. -1.
    10030    2    1    2    0    0  0.00000000000E+00  0.00000000000E+00  0.54427153431E+03  0.18745166528E+04  0.17937617397E+04 0.  0.
        2    1    3    3  502    0  0.77092804680E+03  0.40756996836E+03  0.53050244019E+02  0.87364618745E+03  0.25500000920E-02 0.  1.
       -2    1    3    3    0  502 -0.77092804680E+03 -0.40756996836E+03  0.49122129029E+03  0.10008704654E+04  0.25500000920E-02 0. -1.
</event>
<event>
 5   0  0.1308893E-04  0.1783927E+04  0.7818609E-02  0.8714894E-01
       -1   -1    0    0    0  501  0.00000000000E+00  0.00000000000E+00  0.72722401672E+03  0.72722401673E+03  0.50400001928E-02 0.  1.
        1   -1    0    0  501    0  0.00000000000E+00  0.00000000000E+00 -0.10940222758E+04  0.10940222758E+04  0.50400001928E-02 0. -1.
    10030    2    1    2    0    0  0.00000000000E+00  0.00000000000E+00 -0.36679825904E+03  0.18212462925E+04  0.17839274355E+04 0.  0.
        4    1    3    3  502    0 -0.51852867279E+03 -0.52994022438E+03 -0.68964451462E+03  0.10125807599E+04  0.12699999809E+01 0. -1.
       -4    1    3    3    0  502  0.51852867279E+03  0.52994022438E+03  0.32284625558E+03  0.80866553257E+03  0.12699999809E+01 0.  1.
</event>
<event>
 5   0  0.1308893E-04  0.1856032E+04  0.7818609E-02  0.8677057E-01
       -1   -1    0    0    0  501  0.00000000000E+00  0.00000000000E+00  0.10543093362E+04  0.10543093362E+04  0.50400001928E-02 0.  1.
        1   -1    0    0  501    0  0.00000000000E+00  0.00000000000E+00 -0.81685115911E+03  0.81685115913E+03  0.50400001928E-02 0. -1.
    10030    2    1    2    0    0  0.00000000000E+00  0.00000000000E+00  0.23745817705E+03  0.18711604953E+04  0.18560321154E+04 0.  0.
        4    1    3    3  502    0 -0.75089218709E+03  0.13722783130E+03  0.65080134502E+03  0.10031024663E+04  0.12699999809E+01 0.  1.
       -4    1    3    3    0  502  0.75089218709E+03 -0.13722783130E+03 -0.41334316797E+03  0.86805802901E+03  0.12699999809E+01 0. -1.
</event>
<event>
 5   0  0.1214723E-04  0.1668646E+04  0.7818609E-02  0.8779451E-01
       -1   -1    0    0    0  501  0.00000000000E+00  0.00000000000E+00  0.67692344752E+03  0.67692344754E+03  0.50400001928E-02 0. -1.
        1   -1    0    0  501    0  0.00000000000E+00  0.00000000000E+00 -0.10283217687E+04  0.10283217687E+04  0.50400001928E-02 0.  1.
    10030    2    1    2    0    0  0.00000000000E+00  0.00000000000E+00 -0.35139832116E+03  0.17052452162E+04  0.16686462979E+04 0.  0.
        1    1    3    3  502    0  0.11365346599E+03 -0.25248179521E+03 -0.98000088728E+03  0.10183643289E+04  0.50400001928E-02 0.  1.
       -1    1    3    3    0  502 -0.11365346599E+03  0.25248179521E+03  0.62860256612E+03  0.68688088735E+03  0.50400001928E-02 0. -1.
</event>
<event>
 5   0  0.2569405E-04  0.1804520E+04  0.7818609E-02  0.8703899E-01
       -2   -1    0    0    0  501  0.00000000000E+00  0.00000000000E+00  0.12715067848E+04  0.12715067848E+04  0.25500000920E-02 0. -1.
        2   -1    0    0  501    0  0.00000000000E+00  0.00000000000E+00 -0.64024282608E+03  0.64024282608E+03  0.25500000920E-02 0.  1.
    10030    2    1    2    0    0  0.00000000000E+00  0.00000000000E+00  0.63126395870E+03  0.19117496109E+04  0.18045199886E+04 0.  0.
        2    1    3    3  502    0  0.44951053042E+03 -0.50152306913E+03  0.95171633516E+03  0.11659112695E+04  0.25500000920E-02 0. -1.
       -2    1    3    3    0  502 -0.44951053042E+03  0.50152306913E+03 -0.32045237645E+03  0.74583834133E+03  0.25500000920E-02 0.  1.
</event>
<event>
 5   0  0.1214723E-04  0.1800918E+04  0.7818609E-02  0.8705812E-01
        1   -1    0    0  501    0  0.00000000000E+00  0.00000000000E+00  0.13495082118E+04  0.13495082118E+04  0.50400001928E-02 0. -1.
       -1   -1    0    0    0  501  0.00000000000E+00  0.00000000000E+00 -0.60083084459E+03  0.60083084461E+03  0.50400001928E-02 0.  1.
    10030    2    1    2    0    0  0.00000000000E+00  0.00000000000E+00  0.74867736722E+03  0.19503390564E+04  0.18009177202E+04 0.  0.
        1    1    3    3  502    0 -0.37090553719E+03  0.18282993205E+03  0.12405982075E+04  0.13077008886E+04  0.50400001928E-02 0. -1.
       -1    1    3    3    0  502  0.37090553719E+03 -0.18282993205E+03 -0.49192084031E+03  0.64263816781E+03  0.50400001928E-02 0.  1.
</event>
<event>
 5   0  0.1308893E-04  0.1787735E+04  0.7818609E-02  0.8712849E-01
        1   -1    0    0  501    0  0.00000000000E+00  0.00000000000E+00  0.12388663212E+04  0.12388663213E+04  0.50400001928E-02 0. -1.
       -1   -1    0    0    0  501  0.00000000000E+00  0.00000000000E+00 -0.64494361029E+03  0.64494361031E+03  0.50400001928E-02 0.  1.
    10030    2    1    2    0    0  0.00000000000E+00  0.00000000000E+00  0.59392271096E+03  0.18838099316E+04  0.17877347878E+04 0.  0.
        4    1    3    3  502    0 -0.16931584574E+03 -0.78563335907E+03  0.70928221599E+03  0.10719004176E+04  0.12699999809E+01 0. -1.
       -4    1    3    3    0  502  0.16931584574E+03  0.78563335907E+03 -0.11535950503E+03  0.81190951393E+03  0.12699999809E+01 0.  1.
</event>
<event>
 5   0  0.2393421E-04  0.1784411E+04  0.7818609E-02  0.8714634E-01
        2   -1    0    0  501    0  0.00000000000E+00  0.00000000000E+00  0.64235557120E+03  0.64235557121E+03  0.25500000920E-02 0.  1.
       -2   -1    0    0    0  501  0.00000000000E+00  0.00000000000E+00 -0.12392362169E+04  0.12392362169E+04  0.25500000920E-02 0. -1.
    10030    2    1    2    0    0  0.00000000000E+00  0.00000000000E+00 -0.59688064568E+03  0.18815917881E+04  0.17844105895E+04 0.  0.
        5    1    3    3  502    0 -0.29283384119E+03  0.44029324224E+03  0.45930464553E+03  0.70042319002E+03  0.46999998093E+01 0.  1.
       -5    1    3    3    0  502  0.29283384119E+03 -0.44029324224E+03 -0.10561852912E+04  0.11811685981E+04  0.46999998093E+01 0. -1.
</event>
<event>
 5   0  0.2393421E-04  0.1693295E+04  0.7818609E-02  0.8765198E-01
       -2   -1    0    0    0  501  0.00000000000E+00  0.00000000000E+00  0.49751781119E+03  0.49751781119E+03  0.25500000920E-02 0. -1.
        2   -1    0    0  501    0  0.00000000000E+00  0.00000000000E+00 -0.14407768861E+04  0.14407768861E+04  0.25500000920E-02 0.  1.
    10030    2    1    2    0    0  0.00000000000E+00  0.00000000000E+00 -0.94325907495E+03  0.19382946973E+04  0.16932952050E+04 0.  0.
        5    1    3    3  502    0 -0.68856232504E+03 -0.46072276808E+02  0.89792190183E+02  0.69593495211E+03  0.46999998093E+01 0. -1.
       -5    1    3    3    0  502  0.68856232504E+03  0.46072276808E+02 -0.10330512651E+04  0.12423597452E+04  0.46999998093E+01 0.  1.
</event>
<event>
 5   0  0.1330225E-04  0.1767658E+04  0.7818609E-02  0.8723690E-01
       -1   -1    0    0    0  501  0.00000000000E+00  0.00000000000E+00  0.47723465500E+03  0.47723465503E+03  0.50400001928E-02 0. -1.
        1   -1    0    0  501    0  0.00000000000E+00  0.00000000000E+00 -0.16368327848E+04  0.16368327848E+04  0.50400001928E-02 0.  1.
    10030    2    1    2    0    0  0.00000000000E+00  0.00000000000E+00 -0.11595981298E+04  0.21140674398E+04  0.17676575793E+04 0.  0.
        3    1    3    3  502    0 -0.60384065084E+03  0.14667086566E+03 -0.13314718652E+04  0.14693376782E+04  0.10100000352E+00 0.  1.
       -3    1    3    3    0  502  0.60384065084E+03 -0.14667086566E+03  0.17187373542E+03  0.64472976166E+03  0.10100000352E+00 0. -1.
</event>
<event>
 5   0  0.1308893E-04  0.1795579E+04  0.7818609E-02  0.8708654E-01
       -1   -1    0    0    0  501  0.00000000000E+00  0.00000000000E+00  0.61680434053E+03  0.61680434055E+03  0.50400001928E-02 0. -1.
        1   -1    0    0  501    0  0.00000000000E+00  0.00000000000E+00 -0.13067779730E+04  0.13067779730E+04  0.50400001928E-02 0.  1.
    10030    2    1    2    0    0  0.00000000000E+00  0.00000000000E+00 -0.68997363249E+03  0.19235823136E+04  0.17955793782E+04 0.  0.
        4    1    3    3  502    0  0.80222967302E+03  0.10369703203E+03 -0.76223821151E+03  0.11114559041E+04  0.12699999809E+01 0.  1.
       -4    1    3    3    0  502 -0.80222967302E+03 -0.10369703203E+03  0.72264579020E+02  0.81212640950E+03  0.12699999809E+01 0. -1.
</event>
<event>
 5   0  0.1308893E-04  0.1815871E+04  0.7818609E-02  0.8697905E-01
        1   -1    0    0  501    0  0.00000000000E+00  0.00000000000E+00  0.12139688859E+04  0.12139688859E+04  0.50400001928E-02 0. -1.
       -1   -1    0    0    0  501  0.00000000000E+00  0.00000000000E+00 -0.67905091383E+03  0.67905091385E+03  0.50400001928E-02 0.  1.
    10030    2    1    2    0    0  0.00000000000E+00  0.00000000000E+00  0.53491797202E+03  0.18930197997E+04  0.18158707898E+04 0.  0.
        4    1    3    3  502    0 -0.19418183430E+03 -0.24150271231E+03 -0.62221280045E+03  0.69511188075E+03  0.12699999809E+01 0.  1.
       -4    1    3    3    0  502  0.19418183430E+03  0.24150271231E+03  0.11571307725E+04  0.11979079190E+04  0.12699999809E+01 0. -1.
</event>
<event>
 5   0  0.2417106E-04  0.1803606E+04  0.7818609E-02  0.8704384E-01
        2   -1    0    0  501    0  0.00000000000E+00  0.00000000000E+00  0.14183695925E+04  0.14183695925E+04  0.25500000920E-02 0. -1.
       -2   -1    0    0    0  501  0.00000000000E+00  0.00000000000E+00 -0.57336887879E+03  0.57336887880E+03  0.25500000920E-02 0.  1.
    10030    2    1    2    0    0  0.00000000000E+00  0.00000000000E+00  0.84500071374E+03  0.19917384713E+04  0.18036063684E+04 0.  0.
        4    1    3    3  502    0  0.90019052182E+03  0.53195819576E+02  0.41296234336E+03  0.99182270630E+03  0.12699999809E+01 0.  1.
       -4    1    3    3    0  502 -0.90019052182E+03 -0.53195819576E+02  0.43203837037E+03  0.99991576503E+03  0.12699999809E+01 0. -1.
</event>
<event>
 5   0  0.9144875E-05  0.1798070E+04  0.7818609E-02  0.8707326E-01
        3   -1    0    0  501    0  0.00000000000E+00  0.00000000000E+00  0.59866449964E+03  0.59866450816E+03  0.10100000352E+00 0.  1.
       -3   -1    0    0    0  501  0.00000000000E+00  0.00000000000E+00 -0.13501120565E+04  0.13501120603E+04  0.10100000352E+00 0. -1.
    10030    2    1    2    0    0  0.00000000000E+00  0.00000000000E+00 -0.75144755688E+03  0.19487765685E+04  0.17980702664E+04 0.  0.
        4    1    3    3  502    0  0.37007548434E+03 -0.25295031428E+03 -0.12203512330E+04  0.13000763326E+04  0.12699999809E+01 0. -1.
       -4    1    3    3    0  502 -0.37007548434E+03  0.25295031428E+03  0.46890367617E+03  0.64870023588E+03  0.12699999809E+01 0.  1.
</event>
<event>
 5   0  0.1330225E-04  0.1799388E+04  0.7818609E-02  0.8706625E-01
       -1   -1    0    0    0  501  0.00000000000E+00  0.00000000000E+00  0.50085072052E+03  0.50085072054E+03  0.50400001928E-02 0.  1.
        1   -1    0    0  501    0  0.00000000000E+00  0.00000000000E+00 -0.16161482474E+04  0.16161482474E+04  0.50400001928E-02 0. -1.
    10030    2    1    2    0    0  0.00000000000E+00  0.00000000000E+00 -0.11152975269E+04  0.21169989680E+04  0.17993876894E+04 0.  0.
        3    1    3    3  502    0  0.66300938711E+03  0.56295044810E+03 -0.82838520760E+03  0.12011314319E+04  0.10100000352E+00 0.  1.
       -3    1    3    3    0  502 -0.66300938711E+03 -0.56295044810E+03 -0.28691231932E+03  0.91586753605E+03  0.10100000352E+00 0. -1.
</event>
<event>
 5   0  0.2569405E-04  0.1751780E+04  0.7818609E-02  0.8732371E-01
       -2   -1    0    0    0  501  0.00000000000E+00  0.00000000000E+00  0.28447610731E+04  0.28447610731E+04  0.25500000920E-02 0.  1.
        2   -1    0    0  501    0  0.00000000000E+00  0.00000000000E+00 -0.26968287310E+03  0.26968287312E+03  0.25500000920E-02 0. -1.
    10030    2    1    2    0    0  0.00000000000E+00  0.00000000000E+00  0.25750782000E+04  0.31144439462E+04  0.17517800541E+04 0.  0.
        2    1    3    3  502    0 -0.13301940996E+03 -0.49592560632E+03  0.25491369344E+04  0.26003337249E+04  0.25500000920E-02 0.  1.
       -2    1    3    3    0  502  0.13301940996E+03  0.49592560632E+03  0.25941265609E+02  0.51411022135E+03  0.25500000920E-02 0. -1.
</event>
<event>
 5   0  0.2393421E-04  0.1799377E+04  0.7818609E-02  0.8706631E-01
        2   -1    0    0  501    0  0.00000000000E+00  0.00000000000E+00  0.24718466580E+04  0.24718466580E+04  0.25500000920E-02 0. -1.
       -2   -1    0    0    0  501  0.00000000000E+00  0.00000000000E+00 -0.32746326368E+03  0.32746326369E+03  0.25500000920E-02 0.  1.
    10030    2    1    2    0    0  0.00000000000E+00  0.00000000000E+00  0.21443833943E+04  0.27993099216E+04  0.17993765297E+04 0.  0.
        5    1    3    3  502    0 -0.29711540511E+03  0.84146381388E+03  0.12501011807E+04  0.15359407430E+04  0.46999998093E+01 0. -1.
       -5    1    3    3    0  502  0.29711540511E+03 -0.84146381388E+03  0.89428221357E+03  0.12633691786E+04  0.46999998093E+01 0.  1.
</event>
<event>
 5   0  0.2431811E-04  0.1719948E+04  0.7818609E-02  0.8750068E-01
        2   -1    0    0  501    0  0.00000000000E+00  0.00000000000E+00  0.91302323421E+03  0.91302323422E+03  0.25500000920E-02 0.  1.
       -2   -1    0    0    0  501  0.00000000000E+00  0.00000000000E+00 -0.81000736363E+03  0.81000736363E+03  0.25500000920E-02 0. -1.
    10030    2    1    2    0    0  0.00000000000E+00  0.00000000000E+00  0.10301587058E+03  0.17230305978E+04  0.17199483049E+04 0.  0.
        3    1    3    3  502    0  0.61311076412E+03 -0.24494431119E+03  0.60354265069E+03  0.89452013173E+03  0.10100000352E+00 0.  1.
       -3    1    3    3    0  502 -0.61311076412E+03  0.24494431119E+03 -0.50052678011E+03  0.82851046612E+03  0.10100000352E+00 0. -1.
</event>
<event>
 5   0  0.1253925E-04  0.1740529E+04  0.7818609E-02  0.8738581E-01
       -1   -1    0    0    0  501  0.00000000000E+00  0.00000000000E+00  0.53290031161E+03  0.53290031163E+03  0.50400001928E-02 0. -1.
        1   -1    0    0  501    0  0.00000000000E+00  0.00000000000E+00 -0.14212046823E+04  0.14212046823E+04  0.50400001928E-02 0.  1.
    10030    2    1    2    0    0  0.00000000000E+00  0.00000000000E+00 -0.88830437071E+03  0.19541049940E+04  0.17405291358E+04 0.  0.
        2    1    3    3  502    0  0.18801036199E+02  0.28466410586E+03 -0.13672152291E+04  0.13966619544E+04  0.25500000920E-02 0.  1.
       -2    1    3    3    0  502 -0.18801036199E+02 -0.28466410586E+03  0.47891085837E+03  0.55744303960E+03  0.25500000920E-02 0. -1.
</event>
<event>
 5   0  0.2431811E-04  0.1967870E+04  0.7818609E-02  0.8621792E-01
        2   -1    0    0  501    0  0.00000000000E+00  0.00000000000E+00  0.12482685819E+04  0.12482685819E+04  0.25500000920E-02 0.  1.
       -2   -1    0    0    0  501  0.00000000000E+00  0.00000000000E+00 -0.77557650407E+03  0.77557650407E+03  0.25500000920E-02 0. -1.
    10030    2    1    2    0    0  0.00000000000E+00  0.00000000000E+00  0.47269207781E+03  0.20238450860E+04  0.19678696937E+04 0.  0.
        3    1    3    3  502    0 -0.40752832587E+03 -0.66864289603E+02 -0.68212909744E+03  0.79740221055E+03  0.10100000352E+00 0. -1.
       -3    1    3    3    0  502  0.40752832587E+03  0.66864289603E+02  0.11548211753E+04  0.12264428754E+04  0.10100000352E+00 0.  1.
</event>
<event>
 5   0  0.1239119E-04  0.1808811E+04  0.7818609E-02  0.8701628E-01
       -1   -1    0    0    0  501  0.00000000000E+00  0.00000000000E+00  0.10911228654E+04  0.10911228654E+04  0.50400001928E-02 0.  1.
        1   -1    0    0  501    0  0.00000000000E+00  0.00000000000E+00 -0.74963964722E+03  0.74963964724E+03  0.50400001928E-02 0. -1.
    10030    2    1    2    0    0  0.00000000000E+00  0.00000000000E+00  0.34148321818E+03  0.18407625127E+04  0.18088106147E+04 0.  0.
        5    1    3    3  502    0 -0.42454625830E+03 -0.78919271923E+03  0.29480571819E+03  0.94339661596E+03  0.46999998093E+01 0.  1.
       -5    1    3    3    0  502  0.42454625830E+03  0.78919271923E+03  0.46677499989E+02  0.89736589669E+03  0.46999998093E+01 0. -1.
</event>
<event>
 5   0  0.1330225E-04  0.1777385E+04  0.7818609E-02  0.8718419E-01
        1   -1    0    0  501    0  0.00000000000E+00  0.00000000000E+00  0.13863952935E+04  0.13863952935E+04  0.50400001928E-02 0. -1.
       -1   -1    0    0    0  501  0.00000000000E+00  0.00000000000E+00 -0.56966037953E+03  0.56966037956E+03  0.50400001928E-02 0.  1.
    10030    2    1    2    0    0  0.00000000000E+00  0.00000000000E+00  0.81673491395E+03  0.19560556731E+04  0.17773851233E+04 0.  0.
        3    1    3    3  502    0  0.49569275760E+03  0.28342903300E+03 -0.34106551632E+03  0.66510827938E+03  0.10100000352E+00 0.  1.
       -3    1    3    3    0  502 -0.49569275760E+03 -0.28342903300E+03  0.11578004303E+04  0.12909473937E+04  0.10100000352E+00 0. -1.
</event>
<event>
 5   0  0.1308893E-04  0.1826639E+04  0.7818609E-02  0.8692260E-01
        1   -1    0    0  501    0  0.00000000000E+00  0.00000000000E+00  0.10491999590E+04  0.10491999590E+04  0.50400001928E-02 0.  1.
       -1   -1    0    0    0  501  0.00000000000E+00  0.00000000000E+00 -0.79503690227E+03  0.79503690229E+03  0.50400001928E-02 0. -1.
    10030    2    1    2    0    0  0.00000000000E+00  0.00000000000E+00  0.25416305672E+03  0.18442368613E+04  0.18266391929E+04 0.  0.
        4    1    3    3  502    0  0.19075627846E+02  0.46735391337E+03 -0.66492946290E+03  0.81296762756E+03  0.12699999809E+01 0. -1.
       -4    1    3    3    0  502 -0.19075627846E+02 -0.46735391337E+03  0.91909251963E+03  0.10312692337E+04  0.12699999809E+01 0.  1.
</event>
<event>
 5   0  0.2417106E-04  0.1792885E+04  0.7818609E-02  0.8710092E-01
        2   -1    0    0  501    0  0.00000000000E+00  0.00000000000E+00  0.10078908032E+04  0.10078908032E+04  0.25500000920E-02 0.  1.
       -2   -1    0    0    0  501  0.00000000000E+00  0.00000000000E+00 -0.79731744880E+03  0.79731744881E+03  0.25500000920E-02 0. -1.
    10030    2    1    2    0    0  0.00000000000E+00  0.00000000000E+00  0.21057335437E+03  0.18052082520E+04  0.17928847413E+04 0.  0.
        4    1    3    3  502    0 -0.11204153478E+03 -0.45401947915E+03  0.87534442134E+03  0.99242957525E+03  0.12699999809E+01 0.  1.
       -4    1    3    3    0  502  0.11204153478E+03  0.45401947915E+03 -0.66477106697E+03  0.81277867673E+03  0.12699999809E+01 0. -1.
</event>
<event>
 5   0  0.1308893E-04  0.1799271E+04  0.7818609E-02  0.8706687E-01
       -1   -1    0    0    0  501  0.00000000000E+00  0.00000000000E+00  0.78043646406E+03  0.78043646408E+03  0.50400001928E-02 0.  1.
        1   -1    0    0  501    0  0.00000000000E+00  0.00000000000E+00 -0.10370402807E+04  0.10370402807E+04  0.50400001928E-02 0. -1.
    10030    2    1    2    0    0  0.00000000000E+00  0.00000000000E+00 -0.25660381663E+03  0.18174767448E+04  0.17992710188E+04 0.  0.
        4    1    3    3  502    0 -0.49858514828E+03  0.45796901853E+03 -0.72676586769E+03  0.99323361368E+03  0.12699999809E+01 0. -1.
       -4    1    3    3    0  502  0.49858514828E+03 -0.45796901853E+03  0.47016205105E+03  0.82424313110E+03  0.12699999809E+01 0.  1.
</event>
<event>
 5   0  0.2393421E-04  0.1451657E+04  0.7818609E-02  0.8917252E-01
       -2   -1    0    0    0  501  0.00000000000E+00  0.00000000000E+00  0.39879805153E+03  0.39879805154E+03  0.25500000920E-02 0. -1.
        2   -1    0    0  501    0  0.00000000000E+00  0.00000000000E+00 -0.13210376798E+04  0.13210376798E+04  0.25500000920E-02 0.  1.
    10030    2    1    2    0    0  0.00000000000E+00  0.00000000000E+00 -0.92223962826E+03  0.17198357313E+04  0.14516573325E+04 0.  0.
        5    1    3    3  502    0  0.60796358937E+03  0.18006521942E+03 -0.42650190312E+02  0.63551895171E+03  0.46999998093E+01 0. -1.
       -5    1    3    3    0  502 -0.60796358937E+03 -0.18006521942E+03 -0.87958943795E+03  0.10843167796E+04  0.46999998093E+01 0.  1.
</event>
<event>
 5   0  0.1330225E-04  0.1793088E+04  0.7818609E-02  0.8709984E-01
       -1   -1    0    0    0  501  0.00000000000E+00  0.00000000000E+00  0.10908496951E+04  0.10908496951E+04  0.50400001928E-02 0. -1.
        1   -1    0    0  501    0  0.00000000000E+00  0.00000000000E+00 -0.73684860693E+03  0.73684860695E+03  0.50400001928E-02 0.  1.
    10030    2    1    2    0    0  0.00000000000E+00  0.00000000000E+00  0.35400108820E+03  0.18276983021E+04  0.17930879267E+04 0.  0.
        3    1    3    3  502    0  0.76936324351E+03  0.46013617273E+03  0.16468552946E+03  0.91146389492E+03  0.10100000352E+00 0.  1.
       -3    1    3    3    0  502 -0.76936324351E+03 -0.46013617273E+03  0.18931555874E+03  0.91623440718E+03  0.10100000352E+00 0. -1.
</event>
<event>
 5   0  0.2569405E-04  0.1807367E+04  0.7818609E-02  0.8702391E-01
       -2   -1    0    0    0  501  0.00000000000E+00  0.00000000000E+00  0.51033907621E+03  0.51033907622E+03  0.25500000920E-02 0. -1.
        2   -1    0    0  501    0  0.00000000000E+00  0.00000000000E+00 -0.16001990667E+04  0.16001990667E+04  0.25500000920E-02 0.  1.
    10030    2    1    2    0    0  0.00000000000E+00  0.00000000000E+00 -0.10898599905E+04  0.21105381429E+04  0.18073672714E+04 0.  0.
        2    1    3    3  502    0 -0.51210820583E+03 -0.39111391223E+03 -0.12847837222E+04  0.14373218567E+04  0.25500000920E-02 0.  1.
       -2    1    3    3    0  502  0.51210820583E+03  0.39111391223E+03  0.19492373175E+03  0.67321628622E+03  0.25500000920E-02 0. -1.
</event>
<event>
 5   0  0.2417106E-04  0.1861917E+04  0.7818609E-02  0.8674049E-01
        2   -1    0    0  501    0  0.00000000000E+00  0.00000000000E+00  0.19311968804E+04  0.19311968804E+04  0.25500000920E-02 0. -1.
       -2   -1    0    0    0  501  0.00000000000E+00  0.00000000000E+00 -0.44878041945E+03  0.44878041945E+03  0.25500000920E-02 0.  1.
    10030    2    1    2    0    0  0.00000000000E+00  0.00000000000E+00  0.14824164610E+04  0.23799772999E+04  0.18619165889E+04 0.  0.
        4    1    3    3  502    0 -0.72499291492E+03 -0.37777888243E+02  0.14861492788E+04  0.16539900808E+04  0.12699999809E+01 0. -1.
       -4    1    3    3    0  502  0.72499291492E+03  0.37777888243E+02 -0.37328177834E+01  0.72598721914E+03  0.12699999809E+01 0.  1.
</event>
<event>
 5   0  0.2569405E-04  0.1801440E+04  0.7818609E-02  0.8705534E-01
       -2   -1    0    0    0  501  0.00000000000E+00  0.00000000000E+00  0.11930185072E+04  0.11930185072E+04  0.25500000920E-02 0. -1.
        2   -1    0    0  501    0  0.00000000000E+00  0.00000000000E+00 -0.68003683436E+03  0.68003683437E+03  0.25500000920E-02 0.  1.
    10030    2    1    2    0    0  0.00000000000E+00  0.00000000000E+00  0.51298167286E+03  0.18730553416E+04  0.18014400118E+04 0.  0.
        2    1    3    3  502    0  0.58188317705E+03  0.51776079690E+03 -0.21385559046E+03  0.80771188435E+03  0.25500000920E-02 0.  1.
       -2    1    3    3    0  502 -0.58188317705E+03 -0.51776079690E+03  0.72683726331E+03  0.10653434572E+04  0.25500000920E-02 0. -1.
</event>
<event>
 5   0  0.1308893E-04  0.1793631E+04  0.7818609E-02  0.8709694E-01
        1   -1    0    0  501    0  0.00000000000E+00  0.00000000000E+00  0.17818915043E+04  0.17818915043E+04  0.50400001928E-02 0. -1.
       -1   -1    0    0    0  501  0.00000000000E+00  0.00000000000E+00 -0.45136219624E+03  0.45136219627E+03  0.50400001928E-02 0.  1.
    10030    2    1    2    0    0  0.00000000000E+00  0.00000000000E+00  0.13305293081E+04  0.22332537006E+04  0.17936314704E+04 0.  0.
        4    1    3    3  502    0  0.47355198269E+03 -0.65823320788E+03  0.11422449436E+04  0.14008024702E+04  0.12699999809E+01 0. -1.
       -4    1    3    3    0  502 -0.47355198269E+03  0.65823320788E+03  0.18828436445E+03  0.83245123044E+03  0.12699999809E+01 0.  1.
</event>
<event>
 5   0  0.2393421E-04  0.1781488E+04  0.7818609E-02  0.8716206E-01
        2   -1    0    0  501    0  0.00000000000E+00  0.00000000000E+00  0.12222624373E+04  0.12222624373E+04  0.25500000920E-02 0. -1.
       -2   -1    0    0    0  501  0.00000000000E+00  0.00000000000E+00 -0.64914480803E+03  0.64914480804E+03  0.25500000920E-02 0.  1.
    10030    2    1    2    0    0  0.00000000000E+00  0.00000000000E+00  0.57311762925E+03  0.18714072453E+04  0.17814884959E+04 0.  0.
        5    1    3    3  502    0 -0.16220304701E+03 -0.62559107282E+03 -0.35734761538E+03  0.73850756737E+03  0.46999998093E+01 0.  1.
       -5    1    3    3    0  502  0.16220304701E+03  0.62559107282E+03  0.93046524463E+03  0.11328996780E+04  0.46999998093E+01 0. -1.
</event>
<event>
 5   0  0.1253925E-04  0.1801136E+04  0.7818609E-02  0.8705696E-01
       -1   -1    0    0    0  501  0.00000000000E+00  0.00000000000E+00  0.49146030476E+03  0.49146030479E+03  0.50400001928E-02 0. -1.
        1   -1    0    0  501    0  0.00000000000E+00  0.00000000000E+00 -0.16502303299E+04  0.16502303299E+04  0.50400001928E-02 0.  1.
    10030    2    1    2    0    0  0.00000000000E+00  0.00000000000E+00 -0.11587700252E+04  0.21416906347E+04  0.18011359759E+04 0.  0.
        2    1    3    3  502    0 -0.40402635261E+01  0.86607022759E+03 -0.28587607642E+03  0.91204116898E+03  0.25500000920E-02 0.  1.
       -2    1    3    3    0  502  0.40402635261E+01 -0.86607022759E+03 -0.87289394874E+03  0.12296494657E+04  0.25500000920E-02 0. -1.
</event>
<event>
 5   0  0.1214723E-04  0.1798075E+04  0.7818609E-02  0.8707324E-01
       -1   -1    0    0    0  501  0.00000000000E+00  0.00000000000E+00  0.49457737303E+03  0.49457737306E+03  0.50400001928E-02 0.  1.
        1   -1    0    0  501    0  0.00000000000E+00  0.00000000000E+00 -0.16342609925E+04  0.16342609925E+04  0.50400001928E-02 0. -1.
    10030    2    1    2    0    0  0.00000000000E+00  0.00000000000E+00 -0.11396836195E+04  0.21288383656E+04  0.17980750914E+04 0.  0.
        1    1    3    3  502    0 -0.75951848098E+03 -0.75915314757E+02 -0.74485971055E+01  0.76333933450E+03  0.50400001928E-02 0.  1.
       -1    1    3    3    0  502  0.75951848098E+03  0.75915314757E+02 -0.11322350224E+04  0.13654990311E+04  0.50400001928E-02 0. -1.
</event>
<event>
 5   0  0.1239119E-04  0.1785792E+04  0.7818609E-02  0.8713892E-01
       -1   -1    0    0    0  501  0.00000000000E+00  0.00000000000E+00  0.96242696207E+03  0.96242696209E+03  0.50400001928E-02 0.  1.
        1   -1    0    0  501    0  0.00000000000E+00  0.00000000000E+00 -0.82838868792E+03  0.82838868793E+03  0.50400001928E-02 0. -1.
    10030    2    1    2    0    0  0.00000000000E+00  0.00000000000E+00  0.13403827416E+03  0.17908156500E+04  0.17857923825E+04 0.  0.
        5    1    3    3  502    0 -0.34257635026E+03 -0.81390866139E+03 -0.65396425485E+02  0.88549683642E+03  0.46999998093E+01 0. -1.
       -5    1    3    3    0  502  0.34257635026E+03  0.81390866139E+03  0.19943469964E+03  0.90531881360E+03  0.46999998093E+01 0.  1.
</event>
<event>
 5   0  0.1308893E-04  0.1792770E+04  0.7818609E-02  0.8710154E-01
       -1   -1    0    0    0  501  0.00000000000E+00  0.00000000000E+00  0.41053940157E+03  0.41053940160E+03  0.50400001928E-02 0.  1.
        1   -1    0    0  501    0  0.00000000000E+00  0.00000000000E+00 -0.19571955524E+04  0.19571955525E+04  0.50400001928E-02 0. -1.
    10030    2    1    2    0    0  0.00000000000E+00  0.00000000000E+00 -0.15466561509E+04  0.23677349541E+04  0.17927698022E+04 0.  0.
        4    1    3    3  502    0  0.66574345532E+03  0.88175611770E+02 -0.15574748360E+04  0.16960892560E+04  0.12699999809E+01 0. -1.
       -4    1    3    3    0  502 -0.66574345532E+03 -0.88175611770E+02  0.10818685115E+02  0.67164569801E+03  0.12699999809E+01 0.  1.
</event>
<event>
 5   0  0.2550616E-04  0.1796535E+04  0.7818609E-02  0.8708144E-01
        2   -1    0    0  501    0  0.00000000000E+00  0.00000000000E+00  0.93755393680E+03  0.93755393680E+03  0.25500000920E-02 0. -1.
       -2   -1    0    0    0  501  0.00000000000E+00  0.00000000000E+00 -0.86062754873E+03  0.86062754873E+03  0.25500000920E-02 0.  1.
    10030    2    1    2    0    0  0.00000000000E+00  0.00000000000E+00  0.76926388071E+02  0.17981814855E+04  0.17965352726E+04 0.  0.
        1    1    3    3  502    0 -0.82097297020E+03 -0.17911613716E+03  0.35625300544E+03  0.91268582344E+03  0.50400001928E-02 0. -1.
       -1    1    3    3    0  502  0.82097297020E+03  0.17911613716E+03 -0.27932661737E+03  0.88549566209E+03  0.50400001928E-02 0.  1.
</event>
<event>
 5   0  0.1214723E-04  0.1807692E+04  0.7818609E-02  0.8702220E-01
       -1   -1    0    0    0  501  0.00000000000E+00  0.00000000000E+00  0.12743784081E+04  0.12743784081E+04  0.50400001928E-02 0.  1.
        1   -1    0    0  501    0  0.00000000000E+00  0.00000000000E+00 -0.64104774601E+03  0.64104774603E+03  0.50400001928E-02 0. -1.
    10030    2    1    2    0    0  0.00000000000E+00  0.00000000000E+00  0.63333066208E+03  0.19154261541E+04  0.18076917946E+04 0.  0.
        1    1    3    3  502    0  0.86685098464E+03 -0.89257312684E+02  0.57083610444E+03  0.10417539804E+04  0.50400001928E-02 0.  1.
       -1    1    3    3    0  502 -0.86685098464E+03  0.89257312684E+02  0.62494557632E+02  0.87367217376E+03  0.50400001928E-02 0. -1.
</event>
<event>
 5   0  0.2431811E-04  0.1772891E+04  0.7818609E-02  0.8720850E-01
        2   -1    0    0  501    0  0.00000000000E+00  0.00000000000E+00  0.25935898727E+04  0.25935898727E+04  0.25500000920E-02 0. -1.
       -2   -1    0    0    0  501  0.00000000000E+00  0.00000000000E+00 -0.30297228973E+03  0.30297228974E+03  0.25500000920E-02 0.  1.
    10030    2    1    2    0    0  0.00000000000E+00  0.00000000000E+00  0.22906175830E+04  0.28965621625E+04  0.17728912684E+04 0.  0.
        3    1    3    3  502    0  0.70906264917E+03 -0.32800679892E+03  0.18296136968E+04  0.19894332335E+04  0.10100000352E+00 0. -1.
       -3    1    3    3    0  502 -0.70906264917E+03  0.32800679892E+03  0.46100388617E+03  0.90712892901E+03  0.10100000352E+00 0.  1.
</event>
<event>
 5   0  0.2550616E-04  0.1819083E+04  0.7818609E-02  0.8696217E-01
       -2   -1    0    0    0  501  0.00000000000E+00  0.00000000000E+00  0.35754952411E+03  0.35754952412E+03  0.25500000920E-02 0. -1.
        2   -1    0    0  501    0  0.00000000000E+00  0.00000000000E+00 -0.23137102511E+04  0.23137102511E+04  0.25500000920E-02 0.  1.
    10030    2    1    2    0    0  0.00000000000E+00  0.00000000000E+00 -0.19561607270E+04  0.26712597752E+04  0.18190832848E+04 0.  0.
        1    1    3    3  502    0  0.28749536833E+03 -0.35530017039E+03  0.17667296417E+03  0.49000523893E+03  0.50400001928E-02 0. -1.
       -1    1    3    3    0  502 -0.28749536833E+03  0.35530017039E+03 -0.21328336912E+04  0.21812545363E+04  0.50400001928E-02 0.  1.
</event>
<event>
 5   0  0.2550616E-04  0.1788513E+04  0.7818609E-02  0.8712432E-01
       -2   -1    0    0    0  501  0.00000000000E+00  0.00000000000E+00  0.39004757407E+03  0.39004757408E+03  0.25500000920E-02 0. -1.
        2   -1    0    0  501    0  0.00000000000E+00  0.00000000000E+00 -0.20502485498E+04  0.20502485498E+04  0.25500000920E-02 0.  1.
    10030    2    1    2    0    0  0.00000000000E+00  0.00000000000E+00 -0.16602009757E+04  0.24402961239E+04  0.17885127599E+04 0.  0.
        1    1    3    3  502    0 -0.71524664161E+03  0.48926777434E+03 -0.52889322046E+03  0.10152284236E+04  0.50400001928E-02 0. -1.
       -1    1    3    3    0  502  0.71524664161E+03 -0.48926777434E+03 -0.11313077553E+04  0.14250677003E+04  0.50400001928E-02 0.  1.
</event>
<event>
 5   0  0.2393421E-04  0.1877606E+04  0.7818609E-02  0.8666084E-01
        2   -1    0    0  501    0  0.00000000000E+00  0.00000000000E+00  0.22612617617E+04  0.22612617617E+04  0.25500000920E-02 0.  1.
       -2   -1    0    0    0  501  0.00000000000E+00  0.00000000000E+00 -0.38976087085E+03  0.38976087086E+03  0.25500000920E-02 0. -1.
    10030    2    1    2    0    0  0.00000000000E+00  0.00000000000E+00  0.18715008909E+04  0.26510226326E+04  0.18776062990E+04 0.  0.
        5    1    3    3  502    0 -0.76416438348E+03 -0.36334811543E+03  0.15098991689E+04  0.17308340903E+04  0.46999998093E+01 0.  1.
       -5    1    3    3    0  502  0.76416438348E+03  0.36334811543E+03  0.36160172195E+03  0.92018854224E+03  0.46999998093E+01 0. -1.
</event>
<event>
 5   0  0.1239119E-04  0.1824078E+04  0.7818609E-02  0.8693599E-01
       -1   -1    0    0    0  501  0.00000000000E+00  0.00000000000E+00  0.95854059379E+03  0.95854059380E+03  0.50400001928E-02 0. -1.
        1   -1    0    0  501    0  0.00000000000E+00  0.00000000000E+00 -0.86779312433E+03  0.86779312434E+03  0.50400001928E-02 0.  1.
    10030    2    1    2    0    0  0.00000000000E+00  0.00000000000E+00  0.90747469461E+02  0.18263337181E+04  0.18240777798E+04 0.  0.
        5    1    3    3  502    0 -0.54023017183E+03 -0.31628978085E+02  0.78040960037E+03  0.94968956251E+03  0.46999998093E+01 0. -1.
       -5    1    3    3    0  502  0.54023017183E+03  0.31628978085E+02 -0.68966213090E+03  0.87664415563E+03  0.46999998093E+01 0.  1.
</event>
<event>
 5   0  0.2431811E-04  0.1806419E+04  0.7818609E-02  0.8702893E-01
        2   -1    0    0  501    0  0.00000000000E+00  0.00000000000E+00  0.10337522775E+04  0.10337522775E+04  0.25500000920E-02 0.  1.
       -2   -1    0    0    0  501  0.00000000000E+00  0.00000000000E+00 -0.78915174276E+03  0.78915174276E+03  0.25500000920E-02 0. -1.
    10030    2    1    2    0    0  0.00000000000E+00  0.00000000000E+00  0.24460053470E+03  0.18229040202E+04  0.18064190116E+04 0.  0.
        3    1    3    3  502    0 -0.85987243798E+03  0.19619727569E+03 -0.74190338458E+02  0.88508654780E+03  0.10100000352E+00 0.  1.
       -3    1    3    3    0  502  0.85987243798E+03 -0.19619727569E+03  0.31879087316E+03  0.93781747243E+03  0.10100000352E+00 0. -1.
</event>
<event>
 5   0  0.1253925E-04  0.1834196E+04  0.7818609E-02  0.8688323E-01
        1   -1    0    0  501    0  0.00000000000E+00  0.00000000000E+00  0.20019476148E+04  0.20019476148E+04  0.50400001928E-02 0. -1.
       -1   -1    0    0    0  501  0.00000000000E+00  0.00000000000E+00 -0.42012543897E+03  0.42012543900E+03  0.50400001928E-02 0.  1.
    10030    2    1    2    0    0  0.00000000000E+00  0.00000000000E+00  0.15818221758E+04  0.24220730538E+04  0.18341964131E+04 0.  0.
        2    1    3    3  502    0 -0.74336603832E+03  0.34006914078E+03  0.13398825244E+04  0.15695621258E+04  0.25500000920E-02 0. -1.
       -2    1    3    3    0  502  0.74336603832E+03 -0.34006914078E+03  0.24193965140E+03  0.85251092800E+03  0.25500000920E-02 0.  1.
</event>
<event>
 5   0  0.1214723E-04  0.1782735E+04  0.7818609E-02  0.8715535E-01
       -1   -1    0    0    0  501  0.00000000000E+00  0.00000000000E+00  0.82170409368E+03  0.82170409369E+03  0.50400001928E-02 0.  1.
        1   -1    0    0  501    0  0.00000000000E+00  0.00000000000E+00 -0.96693663830E+03  0.96693663831E+03  0.50400001928E-02 0. -1.
    10030    2    1    2    0    0  0.00000000000E+00  0.00000000000E+00 -0.14523254462E+03  0.17886407320E+04  0.17827347464E+04 0.  0.
        1    1    3    3  502    0 -0.63078812517E+02 -0.16794002844E+03 -0.94863712746E+03  0.96545077004E+03  0.50400001928E-02 0. -1.
       -1    1    3    3    0  502  0.63078812517E+02  0.16794002844E+03  0.80340458284E+03  0.82318996197E+03  0.50400001928E-02 0.  1.
</event>
<event>
 5   0  0.1330225E-04  0.1902326E+04  0.7818609E-02  0.8653699E-01
        1   -1    0    0  501    0  0.00000000000E+00  0.00000000000E+00  0.19639352802E+04  0.19639352802E+04  0.50400001928E-02 0.  1.
       -1   -1    0    0    0  501  0.00000000000E+00  0.00000000000E+00 -0.46066253726E+03  0.46066253728E+03  0.50400001928E-02 0. -1.
    10030    2    1    2    0    0  0.00000000000E+00  0.00000000000E+00  0.15032727429E+04  0.24245978175E+04  0.19023263750E+04 0.  0.
        3    1    3    3  502    0 -0.46058678814E+03  0.21753603180E+03  0.17754442009E+04  0.18470690933E+04  0.10100000352E+00 0.  1.
       -3    1    3    3    0  502  0.46058678814E+03 -0.21753603180E+03 -0.27217145798E+03  0.57752872421E+03  0.10100000352E+00 0. -1.
</event>
<event>
 5   0  0.1330225E-04  0.1780650E+04  0.7818609E-02  0.8716658E-01
        1   -1    0    0  501    0  0.00000000000E+00  0.00000000000E+00  0.20861594535E+04  0.20861594535E+04  0.50400001928E-02 0.  1.
       -1   -1    0    0    0  501  0.00000000000E+00  0.00000000000E+00 -0.37997042151E+03  0.37997042154E+03  0.50400001928E-02 0. -1.
    10030    2    1    2    0    0  0.00000000000E+00  0.00000000000E+00  0.17061890319E+04  0.24661298750E+04  0.17806503159E+04 0.  0.
        3    1    3    3  502    0 -0.22096424051E+03 -0.43661286981E+03 -0.17702442105E+03  0.52037837149E+03  0.10100000352E+00 0. -1.
       -3    1    3    3    0  502  0.22096424051E+03  0.43661286981E+03  0.18832134530E+04  0.19457515035E+04  0.10100000352E+00 0.  1.
</event>
<event>
 5   0  0.2569405E-04  0.1771324E+04  0.7818609E-02  0.8721699E-01
        2   -1    0    0  501    0  0.00000000000E+00  0.00000000000E+00  0.89459887747E+03  0.89459887748E+03  0.25500000920E-02 0. -1.
       -2   -1    0    0    0  501  0.00000000000E+00  0.00000000000E+00 -0.87681442694E+03  0.87681442694E+03  0.25500000920E-02 0.  1.
    10030    2    1    2    0    0  0.00000000000E+00  0.00000000000E+00  0.17784450536E+02  0.17714133044E+04  0.17713240269E+04 0.  0.
        2    1    3    3  502    0 -0.82814776531E+03 -0.17899782177E+03  0.26683595389E+03  0.88829632875E+03  0.25500000920E-02 0.  1.
       -2    1    3    3    0  502  0.82814776531E+03  0.17899782177E+03 -0.24905150335E+03  0.88311697567E+03  0.25500000920E-02 0. -1.
</event>
<event>
 5   0  0.1239119E-04  0.1764920E+04  0.7818609E-02  0.8725180E-01
       -1   -1    0    0    0  501  0.00000000000E+00  0.00000000000E+00  0.65908320764E+03  0.65908320766E+03  0.50400001928E-02 0. -1.
        1   -1    0    0  501    0  0.00000000000E+00  0.00000000000E+00 -0.11815441812E+04  0.11815441812E+04  0.50400001928E-02 0.  1.
    10030    2    1    2    0    0  0.00000000000E+00  0.00000000000E+00 -0.52246097357E+03  0.18406273889E+04  0.17649203143E+04 0.  0.
        5    1    3    3  502    0  0.88227374378E+03 -0.15990120467E+02 -0.26869255034E+03  0.92243179667E+03  0.46999998093E+01 0.  1.
       -5    1    3    3    0  502 -0.88227374378E+03  0.15990120467E+02 -0.25376842323E+03  0.91819559220E+03  0.46999998093E+01 0. -1.
</event>
<event>
 5   0  0.2393421E-04  0.1792033E+04  0.7818609E-02  0.8710548E-01
        2   -1    0    0  501    0  0.00000000000E+00  0.00000000000E+00  0.14811404683E+04  0.14811404683E+04  0.25500000920E-02 0.  1.
       -2   -1    0    0    0  501  0.00000000000E+00  0.00000000000E+00 -0.54204545533E+03  0.54204545533E+03  0.25500000920E-02 0. -1.
    10030    2    1    2    0    0  0.00000000000E+00  0.00000000000E+00  0.93909501299E+03  0.20231859237E+04  0.17920328787E+04 0.  0.
        5    1    3    3  502    0 -0.22839761148E+02  0.24252444437E+03  0.14430241150E+04  0.14634481362E+04  0.46999998093E+01 0.  1.
       -5    1    3    3    0  502  0.22839761148E+02 -0.24252444437E+03 -0.50392910205E+03  0.55973778744E+03  0.46999998093E+01 0. -1.
</event>
<event>
 5   0  0.1253925E-04  0.1690498E+04  0.7818609E-02  0.8766802E-01
        1   -1    0    0  501    0  0.00000000000E+00  0.00000000000E+00  0.91939051691E+03  0.91939051693E+03  0.50400001928E-02 0.  1.
       -1   -1    0    0    0  501  0.00000000000E+00  0.00000000000E+00 -0.77708673769E+03  0.77708673771E+03  0.50400001928E-02 0. -1.
    10030    2    1    2    0    0  0.00000000000E+00  0.00000000000E+00  0.14230377922E+03  0.16964772546E+04  0.16904983614E+04 0.  0.
        2    1    3    3  502    0 -0.59853022262E+03 -0.59398451563E+03  0.12721007653E+02  0.84333733241E+03  0.25500000920E-02 0.  1.
       -2    1    3    3    0  502  0.59853022262E+03  0.59398451563E+03  0.12958277157E+03  0.85313992222E+03  0.25500000920E-02 0. -1.
</event>
<event>
 5   0  0.2393421E-04  0.1810295E+04  0.7818609E-02  0.8700844E-01
        2   -1    0    0  501    0  0.00000000000E+00  0.00000000000E+00  0.61020632560E+03  0.61020632560E+03  0.25500000920E-02 0.  1.
       -2   -1    0    0    0  501  0.00000000000E+00  0.00000000000E+00 -0.13426481637E+04  0.13426481637E+04  0.25500000920E-02 0. -1.
    10030    2    1    2    0    0  0.00000000000E+00  0.00000000000E+00 -0.73244183808E+03  0.19528544893E+04  0.18102954483E+04 0.  0.
        5    1    3    3  502    0 -0.33394966241E+03 -0.22065897352E+03 -0.12419748507E+04  0.13048894127E+04  0.46999998093E+01 0. -1.
       -5    1    3    3    0  502  0.33394966241E+03  0.22065897352E+03  0.50953301258E+03  0.64796507662E+03  0.46999998093E+01 0.  1.
</event>
<event>
 5   0  0.1214723E-04  0.1791530E+04  0.7818609E-02  0.8710817E-01
       -1   -1    0    0    0  501  0.00000000000E+00  0.00000000000E+00  0.10724296443E+04  0.10724296443E+04  0.50400001928E-02 0.  1.
        1   -1    0    0  501    0  0.00000000000E+00  0.00000000000E+00 -0.74820277255E+03  0.74820277257E+03  0.50400001928E-02 0. -1.
    10030    2    1    2    0    0  0.00000000000E+00  0.00000000000E+00  0.32422687175E+03  0.18206324169E+04  0.17915298862E+04 0.  0.
        1    1    3    3  502    0 -0.14124690831E+03  0.78056905546E+02 -0.73330770918E+03  0.75085535623E+03  0.50400001928E-02 0. -1.
       -1    1    3    3    0  502  0.14124690831E+03 -0.78056905546E+02  0.10575345809E+04  0.10697770606E+04  0.50400001928E-02 0.  1.
</event>
<event>
 5   0  0.1253925E-04  0.1788059E+04  0.7818609E-02  0.8712676E-01
        1   -1    0    0  501    0  0.00000000000E+00  0.00000000000E+00  0.11271171970E+04  0.11271171971E+04  0.50400001928E-02 0.  1.
       -1   -1    0    0    0  501  0.00000000000E+00  0.00000000000E+00 -0.70914396258E+03  0.70914396260E+03  0.50400001928E-02 0. -1.
    10030    2    1    2    0    0  0.00000000000E+00  0.00000000000E+00  0.41797323447E+03  0.18362611596E+04  0.17880585622E+04 0.  0.
        2    1    3    3  502    0  0.35929033486E+03  0.55378315052E+03 -0.41019588667E+03  0.77719108845E+03  0.25500000920E-02 0. -1.
       -2    1    3    3    0  502 -0.35929033486E+03 -0.55378315052E+03  0.82816912113E+03  0.10590700712E+04  0.25500000920E-02 0.  1.
</event>
<event>
 5   0  0.2550616E-04  0.1986180E+04  0.7818609E-02  0.8613109E-01
        2   -1    0    0  501    0  0.00000000000E+00  0.00000000000E+00  0.12990293497E+04  0.12990293497E+04  0.25500000920E-02 0.  1.
       -2   -1    0    0    0  501  0.00000000000E+00  0.00000000000E+00 -0.75920348704E+03  0.75920348704E+03  0.25500000920E-02 0. -1.
    10030    2    1    2    0    0  0.00000000000E+00  0.00000000000E+00  0.53982586263E+03  0.20582328367E+04  0.19861798630E+04 0.  0.
        1    1    3    3  502    0 -0.33824685967E+03  0.85129465027E+03 -0.12755588957E+03  0.92486973388E+03  0.50400001928E-02 0. -1.
       -1    1    3    3    0  502  0.33824685967E+03 -0.85129465027E+03  0.66738175220E+03  0.11333631028E+04  0.50400001928E-02 0.  1.
</event>
<event>
 5   0  0.2550616E-04  0.1809317E+04  0.7818609E-02  0.8701361E-01
        2   -1    0    0  501    0  0.00000000000E+00  0.00000000000E+00  0.19467241516E+04  0.19467241516E+04  0.25500000920E-02 0. -1.
       -2   -1    0    0    0  501  0.00000000000E+00  0.00000000000E+00 -0.42040204554E+03  0.42040204554E+03  0.25500000920E-02 0.  1.
    10030    2    1    2    0    0  0.00000000000E+00  0.00000000000E+00  0.15263221061E+04  0.23671261972E+04  0.18093167942E+04 0.  0.
        1    1    3    3  502    0  0.61780104348E+03  0.64928012486E+03  0.92426781352E+03  0.12874446788E+04  0.50400001928E-02 0.  1.
       -1    1    3    3    0  502 -0.61780104348E+03 -0.64928012486E+03  0.60205429255E+03  0.10796815183E+04  0.50400001928E-02 0. -1.
</event>
<event>
 5   0  0.9144875E-05  0.1836750E+04  0.7818609E-02  0.8686997E-01
       -3   -1    0    0    0  501  0.00000000000E+00  0.00000000000E+00  0.13731880461E+04  0.13731880498E+04  0.10100000352E+00 0. -1.
        3   -1    0    0  501    0  0.00000000000E+00  0.00000000000E+00 -0.61420056068E+03  0.61420056898E+03  0.10100000352E+00 0.  1.
    10030    2    1    2    0    0  0.00000000000E+00  0.00000000000E+00  0.75898748539E+03  0.19873886188E+04  0.18367502604E+04 0.  0.
        4    1    3    3  502    0  0.10220579741E+03 -0.87897829625E+03  0.11365643777E+03  0.89217053810E+03  0.12699999809E+01 0.  1.
       -4    1    3    3    0  502 -0.10220579741E+03  0.87897829625E+03  0.64533104763E+03  0.10952180807E+04  0.12699999809E+01 0. -1.
</event>
<event>
 5   0  0.1308893E-04  0.1788496E+04  0.7818609E-02  0.8712441E-01
        1   -1    0    0  501    0  0.00000000000E+00  0.00000000000E+00  0.77623858294E+03  0.77623858296E+03  0.50400001928E-02 0. -1.
       -1   -1    0    0    0  501  0.00000000000E+00  0.00000000000E+00 -0.10301976281E+04  0.10301976281E+04  0.50400001928E-02 0.  1.
    10030    2    1    2    0    0  0.00000000000E+00  0.00000000000E+00 -0.25395904515E+03  0.18064362111E+04  0.17884956215E+04 0.  0.
        4    1    3    3  502    0  0.17306104217E+03  0.12652918507E+03  0.74989838380E+03  0.77994163750E+03  0.12699999809E+01 0. -1.
       -4    1    3    3    0  502 -0.17306104217E+03 -0.12652918507E+03 -0.10038574289E+04  0.10264945736E+04  0.12699999809E+01 0.  1.
</event>
<event>
 5   0  0.2393421E-04  0.1806446E+04  0.7818609E-02  0.8702879E-01
        2   -1    0    0  501    0  0.00000000000E+00  0.00000000000E+00  0.23017544211E+04  0.23017544211E+04  0.25500000920E-02 0. -1.
       -2   -1    0    0    0  501  0.00000000000E+00  0.00000000000E+00 -0.35443023493E+03  0.35443023494E+03  0.25500000920E-02 0.  1.
    10030    2    1    2    0    0  0.00000000000E+00  0.00000000000E+00  0.19473241862E+04  0.26561846561E+04  0.18064455267E+04 0.  0.
        5    1    3    3  502    0 -0.68786850391E+03 -0.35749703856E+03  0.16551730319E+04  0.18277272956E+04  0.46999998093E+01 0.  1.
       -5    1    3    3    0  502  0.68786850391E+03  0.35749703856E+03  0.29215115425E+03  0.82845736051E+03  0.46999998093E+01 0. -1.
</event>
<event>
 5   0  0.1239119E-04  0.1654968E+04  0.7818609E-02  0.8787473E-01
        1   -1    0    0  501    0  0.00000000000E+00  0.00000000000E+00  0.23947307658E+04  0.23947307658E+04  0.50400001928E-02 0.  1.
       -1   -1    0    0    0  501  0.00000000000E+00  0.00000000000E+00 -0.28593192201E+03  0.28593192205E+03  0.50400001928E-02 0. -1.
    10030    2    1    2    0    0  0.00000000000E+00  0.00000000000E+00  0.21087988437E+04  0.26806626878E+04  0.16549682421E+04 0.  0.
        5    1    3    3  502    0  0.19203293656E+03  0.20247077310E+03  0.23161934461E+04  0.23329477560E+04  0.46999998093E+01 0.  1.
       -5    1    3    3    0  502 -0.19203293656E+03 -0.20247077310E+03 -0.20739460236E+03  0.34771493176E+03  0.46999998093E+01 0. -1.
</event>
<event>
 5   0  0.1253925E-04  0.1801538E+04  0.7818609E-02  0.8705482E-01
        1   -1    0    0  501    0  0.00000000000E+00  0.00000000000E+00  0.87169729277E+03  0.87169729278E+03  0.50400001928E-02 0. -1.
       -1   -1    0    0    0  501  0.00000000000E+00  0.00000000000E+00 -0.93081075917E+03  0.93081075918E+03  0.50400001928E-02 0.  1.
    10030    2    1    2    0    0  0.00000000000E+00  0.00000000000E+00 -0.59113466401E+02  0.18025080520E+04  0.18015384746E+04 0.  0.
        2    1    3    3  502    0  0.37905425284E+03  0.22593311292E+03 -0.81525467900E+03  0.92702108376E+03  0.25500000920E-02 0.  1.
       -2    1    3    3    0  502 -0.37905425284E+03 -0.22593311292E+03  0.75614121259E+03  0.87548696821E+03  0.25500000920E-02 0. -1.
</event>
<event>
 5   0  0.2393421E-04  0.1760271E+04  0.7818609E-02  0.8727717E-01
       -2   -1    0    0    0  501  0.00000000000E+00  0.00000000000E+00  0.58116213088E+03  0.58116213088E+03  0.25500000920E-02 0.  1.
        2   -1    0    0  501    0  0.00000000000E+00  0.00000000000E+00 -0.13329127709E+04  0.13329127709E+04  0.25500000920E-02 0. -1.
    10030    2    1    2    0    0  0.00000000000E+00  0.00000000000E+00 -0.75175064003E+03  0.19140749018E+04  0.17602709180E+04 0.  0.
        5    1    3    3  502    0  0.17209353787E+03 -0.85651803417E+03 -0.49185807984E+03  0.10025895418E+04  0.46999998093E+01 0.  1.
       -5    1    3    3    0  502 -0.17209353787E+03  0.85651803417E+03 -0.25989256020E+03  0.91148535999E+03  0.46999998093E+01 0. -1.
</event>
<event>
 5   0  0.2550616E-04  0.1800364E+04  0.7818609E-02  0.8706106E-01
       -2   -1    0    0    0  501  0.00000000000E+00  0.00000000000E+00  0.10391183452E+04  0.10391183452E+04  0.25500000920E-02 0. -1.
        2   -1    0    0  501    0  0.00000000000E+00  0.00000000000E+00 -0.77982239588E+03  0.77982239588E+03  0.25500000920E-02 0.  1.
    10030    2    1    2    0    0  0.00000000000E+00  0.00000000000E+00  0.25929594927E+03  0.18189407410E+04  0.18003641382E+04 0.  0.
        1    1    3    3  502    0  0.69968114246E+03 -0.49705300990E+03  0.40394958673E+03  0.94857296210E+03  0.50400001928E-02 0.  1.
       -1    1    3    3    0  502 -0.69968114246E+03  0.49705300990E+03 -0.14465363746E+03  0.87036777895E+03  0.50400001928E-02 0. -1.
</event>
<event>
 5   0  0.1253925E-04  0.1735916E+04  0.7818609E-02  0.8741141E-01
       -1   -1    0    0    0  501  0.00000000000E+00  0.00000000000E+00  0.56133682362E+03  0.56133682364E+03  0.50400001928E-02 0. -1.
        1   -1    0    0  501    0  0.00000000000E+00  0.00000000000E+00 -0.13420659767E+04  0.13420659767E+04  0.50400001928E-02 0.  1.
    10030    2    1    2    0    0  0.00000000000E+00  0.00000000000E+00 -0.78072915309E+03  0.19034028004E+04  0.17359159571E+04 0.  0.
        2    1    3    3  502    0  0.68895924319E+03  0.45936685579E+01  0.18845512959E+03  0.71428375065E+03  0.25500000920E-02 0. -1.
       -2    1    3    3    0  502 -0.68895924319E+03 -0.45936685579E+01 -0.96918428269E+03  0.11891190497E+04  0.25500000920E-02 0.  1.
</event>
<event>
 5   0  0.1239119E-04  0.1838121E+04  0.7818609E-02  0.8686286E-01
       -1   -1    0    0    0  501  0.00000000000E+00  0.00000000000E+00  0.11199212026E+04  0.11199212026E+04  0.50400001928E-02 0.  1.
        1   -1    0    0  501    0  0.00000000000E+00  0.00000000000E+00 -0.75422488300E+03  0.75422488302E+03  0.50400001928E-02 0. -1.
    10030    2    1    2    0    0  0.00000000000E+00  0.00000000000E+00  0.36569631958E+03  0.18741460856E+04  0.18381212561E+04 0.  0.
        5    1    3    3  502    0  0.62764382797E+03 -0.51734553753E+03  0.61909723018E+03  0.10221969724E+04  0.46999998093E+01 0.  1.
       -5    1    3    3    0  502 -0.62764382797E+03  0.51734553753E+03 -0.25340091061E+03  0.85194911320E+03  0.46999998093E+01 0. -1.
</event>
<event>
 5   0  0.1330225E-04  0.1733980E+04  0.7818609E-02  0.8742218E-01
        1   -1    0    0  501    0  0.00000000000E+00  0.00000000000E+00  0.20448878680E+04  0.20448878681E+04  0.50400001928E-02 0. -1.
       -1   -1    0    0    0  501  0.00000000000E+00  0.00000000000E+00 -0.36758558363E+03  0.36758558367E+03  0.50400001928E-02 0.  1.
    10030    2    1    2    0    0  0.00000000000E+00  0.00000000000E+00  0.16773022844E+04  0.24124734517E+04  0.17339795852E+04 0.  0.
        3    1    3    3  502    0  0.70283913798E+02  0.31550757658E+03  0.19579170209E+04  0.19844203009E+04  0.10100000352E+00 0. -1.
       -3    1    3    3    0  502 -0.70283913798E+02 -0.31550757658E+03 -0.28061473651E+03  0.42805315087E+03  0.10100000352E+00 0.  1.
</event>
<event>
 5   0  0.1330225E-04  0.1802877E+04  0.7818609E-02  0.8704771E-01
        1   -1    0    0  501    0  0.00000000000E+00  0.00000000000E+00  0.13914824566E+04  0.13914824566E+04  0.50400001928E-02 0. -1.
       -1   -1    0    0    0  501  0.00000000000E+00  0.00000000000E+00 -0.58397522076E+03  0.58397522078E+03  0.50400001928E-02 0.  1.
    10030    2    1    2    0    0  0.00000000000E+00  0.00000000000E+00  0.80750723585E+03  0.19754576774E+04  0.18028768952E+04 0.  0.
        3    1    3    3  502    0 -0.86823625547E+03  0.21264088497E+03  0.27624903466E+03  0.93560882886E+03  0.10100000352E+00 0.  1.
       -3    1    3    3    0  502  0.86823625547E+03 -0.21264088497E+03  0.53125820119E+03  0.10398488485E+04  0.10100000352E+00 0. -1.
</event>
<event>
 5   0  0.1239119E-04  0.1756347E+04  0.7818609E-02  0.8729864E-01
       -1   -1    0    0    0  501  0.00000000000E+00  0.00000000000E+00  0.60406553913E+03  0.60406553915E+03  0.50400001928E-02 0.  1.
        1   -1    0    0  501    0  0.00000000000E+00  0.00000000000E+00 -0.12766639408E+04  0.12766639408E+04  0.50400001928E-02 0. -1.
    10030    2    1    2    0    0  0.00000000000E+00  0.00000000000E+00 -0.67259840164E+03  0.18807294799E+04  0.17563469950E+04 0.  0.
        5    1    3    3  502    0  0.22182475412E+03 -0.85271086756E+02  0.56896349939E+03  0.61661895317E+03  0.46999998093E+01 0.  1.
       -5    1    3    3    0  502 -0.22182475412E+03  0.85271086756E+02 -0.12415619010E+04  0.12641105268E+04  0.46999998093E+01 0. -1.
</event>
<event>
 5   0  0.1308893E-04  0.1802406E+04  0.7818609E-02  0.8705021E-01
       -1   -1    0    0    0  501  0.00000000000E+00  0.00000000000E+00  0.51246198415E+03  0.51246198418E+03  0.50400001928E-02 0.  1.
        1   -1    0    0  501    0  0.00000000000E+00  0.00000000000E+00 -0.15848341066E+04  0.15848341067E+04  0.50400001928E-02 0. -1.
    10030    2    1    2    0    0  0.00000000000E+00  0.00000000000E+00 -0.10723721225E+04  0.20972960908E+04  0.18024064257E+04 0.  0.
        4    1    3    3  502    0 -0.53684939886E+02 -0.21420234650E+03  0.48049177075E+03  0.52880872976E+03  0.12699999809E+01 0.  1.
       -4    1    3    3    0  502  0.53684939886E+02  0.21420234650E+03 -0.15528638932E+04  0.15684873611E+04  0.12699999809E+01 0. -1.
</event>
<event>
 5   0  0.1239119E-04  0.1808090E+04  0.7818609E-02  0.8702009E-01
        1   -1    0    0  501    0  0.00000000000E+00  0.00000000000E+00  0.92519877311E+03  0.92519877313E+03  0.50400001928E-02 0.  1.
       -1   -1    0    0    0  501  0.00000000000E+00  0.00000000000E+00 -0.88337449668E+03  0.88337449669E+03  0.50400001928E-02 0. -1.
    10030    2    1    2    0    0  0.00000000000E+00  0.00000000000E+00  0.41824276435E+02  0.18085732698E+04  0.18080896002E+04 0.  0.
        5    1    3    3  502    0  0.88020366346E+03 -0.16252047905E+03 -0.10602143464E+03  0.90135122448E+03  0.46999998093E+01 0. -1.
       -5    1    3    3    0  502 -0.88020366346E+03  0.16252047905E+03  0.14784571107E+03  0.90722204534E+03  0.46999998093E+01 0.  1.
</event>
<event>
 5   0  0.2417106E-04  0.1805863E+04  0.7818609E-02  0.8703188E-01
       -2   -1    0    0    0  501  0.00000000000E+00  0.00000000000E+00  0.35603199133E+03  0.35603199134E+03  0.25500000920E-02 0. -1.
        2   -1    0    0  501    0  0.00000000000E+00  0.00000000000E+00 -0.22899211491E+04  0.22899211491E+04  0.25500000920E-02 0.  1.
    10030    2    1    2    0    0  0.00000000000E+00  0.00000000000E+00 -0.19338891578E+04  0.26459531405E+04  0.18058628815E+04 0.  0.
        4    1    3    3  502    0 -0.16425674330E+03  0.53914723680E+03  0.66644331737E+02  0.56754127650E+03  0.12699999809E+01 0. -1.
       -4    1    3    3    0  502  0.16425674330E+03 -0.53914723680E+03 -0.20005334895E+04  0.20784118640E+04  0.12699999809E+01 0.  1.
</event>
<event>
 5   0  0.1330225E-04  0.1803258E+04  0.7818609E-02  0.8704569E-01
       -1   -1    0    0    0  501  0.00000000000E+00  0.00000000000E+00  0.51297458211E+03  0.51297458213E+03  0.50400001928E-02 0.  1.
        1   -1    0    0  501    0  0.00000000000E+00  0.00000000000E+00 -0.15847475100E+04  0.15847475100E+04  0.50400001928E-02 0. -1.
    10030    2    1    2    0    0  0.00000000000E+00  0.00000000000E+00 -0.10717729279E+04  0.20977220921E+04  0.18032583750E+04 0.  0.
        3    1    3    3  502    0  0.16199011384E+03  0.13155181207E+03  0.48449565840E+03  0.52752509841E+03  0.10100000352E+00 0.  1.
       -3    1    3    3    0  502 -0.16199011384E+03 -0.13155181207E+03 -0.15562685863E+04  0.15701969937E+04  0.10100000352E+00 0. -1.
</event>
<event>
 5   0  0.2431811E-04  0.1771604E+04  0.7818609E-02  0.8721548E-01
       -2   -1    0    0    0  501  0.00000000000E+00  0.00000000000E+00  0.34293604386E+03  0.34293604387E+03  0.25500000920E-02 0.  1.
        2   -1    0    0  501    0  0.00000000000E+00  0.00000000000E+00 -0.22880207245E+04  0.22880207245E+04  0.25500000920E-02 0. -1.
    10030    2    1    2    0    0  0.00000000000E+00  0.00000000000E+00 -0.19450846806E+04  0.26309567683E+04  0.17716035398E+04 0.  0.
        3    1    3    3  502    0  0.26578311909E+03  0.76130413049E+02  0.27722066870E+03  0.39151987886E+03  0.10100000352E+00 0.  1.
       -3    1    3    3    0  502 -0.26578311909E+03 -0.76130413049E+02 -0.22223053493E+04  0.22394368895E+04  0.10100000352E+00 0. -1.
</event>
<event>
 5   0  0.2431811E-04  0.1785747E+04  0.7818609E-02  0.8713916E-01
        2   -1    0    0  501    0  0.00000000000E+00  0.00000000000E+00  0.93761056161E+03  0.93761056162E+03  0.25500000920E-02 0. -1.
       -2   -1    0    0    0  501  0.00000000000E+00  0.00000000000E+00 -0.85027105587E+03  0.85027105587E+03  0.25500000920E-02 0.  1.
    10030    2    1    2    0    0  0.00000000000E+00  0.00000000000E+00  0.87339505747E+02  0.17878816175E+04  0.17857470394E+04 0.  0.
        3    1    3    3  502    0 -0.26702069622E+03 -0.79746672578E+02 -0.80561512563E+03  0.85245253525E+03  0.10100000352E+00 0.  1.
       -3    1    3    3    0  502  0.26702069622E+03  0.79746672578E+02  0.89295463138E+03  0.93542908224E+03  0.10100000352E+00 0. -1.
</event>
<event>
 5   0  0.9144875E-05  0.1789388E+04  0.7818609E-02  0.8711963E-01
       -4   -1    0    0    0  501  0.00000000000E+00  0.00000000000E+00  0.16946296661E+04  0.16946301420E+04  0.12699999809E+01 0. -1.
        4   -1    0    0  501    0  0.00000000000E+00  0.00000000000E+00 -0.47235988965E+03  0.47236159692E+03  0.12699999809E+01 0.  1.
    10030    2    1    2    0    0  0.00000000000E+00  0.00000000000E+00  0.12222697765E+04  0.21669917389E+04  0.17893881049E+04 0.  0.
        2    1    3    3  502    0  0.22236675968E+03  0.84253387136E+03  0.85684786672E+03  0.12220877902E+04  0.25500000920E-02 0. -1.
       -2    1    3    3    0  502 -0.22236675968E+03 -0.84253387136E+03  0.36542190974E+03  0.94490394873E+03  0.25500000920E-02 0.  1.
</event>
<event>
 5   0  0.2393421E-04  0.1796333E+04  0.7818609E-02  0.8708252E-01
       -2   -1    0    0    0  501  0.00000000000E+00  0.00000000000E+00  0.45880648611E+03  0.45880648612E+03  0.25500000920E-02 0. -1.
        2   -1    0    0  501    0  0.00000000000E+00  0.00000000000E+00 -0.17582633434E+04  0.17582633434E+04  0.25500000920E-02 0.  1.
    10030    2    1    2    0    0  0.00000000000E+00  0.00000000000E+00 -0.12994568573E+04  0.22170698295E+04  0.17963325152E+04 0.  0.
        5    1    3    3  502    0  0.21083875055E+03 -0.52792022534E+03  0.20850092045E+03  0.60551421692E+03  0.46999998093E+01 0. -1.
       -5    1    3    3    0  502 -0.21083875055E+03  0.52792022534E+03 -0.15079577778E+04  0.16115556126E+04  0.46999998093E+01 0.  1.
</event>
<event>
 5   0  0.1239119E-04  0.1820550E+04  0.7818609E-02  0.8695447E-01
       -1   -1    0    0    0  501  0.00000000000E+00  0.00000000000E+00  0.77478195234E+03  0.77478195236E+03  0.50400001928E-02 0. -1.
        1   -1    0    0  501    0  0.00000000000E+00  0.00000000000E+00 -0.10694627534E+04  0.10694627534E+04  0.50400001928E-02 0.  1.
    10030    2    1    2    0    0  0.00000000000E+00  0.00000000000E+00 -0.29468080105E+03  0.18442447058E+04  0.18205498511E+04 0.  0.
        5    1    3    3  502    0 -0.80826570551E+03 -0.41471022366E+03 -0.89144199338E+02  0.91282353091E+03  0.46999998093E+01 0. -1.
       -5    1    3    3    0  502  0.80826570551E+03  0.41471022366E+03 -0.20553660171E+03  0.93142117485E+03  0.46999998093E+01 0.  1.
</event>
<event>
 5   0  0.1253925E-04  0.1796625E+04  0.7818609E-02  0.8708096E-01
       -1   -1    0    0    0  501  0.00000000000E+00  0.00000000000E+00  0.39410093868E+03  0.39410093871E+03  0.50400001928E-02 0. -1.
        1   -1    0    0  501    0  0.00000000000E+00  0.00000000000E+00 -0.20476111162E+04  0.20476111162E+04  0.50400001928E-02 0.  1.
    10030    2    1    2    0    0  0.00000000000E+00  0.00000000000E+00 -0.16535101775E+04  0.24417120549E+04  0.17966251284E+04 0.  0.
        2    1    3    3  502    0  0.41158663956E+02 -0.76794044350E+03 -0.14577121592E+04  0.16481357042E+04  0.25500000920E-02 0.  1.
       -2    1    3    3    0  502 -0.41158663956E+02  0.76794044350E+03 -0.19579801829E+03  0.79357635068E+03  0.25500000920E-02 0. -1.
</event>
<event>
 5   0  0.2393421E-04  0.1790180E+04  0.7818609E-02  0.8711539E-01
       -2   -1    0    0    0  501  0.00000000000E+00  0.00000000000E+00  0.60022269635E+03  0.60022269635E+03  0.25500000920E-02 0. -1.
        2   -1    0    0  501    0  0.00000000000E+00  0.00000000000E+00 -0.13348140266E+04  0.13348140266E+04  0.25500000920E-02 0.  1.
    10030    2    1    2    0    0  0.00000000000E+00  0.00000000000E+00 -0.73459133030E+03  0.19350367230E+04  0.17901795152E+04 0.  0.
        5    1    3    3  502    0  0.10841571902E+03  0.78013245143E+03  0.92320625552E+02  0.79303581117E+03  0.46999998093E+01 0. -1.
       -5    1    3    3    0  502 -0.10841571902E+03 -0.78013245143E+03 -0.82691195585E+03  0.11420009118E+04  0.46999998093E+01 0.  1.
</event>
<event>
 5   0  0.2550616E-04  0.1802676E+04  0.7818609E-02  0.8704878E-01
       -2   -1    0    0    0  501  0.00000000000E+00  0.00000000000E+00  0.10526781188E+04  0.10526781188E+04  0.25500000920E-02 0. -1.
        2   -1    0    0  501    0  0.00000000000E+00  0.00000000000E+00 -0.77175566039E+03  0.77175566040E+03  0.25500000920E-02 0.  1.
    10030    2    1    2    0    0  0.00000000000E+00  0.00000000000E+00  0.28092245840E+03  0.18244337792E+04  0.18026761182E+04 0.  0.
        1    1    3    3  502    0  0.42211869170E+03 -0.36549299536E+02  0.94560716272E+03  0.10361915592E+04  0.50400001928E-02 0. -1.
       -1    1    3    3    0  502 -0.42211869170E+03  0.36549299536E+02 -0.66468470432E+03  0.78824221998E+03  0.50400001928E-02 0.  1.
</event>
<event>
 5   0  0.1253925E-04  0.1800410E+04  0.7818609E-02  0.8706082E-01
        1   -1    0    0  501    0  0.00000000000E+00  0.00000000000E+00  0.11649624819E+04  0.11649624819E+04  0.50400001928E-02 0.  1.
       -1   -1    0    0    0  501  0.00000000000E+00  0.00000000000E+00 -0.69561792586E+03  0.69561792588E+03  0.50400001928E-02 0. -1.
    10030    2    1    2    0    0  0.00000000000E+00  0.00000000000E+00  0.46934455606E+03  0.18605804078E+04  0.18004097149E+04 0.  0.
        2    1    3    3  502    0 -0.52139091235E+03 -0.21841941608E+03  0.95866673248E+03  0.11129229213E+04  0.25500000920E-02 0.  1.
       -2    1    3    3    0  502  0.52139091235E+03  0.21841941608E+03 -0.48932217642E+03  0.74765748651E+03  0.25500000920E-02 0. -1.
</event>
<event>
 5   0  0.2550616E-04  0.1890664E+04  0.7818609E-02  0.8659518E-01
       -2   -1    0    0    0  501  0.00000000000E+00  0.00000000000E+00  0.10721367321E+04  0.10721367321E+04  0.25500000920E-02 0. -1.
        2   -1    0    0  501    0  0.00000000000E+00  0.00000000000E+00 -0.83352470857E+03  0.83352470858E+03  0.25500000920E-02 0.  1.
    10030    2    1    2    0    0  0.00000000000E+00  0.00000000000E+00  0.23861202348E+03  0.19056614406E+04  0.18906638592E+04 0.  0.
        1    1    3    3  502    0 -0.63616534486E+02 -0.89922784530E+03 -0.16754716238E+03  0.91691320902E+03  0.50400001928E-02 0.  1.
       -1    1    3    3    0  502  0.63616534486E+02  0.89922784530E+03  0.40615918586E+03  0.98874823161E+03  0.50400001928E-02 0. -1.
</event>
<event>
 5   0  0.1308893E-04  0.1767249E+04  0.7818609E-02  0.8723912E-01
       -1   -1    0    0    0  501  0.00000000000E+00  0.00000000000E+00  0.98052182830E+03  0.98052182831E+03  0.50400001928E-02 0.  1.
        1   -1    0    0  501    0  0.00000000000E+00  0.00000000000E+00 -0.79630298523E+03  0.79630298524E+03  0.50400001928E-02 0. -1.
    10030    2    1    2    0    0  0.00000000000E+00  0.00000000000E+00  0.18421884307E+03  0.17768248136E+04  0.17672492286E+04 0.  0.
        4    1    3    3  502    0 -0.51107337590E+03  0.82349962983E+02 -0.62788057820E+03  0.81376479731E+03  0.12699999809E+01 0. -1.
       -4    1    3    3    0  502  0.51107337590E+03 -0.82349962983E+02  0.81209942127E+03  0.96306001624E+03  0.12699999809E+01 0.  1.
</event>
<event>
 5   0  0.2431811E-04  0.1788031E+04  0.7818609E-02  0.8712691E-01
        2   -1    0    0  501    0  0.00000000000E+00  0.00000000000E+00  0.10398202466E+04  0.10398202466E+04  0.25500000920E-02 0.  1.
       -2   -1    0    0    0  501  0.00000000000E+00  0.00000000000E+00 -0.76865526700E+03  0.76865526701E+03  0.25500000920E-02 0. -1.
    10030    2    1    2    0    0  0.00000000000E+00  0.00000000000E+00  0.27116497960E+03  0.18084755136E+04  0.17880305470E+04 0.  0.
        3    1    3    3  502    0  0.70498523828E+03  0.44078834571E+03  0.46791948189E+03  0.95406876253E+03  0.10100000352E+00 0.  1.
       -3    1    3    3    0  502 -0.70498523828E+03 -0.44078834571E+03 -0.19675450230E+03  0.85440675107E+03  0.10100000352E+00 0. -1.
</event>
<event>
 5   0  0.1308893E-04  0.1773480E+04  0.7818609E-02  0.8720531E-01
       -1   -1    0    0    0  501  0.00000000000E+00  0.00000000000E+00  0.99709473676E+03  0.99709473677E+03  0.50400001928E-02 0. -1.
        1   -1    0    0  501    0  0.00000000000E+00  0.00000000000E+00 -0.78859919325E+03  0.78859919326E+03  0.50400001928E-02 0.  1.
    10030    2    1    2    0    0  0.00000000000E+00  0.00000000000E+00  0.20849554351E+03  0.17856939300E+04  0.17734803129E+04 0.  0.
        4    1    3    3  502    0  0.35002810023E+03  0.25462751137E+03 -0.67500173129E+03  0.80186270062E+03  0.12699999809E+01 0.  1.
       -4    1    3    3    0  502 -0.35002810023E+03 -0.25462751137E+03  0.88349727480E+03  0.98383122942E+03  0.12699999809E+01 0. -1.
</event>
<event>
 5   0  0.2431811E-04  0.1816610E+04  0.7818609E-02  0.8697516E-01
        2   -1    0    0  501    0  0.00000000000E+00  0.00000000000E+00  0.51331244872E+03  0.51331244872E+03  0.25500000920E-02 0.  1.
       -2   -1    0    0    0  501  0.00000000000E+00  0.00000000000E+00 -0.16072434567E+04  0.16072434567E+04  0.25500000920E-02 0. -1.
    10030    2    1    2    0    0  0.00000000000E+00  0.00000000000E+00 -0.10939310080E+04  0.21205559055E+04  0.18166101117E+04 0.  0.
        3    1    3    3  502    0 -0.76738113989E+03 -0.25062115724E+03 -0.10329573519E+04  0.13109865290E+04  0.10100000352E+00 0. -1.
       -3    1    3    3    0  502  0.76738113989E+03  0.25062115724E+03 -0.60973656151E+02  0.80956937644E+03  0.10100000352E+00 0.  1.
</event>
<event>
 5   0  0.2417106E-04  0.1776428E+04  0.7818609E-02  0.8718936E-01
        2   -1    0    0  501    0  0.00000000000E+00  0.00000000000E+00  0.11325632396E+04  0.11325632396E+04  0.25500000920E-02 0.  1.
       -2   -1    0    0    0  501  0.00000000000E+00  0.00000000000E+00 -0.69658265669E+03  0.69658265669E+03  0.25500000920E-02 0. -1.
    10030    2    1    2    0    0  0.00000000000E+00  0.00000000000E+00  0.43598058291E+03  0.18291458963E+04  0.17764277754E+04 0.  0.
        4    1    3    3  502    0 -0.34159092183E+03  0.94113803298E+02 -0.62066241540E+03  0.71467839805E+03  0.12699999809E+01 0. -1.
       -4    1    3    3    0  502  0.34159092183E+03 -0.94113803298E+02  0.10566429983E+04  0.11144674982E+04  0.12699999809E+01 0.  1.
</event>
<event>
 5   0  0.2569405E-04  0.1801255E+04  0.7818609E-02  0.8705632E-01
        2   -1    0    0  501    0  0.00000000000E+00  0.00000000000E+00  0.94037431465E+03  0.94037431465E+03  0.25500000920E-02 0.  1.
       -2   -1    0    0    0  501  0.00000000000E+00  0.00000000000E+00 -0.86256083713E+03  0.86256083714E+03  0.25500000920E-02 0. -1.
    10030    2    1    2    0    0  0.00000000000E+00  0.00000000000E+00  0.77813477517E+02  0.18029351518E+04  0.18012551802E+04 0.  0.
        2    1    3    3  502    0  0.28434505421E+03 -0.51284460785E+03  0.72311458187E+03  0.93099752963E+03  0.25500000920E-02 0.  1.
       -2    1    3    3    0  502 -0.28434505421E+03  0.51284460785E+03 -0.64530110435E+03  0.87193762216E+03  0.25500000920E-02 0. -1.
</event>
<event>
 5   0  0.2569405E-04  0.1774498E+04  0.7818609E-02  0.8719980E-01
        2   -1    0    0  501    0  0.00000000000E+00  0.00000000000E+00  0.24618097310E+04  0.24618097310E+04  0.25500000920E-02 0. -1.
       -2   -1    0    0    0  501  0.00000000000E+00  0.00000000000E+00 -0.31976909697E+03  0.31976909698E+03  0.25500000920E-02 0.  1.
    10030    2    1    2    0    0  0.00000000000E+00  0.00000000000E+00  0.21420406340E+04  0.27815788280E+04  0.17744978722E+04 0.  0.
        2    1    3    3  502    0 -0.29705884207E+03 -0.37598001117E+02  0.23802158915E+04  0.23989758764E+04  0.25500000920E-02 0. -1.
       -2    1    3    3    0  502  0.29705884207E+03  0.37598001117E+02 -0.23817525743E+03  0.38260295163E+03  0.25500000920E-02 0.  1.
</event>
<event>
 5   0  0.1253925E-04  0.1824468E+04  0.7818609E-02  0.8693395E-01
        1   -1    0    0  501    0  0.00000000000E+00  0.00000000000E+00  0.90793292139E+03  0.90793292141E+03  0.50400001928E-02 0.  1.
       -1   -1    0    0    0  501  0.00000000000E+00  0.00000000000E+00 -0.91655517854E+03  0.91655517855E+03  0.50400001928E-02 0. -1.
    10030    2    1    2    0    0  0.00000000000E+00  0.00000000000E+00 -0.86222571460E+01  0.18244881000E+04  0.18244677261E+04 0.  0.
        2    1    3    3  502    0 -0.41991876588E+03  0.74034371769E+03 -0.33253732601E+03  0.91379519777E+03  0.25500000920E-02 0. -1.
       -2    1    3    3    0  502  0.41991876588E+03 -0.74034371769E+03  0.32391506887E+03  0.91069290219E+03  0.25500000920E-02 0.  1.
</event>
<event>
 5   0  0.2569405E-04  0.1791174E+04  0.7818609E-02  0.8711007E-01
       -2   -1    0    0    0  501  0.00000000000E+00  0.00000000000E+00  0.11829130492E+04  0.11829130492E+04  0.25500000920E-02 0. -1.
        2   -1    0    0  501    0  0.00000000000E+00  0.00000000000E+00 -0.67805146593E+03  0.67805146593E+03  0.25500000920E-02 0.  1.
    10030    2    1    2    0    0  0.00000000000E+00  0.00000000000E+00  0.50486158326E+03  0.18609645151E+04  0.17911738353E+04 0.  0.
        2    1    3    3  502    0 -0.84177535578E+02  0.84634170270E+03 -0.39027295518E+02  0.85141251167E+03  0.25500000920E-02 0.  1.
       -2    1    3    3    0  502  0.84177535578E+02 -0.84634170270E+03  0.54388887877E+03  0.10095520035E+04  0.25500000920E-02 0. -1.
</event>
<event>
 5   0  0.2393421E-04  0.1798697E+04  0.7818609E-02  0.8706993E-01
       -2   -1    0    0    0  501  0.00000000000E+00  0.00000000000E+00  0.36204878125E+03  0.36204878126E+03  0.25500000920E-02 0.  1.
        2   -1    0    0  501    0  0.00000000000E+00  0.00000000000E+00 -0.22340305233E+04  0.22340305233E+04  0.25500000920E-02 0. -1.
    10030    2    1    2    0    0  0.00000000000E+00  0.00000000000E+00 -0.18719817421E+04  0.25960793046E+04  0.17986973378E+04 0.  0.
        5    1    3    3  502    0 -0.88785887363E+03  0.84207407027E+02 -0.11032012241E+04  0.14186117502E+04  0.46999998093E+01 0.  1.
       -5    1    3    3    0  502  0.88785887363E+03 -0.84207407027E+02 -0.76878051795E+03  0.11774675544E+04  0.46999998093E+01 0. -1.
</event>
<event>
 5   0  0.2393421E-04  0.1827448E+04  0.7818609E-02  0.8691837E-01
       -2   -1    0    0    0  501  0.00000000000E+00  0.00000000000E+00  0.96222702008E+03  0.96222702008E+03  0.25500000920E-02 0. -1.
        2   -1    0    0  501    0  0.00000000000E+00  0.00000000000E+00 -0.86766627026E+03  0.86766627027E+03  0.25500000920E-02 0.  1.
    10030    2    1    2    0    0  0.00000000000E+00  0.00000000000E+00  0.94560749814E+02  0.18298932903E+04  0.18274484175E+04 0.  0.
        5    1    3    3  502    0  0.61736066926E+03  0.66365191990E+03 -0.68207237395E+02  0.90897875881E+03  0.46999998093E+01 0. -1.
       -5    1    3    3    0  502 -0.61736066926E+03 -0.66365191990E+03  0.16276798721E+03  0.92091453154E+03  0.46999998093E+01 0.  1.
</event>
<event>
 5   0  0.2431811E-04  0.1781287E+04  0.7818609E-02  0.8716315E-01
        2   -1    0    0  501    0  0.00000000000E+00  0.00000000000E+00  0.26805725483E+04  0.26805725483E+04  0.25500000920E-02 0. -1.
       -2   -1    0    0    0  501  0.00000000000E+00  0.00000000000E+00 -0.29592399172E+03  0.29592399173E+03  0.25500000920E-02 0.  1.
    10030    2    1    2    0    0  0.00000000000E+00  0.00000000000E+00  0.23846485566E+04  0.29764965400E+04  0.17812868703E+04 0.  0.
        3    1    3    3  502    0  0.63162239869E+03  0.32550520608E+03  0.29504446554E+03  0.76938400071E+03  0.10100000352E+00 0. -1.
       -3    1    3    3    0  502 -0.63162239869E+03 -0.32550520608E+03  0.20896040910E+04  0.22071125393E+04  0.10100000352E+00 0.  1.
</event>
<event>
 5   0  0.1239119E-04  0.1790171E+04  0.7818609E-02  0.8711544E-01
       -1   -1    0    0    0  501  0.00000000000E+00  0.00000000000E+00  0.13559148056E+04  0.13559148056E+04  0.50400001928E-02 0. -1.
        1   -1    0    0  501    0  0.00000000000E+00  0.00000000000E+00 -0.59087647414E+03  0.59087647416E+03  0.50400001928E-02 0.  1.
    10030    2    1    2    0    0  0.00000000000E+00  0.00000000000E+00  0.76503833149E+03  0.19467912798E+04  0.17901711199E+04 0.  0.
        5    1    3    3  502    0 -0.88855482963E+03 -0.93870724339E+02  0.44021423533E+03  0.99606830144E+03  0.46999998093E+01 0.  1.
       -5    1    3    3    0  502  0.88855482963E+03  0.93870724339E+02  0.32482409615E+03  0.95072297836E+03  0.46999998093E+01 0. -1.
</event>
<event>
 5   0  0.1214723E-04  0.1811296E+04  0.7818609E-02  0.8700316E-01
        1   -1    0    0  501    0  0.00000000000E+00  0.00000000000E+00  0.68862824832E+03  0.68862824834E+03  0.50400001928E-02 0. -1.
       -1   -1    0    0    0  501  0.00000000000E+00  0.00000000000E+00 -0.11910605907E+04  0.11910605907E+04  0.50400001928E-02 0.  1.
    10030    2    1    2    0    0  0.00000000000E+00  0.00000000000E+00 -0.50243234237E+03  0.18796888390E+04  0.18112956338E+04 0.  0.
        1    1    3    3  502    0 -0.14949260837E+03 -0.37535383078E+03 -0.10923515458E+04  0.11646761085E+04  0.50400001928E-02 0.  1.
       -1    1    3    3    0  502  0.14949260837E+03  0.37535383078E+03  0.58991920339E+03  0.71501273051E+03  0.50400001928E-02 0. -1.
</event>
<event>
 5   0  0.2431811E-04  0.1812968E+04  0.7818609E-02  0.8699433E-01
        2   -1    0    0  501    0  0.00000000000E+00  0.00000000000E+00  0.12538329164E+04  0.12538329164E+04  0.25500000920E-02 0. -1.
       -2   -1    0    0    0  501  0.00000000000E+00  0.00000000000E+00 -0.65536121471E+03  0.65536121472E+03  0.25500000920E-02 0.  1.
    10030    2    1    2    0    0  0.00000000000E+00  0.00000000000E+00  0.59847170166E+03  0.19091941311E+04  0.18129682437E+04 0.  0.
        3    1    3    3  502    0 -0.87621082753E+03  0.22586245868E+03  0.24199857068E+03  0.93665499675E+03  0.10100000352E+00 0. -1.
       -3    1    3    3    0  502  0.87621082753E+03 -0.22586245868E+03  0.35647313098E+03  0.97253913434E+03  0.10100000352E+00 0.  1.
</event>
<event>
 5   0  0.9144875E-05  0.1785674E+04  0.7818609E-02  0.8713955E-01
        4   -1    0    0  501    0  0.00000000000E+00  0.00000000000E+00  0.35239160397E+03  0.35239389246E+03  0.12699999809E+01 0. -1.
       -4   -1    0    0    0  501  0.00000000000E+00  0.00000000000E+00 -0.22621265656E+04  0.22621269221E+04  0.12699999809E+01 0.  1.
    10030    2    1    2    0    0  0.00000000000E+00  0.00000000000E+00 -0.19097349616E+04  0.26145208146E+04  0.17856739529E+04 0.  0.
        5    1    3    3  502    0  0.48327384751E+03  0.73107383054E+03 -0.12046919968E+04  0.14897407340E+04  0.46999998093E+01 0.  1.
       -5    1    3    3    0  502 -0.48327384751E+03 -0.73107383054E+03 -0.70504296482E+03  0.11247800806E+04  0.46999998093E+01 0. -1.
</event>
<event>
 5   0  0.2417106E-04  0.1778002E+04  0.7818609E-02  0.8718086E-01
       -2   -1    0    0    0  501  0.00000000000E+00  0.00000000000E+00  0.96250549598E+03  0.96250549599E+03  0.25500000920E-02 0. -1.
        2   -1    0    0  501    0  0.00000000000E+00  0.00000000000E+00 -0.82110959049E+03  0.82110959049E+03  0.25500000920E-02 0.  1.
    10030    2    1    2    0    0  0.00000000000E+00  0.00000000000E+00  0.14139590549E+03  0.17836150865E+04  0.17780016802E+04 0.  0.
        4    1    3    3  502    0  0.43157931120E+03  0.21821228319E+03 -0.67760858145E+03  0.83248561846E+03  0.12699999809E+01 0.  1.
       -4    1    3    3    0  502 -0.43157931120E+03 -0.21821228319E+03  0.81900448695E+03  0.95112946802E+03  0.12699999809E+01 0. -1.
</event>
<event>
 5   0  0.9144875E-05  0.1807658E+04  0.7818609E-02  0.8702238E-01
       -3   -1    0    0    0  501  0.00000000000E+00  0.00000000000E+00  0.11901839947E+04  0.11901839990E+04  0.10100000352E+00 0. -1.
        3   -1    0    0  501    0  0.00000000000E+00  0.00000000000E+00 -0.68637013590E+03  0.68637014333E+03  0.10100000352E+00 0.  1.
    10030    2    1    2    0    0  0.00000000000E+00  0.00000000000E+00  0.50381385881E+03  0.18765541423E+04  0.18076578893E+04 0.  0.
        5    1    3    3  502    0 -0.55002710216E+03  0.56045041205E+03  0.71645571670E+03  0.10629982886E+04  0.46999998093E+01 0. -1.
       -5    1    3    3    0  502  0.55002710216E+03 -0.56045041205E+03 -0.21264185789E+03  0.81355585377E+03  0.46999998093E+01 0.  1.
</event>
<event>
 5   0  0.1308893E-04  0.1756699E+04  0.7818609E-02  0.8729672E-01
        1   -1    0    0  501    0  0.00000000000E+00  0.00000000000E+00  0.28112387526E+04  0.28112387526E+04  0.50400001928E-02 0.  1.
       -1   -1    0    0    0  501  0.00000000000E+00  0.00000000000E+00 -0.27443334748E+03  0.27443334752E+03  0.50400001928E-02 0. -1.
    10030    2    1    2    0    0  0.00000000000E+00  0.00000000000E+00  0.25368054052E+04  0.30856721002E+04  0.17566987921E+04 0.  0.
        4    1    3    3  502    0  0.82812449355E+03  0.42888562232E+02  0.17770849520E+04  0.19610359877E+04  0.12699999809E+01 0.  1.
       -4    1    3    3    0  502 -0.82812449355E+03 -0.42888562232E+02  0.75972045316E+03  0.11246361124E+04  0.12699999809E+01 0. -1.
</event>
<event>
 5   0  0.2417106E-04  0.1804555E+04  0.7818609E-02  0.8703881E-01
       -2   -1    0    0    0  501  0.00000000000E+00  0.00000000000E+00  0.47475394259E+03  0.47475394260E+03  0.25500000920E-02 0. -1.
        2   -1    0    0  501    0  0.00000000000E+00  0.00000000000E+00 -0.17147936395E+04  0.17147936395E+04  0.25500000920E-02 0.  1.
    10030    2    1    2    0    0  0.00000000000E+00  0.00000000000E+00 -0.12400396969E+04  0.21895475821E+04  0.18045553924E+04 0.  0.
        4    1    3    3  502    0 -0.27688171705E+03  0.72294056596E+02  0.41823278036E+03  0.50676442981E+03  0.12699999809E+01 0. -1.
       -4    1    3    3    0  502  0.27688171705E+03 -0.72294056596E+02 -0.16582724773E+04  0.16827831523E+04  0.12699999809E+01 0.  1.
</event>
<event>
 5   0  0.2550616E-04  0.1798115E+04  0.7818609E-02  0.8707302E-01
        2   -1    0    0  501    0  0.00000000000E+00  0.00000000000E+00  0.19826812138E+04  0.19826812138E+04  0.25500000920E-02 0. -1.
       -2   -1    0    0    0  501  0.00000000000E+00  0.00000000000E+00 -0.40768269203E+03  0.40768269203E+03  0.25500000920E-02 0.  1.
    10030    2    1    2    0    0  0.00000000000E+00  0.00000000000E+00  0.15749985217E+04  0.23903639058E+04  0.17981154742E+04 0.  0.
        1    1    3    3  502    0 -0.75238120364E+03  0.19786164867E+03  0.13865698478E+04  0.15899064911E+04  0.50400001928E-02 0. -1.
       -1    1    3    3    0  502  0.75238120364E+03 -0.19786164867E+03  0.18842867398E+03  0.80045741474E+03  0.50400001928E-02 0.  1.
</event>
<event>
 5   0  0.2569405E-04  0.1798224E+04  0.7818609E-02  0.8707245E-01
        2   -1    0    0  501    0  0.00000000000E+00  0.00000000000E+00  0.77778923043E+03  0.77778923044E+03  0.25500000920E-02 0. -1.
       -2   -1    0    0    0  501  0.00000000000E+00  0.00000000000E+00 -0.10393590804E+04  0.10393590804E+04  0.25500000920E-02 0.  1.
    10030    2    1    2    0    0  0.00000000000E+00  0.00000000000E+00 -0.26156984994E+03  0.18171483108E+04  0.17982239007E+04 0.  0.
        2    1    3    3  502    0 -0.24118057246E+03  0.85726671682E+03 -0.56756654619E+01  0.89056527301E+03  0.25500000920E-02 0. -1.
       -2    1    3    3    0  502  0.24118057246E+03 -0.85726671682E+03 -0.25589418448E+03  0.92658303781E+03  0.25500000920E-02 0.  1.
</event>
<event>
 5   0  0.1330225E-04  0.1800417E+04  0.7818609E-02  0.8706078E-01
        1   -1    0    0  501    0  0.00000000000E+00  0.00000000000E+00  0.18525078663E+04  0.18525078663E+04  0.50400001928E-02 0. -1.
       -1   -1    0    0    0  501  0.00000000000E+00  0.00000000000E+00 -0.43744780421E+03  0.43744780424E+03  0.50400001928E-02 0.  1.
    10030    2    1    2    0    0  0.00000000000E+00  0.00000000000E+00  0.14150600621E+04  0.22899556706E+04  0.18004171722E+04 0.  0.
        3    1    3    3  502    0 -0.70166452143E+03 -0.79913298701E+02 -0.25247412645E+01  0.70620508386E+03  0.10100000352E+00 0.  1.
       -3    1    3    3    0  502  0.70166452143E+03  0.79913298701E+02  0.14175848034E+04  0.15837505867E+04  0.10100000352E+00 0. -1.
</event>
<event>
 5   0  0.9144875E-05  0.1802330E+04  0.7818609E-02  0.8705062E-01
        3   -1    0    0  501    0  0.00000000000E+00  0.00000000000E+00  0.14766813172E+04  0.14766813207E+04  0.10100000352E+00 0. -1.
       -3   -1    0    0    0  501  0.00000000000E+00  0.00000000000E+00 -0.54994810894E+03  0.54994811822E+03  0.10100000352E+00 0.  1.
    10030    2    1    2    0    0  0.00000000000E+00  0.00000000000E+00  0.92673320830E+03  0.20266294389E+04  0.18023297266E+04 0.  0.
        3    1    3    3  502    0  0.55793833770E+03  0.50020526614E+03  0.10262631168E+04  0.12707149531E+04  0.10100000352E+00 0. -1.
       -3    1    3    3    0  502 -0.55793833770E+03 -0.50020526614E+03 -0.99529908509E+02  0.75591448580E+03  0.10100000352E+00 0.  1.
</event>
<event>
 5   0  0.1214723E-04  0.1775939E+04  0.7818609E-02  0.8719200E-01
        1   -1    0    0  501    0  0.00000000000E+00  0.00000000000E+00  0.25022514456E+04  0.25022514456E+04  0.50400001928E-02 0.  1.
       -1   -1    0    0    0  501  0.00000000000E+00  0.00000000000E+00 -0.31511217290E+03  0.31511217294E+03  0.50400001928E-02 0. -1.
    10030    2    1    2    0    0  0.00000000000E+00  0.00000000000E+00  0.21871392727E+04  0.28173636186E+04  0.17759390645E+04 0.  0.
        1    1    3    3  502    0  0.54401387433E+03  0.56475528690E+03  0.43260607230E+03  0.89557112691E+03  0.50400001928E-02 0. -1.
       -1    1    3    3    0  502 -0.54401387433E+03 -0.56475528690E+03  0.17545332004E+04  0.19217924916E+04  0.50400001928E-02 0.  1.
</event>
<event>
 5   0  0.1253925E-04  0.1869866E+04  0.7818609E-02  0.8670003E-01
       -1   -1    0    0    0  501  0.00000000000E+00  0.00000000000E+00  0.10022456577E+04  0.10022456577E+04  0.50400001928E-02 0.  1.
        1   -1    0    0  501    0  0.00000000000E+00  0.00000000000E+00 -0.87214118563E+03  0.87214118565E+03  0.50400001928E-02 0. -1.
    10030    2    1    2    0    0  0.00000000000E+00  0.00000000000E+00  0.13010447210E+03  0.18743868434E+04  0.18698660019E+04 0.  0.
        2    1    3    3  502    0  0.83082980037E+03  0.42744528749E+03  0.98480805102E+02  0.93951375719E+03  0.25500000920E-02 0.  1.
       -2    1    3    3    0  502 -0.83082980037E+03 -0.42744528749E+03  0.31623667002E+02  0.93487308620E+03  0.25500000920E-02 0. -1.
</event>
<event>
 5   0  0.2569405E-04  0.1772747E+04  0.7818609E-02  0.8720928E-01
        2   -1    0    0  501    0  0.00000000000E+00  0.00000000000E+00  0.88890592817E+03  0.88890592818E+03  0.25500000920E-02 0.  1.
       -2   -1    0    0    0  501  0.00000000000E+00  0.00000000000E+00 -0.88384821755E+03  0.88384821755E+03  0.25500000920E-02 0. -1.
    10030    2    1    2    0    0  0.00000000000E+00  0.00000000000E+00  0.50577106237E+01  0.17727541457E+04  0.17727469308E+04 0.  0.
        2    1    3    3  502    0  0.12348460938E+03  0.82973040127E+02  0.87633155672E+03  0.88887005319E+03  0.25500000920E-02 0.  1.
       -2    1    3    3    0  502 -0.12348460938E+03 -0.82973040127E+02 -0.87127384610E+03  0.88388409254E+03  0.25500000920E-02 0. -1.
</event>
<event>
 5   0  0.2393421E-04  0.1799431E+04  0.7818609E-02  0.8706602E-01
       -2   -1    0    0    0  501  0.00000000000E+00  0.00000000000E+00  0.56193509462E+03  0.56193509463E+03  0.25500000920E-02 0.  1.
        2   -1    0    0  501    0  0.00000000000E+00  0.00000000000E+00 -0.14405370857E+04  0.14405370857E+04  0.25500000920E-02 0. -1.
    10030    2    1    2    0    0  0.00000000000E+00  0.00000000000E+00 -0.87860199105E+03  0.20024721803E+04  0.17994314030E+04 0.  0.
        5    1    3    3  502    0  0.51059082881E+03  0.71573949442E+03 -0.22675153312E+03  0.90797817491E+03  0.46999998093E+01 0.  1.
       -5    1    3    3    0  502 -0.51059082881E+03 -0.71573949442E+03 -0.65185045792E+03  0.10944940054E+04  0.46999998093E+01 0. -1.
</event>
<event>
 5   0  0.1214723E-04  0.1797039E+04  0.7818609E-02  0.8707876E-01
        1   -1    0    0  501    0  0.00000000000E+00  0.00000000000E+00  0.68797935134E+03  0.68797935136E+03  0.50400001928E-02 0. -1.
       -1   -1    0    0    0  501  0.00000000000E+00  0.00000000000E+00 -0.11734909824E+04  0.11734909825E+04  0.50400001928E-02 0.  1.
    10030    2    1    2    0    0  0.00000000000E+00  0.00000000000E+00 -0.48551163110E+03  0.18614703338E+04  0.17970393039E+04 0.  0.
        1    1    3    3  502    0 -0.67912477714E+03  0.28987226891E+03 -0.77306973074E+03  0.10690524795E+04  0.50400001928E-02 0. -1.
       -1    1    3    3    0  502  0.67912477714E+03 -0.28987226891E+03  0.28755809965E+03  0.79241785436E+03  0.50400001928E-02 0.  1.
</event>
<event>
 5   0  0.2550616E-04  0.1810741E+04  0.7818609E-02  0.8700608E-01
        2   -1    0    0  501    0  0.00000000000E+00  0.00000000000E+00  0.19493554684E+04  0.19493554684E+04  0.25500000920E-02 0. -1.
       -2   -1    0    0    0  501  0.00000000000E+00  0.00000000000E+00 -0.42049589184E+03  0.42049589185E+03  0.25500000920E-02 0.  1.
    10030    2    1    2    0    0  0.00000000000E+00  0.00000000000E+00  0.15288595765E+04  0.23698513602E+04  0.18107412473E+04 0.  0.
        1    1    3    3  502    0 -0.47034577698E+03 -0.47937335274E+03  0.15590960832E+04  0.16975878646E+04  0.50400001928E-02 0. -1.
       -1    1    3    3    0  502  0.47034577698E+03  0.47937335274E+03 -0.30236506667E+02  0.67226349566E+03  0.50400001928E-02 0.  1.
</event>
<event>
 5   0  0.1214723E-04  0.1812708E+04  0.7818609E-02  0.8699571E-01
       -1   -1    0    0    0  501  0.00000000000E+00  0.00000000000E+00  0.68475292326E+03  0.68475292327E+03  0.50400001928E-02 0.  1.
        1   -1    0    0  501    0  0.00000000000E+00  0.00000000000E+00 -0.11996695776E+04  0.11996695777E+04  0.50400001928E-02 0. -1.
    10030    2    1    2    0    0  0.00000000000E+00  0.00000000000E+00 -0.51491665439E+03  0.18844225009E+04  0.18127076436E+04 0.  0.
        1    1    3    3  502    0 -0.10459201822E+03  0.69604117413E+03 -0.85106973280E+03  0.11044150019E+04  0.50400001928E-02 0. -1.
       -1    1    3    3    0  502  0.10459201822E+03 -0.69604117413E+03  0.33615307841E+03  0.78000749901E+03  0.50400001928E-02 0.  1.
</event>
<event>
 5   0  0.2393421E-04  0.1735683E+04  0.7818609E-02  0.8741271E-01
        2   -1    0    0  501    0  0.00000000000E+00  0.00000000000E+00  0.17229052932E+04  0.17229052932E+04  0.25500000920E-02 0. -1.
       -2   -1    0    0    0  501  0.00000000000E+00  0.00000000000E+00 -0.43713884811E+03  0.43713884811E+03  0.25500000920E-02 0.  1.
    10030    2    1    2    0    0  0.00000000000E+00  0.00000000000E+00  0.12857664451E+04  0.21600441413E+04  0.17356829610E+04 0.  0.
        5    1    3    3  502    0 -0.36976688419E+03 -0.52383320167E+03  0.13706697175E+04  0.15132370391E+04  0.46999998093E+01 0. -1.
       -5    1    3    3    0  502  0.36976688419E+03  0.52383320167E+03 -0.84903272474E+02  0.64680710222E+03  0.46999998093E+01 0.  1.
</event>
<event>
 5   0  0.2417106E-04  0.1795175E+04  0.7818609E-02  0.8708870E-01
       -2   -1    0    0    0  501  0.00000000000E+00  0.00000000000E+00  0.37457460961E+03  0.37457460962E+03  0.25500000920E-02 0. -1.
        2   -1    0    0  501    0  0.00000000000E+00  0.00000000000E+00 -0.21508747208E+04  0.21508747208E+04  0.25500000920E-02 0.  1.
    10030    2    1    2    0    0  0.00000000000E+00  0.00000000000E+00 -0.17763001112E+04  0.25254493304E+04  0.17951747089E+04 0.  0.
        4    1    3    3  502    0 -0.83296785243E+02 -0.88903610470E+03 -0.75969234495E+03  0.11723726463E+04  0.12699999809E+01 0. -1.
       -4    1    3    3    0  502  0.83296785243E+02  0.88903610470E+03 -0.10166077662E+04  0.13530766841E+04  0.12699999809E+01 0.  1.
</event>
<event>
 5   0  0.2393421E-04  0.1816673E+04  0.7818609E-02  0.8697483E-01
       -2   -1    0    0    0  501  0.00000000000E+00  0.00000000000E+00  0.38313592870E+03  0.38313592871E+03  0.25500000920E-02 0. -1.
        2   -1    0    0  501    0  0.00000000000E+00  0.00000000000E+00 -0.21534784489E+04  0.21534784489E+04  0.25500000920E-02 0.  1.
    10030    2    1    2    0    0  0.00000000000E+00  0.00000000000E+00 -0.17703425201E+04  0.25366143776E+04  0.18166727448E+04 0.  0.
        5    1    3    3  502    0 -0.28839317646E+03 -0.67170982570E+03 -0.13235078660E+03  0.74290210316E+03  0.46999998093E+01 0. -1.
       -5    1    3    3    0  502  0.28839317646E+03  0.67170982570E+03 -0.16379917335E+04  0.17937122744E+04  0.46999998093E+01 0.  1.
</event>
<event>
 5   0  0.2393421E-04  0.1803857E+04  0.7818609E-02  0.8704251E-01
       -2   -1    0    0    0  501  0.00000000000E+00  0.00000000000E+00  0.63624475090E+03  0.63624475090E+03  0.25500000920E-02 0.  1.
        2   -1    0    0  501    0  0.00000000000E+00  0.00000000000E+00 -0.12785565764E+04  0.12785565764E+04  0.25500000920E-02 0. -1.
    10030    2    1    2    0    0  0.00000000000E+00  0.00000000000E+00 -0.64231182547E+03  0.19148013273E+04  0.18038568795E+04 0.  0.
        5    1    3    3  502    0  0.45437707812E+03  0.77893195929E+03 -0.33824890045E+03  0.96313443245E+03  0.46999998093E+01 0.  1.
       -5    1    3    3    0  502 -0.45437707812E+03 -0.77893195929E+03 -0.30406292502E+03  0.95166689482E+03  0.46999998093E+01 0. -1.
</event>
<event>
 5   0  0.9144875E-05  0.1771549E+04  0.7818609E-02  0.8721577E-01
       -4   -1    0    0    0  501  0.00000000000E+00  0.00000000000E+00  0.93604891444E+03  0.93604977599E+03  0.12699999809E+01 0.  1.
        4   -1    0    0  501    0  0.00000000000E+00  0.00000000000E+00 -0.83819896308E+03  0.83819992520E+03  0.12699999809E+01 0. -1.
    10030    2    1    2    0    0  0.00000000000E+00  0.00000000000E+00  0.97849951362E+02  0.17742497012E+04  0.17715494318E+04 0.  0.
        2    1    3    3  502    0  0.20292637654E+03 -0.84252078868E+03 -0.13459311312E+03  0.87700381969E+03  0.25500000920E-02 0. -1.
       -2    1    3    3    0  502 -0.20292637654E+03  0.84252078868E+03  0.23244306448E+03  0.89724588150E+03  0.25500000920E-02 0.  1.
</event>
<event>
 5   0  0.2550616E-04  0.1806790E+04  0.7818609E-02  0.8702697E-01
        2   -1    0    0  501    0  0.00000000000E+00  0.00000000000E+00  0.13540060616E+04  0.13540060616E+04  0.25500000920E-02 0.  1.
       -2   -1    0    0    0  501  0.00000000000E+00  0.00000000000E+00 -0.60274685558E+03  0.60274685559E+03  0.25500000920E-02 0. -1.
    10030    2    1    2    0    0  0.00000000000E+00  0.00000000000E+00  0.75125920602E+03  0.19567529172E+04  0.18067904096E+04 0.  0.
        1    1    3    3  502    0  0.12980547919E+03  0.33394716208E+03  0.12737702956E+04  0.13232010186E+04  0.50400001928E-02 0.  1.
       -1    1    3    3    0  502 -0.12980547919E+03 -0.33394716208E+03 -0.52251108960E+03  0.63355189864E+03  0.50400001928E-02 0. -1.
</event>
<event>
 5   0  0.1253925E-04  0.1862737E+04  0.7818609E-02  0.8673630E-01
       -1   -1    0    0    0  501  0.00000000000E+00  0.00000000000E+00  0.10087310533E+04  0.10087310533E+04  0.50400001928E-02 0. -1.
        1   -1    0    0  501    0  0.00000000000E+00  0.00000000000E+00 -0.85993948264E+03  0.85993948266E+03  0.50400001928E-02 0.  1.
    10030    2    1    2    0    0  0.00000000000E+00  0.00000000000E+00  0.14879157063E+03  0.18686705359E+04  0.18627374051E+04 0.  0.
        2    1    3    3  502    0 -0.90897510281E+03  0.11453083258E+03 -0.93752566081E+02  0.92094657434E+03  0.25500000920E-02 0.  1.
       -2    1    3    3    0  502  0.90897510281E+03 -0.11453083258E+03  0.24254413671E+03  0.94772396160E+03  0.25500000920E-02 0. -1.
</event>
<event>
 5   0  0.2417106E-04  0.1734980E+04  0.7818609E-02  0.8741662E-01
       -2   -1    0    0    0  501  0.00000000000E+00  0.00000000000E+00  0.34779993745E+03  0.34779993746E+03  0.25500000920E-02 0. -1.
        2   -1    0    0  501    0  0.00000000000E+00  0.00000000000E+00 -0.21637113499E+04  0.21637113499E+04  0.25500000920E-02 0.  1.
    10030    2    1    2    0    0  0.00000000000E+00  0.00000000000E+00 -0.18159114124E+04  0.25115112873E+04  0.17349797372E+04 0.  0.
        4    1    3    3  502    0  0.27595289313E+03 -0.79807218553E+03 -0.62037321356E+03  0.10478233389E+04  0.12699999809E+01 0. -1.
       -4    1    3    3    0  502 -0.27595289313E+03  0.79807218553E+03 -0.11955381988E+04  0.14636879484E+04  0.12699999809E+01 0.  1.
</event>
<event>
 5   0  0.1330225E-04  0.1792034E+04  0.7818609E-02  0.8710547E-01
        1   -1    0    0  501    0  0.00000000000E+00  0.00000000000E+00  0.13234993382E+04  0.13234993382E+04  0.50400001928E-02 0.  1.
       -1   -1    0    0    0  501  0.00000000000E+00  0.00000000000E+00 -0.60660895672E+03  0.60660895674E+03  0.50400001928E-02 0. -1.
    10030    2    1    2    0    0  0.00000000000E+00  0.00000000000E+00  0.71689038146E+03  0.19301082949E+04  0.17920340988E+04 0.  0.
        3    1    3    3  502    0  0.86230878944E+02  0.57454710649E+03  0.10931365317E+04  0.12379368438E+04  0.10100000352E+00 0.  1.
       -3    1    3    3    0  502 -0.86230878944E+02 -0.57454710649E+03 -0.37624615021E+03  0.69217145117E+03  0.10100000352E+00 0. -1.
</event>
<event>
 5   0  0.2431811E-04  0.1801677E+04  0.7818609E-02  0.8705408E-01
        2   -1    0    0  501    0  0.00000000000E+00  0.00000000000E+00  0.79547021424E+03  0.79547021424E+03  0.25500000920E-02 0. -1.
       -2   -1    0    0    0  501  0.00000000000E+00  0.00000000000E+00 -0.10201643791E+04  0.10201643791E+04  0.25500000920E-02 0.  1.
    10030    2    1    2    0    0  0.00000000000E+00  0.00000000000E+00 -0.22469416488E+03  0.18156345934E+04  0.18016774153E+04 0.  0.
        3    1    3    3  502    0  0.20681770959E+03  0.78703210280E+02 -0.99234870232E+03  0.10167220454E+04  0.10100000352E+00 0.  1.
       -3    1    3    3    0  502 -0.20681770959E+03 -0.78703210280E+02  0.76765453744E+03  0.79891254801E+03  0.10100000352E+00 0. -1.
</event>
<event>
 5   0  0.1308893E-04  0.1735770E+04  0.7818609E-02  0.8741222E-01
       -1   -1    0    0    0  501  0.00000000000E+00  0.00000000000E+00  0.95072999019E+03  0.95072999021E+03  0.50400001928E-02 0. -1.
        1   -1    0    0  501    0  0.00000000000E+00  0.00000000000E+00 -0.79225932638E+03  0.79225932639E+03  0.50400001928E-02 0.  1.
    10030    2    1    2    0    0  0.00000000000E+00  0.00000000000E+00  0.15847066382E+03  0.17429893166E+04  0.17357703784E+04 0.  0.
        4    1    3    3  502    0 -0.46833078857E+03 -0.68996128893E+03  0.32074083701E+03  0.89345207212E+03  0.12699999809E+01 0. -1.
       -4    1    3    3    0  502  0.46833078857E+03  0.68996128893E+03 -0.16227017319E+03  0.84953724448E+03  0.12699999809E+01 0.  1.
</event>
<event>
 5   0  0.2550616E-04  0.1788451E+04  0.7818609E-02  0.8712465E-01
        2   -1    0    0  501    0  0.00000000000E+00  0.00000000000E+00  0.64006711722E+03  0.64006711723E+03  0.25500000920E-02 0.  1.
       -2   -1    0    0    0  501  0.00000000000E+00  0.00000000000E+00 -0.12493059228E+04  0.12493059228E+04  0.25500000920E-02 0. -1.
    10030    2    1    2    0    0  0.00000000000E+00  0.00000000000E+00 -0.60923880561E+03  0.18893730401E+04  0.17884514425E+04 0.  0.
        1    1    3    3  502    0  0.63614157981E+03 -0.60641168906E+03 -0.13029765299E+03  0.88847550591E+03  0.50400001928E-02 0.  1.
       -1    1    3    3    0  502 -0.63614157981E+03  0.60641168906E+03 -0.47894115262E+03  0.10008975342E+04  0.50400001928E-02 0. -1.
</event>
<event>
 5   0  0.1239119E-04  0.1795871E+04  0.7818609E-02  0.8708498E-01
        1   -1    0    0  501    0  0.00000000000E+00  0.00000000000E+00  0.74675964317E+03  0.74675964319E+03  0.50400001928E-02 0.  1.
       -1   -1    0    0    0  501  0.00000000000E+00  0.00000000000E+00 -0.10797153729E+04  0.10797153729E+04  0.50400001928E-02 0. -1.
    10030    2    1    2    0    0  0.00000000000E+00  0.00000000000E+00 -0.33295572971E+03  0.18264750161E+04  0.17958706708E+04 0.  0.
        5    1    3    3  502    0 -0.67302267827E+03 -0.52562513371E+03  0.11578453996E+03  0.86178271992E+03  0.46999998093E+01 0.  1.
       -5    1    3    3    0  502  0.67302267827E+03  0.52562513371E+03 -0.44874026967E+03  0.96469229616E+03  0.46999998093E+01 0. -1.
</event>
<event>
 5   0  0.1308893E-04  0.1833657E+04  0.7818609E-02  0.8688603E-01
       -1   -1    0    0    0  501  0.00000000000E+00  0.00000000000E+00  0.89076666621E+03  0.89076666622E+03  0.50400001928E-02 0.  1.
        1   -1    0    0  501    0  0.00000000000E+00  0.00000000000E+00 -0.94365297936E+03  0.94365297937E+03  0.50400001928E-02 0. -1.
    10030    2    1    2    0    0  0.00000000000E+00  0.00000000000E+00 -0.52886313154E+02  0.18344196456E+04  0.18336571310E+04 0.  0.
        4    1    3    3  502    0 -0.68459253974E+02 -0.58982615336E+03  0.67241118132E+03  0.89706185423E+03  0.12699999809E+01 0.  1.
       -4    1    3    3    0  502  0.68459253974E+02  0.58982615336E+03 -0.72529749448E+03  0.93735779137E+03  0.12699999809E+01 0. -1.
</event>
<event>
 5   0  0.2431811E-04  0.1794294E+04  0.7818609E-02  0.8709340E-01
       -2   -1    0    0    0  501  0.00000000000E+00  0.00000000000E+00  0.91046920690E+03  0.91046920691E+03  0.25500000920E-02 0.  1.
        2   -1    0    0  501    0  0.00000000000E+00  0.00000000000E+00 -0.88402004447E+03  0.88402004448E+03  0.25500000920E-02 0. -1.
    10030    2    1    2    0    0  0.00000000000E+00  0.00000000000E+00  0.26449162429E+02  0.17944892514E+04  0.17942943223E+04 0.  0.
        3    1    3    3  502    0  0.75130624673E+03 -0.45356326126E+01 -0.47712591026E+03  0.89001729915E+03  0.10100000352E+00 0. -1.
       -3    1    3    3    0  502 -0.75130624673E+03  0.45356326126E+01  0.50357507269E+03  0.90447195223E+03  0.10100000352E+00 0.  1.
</event>
<event>
 5   0  0.1239119E-04  0.1625788E+04  0.7818609E-02  0.8804861E-01
       -1   -1    0    0    0  501  0.00000000000E+00  0.00000000000E+00  0.99521092980E+03  0.99521092981E+03  0.50400001928E-02 0.  1.
        1   -1    0    0  501    0  0.00000000000E+00  0.00000000000E+00 -0.66397608697E+03  0.66397608699E+03  0.50400001928E-02 0. -1.
    10030    2    1    2    0    0  0.00000000000E+00  0.00000000000E+00  0.33123484283E+03  0.16591870168E+04  0.16257875124E+04 0.  0.
        5    1    3    3  502    0  0.40683544650E+03  0.53473768146E+03 -0.30129069389E+03  0.73638145055E+03  0.46999998093E+01 0. -1.
       -5    1    3    3    0  502 -0.40683544650E+03 -0.53473768146E+03  0.63252553672E+03  0.92280556625E+03  0.46999998093E+01 0.  1.
</event>
<event>
 5   0  0.1330225E-04  0.1815843E+04  0.7818609E-02  0.8697919E-01
       -1   -1    0    0    0  501  0.00000000000E+00  0.00000000000E+00  0.11460894833E+04  0.11460894833E+04  0.50400001928E-02 0. -1.
        1   -1    0    0  501    0  0.00000000000E+00  0.00000000000E+00 -0.71924719754E+03  0.71924719756E+03  0.50400001928E-02 0.  1.
    10030    2    1    2    0    0  0.00000000000E+00  0.00000000000E+00  0.42684228574E+03  0.18653366809E+04  0.18158432190E+04 0.  0.
        3    1    3    3  502    0  0.79049188728E+03  0.43654957504E+03  0.31016167224E+03  0.95480533537E+03  0.10100000352E+00 0. -1.
       -3    1    3    3    0  502 -0.79049188728E+03 -0.43654957504E+03  0.11668061350E+03  0.91053134548E+03  0.10100000352E+00 0.  1.
</event>
<event>
 5   0  0.1253925E-04  0.1868704E+04  0.7818609E-02  0.8670593E-01
        1   -1    0    0  501    0  0.00000000000E+00  0.00000000000E+00  0.90294996350E+03  0.90294996352E+03  0.50400001928E-02 0.  1.
       -1   -1    0    0    0  501  0.00000000000E+00  0.00000000000E+00 -0.96684579347E+03  0.96684579348E+03  0.50400001928E-02 0. -1.
    10030    2    1    2    0    0  0.00000000000E+00  0.00000000000E+00 -0.63895829963E+02  0.18697957570E+04  0.18687036940E+04 0.  0.
        2    1    3    3  502    0 -0.62899027866E+03  0.62104864364E+03 -0.33491717981E+03  0.94525113369E+03  0.25500000920E-02 0. -1.
       -2    1    3    3    0  502  0.62899027866E+03 -0.62104864364E+03  0.27102134984E+03  0.92454462331E+03  0.25500000920E-02 0.  1.
</event>
<event>
 5   0  0.2569405E-04  0.1786980E+04  0.7818609E-02  0.8713254E-01
       -2   -1    0    0    0  501  0.00000000000E+00  0.00000000000E+00  0.36303054120E+03  0.36303054121E+03  0.25500000920E-02 0. -1.
        2   -1    0    0  501    0  0.00000000000E+00  0.00000000000E+00 -0.21990556309E+04  0.21990556309E+04  0.25500000920E-02 0.  1.
    10030    2    1    2    0    0  0.00000000000E+00  0.00000000000E+00 -0.18360250897E+04  0.25620861721E+04  0.17869799728E+04 0.  0.
        2    1    3    3  502    0 -0.37387177507E+03 -0.14716659404E+03 -0.20622205504E+04  0.21009977890E+04  0.25500000920E-02 0.  1.
       -2    1    3    3    0  502  0.37387177507E+03  0.14716659404E+03  0.22619546074E+03  0.46108838313E+03  0.25500000920E-02 0. -1.
</event>
<event>
 5   0  0.1253925E-04  0.1806646E+04  0.7818609E-02  0.8702773E-01
       -1   -1    0    0    0  501  0.00000000000E+00  0.00000000000E+00  0.85401100857E+03  0.85401100859E+03  0.50400001928E-02 0. -1.
        1   -1    0    0  501    0  0.00000000000E+00  0.00000000000E+00 -0.95548279847E+03  0.95548279848E+03  0.50400001928E-02 0.  1.
    10030    2    1    2    0    0  0.00000000000E+00  0.00000000000E+00 -0.10147178990E+03  0.18094938071E+04  0.18066464274E+04 0.  0.
        2    1    3    3  502    0  0.27537021140E+03 -0.69149110218E+03  0.46193422213E+03  0.87599767311E+03  0.25500000920E-02 0. -1.
       -2    1    3    3    0  502 -0.27537021140E+03  0.69149110218E+03 -0.56340601203E+03  0.93349613395E+03  0.25500000920E-02 0.  1.
</event>
<event>
 5   0  0.1253925E-04  0.1808582E+04  0.7818609E-02  0.8701749E-01
        1   -1    0    0  501    0  0.00000000000E+00  0.00000000000E+00  0.53260072644E+03  0.53260072646E+03  0.50400001928E-02 0.  1.
       -1   -1    0    0    0  501  0.00000000000E+00  0.00000000000E+00 -0.15353763202E+04  0.15353763202E+04  0.50400001928E-02 0. -1.
    10030    2    1    2    0    0  0.00000000000E+00  0.00000000000E+00 -0.10027755937E+04  0.20679770466E+04  0.18085823658E+04 0.  0.
        2    1    3    3  502    0 -0.70620905725E+03  0.42312235725E+03 -0.92918557710E+03  0.12414304646E+04  0.25500000920E-02 0. -1.
       -2    1    3    3    0  502  0.70620905725E+03 -0.42312235725E+03 -0.73590016647E+02  0.82654658205E+03  0.25500000920E-02 0.  1.
</event>
<event>
 5   0  0.1330225E-04  0.1793550E+04  0.7818609E-02  0.8709737E-01
        1   -1    0    0  501    0  0.00000000000E+00  0.00000000000E+00  0.64435375726E+03  0.64435375728E+03  0.50400001928E-02 0. -1.
       -1   -1    0    0    0  501  0.00000000000E+00  0.00000000000E+00 -0.12480804744E+04  0.12480804744E+04  0.50400001928E-02 0.  1.
    10030    2    1    2    0    0  0.00000000000E+00  0.00000000000E+00 -0.60372671712E+03  0.18924342317E+04  0.17935499358E+04 0.  0.
        3    1    3    3  502    0 -0.49088837042E+02 -0.30010880520E+03 -0.11920171734E+04  0.12301950905E+04  0.10100000352E+00 0.  1.
       -3    1    3    3    0  502  0.49088837042E+02  0.30010880520E+03  0.58829045629E+03  0.66223914113E+03  0.10100000352E+00 0. -1.
</event>
<event>
 5   0  0.2550616E-04  0.1801164E+04  0.7818609E-02  0.8705681E-01
       -2   -1    0    0    0  501  0.00000000000E+00  0.00000000000E+00  0.12413275883E+04  0.12413275883E+04  0.25500000920E-02 0.  1.
        2   -1    0    0  501    0  0.00000000000E+00  0.00000000000E+00 -0.65337120101E+03  0.65337120102E+03  0.25500000920E-02 0. -1.
    10030    2    1    2    0    0  0.00000000000E+00  0.00000000000E+00  0.58795638730E+03  0.18946987893E+04  0.18011637318E+04 0.  0.
        1    1    3    3  502    0  0.26512726601E+03  0.38454638313E+03  0.11039504274E+04  0.11986971820E+04  0.50400001928E-02 0.  1.
       -1    1    3    3    0  502 -0.26512726601E+03 -0.38454638313E+03 -0.51599404010E+03  0.69600160733E+03  0.50400001928E-02 0. -1.
</event>
<event>
 5   0  0.2417106E-04  0.1766135E+04  0.7818609E-02  0.8724519E-01
        2   -1    0    0  501    0  0.00000000000E+00  0.00000000000E+00  0.12428099439E+04  0.12428099439E+04  0.25500000920E-02 0.  1.
       -2   -1    0    0    0  501  0.00000000000E+00  0.00000000000E+00 -0.62745561534E+03  0.62745561534E+03  0.25500000920E-02 0. -1.
    10030    2    1    2    0    0  0.00000000000E+00  0.00000000000E+00  0.61535432861E+03  0.18702655593E+04  0.17661348512E+04 0.  0.
        4    1    3    3  502    0 -0.79103285771E+02  0.51093837179E+03  0.10657703387E+04  0.11845604152E+04  0.12699999809E+01 0.  1.
       -4    1    3    3    0  502  0.79103285771E+02 -0.51093837179E+03 -0.45041601007E+03  0.68570514408E+03  0.12699999809E+01 0. -1.
</event>
<event>
 5   0  0.1214723E-04  0.1683499E+04  0.7818609E-02  0.8770832E-01
       -1   -1    0    0    0  501  0.00000000000E+00  0.00000000000E+00  0.92293218057E+03  0.92293218059E+03  0.50400001928E-02 0.  1.
        1   -1    0    0  501    0  0.00000000000E+00  0.00000000000E+00 -0.76770821173E+03  0.76770821175E+03  0.50400001928E-02 0. -1.
    10030    2    1    2    0    0  0.00000000000E+00  0.00000000000E+00  0.15522396884E+03  0.16906403923E+04  0.16834994671E+04 0.  0.
        1    1    3    3  502    0  0.55058715008E+03 -0.57831054642E+03 -0.18988852040E+03  0.82075998206E+03  0.50400001928E-02 0. -1.
       -1    1    3    3    0  502 -0.55058715008E+03  0.57831054642E+03  0.34511248924E+03  0.86988041028E+03  0.50400001928E-02 0.  1.
</event>
<event>
 5   0  0.2550616E-04  0.1843314E+04  0.7818609E-02  0.8683599E-01
        2   -1    0    0  501    0  0.00000000000E+00  0.00000000000E+00  0.17229352518E+04  0.17229352518E+04  0.25500000920E-02 0. -1.
       -2   -1    0    0    0  501  0.00000000000E+00  0.00000000000E+00 -0.49302567593E+03  0.49302567593E+03  0.25500000920E-02 0.  1.
    10030    2    1    2    0    0  0.00000000000E+00  0.00000000000E+00  0.12299095758E+04  0.22159609277E+04  0.18433136652E+04 0.  0.
        1    1    3    3  502    0  0.91852395613E+03  0.39237922730E+02  0.69309940311E+03  0.11513525330E+04  0.50400001928E-02 0.  1.
       -1    1    3    3    0  502 -0.91852395613E+03 -0.39237922730E+02  0.53681017272E+03  0.10646083947E+04  0.50400001928E-02 0. -1.
</event>
<event>
 5   0  0.2417106E-04  0.1796520E+04  0.7818609E-02  0.8708152E-01
        2   -1    0    0  501    0  0.00000000000E+00  0.00000000000E+00  0.23590785634E+04  0.23590785634E+04  0.25500000920E-02 0.  1.
       -2   -1    0    0    0  501  0.00000000000E+00  0.00000000000E+00 -0.34202802083E+03  0.34202802084E+03  0.25500000920E-02 0. -1.
    10030    2    1    2    0    0  0.00000000000E+00  0.00000000000E+00  0.20170505426E+04  0.27011065842E+04  0.17965199381E+04 0.  0.
        4    1    3    3  502    0 -0.31777054469E+03 -0.68677320589E+03  0.28085527937E+03  0.80716594096E+03  0.12699999809E+01 0. -1.
       -4    1    3    3    0  502  0.31777054469E+03  0.68677320589E+03  0.17361952632E+04  0.18939406433E+04  0.12699999809E+01 0.  1.
</event>
<event>
 5   0  0.2393421E-04  0.1800924E+04  0.7818609E-02  0.8705808E-01
        2   -1    0    0  501    0  0.00000000000E+00  0.00000000000E+00  0.32463357650E+04  0.32463357650E+04  0.25500000920E-02 0.  1.
       -2   -1    0    0    0  501  0.00000000000E+00  0.00000000000E+00 -0.24976820939E+03  0.24976820941E+03  0.25500000920E-02 0. -1.
    10030    2    1    2    0    0  0.00000000000E+00  0.00000000000E+00  0.29965675556E+04  0.34961039744E+04  0.18009236198E+04 0.  0.
        5    1    3    3  502    0 -0.70752640839E+03  0.18579365357E+03  0.25175899578E+04  0.26217158858E+04  0.46999998093E+01 0.  1.
       -5    1    3    3    0  502  0.70752640839E+03 -0.18579365357E+03  0.47897759779E+03  0.87438808858E+03  0.46999998093E+01 0. -1.
</event>
<event>
 5   0  0.2550616E-04  0.1815207E+04  0.7818609E-02  0.8698254E-01
       -2   -1    0    0    0  501  0.00000000000E+00  0.00000000000E+00  0.12738312519E+04  0.12738312519E+04  0.25500000920E-02 0. -1.
        2   -1    0    0  501    0  0.00000000000E+00  0.00000000000E+00 -0.64666675165E+03  0.64666675166E+03  0.25500000920E-02 0.  1.
    10030    2    1    2    0    0  0.00000000000E+00  0.00000000000E+00  0.62716450025E+03  0.19204980036E+04  0.18152072254E+04 0.  0.
        1    1    3    3  502    0 -0.27932843463E+03 -0.19580815137E+03  0.12034260197E+04  0.12508394747E+04  0.50400001928E-02 0. -1.
       -1    1    3    3    0  502  0.27932843463E+03  0.19580815137E+03 -0.57626151942E+03  0.66965852890E+03  0.50400001928E-02 0.  1.
</event>
<event>
 5   0  0.2393421E-04  0.1811015E+04  0.7818609E-02  0.8700463E-01
        2   -1    0    0  501    0  0.00000000000E+00  0.00000000000E+00  0.87198199350E+03  0.87198199351E+03  0.25500000920E-02 0. -1.
       -2   -1    0    0    0  501  0.00000000000E+00  0.00000000000E+00 -0.94032247485E+03  0.94032247486E+03  0.25500000920E-02 0.  1.
    10030    2    1    2    0    0  0.00000000000E+00  0.00000000000E+00 -0.68340481351E+02  0.18123044684E+04  0.18110154789E+04 0.  0.
        5    1    3    3  502    0 -0.33145436953E+03  0.13906170478E+02  0.80896536521E+03  0.87435829770E+03  0.46999998093E+01 0. -1.
       -5    1    3    3    0  502  0.33145436953E+03 -0.13906170478E+02 -0.87730584656E+03  0.93794617066E+03  0.46999998093E+01 0.  1.
</event>
<event>
 5   0  0.2550616E-04  0.1786490E+04  0.7818609E-02  0.8713517E-01
       -2   -1    0    0    0  501  0.00000000000E+00  0.00000000000E+00  0.70108640354E+03  0.70108640354E+03  0.25500000920E-02 0. -1.
        2   -1    0    0  501    0  0.00000000000E+00  0.00000000000E+00 -0.11380713606E+04  0.11380713606E+04  0.25500000920E-02 0.  1.
    10030    2    1    2    0    0  0.00000000000E+00  0.00000000000E+00 -0.43698495710E+03  0.18391577642E+04  0.17864896946E+04 0.  0.
        1    1    3    3  502    0 -0.32236417701E+03  0.62711408292E+03 -0.78301597379E+03  0.10537099937E+04  0.50400001928E-02 0.  1.
       -1    1    3    3    0  502  0.32236417701E+03 -0.62711408292E+03  0.34603101669E+03  0.78544777048E+03  0.50400001928E-02 0. -1.
</event>
<event>
 5   0  0.1308893E-04  0.1807244E+04  0.7818609E-02  0.8702456E-01
       -1   -1    0    0    0  501  0.00000000000E+00  0.00000000000E+00  0.36829890226E+03  0.36829890230E+03  0.50400001928E-02 0. -1.
        1   -1    0    0  501    0  0.00000000000E+00  0.00000000000E+00 -0.22170390581E+04  0.22170390581E+04  0.50400001928E-02 0.  1.
    10030    2    1    2    0    0  0.00000000000E+00  0.00000000000E+00 -0.18487401558E+04  0.25853379604E+04  0.18072443680E+04 0.  0.
        4    1    3    3  502    0  0.50567291466E+03  0.64252464182E+03 -0.14746888397E+04  0.16861944724E+04  0.12699999809E+01 0.  1.
       -4    1    3    3    0  502 -0.50567291466E+03 -0.64252464182E+03 -0.37405131612E+03  0.89914348797E+03  0.12699999809E+01 0. -1.
</event>
<event>
 5   0  0.1330225E-04  0.1647083E+04  0.7818609E-02  0.8792134E-01
       -1   -1    0    0    0  501  0.00000000000E+00  0.00000000000E+00  0.39870799714E+03  0.39870799717E+03  0.50400001928E-02 0.  1.
        1   -1    0    0  501    0  0.00000000000E+00  0.00000000000E+00 -0.17010454453E+04  0.17010454453E+04  0.50400001928E-02 0. -1.
    10030    2    1    2    0    0  0.00000000000E+00  0.00000000000E+00 -0.13023374481E+04  0.20997534425E+04  0.16470827819E+04 0.  0.
        3    1    3    3  502    0  0.75781882453E+03  0.25608183417E+03 -0.40150622486E+03  0.89502767298E+03  0.10100000352E+00 0.  1.
       -3    1    3    3    0  502 -0.75781882453E+03 -0.25608183417E+03 -0.90083122329E+03  0.12047257695E+04  0.10100000352E+00 0. -1.
</event>
<event>
 5   0  0.2550616E-04  0.1798191E+04  0.7818609E-02  0.8707262E-01
        2   -1    0    0  501    0  0.00000000000E+00  0.00000000000E+00  0.20837721656E+04  0.20837721656E+04  0.25500000920E-02 0. -1.
       -2   -1    0    0    0  501  0.00000000000E+00  0.00000000000E+00 -0.38793720242E+03  0.38793720243E+03  0.25500000920E-02 0.  1.
    10030    2    1    2    0    0  0.00000000000E+00  0.00000000000E+00  0.16958349632E+04  0.24717093680E+04  0.17981910292E+04 0.  0.
        1    1    3    3  502    0 -0.34542537006E+03 -0.42882654963E+03 -0.12904266710E+03  0.56556423676E+03  0.50400001928E-02 0.  1.
       -1    1    3    3    0  502  0.34542537006E+03  0.42882654963E+03  0.18248776303E+04  0.19061451312E+04  0.50400001928E-02 0. -1.
</event>
<event>
 5   0  0.1253925E-04  0.1798152E+04  0.7818609E-02  0.8707283E-01
       -1   -1    0    0    0  501  0.00000000000E+00  0.00000000000E+00  0.15018635212E+04  0.15018635212E+04  0.50400001928E-02 0.  1.
        1   -1    0    0  501    0  0.00000000000E+00  0.00000000000E+00 -0.53822339647E+03  0.53822339649E+03  0.50400001928E-02 0. -1.
    10030    2    1    2    0    0  0.00000000000E+00  0.00000000000E+00  0.96364012471E+03  0.20400869177E+04  0.17981524801E+04 0.  0.
        2    1    3    3  502    0 -0.64210219679E+03  0.22628325701E+03 -0.18441913535E+03  0.70534371835E+03  0.25500000920E-02 0. -1.
       -2    1    3    3    0  502  0.64210219679E+03 -0.22628325701E+03  0.11480592601E+04  0.13347431993E+04  0.25500000920E-02 0.  1.
</event>
<event>
 5   0  0.2569405E-04  0.1803379E+04  0.7818609E-02  0.8704505E-01
       -2   -1    0    0    0  501  0.00000000000E+00  0.00000000000E+00  0.73904463662E+03  0.73904463662E+03  0.25500000920E-02 0. -1.
        2   -1    0    0  501    0  0.00000000000E+00  0.00000000000E+00 -0.11001279466E+04  0.11001279466E+04  0.25500000920E-02 0.  1.
    10030    2    1    2    0    0  0.00000000000E+00  0.00000000000E+00 -0.36108331002E+03  0.18391725833E+04  0.18033786719E+04 0.  0.
        2    1    3    3  502    0  0.23434326964E+00 -0.29553017474E+03  0.68825025507E+03  0.74901705769E+03  0.25500000920E-02 0. -1.
       -2    1    3    3    0  502 -0.23434326964E+00  0.29553017474E+03 -0.10493335651E+04  0.10901555256E+04  0.25500000920E-02 0.  1.
</event>
<event>
 5   0  0.1308893E-04  0.1792682E+04  0.7818609E-02  0.8710201E-01
       -1   -1    0    0    0  501  0.00000000000E+00  0.00000000000E+00  0.62510628990E+03  0.62510628992E+03  0.50400001928E-02 0. -1.
        1   -1    0    0  501    0  0.00000000000E+00  0.00000000000E+00 -0.12852643675E+04  0.12852643675E+04  0.50400001928E-02 0.  1.
    10030    2    1    2    0    0  0.00000000000E+00  0.00000000000E+00 -0.66015807762E+03  0.19103706574E+04  0.17926816118E+04 0.  0.
        4    1    3    3  502    0  0.41611760913E+03 -0.35181484640E+03  0.42832948233E+03  0.69310555409E+03  0.12699999809E+01 0. -1.
       -4    1    3    3    0  502 -0.41611760913E+03  0.35181484640E+03 -0.10884875599E+04  0.12172651034E+04  0.12699999809E+01 0.  1.
</event>
<event>
 5   0  0.2393421E-04  0.1904693E+04  0.7818609E-02  0.8652524E-01
       -2   -1    0    0    0  501  0.00000000000E+00  0.00000000000E+00  0.51352825711E+03  0.51352825712E+03  0.25500000920E-02 0.  1.
        2   -1    0    0  501    0  0.00000000000E+00  0.00000000000E+00 -0.17661426599E+04  0.17661426599E+04  0.25500000920E-02 0. -1.
    10030    2    1    2    0    0  0.00000000000E+00  0.00000000000E+00 -0.12526144028E+04  0.22796709170E+04  0.19046933212E+04 0.  0.
        5    1    3    3  502    0 -0.74632585046E+03  0.12213753147E+03  0.66454557237E+02  0.75918255370E+03  0.46999998093E+01 0.  1.
       -5    1    3    3    0  502  0.74632585046E+03 -0.12213753147E+03 -0.13190689600E+04  0.15204883633E+04  0.46999998093E+01 0. -1.
</event>
<event>
 5   0  0.1308893E-04  0.1652540E+04  0.7818609E-02  0.8788905E-01
       -1   -1    0    0    0  501  0.00000000000E+00  0.00000000000E+00  0.35897545325E+03  0.35897545329E+03  0.50400001928E-02 0.  1.
        1   -1    0    0  501    0  0.00000000000E+00  0.00000000000E+00 -0.19018631535E+04  0.19018631535E+04  0.50400001928E-02 0. -1.
    10030    2    1    2    0    0  0.00000000000E+00  0.00000000000E+00 -0.15428877003E+04  0.22608386068E+04  0.16525400904E+04 0.  0.
        4    1    3    3  502    0  0.39488121465E+03  0.75383575383E+01  0.22147246052E+03  0.45281305656E+03  0.12699999809E+01 0.  1.
       -4    1    3    3    0  502 -0.39488121465E+03 -0.75383575383E+01 -0.17643601608E+04  0.18080255503E+04  0.12699999809E+01 0. -1.
</event>
<event>
 5   0  0.2550616E-04  0.1802041E+04  0.7818609E-02  0.8705215E-01
        2   -1    0    0  501    0  0.00000000000E+00  0.00000000000E+00  0.95478155160E+03  0.95478155161E+03  0.25500000920E-02 0. -1.
       -2   -1    0    0    0  501  0.00000000000E+00  0.00000000000E+00 -0.85028655633E+03  0.85028655633E+03  0.25500000920E-02 0.  1.
    10030    2    1    2    0    0  0.00000000000E+00  0.00000000000E+00  0.10449499528E+03  0.18050681079E+04  0.18020409735E+04 0.  0.
        1    1    3    3  502    0 -0.71918364537E+02  0.54346768512E+03 -0.66401210199E+03  0.86106994347E+03  0.50400001928E-02 0.  1.
       -1    1    3    3    0  502  0.71918364537E+02 -0.54346768512E+03  0.76850709727E+03  0.94399816446E+03  0.50400001928E-02 0. -1.
</event>
<event>
 5   0  0.1253925E-04  0.1877812E+04  0.7818609E-02  0.8665980E-01
       -1   -1    0    0    0  501  0.00000000000E+00  0.00000000000E+00  0.78140721876E+03  0.78140721878E+03  0.50400001928E-02 0.  1.
        1   -1    0    0  501    0  0.00000000000E+00  0.00000000000E+00 -0.11281503006E+04  0.11281503006E+04  0.50400001928E-02 0. -1.
    10030    2    1    2    0    0  0.00000000000E+00  0.00000000000E+00 -0.34674308184E+03  0.19095575194E+04  0.18778123322E+04 0.  0.
        2    1    3    3  502    0  0.18108175649E+03 -0.32314314872E+03  0.70396073088E+03  0.79547018028E+03  0.25500000920E-02 0.  1.
       -2    1    3    3    0  502 -0.18108175649E+03  0.32314314872E+03 -0.10507038127E+04  0.11140873391E+04  0.25500000920E-02 0. -1.
</event>
<event>
 5   0  0.1253925E-04  0.1786364E+04  0.7818609E-02  0.8713585E-01
        1   -1    0    0  501    0  0.00000000000E+00  0.00000000000E+00  0.60550660129E+03  0.60550660132E+03  0.50400001928E-02 0. -1.
       -1   -1    0    0    0  501  0.00000000000E+00  0.00000000000E+00 -0.13175314538E+04  0.13175314538E+04  0.50400001928E-02 0.  1.
    10030    2    1    2    0    0  0.00000000000E+00  0.00000000000E+00 -0.71202485251E+03  0.19230380551E+04  0.17863638965E+04 0.  0.
        2    1    3    3  502    0 -0.53290270113E+03 -0.34248256449E+03  0.32184205733E+03  0.71053635075E+03  0.25500000920E-02 0. -1.
       -2    1    3    3    0  502  0.53290270113E+03  0.34248256449E+03 -0.10338669098E+04  0.12125017044E+04  0.25500000920E-02 0.  1.
</event>
<event>
 5   0  0.1330225E-04  0.1637108E+04  0.7818609E-02  0.8798070E-01
        1   -1    0    0  501    0  0.00000000000E+00  0.00000000000E+00  0.13292756381E+04  0.13292756381E+04  0.50400001928E-02 0.  1.
       -1   -1    0    0    0  501  0.00000000000E+00  0.00000000000E+00 -0.50405725781E+03  0.50405725783E+03  0.50400001928E-02 0. -1.
    10030    2    1    2    0    0  0.00000000000E+00  0.00000000000E+00  0.82521838029E+03  0.18333328959E+04  0.16371084668E+04 0.  0.
        3    1    3    3  502    0  0.24746263686E+03  0.56805389144E+03 -0.18639368871E+03  0.64704373702E+03  0.10100000352E+00 0. -1.
       -3    1    3    3    0  502 -0.24746263686E+03 -0.56805389144E+03  0.10116120690E+04  0.11862891589E+04  0.10100000352E+00 0.  1.
</event>
<event>
 5   0  0.1239119E-04  0.1811036E+04  0.7818609E-02  0.8700452E-01
       -1   -1    0    0    0  501  0.00000000000E+00  0.00000000000E+00  0.11078637769E+04  0.11078637769E+04  0.50400001928E-02 0. -1.
        1   -1    0    0  501    0  0.00000000000E+00  0.00000000000E+00 -0.74012996920E+03  0.74012996922E+03  0.50400001928E-02 0.  1.
    10030    2    1    2    0    0  0.00000000000E+00  0.00000000000E+00  0.36773380768E+03  0.18479937461E+04  0.18110363697E+04 0.  0.
        5    1    3    3  502    0 -0.14000900339E+03  0.57794251599E+03 -0.51294541743E+03  0.78533761153E+03  0.46999998093E+01 0.  1.
       -5    1    3    3    0  502  0.14000900339E+03 -0.57794251599E+03  0.88067922511E+03  0.10626561346E+04  0.46999998093E+01 0. -1.
</event>
<event>
 5   0  0.1308893E-04  0.1792855E+04  0.7818609E-02  0.8710108E-01
        1   -1    0    0  501    0  0.00000000000E+00  0.00000000000E+00  0.76019845354E+03  0.76019845356E+03  0.50400001928E-02 0. -1.
       -1   -1    0    0    0  501  0.00000000000E+00  0.00000000000E+00 -0.10570691673E+04  0.10570691673E+04  0.50400001928E-02 0.  1.
    10030    2    1    2    0    0  0.00000000000E+00  0.00000000000E+00 -0.29687071378E+03  0.18172676209E+04  0.17928550932E+04 0.  0.
        4    1    3    3  502    0 -0.32488592400E+03 -0.33336238020E+03  0.62808979923E+03  0.78177985965E+03  0.12699999809E+01 0. -1.
       -4    1    3    3    0  502  0.32488592400E+03  0.33336238020E+03 -0.92496051301E+03  0.10354877612E+04  0.12699999809E+01 0.  1.
</event>
<event>
 5   0  0.2417106E-04  0.1813273E+04  0.7818609E-02  0.8699273E-01
       -2   -1    0    0    0  501  0.00000000000E+00  0.00000000000E+00  0.55895532427E+03  0.55895532427E+03  0.25500000920E-02 0.  1.
        2   -1    0    0  501    0  0.00000000000E+00  0.00000000000E+00 -0.14705824651E+04  0.14705824651E+04  0.25500000920E-02 0. -1.
    10030    2    1    2    0    0  0.00000000000E+00  0.00000000000E+00 -0.91162714085E+03  0.20295377894E+04  0.18132731715E+04 0.  0.
        4    1    3    3  502    0  0.53224184871E+02 -0.64791030258E+03 -0.11631408065E+04  0.13324859183E+04  0.12699999809E+01 0. -1.
       -4    1    3    3    0  502 -0.53224184871E+02  0.64791030258E+03  0.25151366561E+03  0.69705187105E+03  0.12699999809E+01 0.  1.
</event>
<event>
 5   0  0.2550616E-04  0.1787259E+04  0.7818609E-02  0.8713104E-01
       -2   -1    0    0    0  501  0.00000000000E+00  0.00000000000E+00  0.64087574868E+03  0.64087574868E+03  0.25500000920E-02 0.  1.
        2   -1    0    0  501    0  0.00000000000E+00  0.00000000000E+00 -0.12460667952E+04  0.12460667952E+04  0.25500000920E-02 0. -1.
    10030    2    1    2    0    0  0.00000000000E+00  0.00000000000E+00 -0.60519104656E+03  0.18869425439E+04  0.17872593436E+04 0.  0.
        1    1    3    3  502    0  0.12072796519E+03 -0.73882029763E+03 -0.81781265913E+03  0.11087146699E+04  0.50400001928E-02 0. -1.
       -1    1    3    3    0  502 -0.12072796519E+03  0.73882029763E+03  0.21262161257E+03  0.77822787403E+03  0.50400001928E-02 0.  1.
</event>
<event>
 5   0  0.2393421E-04  0.1818202E+04  0.7818609E-02  0.8696679E-01
        2   -1    0    0  501    0  0.00000000000E+00  0.00000000000E+00  0.11008193881E+04  0.11008193881E+04  0.25500000920E-02 0. -1.
       -2   -1    0    0    0  501  0.00000000000E+00  0.00000000000E+00 -0.75077204497E+03  0.75077204497E+03  0.25500000920E-02 0.  1.
    10030    2    1    2    0    0  0.00000000000E+00  0.00000000000E+00  0.35004734318E+03  0.18515914331E+04  0.18182017745E+04 0.  0.
        5    1    3    3  502    0 -0.69991539816E+03  0.19821496767E+03  0.73026245283E+03  0.10307648025E+04  0.46999998093E+01 0. -1.
       -5    1    3    3    0  502  0.69991539816E+03 -0.19821496767E+03 -0.38021510965E+03  0.82082663066E+03  0.46999998093E+01 0.  1.
</event>
<event>
 5   0  0.2569405E-04  0.1804389E+04  0.7818609E-02  0.8703969E-01
        2   -1    0    0  501    0  0.00000000000E+00  0.00000000000E+00  0.13226802031E+04  0.13226802031E+04  0.25500000920E-02 0. -1.
       -2   -1    0    0    0  501  0.00000000000E+00  0.00000000000E+00 -0.61538278929E+03  0.61538278929E+03  0.25500000920E-02 0.  1.
    10030    2    1    2    0    0  0.00000000000E+00  0.00000000000E+00  0.70729741378E+03  0.19380629924E+04  0.18043886862E+04 0.  0.
        2    1    3    3  502    0  0.57316571547E+03  0.21561214170E+02 -0.39434095056E+03  0.69605215942E+03  0.25500000920E-02 0.  1.
       -2    1    3    3    0  502 -0.57316571547E+03 -0.21561214170E+02  0.11016383643E+04  0.12420108329E+04  0.25500000920E-02 0. -1.
</event>
<event>
 5   0  0.1253925E-04  0.1795816E+04  0.7818609E-02  0.8708528E-01
        1   -1    0    0  501    0  0.00000000000E+00  0.00000000000E+00  0.10619296117E+04  0.10619296117E+04  0.50400001928E-02 0. -1.
       -1   -1    0    0    0  501  0.00000000000E+00  0.00000000000E+00 -0.75922019606E+03  0.75922019608E+03  0.50400001928E-02 0.  1.
    10030    2    1    2    0    0  0.00000000000E+00  0.00000000000E+00  0.30270941565E+03  0.18211498078E+04  0.17958155897E+04 0.  0.
        2    1    3    3  502    0 -0.64990873908E+03  0.46478876111E+03 -0.26409333957E+03  0.84151960976E+03  0.25500000920E-02 0.  1.
       -2    1    3    3    0  502  0.64990873908E+03 -0.46478876111E+03  0.56680275522E+03  0.97963019805E+03  0.25500000920E-02 0. -1.
</event>
<event>
 5   0  0.1214723E-04  0.1789996E+04  0.7818609E-02  0.8711638E-01
        1   -1    0    0  501    0  0.00000000000E+00  0.00000000000E+00  0.29162381554E+04  0.29162381555E+04  0.50400001928E-02 0. -1.
       -1   -1    0    0    0  501  0.00000000000E+00  0.00000000000E+00 -0.27467631617E+03  0.27467631622E+03  0.50400001928E-02 0.  1.
    10030    2    1    2    0    0  0.00000000000E+00  0.00000000000E+00  0.26415618393E+04  0.31909144717E+04  0.17899961494E+04 0.  0.
        1    1    3    3  502    0  0.68757390333E+03 -0.57164542803E+03  0.13894804001E+04  0.16523293105E+04  0.50400001928E-02 0.  1.
       -1    1    3    3    0  502 -0.68757390333E+03  0.57164542803E+03  0.12520814392E+04  0.15385851612E+04  0.50400001928E-02 0. -1.
</event>
<event>
 5   0  0.2393421E-04  0.1807556E+04  0.7818609E-02  0.8702292E-01
        2   -1    0    0  501    0  0.00000000000E+00  0.00000000000E+00  0.10024395103E+04  0.10024395103E+04  0.25500000920E-02 0. -1.
       -2   -1    0    0    0  501  0.00000000000E+00  0.00000000000E+00 -0.81482675494E+03  0.81482675495E+03  0.25500000920E-02 0.  1.
    10030    2    1    2    0    0  0.00000000000E+00  0.00000000000E+00  0.18761275532E+03  0.18172662652E+04  0.18075558450E+04 0.  0.
        5    1    3    3  502    0 -0.70298752772E+03 -0.13736592675E+03 -0.46027278304E+03  0.85143055311E+03  0.46999998093E+01 0.  1.
       -5    1    3    3    0  502  0.70298752772E+03  0.13736592675E+03  0.64788553836E+03  0.96583571211E+03  0.46999998093E+01 0. -1.
</event>
<event>
 5   0  0.2550616E-04  0.1812735E+04  0.7818609E-02  0.8699557E-01
       -2   -1    0    0    0  501  0.00000000000E+00  0.00000000000E+00  0.11289185142E+04  0.11289185142E+04  0.25500000920E-02 0. -1.
        2   -1    0    0  501    0  0.00000000000E+00  0.00000000000E+00 -0.72768904760E+03  0.72768904761E+03  0.25500000920E-02 0.  1.
    10030    2    1    2    0    0  0.00000000000E+00  0.00000000000E+00  0.40122946656E+03  0.18566075618E+04  0.18127345513E+04 0.  0.
        1    1    3    3  502    0 -0.25275970920E+02 -0.15833231542E+03  0.11142779369E+04  0.11257545547E+04  0.50400001928E-02 0. -1.
       -1    1    3    3    0  502  0.25275970920E+02  0.15833231542E+03 -0.71304847034E+03  0.73085300704E+03  0.50400001928E-02 0.  1.
</event>
<event>
 5   0  0.1239119E-04  0.1797255E+04  0.7818609E-02  0.8707761E-01
       -1   -1    0    0    0  501  0.00000000000E+00  0.00000000000E+00  0.82562511912E+03  0.82562511913E+03  0.50400001928E-02 0.  1.
        1   -1    0    0  501    0  0.00000000000E+00  0.00000000000E+00 -0.97808479144E+03  0.97808479145E+03  0.50400001928E-02 0. -1.
    10030    2    1    2    0    0  0.00000000000E+00  0.00000000000E+00 -0.15245967232E+03  0.18037099106E+04  0.17972549874E+04 0.  0.
        5    1    3    3  502    0  0.35591409852E+03 -0.12493459633E+03  0.74231322432E+03  0.83266710749E+03  0.46999998093E+01 0.  1.
       -5    1    3    3    0  502 -0.35591409852E+03  0.12493459633E+03 -0.89477289664E+03  0.97104280310E+03  0.46999998093E+01 0. -1.
</event>
<event>
 5   0  0.1330225E-04  0.1788380E+04  0.7818609E-02  0.8712503E-01
       -1   -1    0    0    0  501  0.00000000000E+00  0.00000000000E+00  0.62597020567E+03  0.62597020569E+03  0.50400001928E-02 0. -1.
        1   -1    0    0  501    0  0.00000000000E+00  0.00000000000E+00 -0.12773385322E+04  0.12773385323E+04  0.50400001928E-02 0.  1.
    10030    2    1    2    0    0  0.00000000000E+00  0.00000000000E+00 -0.65136832657E+03  0.19033087379E+04  0.17883801204E+04 0.  0.
        3    1    3    3  502    0 -0.65582529739E+03 -0.58964053720E+03 -0.16857243271E+03  0.89788610585E+03  0.10100000352E+00 0. -1.
       -3    1    3    3    0  502  0.65582529739E+03  0.58964053720E+03 -0.48279589387E+03  0.10054226321E+04  0.10100000352E+00 0.  1.
</event>
<event>
 5   0  0.2393421E-04  0.1845952E+04  0.7818609E-02  0.8682237E-01
        2   -1    0    0  501    0  0.00000000000E+00  0.00000000000E+00  0.16223215412E+04  0.16223215412E+04  0.25500000920E-02 0.  1.
       -2   -1    0    0    0  501  0.00000000000E+00  0.00000000000E+00 -0.52510217054E+03  0.52510217054E+03  0.25500000920E-02 0. -1.
    10030    2    1    2    0    0  0.00000000000E+00  0.00000000000E+00  0.10972193707E+04  0.21474237117E+04  0.18459518548E+04 0.  0.
        5    1    3    3  502    0 -0.16559434340E+03 -0.88842584258E+03  0.76668243212E+03  0.11851354379E+04  0.46999998093E+01 0. -1.
       -5    1    3    3    0  502  0.16559434340E+03  0.88842584258E+03  0.33053693854E+03  0.96228827389E+03  0.46999998093E+01 0.  1.
</event>
<event>
 5   0  0.1330225E-04  0.1794077E+04  0.7818609E-02  0.8709456E-01
       -1   -1    0    0    0  501  0.00000000000E+00  0.00000000000E+00  0.98888081611E+03  0.98888081612E+03  0.50400001928E-02 0. -1.
        1   -1    0    0  501    0  0.00000000000E+00  0.00000000000E+00 -0.81372582134E+03  0.81372582136E+03  0.50400001928E-02 0.  1.
    10030    2    1    2    0    0  0.00000000000E+00  0.00000000000E+00  0.17515499477E+03  0.18026066375E+04  0.17940767590E+04 0.  0.
        3    1    3    3  502    0  0.19596235294E+03  0.30043876141E+03 -0.73853181527E+03  0.82103224388E+03  0.10100000352E+00 0.  1.
       -3    1    3    3    0  502 -0.19596235294E+03 -0.30043876141E+03  0.91368681004E+03  0.98157439360E+03  0.10100000352E+00 0. -1.
</event>
<event>
 5   0  0.2393421E-04  0.1801082E+04  0.7818609E-02  0.8705724E-01
        2   -1    0    0  501    0  0.00000000000E+00  0.00000000000E+00  0.23137941666E+04  0.23137941666E+04  0.25500000920E-02 0.  1.
       -2   -1    0    0    0  501  0.00000000000E+00  0.00000000000E+00 -0.35049524585E+03  0.35049524586E+03  0.25500000920E-02 0. -1.
    10030    2    1    2    0    0  0.00000000000E+00  0.00000000000E+00  0.19632989207E+04  0.26642894124E+04  0.18010817364E+04 0.  0.
        5    1    3    3  502    0  0.16324302631E+03  0.88467642628E+03  0.10417577985E+04  0.13764381808E+04  0.46999998093E+01 0.  1.
       -5    1    3    3    0  502 -0.16324302631E+03 -0.88467642628E+03  0.92154112225E+03  0.12878512316E+04  0.46999998093E+01 0. -1.
</event>
<event>
 5   0  0.1253925E-04  0.1800985E+04  0.7818609E-02  0.8705776E-01
       -1   -1    0    0    0  501  0.00000000000E+00  0.00000000000E+00  0.66611198109E+03  0.66611198111E+03  0.50400001928E-02 0.  1.
        1   -1    0    0  501    0  0.00000000000E+00  0.00000000000E+00 -0.12173430295E+04  0.12173430295E+04  0.50400001928E-02 0. -1.
    10030    2    1    2    0    0  0.00000000000E+00  0.00000000000E+00 -0.55123104844E+03  0.18834550107E+04  0.18009850384E+04 0.  0.
        2    1    3    3  502    0  0.13845328992E+03 -0.75227195387E+03 -0.77256394883E+03  0.10871694721E+04  0.25500000920E-02 0.  1.
       -2    1    3    3    0  502 -0.13845328992E+03  0.75227195387E+03  0.22133290039E+03  0.79628553853E+03  0.25500000920E-02 0. -1.
</event>
<event>
 5   0  0.2550616E-04  0.1796156E+04  0.7818609E-02  0.8708346E-01
       -2   -1    0    0    0  501  0.00000000000E+00  0.00000000000E+00  0.51818874724E+03  0.51818874725E+03  0.25500000920E-02 0.  1.
        2   -1    0    0  501    0  0.00000000000E+00  0.00000000000E+00 -0.15564676159E+04  0.15564676159E+04  0.25500000920E-02 0. -1.
    10030    2    1    2    0    0  0.00000000000E+00  0.00000000000E+00 -0.10382788687E+04  0.20746563632E+04  0.17961558997E+04 0.  0.
        1    1    3    3  502    0 -0.23350375114E+03  0.39616016803E+03 -0.14101621392E+04  0.14832478348E+04  0.50400001928E-02 0. -1.
       -1    1    3    3    0  502  0.23350375114E+03 -0.39616016803E+03  0.37188327053E+03  0.59140852839E+03  0.50400001928E-02 0.  1.
</event>
<event>
 5   0  0.1253925E-04  0.1870228E+04  0.7818609E-02  0.8669819E-01
       -1   -1    0    0    0  501  0.00000000000E+00  0.00000000000E+00  0.45613134822E+03  0.45613134825E+03  0.50400001928E-02 0. -1.
        1   -1    0    0  501    0  0.00000000000E+00  0.00000000000E+00 -0.19170758739E+04  0.19170758739E+04  0.50400001928E-02 0.  1.
    10030    2    1    2    0    0  0.00000000000E+00  0.00000000000E+00 -0.14609445257E+04  0.23732072222E+04  0.18702282246E+04 0.  0.
        2    1    3    3  502    0  0.82384006633E+03 -0.43748654110E+03 -0.64695833002E+03  0.11351924988E+04  0.25500000920E-02 0. -1.
       -2    1    3    3    0  502 -0.82384006633E+03  0.43748654110E+03 -0.81398619568E+03  0.12380147234E+04  0.25500000920E-02 0.  1.
</event>
<event>
 5   0  0.2417106E-04  0.1738290E+04  0.7818609E-02  0.8739823E-01
       -2   -1    0    0    0  501  0.00000000000E+00  0.00000000000E+00  0.40083564885E+03  0.40083564886E+03  0.25500000920E-02 0. -1.
        2   -1    0    0  501    0  0.00000000000E+00  0.00000000000E+00 -0.18845945563E+04  0.18845945563E+04  0.25500000920E-02 0.  1.
    10030    2    1    2    0    0  0.00000000000E+00  0.00000000000E+00 -0.14837589074E+04  0.22854302051E+04  0.17382895982E+04 0.  0.
        4    1    3    3  502    0  0.15219380834E+03 -0.80032271205E+02  0.37824728051E+03  0.41550058706E+03  0.12699999809E+01 0. -1.
       -4    1    3    3    0  502 -0.15219380834E+03  0.80032271205E+02 -0.18620061879E+04  0.18699296181E+04  0.12699999809E+01 0.  1.
</event>
<event>
 5   0  0.1308893E-04  0.1771106E+04  0.7818609E-02  0.8721818E-01
       -1   -1    0    0    0  501  0.00000000000E+00  0.00000000000E+00  0.42795376358E+03  0.42795376361E+03  0.50400001928E-02 0. -1.
        1   -1    0    0  501    0  0.00000000000E+00  0.00000000000E+00 -0.18324496815E+04  0.18324496815E+04  0.50400001928E-02 0.  1.
    10030    2    1    2    0    0  0.00000000000E+00  0.00000000000E+00 -0.14044959179E+04  0.22604034451E+04  0.17711055732E+04 0.  0.
        4    1    3    3  502    0  0.86799824453E+02  0.40423031649E+03 -0.17017090049E+04  0.17512142954E+04  0.12699999809E+01 0.  1.
       -4    1    3    3    0  502 -0.86799824453E+02 -0.40423031649E+03  0.29721308691E+03  0.50918914975E+03  0.12699999809E+01 0. -1.
</event>
<event>
 5   0  0.9144875E-05  0.1798421E+04  0.7818609E-02  0.8707140E-01
        4   -1    0    0  501    0  0.00000000000E+00  0.00000000000E+00  0.13095966349E+04  0.13095972507E+04  0.12699999809E+01 0. -1.
       -4   -1    0    0    0  501  0.00000000000E+00  0.00000000000E+00 -0.61742470710E+03  0.61742601325E+03  0.12699999809E+01 0.  1.
    10030    2    1    2    0    0  0.00000000000E+00  0.00000000000E+00  0.69217192781E+03  0.19270232639E+04  0.17984206077E+04 0.  0.
        4    1    3    3  502    0  0.56770436702E+03  0.12123907979E+03  0.10819171035E+04  0.12278165150E+04  0.12699999809E+01 0. -1.
       -4    1    3    3    0  502 -0.56770436702E+03 -0.12123907979E+03 -0.38974517573E+03  0.69920674890E+03  0.12699999809E+01 0.  1.
</event>
<event>
 5   0  0.1239119E-04  0.1792996E+04  0.7818609E-02  0.8710033E-01
        1   -1    0    0  501    0  0.00000000000E+00  0.00000000000E+00  0.11160227954E+04  0.11160227954E+04  0.50400001928E-02 0. -1.
       -1   -1    0    0    0  501  0.00000000000E+00  0.00000000000E+00 -0.72015425006E+03  0.72015425008E+03  0.50400001928E-02 0.  1.
    10030    2    1    2    0    0  0.00000000000E+00  0.00000000000E+00  0.39586854536E+03  0.18361770455E+04  0.17929958832E+04 0.  0.
        5    1    3    3  502    0 -0.16407795782E+03 -0.65317237066E+01  0.11004777436E+04  0.11126713773E+04  0.46999998093E+01 0. -1.
       -5    1    3    3    0  502  0.16407795782E+03  0.65317237066E+01 -0.70460919826E+03  0.72350566821E+03  0.46999998093E+01 0.  1.
</event>
<event>
 5   0  0.1253925E-04  0.1577311E+04  0.7818609E-02  0.8834609E-01
       -1   -1    0    0    0  501  0.00000000000E+00  0.00000000000E+00  0.42398830293E+03  0.42398830296E+03  0.50400001928E-02 0. -1.
        1   -1    0    0  501    0  0.00000000000E+00  0.00000000000E+00 -0.14669680559E+04  0.14669680559E+04  0.50400001928E-02 0.  1.
    10030    2    1    2    0    0  0.00000000000E+00  0.00000000000E+00 -0.10429797530E+04  0.18909563589E+04  0.15773107449E+04 0.  0.
        2    1    3    3  502    0  0.49166830057E+03 -0.89896144266E+02 -0.12528446099E+04  0.13488656905E+04  0.25500000920E-02 0.  1.
       -2    1    3    3    0  502 -0.49166830057E+03  0.89896144266E+02  0.20986485691E+03  0.54209066835E+03  0.25500000920E-02 0. -1.
</event>
<event>
 5   0  0.1330225E-04  0.1799838E+04  0.7818609E-02  0.8706386E-01
        1   -1    0    0  501    0  0.00000000000E+00  0.00000000000E+00  0.92475759074E+03  0.92475759076E+03  0.50400001928E-02 0. -1.
       -1   -1    0    0    0  501  0.00000000000E+00  0.00000000000E+00 -0.87574721468E+03  0.87574721470E+03  0.50400001928E-02 0.  1.
    10030    2    1    2    0    0  0.00000000000E+00  0.00000000000E+00  0.49010376061E+02  0.18005048055E+04  0.17998376420E+04 0.  0.
        3    1    3    3  502    0  0.14316159040E+03 -0.84130578635E+03  0.31020378086E+03  0.90802921923E+03  0.10100000352E+00 0. -1.
       -3    1    3    3    0  502 -0.14316159040E+03  0.84130578635E+03 -0.26119340480E+03  0.89247558623E+03  0.10100000352E+00 0.  1.
</event>
<event>
 5   0  0.1239119E-04  0.1729281E+04  0.7818609E-02  0.8744838E-01
       -1   -1    0    0    0  501  0.00000000000E+00  0.00000000000E+00  0.83650242858E+03  0.83650242860E+03  0.50400001928E-02 0. -1.
        1   -1    0    0  501    0  0.00000000000E+00  0.00000000000E+00 -0.89372510797E+03  0.89372510798E+03  0.50400001928E-02 0.  1.
    10030    2    1    2    0    0  0.00000000000E+00  0.00000000000E+00 -0.57222679386E+02  0.17302275366E+04  0.17292810336E+04 0.  0.
        5    1    3    3  502    0 -0.66918384315E+03 -0.54684037464E+03 -0.55824058097E+02  0.86601375666E+03  0.46999998093E+01 0.  1.
       -5    1    3    3    0  502  0.66918384315E+03  0.54684037464E+03 -0.13986212893E+01  0.86421377992E+03  0.46999998093E+01 0. -1.
</event>
<event>
 5   0  0.1239119E-04  0.1847009E+04  0.7818609E-02  0.8681693E-01
        1   -1    0    0  501    0  0.00000000000E+00  0.00000000000E+00  0.17745846942E+04  0.17745846942E+04  0.50400001928E-02 0. -1.
       -1   -1    0    0    0  501  0.00000000000E+00  0.00000000000E+00 -0.48059704941E+03  0.48059704944E+03  0.50400001928E-02 0.  1.
    10030    2    1    2    0    0  0.00000000000E+00  0.00000000000E+00  0.12939876448E+04  0.22551817437E+04  0.18470085739E+04 0.  0.
        5    1    3    3  502    0 -0.56376269718E+03  0.21780290750E+03 -0.20557968411E+03  0.63839766742E+03  0.46999998093E+01 0.  1.
       -5    1    3    3    0  502  0.56376269718E+03 -0.21780290750E+03  0.14995673289E+04  0.16167840762E+04  0.46999998093E+01 0. -1.
</event>
<event>
 5   0  0.1239119E-04  0.1790718E+04  0.7818609E-02  0.8711251E-01
        1   -1    0    0  501    0  0.00000000000E+00  0.00000000000E+00  0.12674108914E+04  0.12674108915E+04  0.50400001928E-02 0. -1.
       -1   -1    0    0    0  501  0.00000000000E+00  0.00000000000E+00 -0.63252419198E+03  0.63252419200E+03  0.50400001928E-02 0.  1.
    10030    2    1    2    0    0  0.00000000000E+00  0.00000000000E+00  0.63488669947E+03  0.18999350835E+04  0.17907183475E+04 0.  0.
        5    1    3    3  502    0 -0.18932342589E+03 -0.57020523935E+03  0.10217593016E+04  0.11853233883E+04  0.46999998093E+01 0. -1.
       -5    1    3    3    0  502  0.18932342589E+03  0.57020523935E+03 -0.38687260209E+03  0.71461169514E+03  0.46999998093E+01 0.  1.
</event>
<event>
 5   0  0.2417106E-04  0.1817174E+04  0.7818609E-02  0.8697219E-01
       -2   -1    0    0    0  501  0.00000000000E+00  0.00000000000E+00  0.41468679041E+03  0.41468679042E+03  0.25500000920E-02 0. -1.
        2   -1    0    0  501    0  0.00000000000E+00  0.00000000000E+00 -0.19907323251E+04  0.19907323251E+04  0.25500000920E-02 0.  1.
    10030    2    1    2    0    0  0.00000000000E+00  0.00000000000E+00 -0.15760455347E+04  0.24054191155E+04  0.18171740681E+04 0.  0.
        4    1    3    3  502    0 -0.89905105924E+03 -0.12483971386E+03 -0.73423655512E+03  0.11674684977E+04  0.12699999809E+01 0.  1.
       -4    1    3    3    0  502  0.89905105924E+03  0.12483971386E+03 -0.84180897957E+03  0.12379506179E+04  0.12699999809E+01 0. -1.
</event>
<event>
 5   0  0.1308893E-04  0.1773120E+04  0.7818609E-02  0.8720726E-01
        1   -1    0    0  501    0  0.00000000000E+00  0.00000000000E+00  0.10474437986E+04  0.10474437986E+04  0.50400001928E-02 0.  1.
       -1   -1    0    0    0  501  0.00000000000E+00  0.00000000000E+00 -0.75038710712E+03  0.75038710713E+03  0.50400001928E-02 0. -1.
    10030    2    1    2    0    0  0.00000000000E+00  0.00000000000E+00  0.29705669147E+03  0.17978309057E+04  0.17731196484E+04 0.  0.
        4    1    3    3  502    0  0.39562207525E+03  0.38001483076E+03  0.85469614302E+03  0.10155959865E+04  0.12699999809E+01 0.  1.
       -4    1    3    3    0  502 -0.39562207525E+03 -0.38001483076E+03 -0.55763945155E+03  0.78223491922E+03  0.12699999809E+01 0. -1.
</event>
<event>
 5   0  0.2431811E-04  0.1799789E+04  0.7818609E-02  0.8706412E-01
        2   -1    0    0  501    0  0.00000000000E+00  0.00000000000E+00  0.13208405695E+04  0.13208405695E+04  0.25500000920E-02 0.  1.
       -2   -1    0    0    0  501  0.00000000000E+00  0.00000000000E+00 -0.61310216600E+03  0.61310216601E+03  0.25500000920E-02 0. -1.
    10030    2    1    2    0    0  0.00000000000E+00  0.00000000000E+00  0.70773840349E+03  0.19339427355E+04  0.17997891144E+04 0.  0.
        3    1    3    3  502    0  0.79410873120E+03 -0.41014888118E+03  0.24127611317E+03  0.92576722489E+03  0.10100000352E+00 0.  1.
       -3    1    3    3    0  502 -0.79410873120E+03  0.41014888118E+03  0.46646229032E+03  0.10081755106E+04  0.10100000352E+00 0. -1.
</event>
<event>
 5   0  0.2550616E-04  0.1800764E+04  0.7818609E-02  0.8705893E-01
        2   -1    0    0  501    0  0.00000000000E+00  0.00000000000E+00  0.11768793199E+04  0.11768793199E+04  0.25500000920E-02 0. -1.
       -2   -1    0    0    0  501  0.00000000000E+00  0.00000000000E+00 -0.68884512214E+03  0.68884512215E+03  0.25500000920E-02 0.  1.
    10030    2    1    2    0    0  0.00000000000E+00  0.00000000000E+00  0.48803419772E+03  0.18657244420E+04  0.18007638144E+04 0.  0.
        1    1    3    3  502    0 -0.13240294191E+02 -0.63327076984E+03  0.90700760322E+03  0.11062865658E+04  0.50400001928E-02 0. -1.
       -1    1    3    3    0  502  0.13240294191E+02  0.63327076984E+03 -0.41897340550E+03  0.75943787623E+03  0.50400001928E-02 0.  1.
</event>
<event>
 5   0  0.1308893E-04  0.1800455E+04  0.7818609E-02  0.8706057E-01
        1   -1    0    0  501    0  0.00000000000E+00  0.00000000000E+00  0.14270534765E+04  0.14270534765E+04  0.50400001928E-02 0. -1.
       -1   -1    0    0    0  501  0.00000000000E+00  0.00000000000E+00 -0.56789030422E+03  0.56789030425E+03  0.50400001928E-02 0.  1.
    10030    2    1    2    0    0  0.00000000000E+00  0.00000000000E+00  0.85916317227E+03  0.19949437808E+04  0.18004553124E+04 0.  0.
        4    1    3    3  502    0 -0.83717384596E+03 -0.75438310178E+02  0.72500630151E+02  0.84368770364E+03  0.12699999809E+01 0.  1.
       -4    1    3    3    0  502  0.83717384596E+03  0.75438310178E+02  0.78666254212E+03  0.11512560771E+04  0.12699999809E+01 0. -1.
</event>
<event>
 5   0  0.2550616E-04  0.1824808E+04  0.7818609E-02  0.8693217E-01
        2   -1    0    0  501    0  0.00000000000E+00  0.00000000000E+00  0.19625408453E+04  0.19625408453E+04  0.25500000920E-02 0.  1.
       -2   -1    0    0    0  501  0.00000000000E+00  0.00000000000E+00 -0.42418534811E+03  0.42418534812E+03  0.25500000920E-02 0. -1.
    10030    2    1    2    0    0  0.00000000000E+00  0.00000000000E+00  0.15383554972E+04  0.23867261934E+04  0.18248080136E+04 0.  0.
        1    1    3    3  502    0  0.28436557433E+03 -0.25391800373E+03  0.18533766527E+04  0.18921794707E+04  0.50400001928E-02 0.  1.
       -1    1    3    3    0  502 -0.28436557433E+03  0.25391800373E+03 -0.31502115553E+03  0.49454672271E+03  0.50400001928E-02 0. -1.
</event>
<event>
 5   0  0.2431811E-04  0.1763246E+04  0.7818609E-02  0.8726093E-01
        2   -1    0    0  501    0  0.00000000000E+00  0.00000000000E+00  0.10216751004E+04  0.10216751004E+04  0.25500000920E-02 0. -1.
       -2   -1    0    0    0  501  0.00000000000E+00  0.00000000000E+00 -0.76076897466E+03  0.76076897466E+03  0.25500000920E-02 0.  1.
    10030    2    1    2    0    0  0.00000000000E+00  0.00000000000E+00  0.26090612575E+03  0.17824440751E+04  0.17632455513E+04 0.  0.
        3    1    3    3  502    0  0.20261546560E+03  0.39611403737E+03  0.89985741171E+03  0.10038439765E+04  0.10100000352E+00 0. -1.
       -3    1    3    3    0  502 -0.20261546560E+03 -0.39611403737E+03 -0.63895128596E+03  0.77860009860E+03  0.10100000352E+00 0.  1.
</event>
<event>
 5   0  0.1253925E-04  0.1793655E+04  0.7818609E-02  0.8709681E-01
        1   -1    0    0  501    0  0.00000000000E+00  0.00000000000E+00  0.11521917757E+04  0.11521917757E+04  0.50400001928E-02 0. -1.
       -1   -1    0    0    0  501  0.00000000000E+00  0.00000000000E+00 -0.69806080953E+03  0.69806080955E+03  0.50400001928E-02 0.  1.
    10030    2    1    2    0    0  0.00000000000E+00  0.00000000000E+00  0.45413096620E+03  0.18502525853E+04  0.17936554003E+04 0.  0.
        2    1    3    3  502    0  0.11031875409E+03  0.87384890266E+03  0.40126620693E+03  0.96788258638E+03  0.25500000920E-02 0.  1.
       -2    1    3    3    0  502 -0.11031875409E+03 -0.87384890266E+03  0.52864759266E+02  0.88236999891E+03  0.25500000920E-02 0. -1.
</event>
<event>
 5   0  0.2431811E-04  0.1774489E+04  0.7818609E-02  0.8719985E-01
        2   -1    0    0  501    0  0.00000000000E+00  0.00000000000E+00  0.22168721312E+04  0.22168721312E+04  0.25500000920E-02 0. -1.
       -2   -1    0    0    0  501  0.00000000000E+00  0.00000000000E+00 -0.35509597693E+03  0.35509597694E+03  0.25500000920E-02 0.  1.
    10030    2    1    2    0    0  0.00000000000E+00  0.00000000000E+00  0.18617761543E+04  0.25719681081E+04  0.17744885180E+04 0.  0.
        3    1    3    3  502    0 -0.43549494629E+03  0.38765009382E+03  0.19002348619E+04  0.19876672217E+04  0.10100000352E+00 0. -1.
       -3    1    3    3    0  502  0.43549494629E+03 -0.38765009382E+03 -0.38458707677E+02  0.58430088643E+03  0.10100000352E+00 0.  1.
</event>
<event>
 5   0  0.1308893E-04  0.1810642E+04  0.7818609E-02  0.8700660E-01
       -1   -1    0    0    0  501  0.00000000000E+00  0.00000000000E+00  0.68261657825E+03  0.68261657827E+03  0.50400001928E-02 0.  1.
        1   -1    0    0  501    0  0.00000000000E+00  0.00000000000E+00 -0.12006833167E+04  0.12006833167E+04  0.50400001928E-02 0. -1.
    10030    2    1    2    0    0  0.00000000000E+00  0.00000000000E+00 -0.51806673841E+03  0.18832998949E+04  0.18106422476E+04 0.  0.
        4    1    3    3  502    0 -0.32725342728E+03  0.82431177493E+03 -0.70027419841E+02  0.88965732750E+03  0.12699999809E+01 0. -1.
       -4    1    3    3    0  502  0.32725342728E+03 -0.82431177493E+03 -0.44803931856E+03  0.99364256744E+03  0.12699999809E+01 0.  1.
</event>
<event>
 5   0  0.9144875E-05  0.1787118E+04  0.7818609E-02  0.8713180E-01
        4   -1    0    0  501    0  0.00000000000E+00  0.00000000000E+00  0.89082974637E+03  0.89083065165E+03  0.12699999809E+01 0.  1.
       -4   -1    0    0    0  501  0.00000000000E+00  0.00000000000E+00 -0.89629492924E+03  0.89629582900E+03  0.12699999809E+01 0. -1.
    10030    2    1    2    0    0  0.00000000000E+00  0.00000000000E+00 -0.54651828737E+01  0.17871264806E+04  0.17871181241E+04 0.  0.
        5    1    3    3  502    0 -0.18755624110E+03  0.48541605885E+03  0.72364509814E+03  0.89134191634E+03  0.46999998093E+01 0.  1.
       -5    1    3    3    0  502  0.18755624110E+03 -0.48541605885E+03 -0.72911028101E+03  0.89578456430E+03  0.46999998093E+01 0. -1.
</event>
<event>
 5   0  0.1308893E-04  0.1807137E+04  0.7818609E-02  0.8702513E-01
       -1   -1    0    0    0  501  0.00000000000E+00  0.00000000000E+00  0.10243671024E+04  0.10243671024E+04  0.50400001928E-02 0. -1.
        1   -1    0    0  501    0  0.00000000000E+00  0.00000000000E+00 -0.79701474415E+03  0.79701474417E+03  0.50400001928E-02 0.  1.
    10030    2    1    2    0    0  0.00000000000E+00  0.00000000000E+00  0.22735235825E+03  0.18213818466E+04  0.18071366125E+04 0.  0.
        4    1    3    3  502    0 -0.63544974743E+03 -0.33281615665E+03 -0.44008280390E+03  0.84156845404E+03  0.12699999809E+01 0.  1.
       -4    1    3    3    0  502  0.63544974743E+03  0.33281615665E+03  0.66743516214E+03  0.97981339254E+03  0.12699999809E+01 0. -1.
</event>
<event>
 5   0  0.2550616E-04  0.1791366E+04  0.7818609E-02  0.8710904E-01
       -2   -1    0    0    0  501  0.00000000000E+00  0.00000000000E+00  0.39066379411E+03  0.39066379412E+03  0.25500000920E-02 0.  1.
        2   -1    0    0  501    0  0.00000000000E+00  0.00000000000E+00 -0.20535520741E+04  0.20535520741E+04  0.25500000920E-02 0. -1.
    10030    2    1    2    0    0  0.00000000000E+00  0.00000000000E+00 -0.16628882800E+04  0.24442158682E+04  0.17913664557E+04 0.  0.
        1    1    3    3  502    0  0.22967591464E+03  0.24417341840E+03  0.30184539762E+03  0.45109015519E+03  0.50400001928E-02 0.  1.
       -1    1    3    3    0  502 -0.22967591464E+03 -0.24417341840E+03 -0.19647336776E+04  0.19931257130E+04  0.50400001928E-02 0. -1.
</event>
<event>
 5   0  0.1214723E-04  0.1774099E+04  0.7818609E-02  0.8720196E-01
       -1   -1    0    0    0  501  0.00000000000E+00  0.00000000000E+00  0.12164650282E+04  0.12164650282E+04  0.50400001928E-02 0.  1.
        1   -1    0    0  501    0  0.00000000000E+00  0.00000000000E+00 -0.64683897804E+03  0.64683897806E+03  0.50400001928E-02 0. -1.
    10030    2    1    2    0    0  0.00000000000E+00  0.00000000000E+00  0.56962605016E+03  0.18633040063E+04  0.17740992032E+04 0.  0.
        1    1    3    3  502    0 -0.18681968548E+03  0.80120885161E+01  0.11955297661E+04  0.12100649611E+04  0.50400001928E-02 0.  1.
       -1    1    3    3    0  502  0.18681968548E+03 -0.80120885161E+01 -0.62590371595E+03  0.65323904515E+03  0.50400001928E-02 0. -1.
</event>
<event>
 5   0  0.1253925E-04  0.1791451E+04  0.7818609E-02  0.8710859E-01
       -1   -1    0    0    0  501  0.00000000000E+00  0.00000000000E+00  0.65343739494E+03  0.65343739496E+03  0.50400001928E-02 0.  1.
        1   -1    0    0  501    0  0.00000000000E+00  0.00000000000E+00 -0.12278510225E+04  0.12278510225E+04  0.50400001928E-02 0. -1.
    10030    2    1    2    0    0  0.00000000000E+00  0.00000000000E+00 -0.57441362757E+03  0.18812884175E+04  0.17914505559E+04 0.  0.
        2    1    3    3  502    0 -0.36180144093E+03  0.27118959746E+03  0.52479585575E+03  0.69271550484E+03  0.25500000920E-02 0.  1.
       -2    1    3    3    0  502  0.36180144093E+03 -0.27118959746E+03 -0.10992094833E+04  0.11885729126E+04  0.25500000920E-02 0. -1.
</event>
<event>
 5   0  0.2569405E-04  0.1790909E+04  0.7818609E-02  0.8711149E-01
        2   -1    0    0  501    0  0.00000000000E+00  0.00000000000E+00  0.12902165216E+04  0.12902165216E+04  0.25500000920E-02 0. -1.
       -2   -1    0    0    0  501  0.00000000000E+00  0.00000000000E+00 -0.62147641925E+03  0.62147641925E+03  0.25500000920E-02 0.  1.
    10030    2    1    2    0    0  0.00000000000E+00  0.00000000000E+00  0.66874010234E+03  0.19116929408E+04  0.17909094270E+04 0.  0.
        2    1    3    3  502    0 -0.18836923190E+03  0.12904323905E+03 -0.58987989389E+03  0.63252937820E+03  0.25500000920E-02 0.  1.
       -2    1    3    3    0  502  0.18836923190E+03 -0.12904323905E+03  0.12586199962E+04  0.12791635626E+04  0.25500000920E-02 0. -1.
</event>
<event>
 5   0  0.2569405E-04  0.1803634E+04  0.7818609E-02  0.8704369E-01
       -2   -1    0    0    0  501  0.00000000000E+00  0.00000000000E+00  0.12453677310E+04  0.12453677310E+04  0.25500000920E-02 0. -1.
        2   -1    0    0  501    0  0.00000000000E+00  0.00000000000E+00 -0.65303936929E+03  0.65303936930E+03  0.25500000920E-02 0.  1.
    10030    2    1    2    0    0  0.00000000000E+00  0.00000000000E+00  0.59232836174E+03  0.18984071003E+04  0.18036342840E+04 0.  0.
        2    1    3    3  502    0 -0.56245326228E+03  0.69439216693E+03  0.16837630060E+03  0.90933202537E+03  0.25500000920E-02 0.  1.
       -2    1    3    3    0  502  0.56245326228E+03 -0.69439216693E+03  0.42395206114E+03  0.98907507496E+03  0.25500000920E-02 0. -1.
</event>
<event>
 5   0  0.2393421E-04  0.1797501E+04  0.7818609E-02  0.8707629E-01
       -2   -1    0    0    0  501  0.00000000000E+00  0.00000000000E+00  0.10047428590E+04  0.10047428590E+04  0.25500000920E-02 0.  1.
        2   -1    0    0  501    0  0.00000000000E+00  0.00000000000E+00 -0.80393987012E+03  0.80393987012E+03  0.25500000920E-02 0. -1.
    10030    2    1    2    0    0  0.00000000000E+00  0.00000000000E+00  0.20080298892E+03  0.18086827292E+04  0.17975014254E+04 0.  0.
        5    1    3    3  502    0  0.74346666634E+03  0.49486792770E+03 -0.69138739758E+00  0.89311786335E+03  0.46999998093E+01 0.  1.
       -5    1    3    3    0  502 -0.74346666634E+03 -0.49486792770E+03  0.20149437632E+03  0.91556486581E+03  0.46999998093E+01 0. -1.
</event>
<event>
 5   0  0.2550616E-04  0.1808230E+04  0.7818609E-02  0.8701935E-01
       -2   -1    0    0    0  501  0.00000000000E+00  0.00000000000E+00  0.37029324070E+03  0.37029324070E+03  0.25500000920E-02 0.  1.
        2   -1    0    0  501    0  0.00000000000E+00  0.00000000000E+00 -0.22075039633E+04  0.22075039633E+04  0.25500000920E-02 0. -1.
    10030    2    1    2    0    0  0.00000000000E+00  0.00000000000E+00 -0.18372107226E+04  0.25777972040E+04  0.18082298487E+04 0.  0.
        1    1    3    3  502    0  0.95591421447E+02  0.78592810716E+03 -0.15409917402E+04  0.17324769126E+04  0.50400001928E-02 0.  1.
       -1    1    3    3    0  502 -0.95591421447E+02 -0.78592810716E+03 -0.29621898247E+03  0.84532029141E+03  0.50400001928E-02 0. -1.
</event>
<event>
 5   0  0.1330225E-04  0.1799528E+04  0.7818609E-02  0.8706551E-01
       -1   -1    0    0    0  501  0.00000000000E+00  0.00000000000E+00  0.65453267578E+03  0.65453267580E+03  0.50400001928E-02 0. -1.
        1   -1    0    0  501    0  0.00000000000E+00  0.00000000000E+00 -0.12368750524E+04  0.12368750524E+04  0.50400001928E-02 0.  1.
    10030    2    1    2    0    0  0.00000000000E+00  0.00000000000E+00 -0.58234237662E+03  0.18914077282E+04  0.17995278688E+04 0.  0.
        3    1    3    3  502    0 -0.89623285288E+03  0.63858045713E+02 -0.24116081640E+03  0.93030625395E+03  0.10100000352E+00 0. -1.
       -3    1    3    3    0  502  0.89623285288E+03 -0.63858045713E+02 -0.34118156022E+03  0.96110147425E+03  0.10100000352E+00 0.  1.
</event>
<event>
 5   0  0.2417106E-04  0.1790023E+04  0.7818609E-02  0.8711623E-01
       -2   -1    0    0    0  501  0.00000000000E+00  0.00000000000E+00  0.10440665452E+04  0.10440665452E+04  0.25500000920E-02 0. -1.
        2   -1    0    0  501    0  0.00000000000E+00  0.00000000000E+00 -0.76723572079E+03  0.76723572079E+03  0.25500000920E-02 0.  1.
    10030    2    1    2    0    0  0.00000000000E+00  0.00000000000E+00  0.27683082442E+03  0.18113022660E+04  0.17900225120E+04 0.  0.
        4    1    3    3  502    0  0.32425836192E+03 -0.42728758991E+03 -0.58656921905E+03  0.79484792973E+03  0.12699999809E+01 0.  1.
       -4    1    3    3    0  502 -0.32425836192E+03  0.42728758991E+03  0.86340004347E+03  0.10164543363E+04  0.12699999809E+01 0. -1.
</event>
<event>
 5   0  0.2393421E-04  0.1815802E+04  0.7818609E-02  0.8697941E-01
        2   -1    0    0  501    0  0.00000000000E+00  0.00000000000E+00  0.47326468608E+03  0.47326468609E+03  0.25500000920E-02 0.  1.
       -2   -1    0    0    0  501  0.00000000000E+00  0.00000000000E+00 -0.17416974270E+04  0.17416974270E+04  0.25500000920E-02 0. -1.
    10030    2    1    2    0    0  0.00000000000E+00  0.00000000000E+00 -0.12684327409E+04  0.22149621131E+04  0.18158016258E+04 0.  0.
        5    1    3    3  502    0 -0.52462847435E+03 -0.18639614665E+03  0.24056411361E+03  0.60652431307E+03  0.46999998093E+01 0.  1.
       -5    1    3    3    0  502  0.52462847435E+03  0.18639614665E+03 -0.15089968545E+04  0.16084378000E+04  0.46999998093E+01 0. -1.
</event>
<event>
 5   0  0.2431811E-04  0.1779949E+04  0.7818609E-02  0.8717035E-01
        2   -1    0    0  501    0  0.00000000000E+00  0.00000000000E+00  0.13894108504E+04  0.13894108504E+04  0.25500000920E-02 0. -1.
       -2   -1    0    0    0  501  0.00000000000E+00  0.00000000000E+00 -0.57006533054E+03  0.57006533055E+03  0.25500000920E-02 0.  1.
    10030    2    1    2    0    0  0.00000000000E+00  0.00000000000E+00  0.81934551982E+03  0.19594761809E+04  0.17799493877E+04 0.  0.
        3    1    3    3  502    0  0.31949314583E+03 -0.82387119619E+03  0.52625658806E+03  0.10284870562E+04  0.10100000352E+00 0. -1.
       -3    1    3    3    0  502 -0.31949314583E+03  0.82387119619E+03  0.29308893176E+03  0.93098912468E+03  0.10100000352E+00 0.  1.
</event>
<event>
 5   0  0.1214723E-04  0.1841547E+04  0.7818609E-02  0.8684512E-01
       -1   -1    0    0    0  501  0.00000000000E+00  0.00000000000E+00  0.14304789228E+04  0.14304789228E+04  0.50400001928E-02 0.  1.
        1   -1    0    0  501    0  0.00000000000E+00  0.00000000000E+00 -0.59268543759E+03  0.59268543761E+03  0.50400001928E-02 0. -1.
    10030    2    1    2    0    0  0.00000000000E+00  0.00000000000E+00  0.83779348521E+03  0.20231643604E+04  0.18415472042E+04 0.  0.
        1    1    3    3  502    0  0.18979266040E+02 -0.70763992150E+03  0.10657879018E+04  0.12794601685E+04  0.50400001928E-02 0.  1.
       -1    1    3    3    0  502 -0.18979266040E+02  0.70763992150E+03 -0.22799441663E+03  0.74370419192E+03  0.50400001928E-02 0. -1.
</event>
<event>
 5   0  0.9144875E-05  0.1868946E+04  0.7818609E-02  0.8670470E-01
       -4   -1    0    0    0  501  0.00000000000E+00  0.00000000000E+00  0.11927157486E+04  0.11927164248E+04  0.12699999809E+01 0.  1.
        4   -1    0    0  501    0  0.00000000000E+00  0.00000000000E+00 -0.73214265397E+03  0.73214375547E+03  0.12699999809E+01 0. -1.
    10030    2    1    2    0    0  0.00000000000E+00  0.00000000000E+00  0.46057309464E+03  0.19248601802E+04  0.18689459965E+04 0.  0.
        4    1    3    3  502    0  0.15445453923E+03  0.94270435380E+02  0.11744996359E+04  0.11883577438E+04  0.12699999809E+01 0.  1.
       -4    1    3    3    0  502 -0.15445453923E+03 -0.94270435380E+02 -0.71392654124E+03  0.73650243643E+03  0.12699999809E+01 0. -1.
</event>
<event>
 5   0  0.1253925E-04  0.1807576E+04  0.7818609E-02  0.8702281E-01
        1   -1    0    0  501    0  0.00000000000E+00  0.00000000000E+00  0.96535884037E+03  0.96535884039E+03  0.50400001928E-02 0. -1.
       -1   -1    0    0    0  501  0.00000000000E+00  0.00000000000E+00 -0.84614461012E+03  0.84614461013E+03  0.50400001928E-02 0.  1.
    10030    2    1    2    0    0  0.00000000000E+00  0.00000000000E+00  0.11921423025E+03  0.18115034505E+04  0.18075764765E+04 0.  0.
        2    1    3    3  502    0 -0.84958183906E+02 -0.60243100501E+03  0.72940944683E+03  0.94983111654E+03  0.25500000920E-02 0. -1.
       -2    1    3    3    0  502  0.84958183906E+02  0.60243100501E+03 -0.61019521657E+03  0.86167233398E+03  0.25500000920E-02 0.  1.
</event>
<event>
 5   0  0.2569405E-04  0.1808007E+04  0.7818609E-02  0.8702053E-01
       -2   -1    0    0    0  501  0.00000000000E+00  0.00000000000E+00  0.50022481978E+03  0.50022481979E+03  0.25500000920E-02 0.  1.
        2   -1    0    0  501    0  0.00000000000E+00  0.00000000000E+00 -0.16337100585E+04  0.16337100585E+04  0.25500000920E-02 0. -1.
    10030    2    1    2    0    0  0.00000000000E+00  0.00000000000E+00 -0.11334852387E+04  0.21339348783E+04  0.18080069907E+04 0.  0.
        2    1    3    3  502    0 -0.18622070578E+02  0.47975214845E+03 -0.14707959808E+04  0.15471747551E+04  0.25500000920E-02 0. -1.
       -2    1    3    3    0  502  0.18622070578E+02 -0.47975214845E+03  0.33731074212E+03  0.58676012323E+03  0.25500000920E-02 0.  1.
</event>
<event>
 5   0  0.2417106E-04  0.1796029E+04  0.7818609E-02  0.8708414E-01
       -2   -1    0    0    0  501  0.00000000000E+00  0.00000000000E+00  0.25221227882E+04  0.25221227882E+04  0.25500000920E-02 0.  1.
        2   -1    0    0  501    0  0.00000000000E+00  0.00000000000E+00 -0.31974242766E+03  0.31974242767E+03  0.25500000920E-02 0. -1.
    10030    2    1    2    0    0  0.00000000000E+00  0.00000000000E+00  0.22023803606E+04  0.28418652159E+04  0.17960285779E+04 0.  0.
        4    1    3    3  502    0  0.19370232149E+03 -0.45857040760E+02  0.24867733080E+04  0.24947277518E+04  0.12699999809E+01 0.  1.
       -4    1    3    3    0  502 -0.19370232149E+03  0.45857040760E+02 -0.28439294741E+03  0.34713746409E+03  0.12699999809E+01 0. -1.
</event>
<event>
 5   0  0.2393421E-04  0.1506165E+04  0.7818609E-02  0.8880364E-01
        2   -1    0    0  501    0  0.00000000000E+00  0.00000000000E+00  0.16472827917E+04  0.16472827917E+04  0.25500000920E-02 0.  1.
       -2   -1    0    0    0  501  0.00000000000E+00  0.00000000000E+00 -0.34428397923E+03  0.34428397924E+03  0.25500000920E-02 0. -1.
    10030    2    1    2    0    0  0.00000000000E+00  0.00000000000E+00  0.13029988125E+04  0.19915667710E+04  0.15061647645E+04 0.  0.
        5    1    3    3  502    0 -0.47939503196E+03 -0.25942077119E+03  0.13385647426E+04  0.14453014887E+04  0.46999998093E+01 0.  1.
       -5    1    3    3    0  502  0.47939503196E+03  0.25942077119E+03 -0.35565930112E+02  0.54626528223E+03  0.46999998093E+01 0. -1.
</event>
<event>
 5   0  0.1308893E-04  0.1799905E+04  0.7818609E-02  0.8706350E-01
        1   -1    0    0  501    0  0.00000000000E+00  0.00000000000E+00  0.11663745025E+04  0.11663745025E+04  0.50400001928E-02 0. -1.
       -1   -1    0    0    0  501  0.00000000000E+00  0.00000000000E+00 -0.69438618890E+03  0.69438618892E+03  0.50400001928E-02 0.  1.
    10030    2    1    2    0    0  0.00000000000E+00  0.00000000000E+00  0.47198831358E+03  0.18607606914E+04  0.17999048260E+04 0.  0.
        4    1    3    3  502    0 -0.18814821023E+03  0.85513729871E+03  0.20988432164E+02  0.87584340828E+03  0.12699999809E+01 0.  1.
       -4    1    3    3    0  502  0.18814821023E+03 -0.85513729871E+03  0.45099988141E+03  0.98491728312E+03  0.12699999809E+01 0. -1.
</event>
<event>
 5   0  0.1308893E-04  0.1800971E+04  0.7818609E-02  0.8705783E-01
        1   -1    0    0  501    0  0.00000000000E+00  0.00000000000E+00  0.14627633040E+04  0.14627633040E+04  0.50400001928E-02 0. -1.
       -1   -1    0    0    0  501  0.00000000000E+00  0.00000000000E+00 -0.55434398966E+03  0.55434398968E+03  0.50400001928E-02 0.  1.
    10030    2    1    2    0    0  0.00000000000E+00  0.00000000000E+00  0.90841931435E+03  0.20171072937E+04  0.18009709003E+04 0.  0.
        4    1    3    3  502    0 -0.37572162693E+03  0.60275878256E+03  0.10741613575E+04  0.12877535190E+04  0.12699999809E+01 0. -1.
       -4    1    3    3    0  502  0.37572162693E+03 -0.60275878256E+03 -0.16574204313E+03  0.72935377469E+03  0.12699999809E+01 0.  1.
</event>
<event>
 5   0  0.2569405E-04  0.1692102E+04  0.7818609E-02  0.8765882E-01
       -2   -1    0    0    0  501  0.00000000000E+00  0.00000000000E+00  0.48604181268E+03  0.48604181268E+03  0.25500000920E-02 0. -1.
        2   -1    0    0  501    0  0.00000000000E+00  0.00000000000E+00 -0.14727170672E+04  0.14727170672E+04  0.25500000920E-02 0.  1.
    10030    2    1    2    0    0  0.00000000000E+00  0.00000000000E+00 -0.98667525451E+03  0.19587588799E+04  0.16921017380E+04 0.  0.
        2    1    3    3  502    0  0.57329411466E+03  0.42351916590E+03 -0.10209843664E+04  0.12451681422E+04  0.25500000920E-02 0.  1.
       -2    1    3    3    0  502 -0.57329411466E+03 -0.42351916590E+03  0.34309111898E+02  0.71359073772E+03  0.25500000920E-02 0. -1.
</event>
<event>
 5   0  0.2550616E-04  0.1783488E+04  0.7818609E-02  0.8715130E-01
        2   -1    0    0  501    0  0.00000000000E+00  0.00000000000E+00  0.67261111999E+03  0.67261112000E+03  0.25500000920E-02 0.  1.
       -2   -1    0    0    0  501  0.00000000000E+00  0.00000000000E+00 -0.11822688277E+04  0.11822688277E+04  0.25500000920E-02 0. -1.
    10030    2    1    2    0    0  0.00000000000E+00  0.00000000000E+00 -0.50965770775E+03  0.18548799477E+04  0.17834877744E+04 0.  0.
        1    1    3    3  502    0  0.57040635106E+03  0.19621885462E+03  0.42822744604E+03  0.73975941347E+03  0.50400001928E-02 0.  1.
       -1    1    3    3    0  502 -0.57040635106E+03 -0.19621885462E+03 -0.93788515380E+03  0.11151205343E+04  0.50400001928E-02 0. -1.
</event>
<event>
 5   0  0.2550616E-04  0.1766580E+04  0.7818609E-02  0.8724276E-01
       -2   -1    0    0    0  501  0.00000000000E+00  0.00000000000E+00  0.52479224362E+03  0.52479224363E+03  0.25500000920E-02 0.  1.
        2   -1    0    0  501    0  0.00000000000E+00  0.00000000000E+00 -0.14866865297E+04  0.14866865297E+04  0.25500000920E-02 0. -1.
    10030    2    1    2    0    0  0.00000000000E+00  0.00000000000E+00 -0.96189428608E+03  0.20114787733E+04  0.17665803797E+04 0.  0.
        1    1    3    3  502    0  0.21549418624E+03 -0.81305765571E+03 -0.78795708086E+03  0.11525523229E+04  0.50400001928E-02 0. -1.
       -1    1    3    3    0  502 -0.21549418624E+03  0.81305765571E+03 -0.17393720522E+03  0.85892645040E+03  0.50400001928E-02 0.  1.
</event>
<event>
 5   0  0.1253925E-04  0.1831569E+04  0.7818609E-02  0.8689689E-01
        1   -1    0    0  501    0  0.00000000000E+00  0.00000000000E+00  0.75392443872E+03  0.75392443874E+03  0.50400001928E-02 0. -1.
       -1   -1    0    0    0  501  0.00000000000E+00  0.00000000000E+00 -0.11123939881E+04  0.11123939881E+04  0.50400001928E-02 0.  1.
    10030    2    1    2    0    0  0.00000000000E+00  0.00000000000E+00 -0.35846954935E+03  0.18663184268E+04  0.18315687409E+04 0.  0.
        2    1    3    3  502    0  0.73905322183E+03 -0.12562517255E+02 -0.73014337516E+03  0.10389739313E+04  0.25500000920E-02 0.  1.
       -2    1    3    3    0  502 -0.73905322183E+03  0.12562517255E+02  0.37167382580E+03  0.82734449556E+03  0.25500000920E-02 0. -1.
</event>
<event>
 5   0  0.2393421E-04  0.1776416E+04  0.7818609E-02  0.8718942E-01
        2   -1    0    0  501    0  0.00000000000E+00  0.00000000000E+00  0.74424741369E+03  0.74424741370E+03  0.25500000920E-02 0.  1.
       -2   -1    0    0    0  501  0.00000000000E+00  0.00000000000E+00 -0.10600156046E+04  0.10600156046E+04  0.25500000920E-02 0. -1.
    10030    2    1    2    0    0  0.00000000000E+00  0.00000000000E+00 -0.31576819086E+03  0.18042630183E+04  0.17764164739E+04 0.  0.
        5    1    3    3  502    0 -0.33281641535E+03 -0.34315182622E+03 -0.91819847975E+03  0.10351958657E+04  0.46999998093E+01 0. -1.
       -5    1    3    3    0  502  0.33281641535E+03  0.34315182622E+03  0.60243028889E+03  0.76906715255E+03  0.46999998093E+01 0.  1.
</event>
<event>
 5   0  0.1308893E-04  0.1943674E+04  0.7818609E-02  0.8633417E-01
        1   -1    0    0  501    0  0.00000000000E+00  0.00000000000E+00  0.12310665202E+04  0.12310665202E+04  0.50400001928E-02 0. -1.
       -1   -1    0    0    0  501  0.00000000000E+00  0.00000000000E+00 -0.76719455431E+03  0.76719455432E+03  0.50400001928E-02 0.  1.
    10030    2    1    2    0    0  0.00000000000E+00  0.00000000000E+00  0.46387196586E+03  0.19982610745E+04  0.19436743866E+04 0.  0.
        4    1    3    3  502    0  0.45741194297E+03 -0.84913117713E+03  0.35451741554E+03  0.10275863236E+04  0.12699999809E+01 0. -1.
       -4    1    3    3    0  502 -0.45741194297E+03  0.84913117713E+03  0.10935455032E+03  0.97067475094E+03  0.12699999809E+01 0.  1.
</event>
<event>
 5   0  0.1214723E-04  0.1780837E+04  0.7818609E-02  0.8716557E-01
        1   -1    0    0  501    0  0.00000000000E+00  0.00000000000E+00  0.22806248657E+04  0.22806248657E+04  0.50400001928E-02 0.  1.
       -1   -1    0    0    0  501  0.00000000000E+00  0.00000000000E+00 -0.34764375239E+03  0.34764375242E+03  0.50400001928E-02 0. -1.
    10030    2    1    2    0    0  0.00000000000E+00  0.00000000000E+00  0.19329811133E+04  0.26282686181E+04  0.17808368664E+04 0.  0.
        1    1    3    3  502    0  0.25960390717E+02 -0.16393930461E+03  0.22575910147E+04  0.22636844363E+04  0.50400001928E-02 0.  1.
       -1    1    3    3    0  502 -0.25960390717E+02  0.16393930461E+03 -0.32460990143E+03  0.36458418179E+03  0.50400001928E-02 0. -1.
</event>
<event>
 5   0  0.1214723E-04  0.1788901E+04  0.7818609E-02  0.8712224E-01
       -1   -1    0    0    0  501  0.00000000000E+00  0.00000000000E+00  0.45191783356E+03  0.45191783359E+03  0.50400001928E-02 0.  1.
        1   -1    0    0  501    0  0.00000000000E+00  0.00000000000E+00 -0.17703255328E+04  0.17703255328E+04  0.50400001928E-02 0. -1.
    10030    2    1    2    0    0  0.00000000000E+00  0.00000000000E+00 -0.13184076992E+04  0.22222433664E+04  0.17889009805E+04 0.  0.
        1    1    3    3  502    0  0.72392945774E+01  0.55839047899E+03 -0.15271633569E+04  0.16260628073E+04  0.50400001928E-02 0. -1.
       -1    1    3    3    0  502 -0.72392945774E+01 -0.55839047899E+03  0.20875565771E+03  0.59618055911E+03  0.50400001928E-02 0.  1.
</event>
<event>
 5   0  0.1253925E-04  0.1809836E+04  0.7818609E-02  0.8701086E-01
       -1   -1    0    0    0  501  0.00000000000E+00  0.00000000000E+00  0.73803964365E+03  0.73803964366E+03  0.50400001928E-02 0. -1.
        1   -1    0    0  501    0  0.00000000000E+00  0.00000000000E+00 -0.11095291822E+04  0.11095291822E+04  0.50400001928E-02 0.  1.
    10030    2    1    2    0    0  0.00000000000E+00  0.00000000000E+00 -0.37148953857E+03  0.18475688259E+04  0.18098359288E+04 0.  0.
        2    1    3    3  502    0 -0.83065741558E+03 -0.11093231246E+03  0.16281014861E+03  0.85370068789E+03  0.25500000920E-02 0. -1.
       -2    1    3    3    0  502  0.83065741558E+03  0.11093231246E+03 -0.53429968717E+03  0.99386813800E+03  0.25500000920E-02 0.  1.
</event>
<event>
 5   0  0.1214723E-04  0.1821925E+04  0.7818609E-02  0.8694726E-01
       -1   -1    0    0    0  501  0.00000000000E+00  0.00000000000E+00  0.11649970122E+04  0.11649970122E+04  0.50400001928E-02 0.  1.
        1   -1    0    0  501    0  0.00000000000E+00  0.00000000000E+00 -0.71232198203E+03  0.71232198205E+03  0.50400001928E-02 0. -1.
    10030    2    1    2    0    0  0.00000000000E+00  0.00000000000E+00  0.45267503017E+03  0.18773189943E+04  0.18219253342E+04 0.  0.
        1    1    3    3  502    0  0.13871999472E+03  0.75741077215E+03  0.72790048929E+03  0.10596006026E+04  0.50400001928E-02 0.  1.
       -1    1    3    3    0  502 -0.13871999472E+03 -0.75741077215E+03 -0.27522545912E+03  0.81771839167E+03  0.50400001928E-02 0. -1.
</event>
<event>
 5   0  0.2431811E-04  0.1796307E+04  0.7818609E-02  0.8708266E-01
       -2   -1    0    0    0  501  0.00000000000E+00  0.00000000000E+00  0.47800588124E+03  0.47800588125E+03  0.25500000920E-02 0.  1.
        2   -1    0    0  501    0  0.00000000000E+00  0.00000000000E+00 -0.16875941663E+04  0.16875941663E+04  0.25500000920E-02 0. -1.
    10030    2    1    2    0    0  0.00000000000E+00  0.00000000000E+00 -0.12095882851E+04  0.21656000476E+04  0.17963072529E+04 0.  0.
        3    1    3    3  502    0  0.13094941334E+03  0.74760070583E+03 -0.11837576114E+04  0.14061780318E+04  0.10100000352E+00 0. -1.
       -3    1    3    3    0  502 -0.13094941334E+03 -0.74760070583E+03 -0.25830673669E+02  0.75942201582E+03  0.10100000352E+00 0.  1.
</event>
<event>
 5   0  0.1330225E-04  0.1791098E+04  0.7818609E-02  0.8711048E-01
        1   -1    0    0  501    0  0.00000000000E+00  0.00000000000E+00  0.13470978763E+04  0.13470978764E+04  0.50400001928E-02 0. -1.
       -1   -1    0    0    0  501  0.00000000000E+00  0.00000000000E+00 -0.59536012778E+03  0.59536012780E+03  0.50400001928E-02 0.  1.
    10030    2    1    2    0    0  0.00000000000E+00  0.00000000000E+00  0.75173774857E+03  0.19424580042E+04  0.17910983935E+04 0.  0.
        3    1    3    3  502    0  0.85435579836E+03  0.21268704561E+03  0.19816611094E+03  0.90245743794E+03  0.10100000352E+00 0.  1.
       -3    1    3    3    0  502 -0.85435579836E+03 -0.21268704561E+03  0.55357163762E+03  0.10400005662E+04  0.10100000352E+00 0. -1.
</event>
<event>
 5   0  0.2417106E-04  0.1793084E+04  0.7818609E-02  0.8709986E-01
        2   -1    0    0  501    0  0.00000000000E+00  0.00000000000E+00  0.17424839442E+04  0.17424839442E+04  0.25500000920E-02 0. -1.
       -2   -1    0    0    0  501  0.00000000000E+00  0.00000000000E+00 -0.46128824761E+03  0.46128824761E+03  0.25500000920E-02 0.  1.
    10030    2    1    2    0    0  0.00000000000E+00  0.00000000000E+00  0.12811956966E+04  0.22037721918E+04  0.17930837851E+04 0.  0.
        4    1    3    3  502    0 -0.28369093084E+03  0.80852439868E+03  0.96482581243E+03  0.12903808386E+04  0.12699999809E+01 0. -1.
       -4    1    3    3    0  502  0.28369093084E+03 -0.80852439868E+03  0.31636988413E+03  0.91339135314E+03  0.12699999809E+01 0.  1.
</event>
<event>
 5   0  0.2431811E-04  0.1790932E+04  0.7818609E-02  0.8711137E-01
       -2   -1    0    0    0  501  0.00000000000E+00  0.00000000000E+00  0.32585119901E+03  0.32585119902E+03  0.25500000920E-02 0. -1.
        2   -1    0    0  501    0  0.00000000000E+00  0.00000000000E+00 -0.24608132163E+04  0.24608132163E+04  0.25500000920E-02 0.  1.
    10030    2    1    2    0    0  0.00000000000E+00  0.00000000000E+00 -0.21349620173E+04  0.27866644153E+04  0.17909315309E+04 0.  0.
        3    1    3    3  502    0  0.42294093807E+03  0.39723967282E+03 -0.21287279578E+04  0.22063909725E+04  0.10100000352E+00 0.  1.
       -3    1    3    3    0  502 -0.42294093807E+03 -0.39723967282E+03 -0.62340594417E+01  0.58027344283E+03  0.10100000352E+00 0. -1.
</event>
<event>
 5   0  0.2569405E-04  0.1461115E+04  0.7818609E-02  0.8910731E-01
       -2   -1    0    0    0  501  0.00000000000E+00  0.00000000000E+00  0.36831534826E+03  0.36831534827E+03  0.25500000920E-02 0. -1.
        2   -1    0    0  501    0  0.00000000000E+00  0.00000000000E+00 -0.14490678769E+04  0.14490678769E+04  0.25500000920E-02 0.  1.
    10030    2    1    2    0    0  0.00000000000E+00  0.00000000000E+00 -0.10807525286E+04  0.18173832251E+04  0.14611145605E+04 0.  0.
        2    1    3    3  502    0  0.57075277955E+03  0.42227880383E+03 -0.32624962902E+03  0.78135583697E+03  0.25500000920E-02 0.  1.
       -2    1    3    3    0  502 -0.57075277955E+03 -0.42227880383E+03 -0.75450289958E+03  0.10360273882E+04  0.25500000920E-02 0. -1.
</event>
<event>
 5   0  0.1239119E-04  0.1847281E+04  0.7818609E-02  0.8681552E-01
       -1   -1    0    0    0  501  0.00000000000E+00  0.00000000000E+00  0.63765994941E+03  0.63765994943E+03  0.50400001928E-02 0. -1.
        1   -1    0    0  501    0  0.00000000000E+00  0.00000000000E+00 -0.13378786908E+04  0.13378786908E+04  0.50400001928E-02 0.  1.
    10030    2    1    2    0    0  0.00000000000E+00  0.00000000000E+00 -0.70021874134E+03  0.19755386402E+04  0.18472808755E+04 0.  0.
        5    1    3    3  502    0  0.13227485776E+03 -0.52084424865E+03 -0.11534746970E+04  0.12725177154E+04  0.46999998093E+01 0.  1.
       -5    1    3    3    0  502 -0.13227485776E+03  0.52084424865E+03  0.45325595567E+03  0.70302092479E+03  0.46999998093E+01 0. -1.
</event>
<event>
 5   0  0.1214723E-04  0.1718432E+04  0.7818609E-02  0.8750921E-01
       -1   -1    0    0    0  501  0.00000000000E+00  0.00000000000E+00  0.85232629929E+03  0.85232629930E+03  0.50400001928E-02 0. -1.
        1   -1    0    0  501    0  0.00000000000E+00  0.00000000000E+00 -0.86616122826E+03  0.86616122827E+03  0.50400001928E-02 0.  1.
    10030    2    1    2    0    0  0.00000000000E+00  0.00000000000E+00 -0.13834928971E+02  0.17184875276E+04  0.17184318366E+04 0.  0.
        1    1    3    3  502    0  0.61455521487E+03 -0.76441126539E+02  0.58869451399E+03  0.85444870460E+03  0.50400001928E-02 0. -1.
       -1    1    3    3    0  502 -0.61455521487E+03  0.76441126539E+02 -0.60252944296E+03  0.86403882298E+03  0.50400001928E-02 0.  1.
</event>
<event>
 5   0  0.2417106E-04  0.1808928E+04  0.7818609E-02  0.8701566E-01
       -2   -1    0    0    0  501  0.00000000000E+00  0.00000000000E+00  0.66264579062E+03  0.66264579063E+03  0.25500000920E-02 0.  1.
        2   -1    0    0  501    0  0.00000000000E+00  0.00000000000E+00 -0.12345286106E+04  0.12345286106E+04  0.25500000920E-02 0. -1.
    10030    2    1    2    0    0  0.00000000000E+00  0.00000000000E+00 -0.57188281994E+03  0.18971744012E+04  0.18089280662E+04 0.  0.
        4    1    3    3  502    0  0.51121904618E+03 -0.58482184894E+03  0.20001124221E+03  0.80210199981E+03  0.12699999809E+01 0.  1.
       -4    1    3    3    0  502 -0.51121904618E+03  0.58482184894E+03 -0.77189406216E+03  0.10950724014E+04  0.12699999809E+01 0. -1.
</event>
<event>
 5   0  0.2417106E-04  0.1722631E+04  0.7818609E-02  0.8748561E-01
       -2   -1    0    0    0  501  0.00000000000E+00  0.00000000000E+00  0.46419801788E+03  0.46419801789E+03  0.25500000920E-02 0. -1.
        2   -1    0    0  501    0  0.00000000000E+00  0.00000000000E+00 -0.15981633624E+04  0.15981633624E+04  0.25500000920E-02 0.  1.
    10030    2    1    2    0    0  0.00000000000E+00  0.00000000000E+00 -0.11339653445E+04  0.20623613803E+04  0.17226308543E+04 0.  0.
        4    1    3    3  502    0  0.79452557735E+03  0.64842516026E+02 -0.17648607843E+03  0.81647069374E+03  0.12699999809E+01 0. -1.
       -4    1    3    3    0  502 -0.79452557735E+03 -0.64842516026E+02 -0.95747926609E+03  0.12458906866E+04  0.12699999809E+01 0.  1.
</event>
<event>
 5   0  0.2393421E-04  0.1798110E+04  0.7818609E-02  0.8707305E-01
        2   -1    0    0  501    0  0.00000000000E+00  0.00000000000E+00  0.14246091061E+04  0.14246091061E+04  0.25500000920E-02 0. -1.
       -2   -1    0    0    0  501  0.00000000000E+00  0.00000000000E+00 -0.56738381798E+03  0.56738381799E+03  0.25500000920E-02 0.  1.
    10030    2    1    2    0    0  0.00000000000E+00  0.00000000000E+00  0.85722528807E+03  0.19919929240E+04  0.17981102900E+04 0.  0.
        5    1    3    3  502    0 -0.38652032073E+03 -0.70693966662E+03 -0.13292396327E+02  0.80582903173E+03  0.46999998093E+01 0.  1.
       -5    1    3    3    0  502  0.38652032073E+03  0.70693966662E+03  0.87051768440E+03  0.11861638923E+04  0.46999998093E+01 0. -1.
</event>
<event>
 5   0  0.2431811E-04  0.1775920E+04  0.7818609E-02  0.8719211E-01
       -2   -1    0    0    0  501  0.00000000000E+00  0.00000000000E+00  0.59013358900E+03  0.59013358901E+03  0.25500000920E-02 0.  1.
        2   -1    0    0  501    0  0.00000000000E+00  0.00000000000E+00 -0.13360924000E+04  0.13360924000E+04  0.25500000920E-02 0. -1.
    10030    2    1    2    0    0  0.00000000000E+00  0.00000000000E+00 -0.74595881102E+03  0.19262259890E+04  0.17759200469E+04 0.  0.
        3    1    3    3  502    0  0.37304707371E+03 -0.52736143048E+03 -0.10338053839E+04  0.12190273908E+04  0.10100000352E+00 0. -1.
       -3    1    3    3    0  502 -0.37304707371E+03  0.52736143048E+03  0.28784657291E+03  0.70719859820E+03  0.10100000352E+00 0.  1.
</event>
<event>
 5   0  0.2417106E-04  0.1825796E+04  0.7818609E-02  0.8692700E-01
        2   -1    0    0  501    0  0.00000000000E+00  0.00000000000E+00  0.69797154383E+03  0.69797154383E+03  0.25500000920E-02 0. -1.
       -2   -1    0    0    0  501  0.00000000000E+00  0.00000000000E+00 -0.11940070751E+04  0.11940070751E+04  0.25500000920E-02 0.  1.
    10030    2    1    2    0    0  0.00000000000E+00  0.00000000000E+00 -0.49603553130E+03  0.18919786190E+04  0.18257962226E+04 0.  0.
        4    1    3    3  502    0 -0.32660028422E+03  0.19659320517E+03 -0.11075824489E+04  0.11713484230E+04  0.12699999809E+01 0.  1.
       -4    1    3    3    0  502  0.32660028422E+03 -0.19659320517E+03  0.61154691763E+03  0.72063019597E+03  0.12699999809E+01 0. -1.
</event>
<event>
 5   0  0.1239119E-04  0.1822490E+04  0.7818609E-02  0.8694430E-01
        1   -1    0    0  501    0  0.00000000000E+00  0.00000000000E+00  0.11347443933E+04  0.11347443933E+04  0.50400001928E-02 0.  1.
       -1   -1    0    0    0  501  0.00000000000E+00  0.00000000000E+00 -0.73176633477E+03  0.73176633479E+03  0.50400001928E-02 0. -1.
    10030    2    1    2    0    0  0.00000000000E+00  0.00000000000E+00  0.40297805857E+03  0.18665107281E+04  0.18224903244E+04 0.  0.
        5    1    3    3  502    0  0.86213887346E+03  0.14968959163E+02 -0.10031187546E+03  0.86809680867E+03  0.46999998093E+01 0. -1.
       -5    1    3    3    0  502 -0.86213887346E+03 -0.14968959163E+02  0.50328993403E+03  0.99841391946E+03  0.46999998093E+01 0.  1.
</event>
<event>
 5   0  0.1253925E-04  0.1786723E+04  0.7818609E-02  0.8713392E-01
       -1   -1    0    0    0  501  0.00000000000E+00  0.00000000000E+00  0.53677095388E+03  0.53677095390E+03  0.50400001928E-02 0. -1.
        1   -1    0    0  501    0  0.00000000000E+00  0.00000000000E+00 -0.14868445142E+04  0.14868445142E+04  0.50400001928E-02 0.  1.
    10030    2    1    2    0    0  0.00000000000E+00  0.00000000000E+00 -0.95007356035E+03  0.20236154681E+04  0.17867231998E+04 0.  0.
        2    1    3    3  502    0 -0.58315447893E+03 -0.47242322424E+03  0.73819566670E+02  0.75412344979E+03  0.25500000920E-02 0. -1.
       -2    1    3    3    0  502  0.58315447893E+03  0.47242322424E+03 -0.10238931270E+04  0.12694920183E+04  0.25500000920E-02 0.  1.
</event>
<event>
 5   0  0.2417106E-04  0.1817835E+04  0.7818609E-02  0.8696872E-01
       -2   -1    0    0    0  501  0.00000000000E+00  0.00000000000E+00  0.59157231443E+03  0.59157231444E+03  0.25500000920E-02 0.  1.
        2   -1    0    0  501    0  0.00000000000E+00  0.00000000000E+00 -0.13965003713E+04  0.13965003713E+04  0.25500000920E-02 0. -1.
    10030    2    1    2    0    0  0.00000000000E+00  0.00000000000E+00 -0.80492805690E+03  0.19880726858E+04  0.18178349285E+04 0.  0.
        4    1    3    3  502    0  0.24312763406E+03 -0.61258215504E+03  0.28205990405E+03  0.71688726135E+03  0.12699999809E+01 0. -1.
       -4    1    3    3    0  502 -0.24312763406E+03  0.61258215504E+03 -0.10869879610E+04  0.12711854244E+04  0.12699999809E+01 0.  1.
</event>
<event>
 5   0  0.2431811E-04  0.1784598E+04  0.7818609E-02  0.8714533E-01
        2   -1    0    0  501    0  0.00000000000E+00  0.00000000000E+00  0.52395926143E+03  0.52395926143E+03  0.25500000920E-02 0.  1.
       -2   -1    0    0    0  501  0.00000000000E+00  0.00000000000E+00 -0.15195783636E+04  0.15195783636E+04  0.25500000920E-02 0. -1.
    10030    2    1    2    0    0  0.00000000000E+00  0.00000000000E+00 -0.99561910213E+03  0.20435376250E+04  0.17845976096E+04 0.  0.
        3    1    3    3  502    0 -0.16560625463E+03  0.43685540389E+03 -0.13683312518E+04  0.14458902104E+04  0.10100000352E+00 0. -1.
       -3    1    3    3    0  502  0.16560625463E+03 -0.43685540389E+03  0.37271214970E+03  0.59764741463E+03  0.10100000352E+00 0.  1.
</event>
<event>
 5   0  0.9144875E-05  0.1829412E+04  0.7818609E-02  0.8690813E-01
       -3   -1    0    0    0  501  0.00000000000E+00  0.00000000000E+00  0.29044251595E+03  0.29044253351E+03  0.10100000352E+00 0.  1.
        3   -1    0    0  501    0  0.00000000000E+00  0.00000000000E+00 -0.28807312079E+04  0.28807312097E+04  0.10100000352E+00 0. -1.
    10030    2    1    2    0    0  0.00000000000E+00  0.00000000000E+00 -0.25902886920E+04  0.31711737432E+04  0.18294117639E+04 0.  0.
        2    1    3    3  502    0  0.65726910991E+03  0.22649150317E+03 -0.26467970023E+03  0.74387930982E+03  0.25500000920E-02 0.  1.
       -2    1    3    3    0  502 -0.65726910991E+03 -0.22649150317E+03 -0.23256089918E+04  0.24272944334E+04  0.25500000920E-02 0. -1.
</event>
<event>
 5   0  0.2569405E-04  0.1799682E+04  0.7818609E-02  0.8706468E-01
       -2   -1    0    0    0  501  0.00000000000E+00  0.00000000000E+00  0.11357275009E+04  0.11357275009E+04  0.25500000920E-02 0.  1.
        2   -1    0    0  501    0  0.00000000000E+00  0.00000000000E+00 -0.71294746231E+03  0.71294746232E+03  0.25500000920E-02 0. -1.
    10030    2    1    2    0    0  0.00000000000E+00  0.00000000000E+00  0.42278003863E+03  0.18486749633E+04  0.17996822383E+04 0.  0.
        2    1    3    3  502    0  0.40994779921E+03  0.37928124317E+03 -0.51336845277E+03  0.75858989435E+03  0.25500000920E-02 0. -1.
       -2    1    3    3    0  502 -0.40994779921E+03 -0.37928124317E+03  0.93614849141E+03  0.10900850689E+04  0.25500000920E-02 0.  1.
</event>
<event>
 5   0  0.2417106E-04  0.1516234E+04  0.7818609E-02  0.8873729E-01
        2   -1    0    0  501    0  0.00000000000E+00  0.00000000000E+00  0.16231227403E+04  0.16231227403E+04  0.25500000920E-02 0. -1.
       -2   -1    0    0    0  501  0.00000000000E+00  0.00000000000E+00 -0.35409597858E+03  0.35409597858E+03  0.25500000920E-02 0.  1.
    10030    2    1    2    0    0  0.00000000000E+00  0.00000000000E+00  0.12690267618E+04  0.19772187189E+04  0.15162338014E+04 0.  0.
        4    1    3    3  502    0  0.47994119325E+02  0.48876693917E+03  0.13876339298E+04  0.14719803301E+04  0.12699999809E+01 0. -1.
       -4    1    3    3    0  502 -0.47994119325E+02 -0.48876693917E+03 -0.11860716801E+03  0.50523838880E+03  0.12699999809E+01 0.  1.
</event>
<event>
 5   0  0.1214723E-04  0.1785788E+04  0.7818609E-02  0.8713894E-01
        1   -1    0    0  501    0  0.00000000000E+00  0.00000000000E+00  0.97013668652E+03  0.97013668653E+03  0.50400001928E-02 0.  1.
       -1   -1    0    0    0  501  0.00000000000E+00  0.00000000000E+00 -0.82180112183E+03  0.82180112185E+03  0.50400001928E-02 0. -1.
    10030    2    1    2    0    0  0.00000000000E+00  0.00000000000E+00  0.14833556469E+03  0.17919378084E+04  0.17857876888E+04 0.  0.
        1    1    3    3  502    0 -0.74674552333E+03  0.25609411482E+03 -0.34445760461E+03  0.86131533927E+03  0.50400001928E-02 0. -1.
       -1    1    3    3    0  502  0.74674552333E+03 -0.25609411482E+03  0.49279316930E+03  0.93062246910E+03  0.50400001928E-02 0.  1.
</event>
<event>
 5   0  0.2569405E-04  0.1819519E+04  0.7818609E-02  0.8695988E-01
       -2   -1    0    0    0  501  0.00000000000E+00  0.00000000000E+00  0.51060895500E+03  0.51060895501E+03  0.25500000920E-02 0.  1.
        2   -1    0    0  501    0  0.00000000000E+00  0.00000000000E+00 -0.16209314040E+04  0.16209314040E+04  0.25500000920E-02 0. -1.
    10030    2    1    2    0    0  0.00000000000E+00  0.00000000000E+00 -0.11103224490E+04  0.21315403590E+04  0.18195187169E+04 0.  0.
        2    1    3    3  502    0 -0.59321120672E+03  0.19607794348E+03  0.21954084037E+03  0.66222675595E+03  0.25500000920E-02 0.  1.
       -2    1    3    3    0  502  0.59321120672E+03 -0.19607794348E+03 -0.13298632894E+04  0.14693136030E+04  0.25500000920E-02 0. -1.
</event>
<event>
 5   0  0.1239119E-04  0.1798099E+04  0.7818609E-02  0.8707311E-01
       -1   -1    0    0    0  501  0.00000000000E+00  0.00000000000E+00  0.76493191543E+03  0.76493191545E+03  0.50400001928E-02 0.  1.
        1   -1    0    0  501    0  0.00000000000E+00  0.00000000000E+00 -0.10566822100E+04  0.10566822100E+04  0.50400001928E-02 0. -1.
    10030    2    1    2    0    0  0.00000000000E+00  0.00000000000E+00 -0.29175029456E+03  0.18216141255E+04  0.17980989371E+04 0.  0.
        5    1    3    3  502    0 -0.10790300855E+03 -0.45773473469E+03 -0.92212264547E+03  0.10351311076E+04  0.46999998093E+01 0. -1.
       -5    1    3    3    0  502  0.10790300855E+03  0.45773473469E+03  0.63037235092E+03  0.78648301787E+03  0.46999998093E+01 0.  1.
</event>
<event>
 5   0  0.9144875E-05  0.1768318E+04  0.7818609E-02  0.8723331E-01
       -3   -1    0    0    0  501  0.00000000000E+00  0.00000000000E+00  0.80485011302E+03  0.80485011936E+03  0.10100000352E+00 0.  1.
        3   -1    0    0  501    0  0.00000000000E+00  0.00000000000E+00 -0.97128296362E+03  0.97128296887E+03  0.10100000352E+00 0. -1.
    10030    2    1    2    0    0  0.00000000000E+00  0.00000000000E+00 -0.16643285060E+03  0.17761330882E+04  0.17683180860E+04 0.  0.
        5    1    3    3  502    0  0.83792083472E+02 -0.82845261389E+03  0.21535184324E+03  0.86008915416E+03  0.46999998093E+01 0.  1.
       -5    1    3    3    0  502 -0.83792083472E+02  0.82845261389E+03 -0.38178469384E+03  0.91604393408E+03  0.46999998093E+01 0. -1.
</event>
<event>
 5   0  0.1214723E-04  0.1771719E+04  0.7818609E-02  0.8721485E-01
       -1   -1    0    0    0  501  0.00000000000E+00  0.00000000000E+00  0.11079475847E+04  0.11079475847E+04  0.50400001928E-02 0.  1.
        1   -1    0    0  501    0  0.00000000000E+00  0.00000000000E+00 -0.70828916422E+03  0.70828916424E+03  0.50400001928E-02 0. -1.
    10030    2    1    2    0    0  0.00000000000E+00  0.00000000000E+00  0.39965842049E+03  0.18162367490E+04  0.17717192428E+04 0.  0.
        1    1    3    3  502    0 -0.78310829801E+03  0.41358950321E+03  0.17851285428E+03  0.90342776288E+03  0.50400001928E-02 0.  1.
       -1    1    3    3    0  502  0.78310829801E+03 -0.41358950321E+03  0.22114556621E+03  0.91280898607E+03  0.50400001928E-02 0. -1.
</event>
<event>
 5   0  0.2393421E-04  0.1795979E+04  0.7818609E-02  0.8708441E-01
        2   -1    0    0  501    0  0.00000000000E+00  0.00000000000E+00  0.25264653481E+04  0.25264653481E+04  0.25500000920E-02 0.  1.
       -2   -1    0    0    0  501  0.00000000000E+00  0.00000000000E+00 -0.31917531330E+03  0.31917531331E+03  0.25500000920E-02 0. -1.
    10030    2    1    2    0    0  0.00000000000E+00  0.00000000000E+00  0.22072900348E+04  0.28456406614E+04  0.17959792527E+04 0.  0.
        5    1    3    3  502    0 -0.81120416854E+03  0.35614623153E+03  0.13358140271E+04  0.16029078408E+04  0.46999998093E+01 0. -1.
       -5    1    3    3    0  502  0.81120416854E+03 -0.35614623153E+03  0.87147600772E+03  0.12427328206E+04  0.46999998093E+01 0.  1.
</event>
<event>
 5   0  0.1239119E-04  0.1814768E+04  0.7818609E-02  0.8698485E-01
       -1   -1    0    0    0  501  0.00000000000E+00  0.00000000000E+00  0.10116056463E+04  0.10116056463E+04  0.50400001928E-02 0. -1.
        1   -1    0    0  501    0  0.00000000000E+00  0.00000000000E+00 -0.81389994783E+03  0.81389994784E+03  0.50400001928E-02 0.  1.
    10030    2    1    2    0    0  0.00000000000E+00  0.00000000000E+00  0.19770569849E+03  0.18255055942E+04  0.18147680654E+04 0.  0.
        5    1    3    3  502    0 -0.29153850653E+03  0.40234724340E+03 -0.66487958940E+03  0.83003913369E+03  0.46999998093E+01 0.  1.
       -5    1    3    3    0  502  0.29153850653E+03 -0.40234724340E+03  0.86258528789E+03  0.99546646048E+03  0.46999998093E+01 0. -1.
</event>
<event>
 5   0  0.2431811E-04  0.1812029E+04  0.7818609E-02  0.8699929E-01
        2   -1    0    0  501    0  0.00000000000E+00  0.00000000000E+00  0.10286539769E+04  0.10286539769E+04  0.25500000920E-02 0. -1.
       -2   -1    0    0    0  501  0.00000000000E+00  0.00000000000E+00 -0.79799630141E+03  0.79799630141E+03  0.25500000920E-02 0.  1.
    10030    2    1    2    0    0  0.00000000000E+00  0.00000000000E+00  0.23065767547E+03  0.18266502783E+04  0.18120287735E+04 0.  0.
        3    1    3    3  502    0 -0.58419174207E+03 -0.17995124980E+03  0.78945476121E+03  0.99844943488E+03  0.10100000352E+00 0. -1.
       -3    1    3    3    0  502  0.58419174207E+03  0.17995124980E+03 -0.55879708574E+03  0.82820084342E+03  0.10100000352E+00 0.  1.
</event>
<event>
 5   0  0.1214723E-04  0.1791233E+04  0.7818609E-02  0.8710975E-01
        1   -1    0    0  501    0  0.00000000000E+00  0.00000000000E+00  0.64636440567E+03  0.64636440569E+03  0.50400001928E-02 0.  1.
       -1   -1    0    0    0  501  0.00000000000E+00  0.00000000000E+00 -0.12409861641E+04  0.12409861641E+04  0.50400001928E-02 0. -1.
    10030    2    1    2    0    0  0.00000000000E+00  0.00000000000E+00 -0.59462175839E+03  0.18873505698E+04  0.17912334124E+04 0.  0.
        1    1    3    3  502    0  0.66598322955E+03 -0.46468105841E+02  0.33174812214E+03  0.74548625975E+03  0.50400001928E-02 0. -1.
       -1    1    3    3    0  502 -0.66598322955E+03  0.46468105841E+02 -0.92636988053E+03  0.11418643100E+04  0.50400001928E-02 0.  1.
</event>
<event>
 5   0  0.1330225E-04  0.1777477E+04  0.7818609E-02  0.8718369E-01
        1   -1    0    0  501    0  0.00000000000E+00  0.00000000000E+00  0.14354796480E+04  0.14354796480E+04  0.50400001928E-02 0. -1.
       -1   -1    0    0    0  501  0.00000000000E+00  0.00000000000E+00 -0.55023860821E+03  0.55023860823E+03  0.50400001928E-02 0.  1.
    10030    2    1    2    0    0  0.00000000000E+00  0.00000000000E+00  0.88524103981E+03  0.19857182562E+04  0.17774772276E+04 0.  0.
        3    1    3    3  502    0 -0.39163003336E+03 -0.42084578050E+03 -0.31455296765E+03  0.65530819746E+03  0.10100000352E+00 0.  1.
       -3    1    3    3    0  502  0.39163003336E+03  0.42084578050E+03  0.11997940075E+04  0.13304100588E+04  0.10100000352E+00 0. -1.
</event>
<event>
 5   0  0.2431811E-04  0.1803024E+04  0.7818609E-02  0.8704693E-01
       -2   -1    0    0    0  501  0.00000000000E+00  0.00000000000E+00  0.43935161743E+03  0.43935161744E+03  0.25500000920E-02 0.  1.
        2   -1    0    0  501    0  0.00000000000E+00  0.00000000000E+00 -0.18498256635E+04  0.18498256635E+04  0.25500000920E-02 0. -1.
    10030    2    1    2    0    0  0.00000000000E+00  0.00000000000E+00 -0.14104740460E+04  0.22891772809E+04  0.18030240123E+04 0.  0.
        3    1    3    3  502    0  0.23235370046E+03  0.15086356752E+03  0.38396814213E+03  0.47347608440E+03  0.10100000352E+00 0.  1.
       -3    1    3    3    0  502 -0.23235370046E+03 -0.15086356752E+03 -0.17944421882E+04  0.18157011965E+04  0.10100000352E+00 0. -1.
</event>
<event>
 5   0  0.2393421E-04  0.1783416E+04  0.7818609E-02  0.8715169E-01
        2   -1    0    0  501    0  0.00000000000E+00  0.00000000000E+00  0.86200553817E+03  0.86200553817E+03  0.25500000920E-02 0. -1.
       -2   -1    0    0    0  501  0.00000000000E+00  0.00000000000E+00 -0.92243343214E+03  0.92243343214E+03  0.25500000920E-02 0.  1.
    10030    2    1    2    0    0  0.00000000000E+00  0.00000000000E+00 -0.60427893971E+02  0.17844389703E+04  0.17834155176E+04 0.  0.
        5    1    3    3  502    0  0.68128842494E+03 -0.86330762000E+01 -0.60577634831E+03  0.91171021829E+03  0.46999998093E+01 0.  1.
       -5    1    3    3    0  502 -0.68128842494E+03  0.86330762000E+01  0.54534845434E+03  0.87272875203E+03  0.46999998093E+01 0. -1.
</event>
<event>
 5   0  0.2393421E-04  0.1797557E+04  0.7818609E-02  0.8707600E-01
        2   -1    0    0  501    0  0.00000000000E+00  0.00000000000E+00  0.89219557392E+03  0.89219557392E+03  0.25500000920E-02 0.  1.
       -2   -1    0    0    0  501  0.00000000000E+00  0.00000000000E+00 -0.90540963051E+03  0.90540963051E+03  0.25500000920E-02 0. -1.
    10030    2    1    2    0    0  0.00000000000E+00  0.00000000000E+00 -0.13214056588E+02  0.17976052044E+04  0.17975566360E+04 0.  0.
        5    1    3    3  502    0  0.55387997212E+03 -0.19675692129E+03  0.67332609099E+03  0.89380446654E+03  0.46999998093E+01 0.  1.
       -5    1    3    3    0  502 -0.55387997212E+03  0.19675692129E+03 -0.68654014758E+03  0.90380073790E+03  0.46999998093E+01 0. -1.
</event>
<event>
 5   0  0.1308893E-04  0.1789269E+04  0.7818609E-02  0.8712027E-01
        1   -1    0    0  501    0  0.00000000000E+00  0.00000000000E+00  0.76755984272E+03  0.76755984274E+03  0.50400001928E-02 0. -1.
       -1   -1    0    0    0  501  0.00000000000E+00  0.00000000000E+00 -0.10427476725E+04  0.10427476725E+04  0.50400001928E-02 0.  1.
    10030    2    1    2    0    0  0.00000000000E+00  0.00000000000E+00 -0.27518782979E+03  0.18103075153E+04  0.17892693923E+04 0.  0.
        4    1    3    3  502    0 -0.23678740522E+03  0.55146233853E+03  0.53367575314E+03  0.80311294877E+03  0.12699999809E+01 0. -1.
       -4    1    3    3    0  502  0.23678740522E+03 -0.55146233853E+03 -0.80886358293E+03  0.10071945665E+04  0.12699999809E+01 0.  1.
</event>
<event>
 5   0  0.1239119E-04  0.1805603E+04  0.7818609E-02  0.8703326E-01
       -1   -1    0    0    0  501  0.00000000000E+00  0.00000000000E+00  0.74158035275E+03  0.74158035276E+03  0.50400001928E-02 0.  1.
        1   -1    0    0  501    0  0.00000000000E+00  0.00000000000E+00 -0.10990719142E+04  0.10990719142E+04  0.50400001928E-02 0. -1.
    10030    2    1    2    0    0  0.00000000000E+00  0.00000000000E+00 -0.35749156141E+03  0.18406522669E+04  0.18056025452E+04 0.  0.
        5    1    3    3  502    0  0.77199676321E+03 -0.25754148260E+03  0.21963610498E+03  0.84295238672E+03  0.46999998093E+01 0.  1.
       -5    1    3    3    0  502 -0.77199676321E+03  0.25754148260E+03 -0.57712766640E+03  0.99769988022E+03  0.46999998093E+01 0. -1.
</event>
<event>
 5   0  0.1308893E-04  0.1809895E+04  0.7818609E-02  0.8701055E-01
        1   -1    0    0  501    0  0.00000000000E+00  0.00000000000E+00  0.15084932506E+04  0.15084932506E+04  0.50400001928E-02 0.  1.
       -1   -1    0    0    0  501  0.00000000000E+00  0.00000000000E+00 -0.54287946234E+03  0.54287946236E+03  0.50400001928E-02 0. -1.
    10030    2    1    2    0    0  0.00000000000E+00  0.00000000000E+00  0.96561378826E+03  0.20513727130E+04  0.18098950299E+04 0.  0.
        4    1    3    3  502    0 -0.37040447590E+03  0.34318385272E+03  0.13339702828E+04  0.14263425117E+04  0.12699999809E+01 0.  1.
       -4    1    3    3    0  502  0.37040447590E+03 -0.34318385272E+03 -0.36835649451E+03  0.62503020125E+03  0.12699999809E+01 0. -1.
</event>
<event>
 5   0  0.1214723E-04  0.1807602E+04  0.7818609E-02  0.8702267E-01
       -1   -1    0    0    0  501  0.00000000000E+00  0.00000000000E+00  0.11095293307E+04  0.11095293307E+04  0.50400001928E-02 0. -1.
        1   -1    0    0  501    0  0.00000000000E+00  0.00000000000E+00 -0.73621877910E+03  0.73621877912E+03  0.50400001928E-02 0.  1.
    10030    2    1    2    0    0  0.00000000000E+00  0.00000000000E+00  0.37331055163E+03  0.18457481099E+04  0.18076020904E+04 0.  0.
        1    1    3    3  502    0  0.13422369356E+03 -0.89203204267E+03  0.12962720032E+03  0.91133987960E+03  0.50400001928E-02 0. -1.
       -1    1    3    3    0  502 -0.13422369356E+03  0.89203204267E+03  0.24368335131E+03  0.93440823027E+03  0.50400001928E-02 0.  1.
</event>
<event>
 5   0  0.1308893E-04  0.1823431E+04  0.7818609E-02  0.8693937E-01
       -1   -1    0    0    0  501  0.00000000000E+00  0.00000000000E+00  0.74487799898E+03  0.74487799899E+03  0.50400001928E-02 0. -1.
        1   -1    0    0  501    0  0.00000000000E+00  0.00000000000E+00 -0.11159212056E+04  0.11159212056E+04  0.50400001928E-02 0.  1.
    10030    2    1    2    0    0  0.00000000000E+00  0.00000000000E+00 -0.37104320659E+03  0.18607992046E+04  0.18234310019E+04 0.  0.
        4    1    3    3  502    0  0.90565608164E+03 -0.18055272235E+00 -0.29260326372E+03  0.95175167647E+03  0.12699999809E+01 0. -1.
       -4    1    3    3    0  502 -0.90565608164E+03  0.18055272235E+00 -0.78439942868E+02  0.90904752811E+03  0.12699999809E+01 0.  1.
</event>
<event>
 5   0  0.2431811E-04  0.1688390E+04  0.7818609E-02  0.8768014E-01
       -2   -1    0    0    0  501  0.00000000000E+00  0.00000000000E+00  0.48116965940E+03  0.48116965940E+03  0.25500000920E-02 0.  1.
        2   -1    0    0  501    0  0.00000000000E+00  0.00000000000E+00 -0.14811091809E+04  0.14811091809E+04  0.25500000920E-02 0. -1.
    10030    2    1    2    0    0  0.00000000000E+00  0.00000000000E+00 -0.99993952147E+03  0.19622788403E+04  0.16883895286E+04 0.  0.
        3    1    3    3  502    0  0.30668410242E+03 -0.34592604974E+03  0.32097574483E+03  0.56280139440E+03  0.10100000352E+00 0.  1.
       -3    1    3    3    0  502 -0.30668410242E+03  0.34592604974E+03 -0.13209152663E+04  0.13994774459E+04  0.10100000352E+00 0. -1.
</event>
<event>
 5   0  0.2393421E-04  0.1773009E+04  0.7818609E-02  0.8720786E-01
       -2   -1    0    0    0  501  0.00000000000E+00  0.00000000000E+00  0.25714826148E+03  0.25714826149E+03  0.25500000920E-02 0. -1.
        2   -1    0    0  501    0  0.00000000000E+00  0.00000000000E+00 -0.30561768656E+04  0.30561768656E+04  0.25500000920E-02 0.  1.
    10030    2    1    2    0    0  0.00000000000E+00  0.00000000000E+00 -0.27990286041E+04  0.33133251271E+04  0.17730093827E+04 0.  0.
        5    1    3    3  502    0 -0.50802839955E+03  0.60951225677E+03 -0.66077462305E+03  0.10325905473E+04  0.46999998093E+01 0. -1.
       -5    1    3    3    0  502  0.50802839955E+03 -0.60951225677E+03 -0.21382539810E+04  0.22807345798E+04  0.46999998093E+01 0.  1.
</event>
<event>
 5   0  0.2393421E-04  0.1875097E+04  0.7818609E-02  0.8667353E-01
        2   -1    0    0  501    0  0.00000000000E+00  0.00000000000E+00  0.74170831743E+03  0.74170831744E+03  0.25500000920E-02 0.  1.
       -2   -1    0    0    0  501  0.00000000000E+00  0.00000000000E+00 -0.11850976032E+04  0.11850976032E+04  0.25500000920E-02 0. -1.
    10030    2    1    2    0    0  0.00000000000E+00  0.00000000000E+00 -0.44338928577E+03  0.19268059206E+04  0.18750965301E+04 0.  0.
        5    1    3    3  502    0  0.69686145125E+03  0.10631817497E+03 -0.85684626625E+03  0.11095616479E+04  0.46999998093E+01 0. -1.
       -5    1    3    3    0  502 -0.69686145125E+03 -0.10631817497E+03  0.41345698048E+03  0.81724427271E+03  0.46999998093E+01 0.  1.
</event>
<event>
 5   0  0.1214723E-04  0.1851875E+04  0.7818609E-02  0.8679189E-01
        1   -1    0    0  501    0  0.00000000000E+00  0.00000000000E+00  0.12973020841E+04  0.12973020841E+04  0.50400001928E-02 0.  1.
       -1   -1    0    0    0  501  0.00000000000E+00  0.00000000000E+00 -0.66087921400E+03  0.66087921402E+03  0.50400001928E-02 0. -1.
    10030    2    1    2    0    0  0.00000000000E+00  0.00000000000E+00  0.63642287011E+03  0.19581812981E+04  0.18518747060E+04 0.  0.
        1    1    3    3  502    0 -0.17421242034E+03  0.87237321431E+03  0.46610686520E+02  0.89081847117E+03  0.50400001928E-02 0. -1.
       -1    1    3    3    0  502  0.17421242034E+03 -0.87237321431E+03  0.58981218359E+03  0.10673628270E+04  0.50400001928E-02 0.  1.
</event>
<event>
 5   0  0.2550616E-04  0.1803001E+04  0.7818609E-02  0.8704705E-01
        2   -1    0    0  501    0  0.00000000000E+00  0.00000000000E+00  0.12424678501E+04  0.12424678501E+04  0.25500000920E-02 0.  1.
       -2   -1    0    0    0  501  0.00000000000E+00  0.00000000000E+00 -0.65410372431E+03  0.65410372432E+03  0.25500000920E-02 0. -1.
    10030    2    1    2    0    0  0.00000000000E+00  0.00000000000E+00  0.58836412577E+03  0.18965715744E+04  0.18030006634E+04 0.  0.
        1    1    3    3  502    0  0.70121601656E+03 -0.49691817592E+03  0.78972869047E+01  0.85947306101E+03  0.50400001928E-02 0. -1.
       -1    1    3    3    0  502 -0.70121601656E+03  0.49691817592E+03  0.58046683886E+03  0.10370985134E+04  0.50400001928E-02 0.  1.
</event>
<event>
 5   0  0.2550616E-04  0.1812041E+04  0.7818609E-02  0.8699922E-01
        2   -1    0    0  501    0  0.00000000000E+00  0.00000000000E+00  0.10865476521E+04  0.10865476521E+04  0.25500000920E-02 0. -1.
       -2   -1    0    0    0  501  0.00000000000E+00  0.00000000000E+00 -0.75548731326E+03  0.75548731326E+03  0.25500000920E-02 0.  1.
    10030    2    1    2    0    0  0.00000000000E+00  0.00000000000E+00  0.33106033880E+03  0.18420349653E+04  0.18120408013E+04 0.  0.
        1    1    3    3  502    0  0.80751993859E+02 -0.38401266707E+03  0.99567871725E+03  0.10702162029E+04  0.50400001928E-02 0. -1.
       -1    1    3    3    0  502 -0.80751993859E+02  0.38401266707E+03 -0.66461837846E+03  0.77181876240E+03  0.50400001928E-02 0.  1.
</event>
<event>
 5   0  0.1330225E-04  0.1779389E+04  0.7818609E-02  0.8717337E-01
        1   -1    0    0  501    0  0.00000000000E+00  0.00000000000E+00  0.89298503791E+03  0.89298503793E+03  0.50400001928E-02 0.  1.
       -1   -1    0    0    0  501  0.00000000000E+00  0.00000000000E+00 -0.88641634168E+03  0.88641634169E+03  0.50400001928E-02 0. -1.
    10030    2    1    2    0    0  0.00000000000E+00  0.00000000000E+00  0.65686962345E+01  0.17794013796E+04  0.17793892553E+04 0.  0.
        3    1    3    3  502    0  0.29529255616E+03 -0.78680451408E+03  0.29534366675E+03  0.89077883270E+03  0.10100000352E+00 0.  1.
       -3    1    3    3    0  502 -0.29529255616E+03  0.78680451408E+03 -0.28877497051E+03  0.88862254692E+03  0.10100000352E+00 0. -1.
</event>
<event>
 5   0  0.2417106E-04  0.1798797E+04  0.7818609E-02  0.8706939E-01
        2   -1    0    0  501    0  0.00000000000E+00  0.00000000000E+00  0.14528432508E+04  0.14528432508E+04  0.25500000920E-02 0. -1.
       -2   -1    0    0    0  501  0.00000000000E+00  0.00000000000E+00 -0.55678268903E+03  0.55678268903E+03  0.25500000920E-02 0.  1.
    10030    2    1    2    0    0  0.00000000000E+00  0.00000000000E+00  0.89606056181E+03  0.20096259399E+04  0.17987973448E+04 0.  0.
        4    1    3    3  502    0 -0.25976001595E+03 -0.56364849697E+03 -0.27921928707E+03  0.68054383929E+03  0.12699999809E+01 0.  1.
       -4    1    3    3    0  502  0.25976001595E+03  0.56364849697E+03  0.11752798489E+04  0.13290821006E+04  0.12699999809E+01 0. -1.
</event>
<event>
 5   0  0.1253925E-04  0.1804295E+04  0.7818609E-02  0.8704019E-01
        1   -1    0    0  501    0  0.00000000000E+00  0.00000000000E+00  0.51119290093E+03  0.51119290096E+03  0.50400001928E-02 0. -1.
       -1   -1    0    0    0  501  0.00000000000E+00  0.00000000000E+00 -0.15921000522E+04  0.15921000522E+04  0.50400001928E-02 0.  1.
    10030    2    1    2    0    0  0.00000000000E+00  0.00000000000E+00 -0.10809071513E+04  0.21032929532E+04  0.18042951469E+04 0.  0.
        2    1    3    3  502    0  0.61065220258E+03  0.45493564855E+03 -0.11043602673E+04  0.13414448020E+04  0.25500000920E-02 0.  1.
       -2    1    3    3    0  502 -0.61065220258E+03 -0.45493564855E+03  0.23453115977E+02  0.76184815120E+03  0.25500000920E-02 0. -1.
</event>
<event>
 5   0  0.2569405E-04  0.1735902E+04  0.7818609E-02  0.8741149E-01
        2   -1    0    0  501    0  0.00000000000E+00  0.00000000000E+00  0.70501506245E+03  0.70501506246E+03  0.25500000920E-02 0. -1.
       -2   -1    0    0    0  501  0.00000000000E+00  0.00000000000E+00 -0.10685426863E+04  0.10685426863E+04  0.25500000920E-02 0.  1.
    10030    2    1    2    0    0  0.00000000000E+00  0.00000000000E+00 -0.36352762380E+03  0.17735577487E+04  0.17359017123E+04 0.  0.
        2    1    3    3  502    0  0.59513702983E+03 -0.28701787998E+02  0.46305837569E+03  0.75460912810E+03  0.25500000920E-02 0. -1.
       -2    1    3    3    0  502 -0.59513702983E+03  0.28701787998E+02 -0.82658599949E+03  0.10189486206E+04  0.25500000920E-02 0.  1.
</event>
<event>
 5   0  0.1214723E-04  0.1804795E+04  0.7818609E-02  0.8703753E-01
        1   -1    0    0  501    0  0.00000000000E+00  0.00000000000E+00  0.18321309630E+04  0.18321309630E+04  0.50400001928E-02 0. -1.
       -1   -1    0    0    0  501  0.00000000000E+00  0.00000000000E+00 -0.44446692838E+03  0.44446692841E+03  0.50400001928E-02 0.  1.
    10030    2    1    2    0    0  0.00000000000E+00  0.00000000000E+00  0.13876640346E+04  0.22765978914E+04  0.18047954140E+04 0.  0.
        1    1    3    3  502    0 -0.25649293752E+03 -0.78088083101E+03  0.22395137078E+03  0.85189067123E+03  0.50400001928E-02 0.  1.
       -1    1    3    3    0  502  0.25649293752E+03  0.78088083101E+03  0.11637126638E+04  0.14247072202E+04  0.50400001928E-02 0. -1.
</event>
<event>
 5   0  0.2569405E-04  0.1799565E+04  0.7818609E-02  0.8706531E-01
        2   -1    0    0  501    0  0.00000000000E+00  0.00000000000E+00  0.76662718689E+03  0.76662718689E+03  0.25500000920E-02 0.  1.
       -2   -1    0    0    0  501  0.00000000000E+00  0.00000000000E+00 -0.10560655362E+04  0.10560655362E+04  0.25500000920E-02 0. -1.
    10030    2    1    2    0    0  0.00000000000E+00  0.00000000000E+00 -0.28943834936E+03  0.18226927231E+04  0.17995650044E+04 0.  0.
        2    1    3    3  502    0 -0.35170207609E+03  0.66515225787E+03 -0.64450452282E+03  0.99071083390E+03  0.25500000920E-02 0. -1.
       -2    1    3    3    0  502  0.35170207609E+03 -0.66515225787E+03  0.35506617346E+03  0.83198188924E+03  0.25500000920E-02 0.  1.
</event>
<event>
 5   0  0.2393421E-04  0.1837743E+04  0.7818609E-02  0.8686482E-01
        2   -1    0    0  501    0  0.00000000000E+00  0.00000000000E+00  0.23595313669E+04  0.23595313669E+04  0.25500000920E-02 0.  1.
       -2   -1    0    0    0  501  0.00000000000E+00  0.00000000000E+00 -0.35783568256E+03  0.35783568257E+03  0.25500000920E-02 0. -1.
    10030    2    1    2    0    0  0.00000000000E+00  0.00000000000E+00  0.20016956843E+04  0.27173670494E+04  0.18377426558E+04 0.  0.
        5    1    3    3  502    0 -0.16918585015E+03  0.90258659145E+03  0.10479797254E+04  0.13934023115E+04  0.46999998093E+01 0.  1.
       -5    1    3    3    0  502  0.16918585015E+03 -0.90258659145E+03  0.95371595891E+03  0.13239647379E+04  0.46999998093E+01 0. -1.
</event>
<event>
 5   0  0.2393421E-04  0.1800579E+04  0.7818609E-02  0.8705991E-01
        2   -1    0    0  501    0  0.00000000000E+00  0.00000000000E+00  0.16694865854E+04  0.16694865854E+04  0.25500000920E-02 0. -1.
       -2   -1    0    0    0  501  0.00000000000E+00  0.00000000000E+00 -0.48549150385E+03  0.48549150386E+03  0.25500000920E-02 0.  1.
    10030    2    1    2    0    0  0.00000000000E+00  0.00000000000E+00  0.11839950816E+04  0.21549780893E+04  0.18005794101E+04 0.  0.
        5    1    3    3  502    0 -0.90246922207E+01  0.15967396771E+03  0.16523344941E+04  0.16600628275E+04  0.46999998093E+01 0. -1.
       -5    1    3    3    0  502  0.90246922207E+01 -0.15967396771E+03 -0.46833941250E+03  0.49491526177E+03  0.46999998093E+01 0.  1.
</event>
<event>
 5   0  0.2393421E-04  0.1801483E+04  0.7818609E-02  0.8705511E-01
       -2   -1    0    0    0  501  0.00000000000E+00  0.00000000000E+00  0.67052236885E+03  0.67052236885E+03  0.25500000920E-02 0.  1.
        2   -1    0    0  501    0  0.00000000000E+00  0.00000000000E+00 -0.12100040792E+04  0.12100040792E+04  0.25500000920E-02 0. -1.
    10030    2    1    2    0    0  0.00000000000E+00  0.00000000000E+00 -0.53948171032E+03  0.18805264480E+04  0.18014825023E+04 0.  0.
        5    1    3    3  502    0  0.78427555238E+03  0.36005382411E+03 -0.53910528867E+03  0.10175379603E+04  0.46999998093E+01 0. -1.
       -5    1    3    3    0  502 -0.78427555238E+03 -0.36005382411E+03 -0.37642164777E+00  0.86298848776E+03  0.46999998093E+01 0.  1.
</event>
<event>
 5   0  0.1214723E-04  0.1814984E+04  0.7818609E-02  0.8698372E-01
       -1   -1    0    0    0  501  0.00000000000E+00  0.00000000000E+00  0.66473016190E+03  0.66473016191E+03  0.50400001928E-02 0.  1.
        1   -1    0    0  501    0  0.00000000000E+00  0.00000000000E+00 -0.12389109874E+04  0.12389109874E+04  0.50400001928E-02 0. -1.
    10030    2    1    2    0    0  0.00000000000E+00  0.00000000000E+00 -0.57418082548E+03  0.19036411493E+04  0.18149837478E+04 0.  0.
        1    1    3    3  502    0  0.10738116954E+03 -0.66867495037E+03 -0.92065385312E+03  0.11429175045E+04  0.50400001928E-02 0. -1.
       -1    1    3    3    0  502 -0.10738116954E+03  0.66867495037E+03  0.34647302765E+03  0.76072364478E+03  0.50400001928E-02 0.  1.
</event>
<event>
 5   0  0.1214723E-04  0.1792141E+04  0.7818609E-02  0.8710490E-01
        1   -1    0    0  501    0  0.00000000000E+00  0.00000000000E+00  0.93980596248E+03  0.93980596249E+03  0.50400001928E-02 0.  1.
       -1   -1    0    0    0  501  0.00000000000E+00  0.00000000000E+00 -0.85437042007E+03  0.85437042008E+03  0.50400001928E-02 0. -1.
    10030    2    1    2    0    0  0.00000000000E+00  0.00000000000E+00  0.85435542409E+02  0.17941763826E+04  0.17921410826E+04 0.  0.
        1    1    3    3  502    0 -0.22153752650E+03 -0.77638747506E+03 -0.34642152737E+03  0.87855805826E+03  0.50400001928E-02 0. -1.
       -1    1    3    3    0  502  0.22153752650E+03  0.77638747506E+03  0.43185706977E+03  0.91561832431E+03  0.50400001928E-02 0.  1.
</event>
<event>
 5   0  0.1330225E-04  0.1796747E+04  0.7818609E-02  0.8708031E-01
       -1   -1    0    0    0  501  0.00000000000E+00  0.00000000000E+00  0.48844018189E+03  0.48844018191E+03  0.50400001928E-02 0.  1.
        1   -1    0    0  501    0  0.00000000000E+00  0.00000000000E+00 -0.16523522105E+04  0.16523522106E+04  0.50400001928E-02 0. -1.
    10030    2    1    2    0    0  0.00000000000E+00  0.00000000000E+00 -0.11639120287E+04  0.21407923925E+04  0.17967472992E+04 0.  0.
        3    1    3    3  502    0  0.15289279769E+03  0.66000329934E+03 -0.12849250909E+04  0.14525884008E+04  0.10100000352E+00 0. -1.
       -3    1    3    3    0  502 -0.15289279769E+03 -0.66000329934E+03  0.12101306223E+03  0.68820399167E+03  0.10100000352E+00 0.  1.
</event>
<event>
 5   0  0.2550616E-04  0.1823254E+04  0.7818609E-02  0.8694030E-01
       -2   -1    0    0    0  501  0.00000000000E+00  0.00000000000E+00  0.83898524259E+03  0.83898524259E+03  0.25500000920E-02 0.  1.
        2   -1    0    0  501    0  0.00000000000E+00  0.00000000000E+00 -0.99055775613E+03  0.99055775614E+03  0.25500000920E-02 0. -1.
    10030    2    1    2    0    0  0.00000000000E+00  0.00000000000E+00 -0.15157251355E+03  0.18295429987E+04  0.18232535088E+04 0.  0.
        1    1    3    3  502    0 -0.46599812377E+03 -0.52035542186E+03 -0.66358791630E+03  0.96346922063E+03  0.50400001928E-02 0. -1.
       -1    1    3    3    0  502  0.46599812377E+03  0.52035542186E+03  0.51201540275E+03  0.86607377809E+03  0.50400001928E-02 0.  1.
</event>
<event>
 5   0  0.1239119E-04  0.1776888E+04  0.7818609E-02  0.8718688E-01
        1   -1    0    0  501    0  0.00000000000E+00  0.00000000000E+00  0.13231093410E+04  0.13231093410E+04  0.50400001928E-02 0.  1.
       -1   -1    0    0    0  501  0.00000000000E+00  0.00000000000E+00 -0.59657402915E+03  0.59657402917E+03  0.50400001928E-02 0. -1.
    10030    2    1    2    0    0  0.00000000000E+00  0.00000000000E+00  0.72653531185E+03  0.19196833702E+04  0.17768879206E+04 0.  0.
        5    1    3    3  502    0 -0.40551977622E+03  0.77857530869E+03  0.21559041613E+03  0.90395083812E+03  0.46999998093E+01 0.  1.
       -5    1    3    3    0  502  0.40551977622E+03 -0.77857530869E+03  0.51094489571E+03  0.10157325320E+04  0.46999998093E+01 0. -1.
</event>
<event>
 5   0  0.2550616E-04  0.1762499E+04  0.7818609E-02  0.8726500E-01
       -2   -1    0    0    0  501  0.00000000000E+00  0.00000000000E+00  0.57595236974E+03  0.57595236975E+03  0.25500000920E-02 0. -1.
        2   -1    0    0  501    0  0.00000000000E+00  0.00000000000E+00 -0.13483765832E+04  0.13483765832E+04  0.25500000920E-02 0.  1.
    10030    2    1    2    0    0  0.00000000000E+00  0.00000000000E+00 -0.77242421349E+03  0.19243289530E+04  0.17624990081E+04 0.  0.
        1    1    3    3  502    0 -0.68628917268E+03  0.13991095742E+03 -0.97013881432E+03  0.11965522235E+04  0.50400001928E-02 0.  1.
       -1    1    3    3    0  502  0.68628917268E+03 -0.13991095742E+03  0.19771460083E+03  0.72777672946E+03  0.50400001928E-02 0. -1.
</event>
<event>
 5   0  0.2431811E-04  0.1806234E+04  0.7818609E-02  0.8702991E-01
       -2   -1    0    0    0  501  0.00000000000E+00  0.00000000000E+00  0.89594666416E+03  0.89594666417E+03  0.25500000920E-02 0. -1.
        2   -1    0    0  501    0  0.00000000000E+00  0.00000000000E+00 -0.91034440308E+03  0.91034440308E+03  0.25500000920E-02 0.  1.
    10030    2    1    2    0    0  0.00000000000E+00  0.00000000000E+00 -0.14397738918E+02  0.18062910672E+04  0.18062336850E+04 0.  0.
        3    1    3    3  502    0  0.64915940674E+03 -0.61005912758E+03 -0.15566215410E+03  0.90432891744E+03  0.10100000352E+00 0.  1.
       -3    1    3    3    0  502 -0.64915940674E+03  0.61005912758E+03  0.14126441519E+03  0.90196214981E+03  0.10100000352E+00 0. -1.
</event>
<event>
 5   0  0.2569405E-04  0.1816120E+04  0.7818609E-02  0.8697774E-01
       -2   -1    0    0    0  501  0.00000000000E+00  0.00000000000E+00  0.52088381549E+03  0.52088381550E+03  0.25500000920E-02 0.  1.
        2   -1    0    0  501    0  0.00000000000E+00  0.00000000000E+00 -0.15830270095E+04  0.15830270095E+04  0.25500000920E-02 0. -1.
    10030    2    1    2    0    0  0.00000000000E+00  0.00000000000E+00 -0.10621431940E+04  0.21039108250E+04  0.18161202039E+04 0.  0.
        2    1    3    3  502    0  0.82486583401E+03  0.58617209124E+02 -0.96566339422E+03  0.12713557379E+04  0.25500000920E-02 0. -1.
       -2    1    3    3    0  502 -0.82486583401E+03 -0.58617209124E+02 -0.96479799817E+02  0.83255508713E+03  0.25500000920E-02 0.  1.
</event>
<event>
 5   0  0.1253925E-04  0.1807550E+04  0.7818609E-02  0.8702295E-01
       -1   -1    0    0    0  501  0.00000000000E+00  0.00000000000E+00  0.64157301991E+03  0.64157301993E+03  0.50400001928E-02 0. -1.
        1   -1    0    0  501    0  0.00000000000E+00  0.00000000000E+00 -0.12731352550E+04  0.12731352550E+04  0.50400001928E-02 0.  1.
    10030    2    1    2    0    0  0.00000000000E+00  0.00000000000E+00 -0.63156223507E+03  0.19147082749E+04  0.18075499775E+04 0.  0.
        2    1    3    3  502    0  0.77223811764E+03 -0.15419830698E+03  0.15399706554E+03  0.80239885619E+03  0.25500000920E-02 0. -1.
       -2    1    3    3    0  502 -0.77223811764E+03  0.15419830698E+03 -0.78555930061E+03  0.11123094187E+04  0.25500000920E-02 0.  1.
</event>
<event>
 5   0  0.2393421E-04  0.1799549E+04  0.7818609E-02  0.8706540E-01
       -2   -1    0    0    0  501  0.00000000000E+00  0.00000000000E+00  0.42599038082E+03  0.42599038083E+03  0.25500000920E-02 0.  1.
        2   -1    0    0  501    0  0.00000000000E+00  0.00000000000E+00 -0.19004980360E+04  0.19004980360E+04  0.25500000920E-02 0. -1.
    10030    2    1    2    0    0  0.00000000000E+00  0.00000000000E+00 -0.14745076551E+04  0.23264884168E+04  0.17995487013E+04 0.  0.
        5    1    3    3  502    0  0.66131156285E+03  0.37996088817E+03 -0.13543878189E+04  0.15543782402E+04  0.46999998093E+01 0.  1.
       -5    1    3    3    0  502 -0.66131156285E+03 -0.37996088817E+03 -0.12011983624E+03  0.77211017656E+03  0.46999998093E+01 0. -1.
</event>
<event>
 5   0  0.9144875E-05  0.1736373E+04  0.7818609E-02  0.8740887E-01
        3   -1    0    0  501    0  0.00000000000E+00  0.00000000000E+00  0.86940732456E+03  0.86940733043E+03  0.10100000352E+00 0. -1.
       -3   -1    0    0    0  501  0.00000000000E+00  0.00000000000E+00 -0.86696709468E+03  0.86696710056E+03  0.10100000352E+00 0.  1.
    10030    2    1    2    0    0  0.00000000000E+00  0.00000000000E+00  0.24402298775E+01  0.17363744310E+04  0.17363727163E+04 0.  0.
        4    1    3    3  502    0 -0.47424848776E+03 -0.54572481723E+03 -0.47942444349E+03  0.86751173722E+03  0.12699999809E+01 0.  1.
       -4    1    3    3    0  502  0.47424848776E+03  0.54572481723E+03  0.48186467337E+03  0.86886269377E+03  0.12699999809E+01 0. -1.
</event>
<event>
 5   0  0.2393421E-04  0.1814527E+04  0.7818609E-02  0.8698612E-01
        2   -1    0    0  501    0  0.00000000000E+00  0.00000000000E+00  0.19661408277E+04  0.19661408277E+04  0.25500000920E-02 0. -1.
       -2   -1    0    0    0  501  0.00000000000E+00  0.00000000000E+00 -0.41865129841E+03  0.41865129842E+03  0.25500000920E-02 0.  1.
    10030    2    1    2    0    0  0.00000000000E+00  0.00000000000E+00  0.15474895293E+04  0.23847921261E+04  0.18145273879E+04 0.  0.
        5    1    3    3  502    0  0.61526061246E+03 -0.51449563040E+03  0.13311191238E+04  0.15540757983E+04  0.46999998093E+01 0. -1.
       -5    1    3    3    0  502 -0.61526061246E+03  0.51449563040E+03  0.21637040542E+03  0.83071632781E+03  0.46999998093E+01 0.  1.
</event>
<event>
 5   0  0.2550616E-04  0.1793053E+04  0.7818609E-02  0.8710003E-01
        2   -1    0    0  501    0  0.00000000000E+00  0.00000000000E+00  0.81491774982E+03  0.81491774982E+03  0.25500000920E-02 0.  1.
       -2   -1    0    0    0  501  0.00000000000E+00  0.00000000000E+00 -0.98630731764E+03  0.98630731764E+03  0.25500000920E-02 0. -1.
    10030    2    1    2    0    0  0.00000000000E+00  0.00000000000E+00 -0.17138956782E+03  0.18012250675E+04  0.17930525256E+04 0.  0.
        1    1    3    3  502    0 -0.41013915993E+03  0.74351051095E+03  0.20325722616E+03  0.87311826829E+03  0.50400001928E-02 0.  1.
       -1    1    3    3    0  502  0.41013915993E+03 -0.74351051095E+03 -0.37464679398E+03  0.92810679917E+03  0.50400001928E-02 0. -1.
</event>
<event>
 5   0  0.2417106E-04  0.1788260E+04  0.7818609E-02  0.8712568E-01
        2   -1    0    0  501    0  0.00000000000E+00  0.00000000000E+00  0.97038136247E+03  0.97038136247E+03  0.25500000920E-02 0.  1.
       -2   -1    0    0    0  501  0.00000000000E+00  0.00000000000E+00 -0.82387025472E+03  0.82387025473E+03  0.25500000920E-02 0. -1.
    10030    2    1    2    0    0  0.00000000000E+00  0.00000000000E+00  0.14651110774E+03  0.17942516172E+04  0.17882598696E+04 0.  0.
        4    1    3    3  502    0 -0.53736947189E+03  0.51878868179E+03  0.56638893381E+03  0.93739302478E+03  0.12699999809E+01 0.  1.
       -4    1    3    3    0  502  0.53736947189E+03 -0.51878868179E+03 -0.41987782606E+03  0.85685859241E+03  0.12699999809E+01 0. -1.
</event>
<event>
 5   0  0.1253925E-04  0.1802624E+04  0.7818609E-02  0.8704905E-01
        1   -1    0    0  501    0  0.00000000000E+00  0.00000000000E+00  0.98666265809E+03  0.98666265810E+03  0.50400001928E-02 0.  1.
       -1   -1    0    0    0  501  0.00000000000E+00  0.00000000000E+00 -0.82334453320E+03  0.82334453321E+03  0.50400001928E-02 0. -1.
    10030    2    1    2    0    0  0.00000000000E+00  0.00000000000E+00  0.16331812489E+03  0.18100071913E+04  0.18026239826E+04 0.  0.
        2    1    3    3  502    0  0.28726347780E+03  0.13928228032E+03  0.92798940572E+03  0.98136853242E+03  0.25500000920E-02 0.  1.
       -2    1    3    3    0  502 -0.28726347780E+03 -0.13928228032E+03 -0.76467128083E+03  0.82863865890E+03  0.25500000920E-02 0. -1.
</event>
<event>
 5   0  0.1253925E-04  0.1798486E+04  0.7818609E-02  0.8707105E-01
        1   -1    0    0  501    0  0.00000000000E+00  0.00000000000E+00  0.17337829250E+04  0.17337829250E+04  0.50400001928E-02 0.  1.
       -1   -1    0    0    0  501  0.00000000000E+00  0.00000000000E+00 -0.46640070216E+03  0.46640070219E+03  0.50400001928E-02 0. -1.
    10030    2    1    2    0    0  0.00000000000E+00  0.00000000000E+00  0.12673822229E+04  0.22001836272E+04  0.17984855559E+04 0.  0.
        2    1    3    3  502    0  0.43528499258E+02 -0.39798933684E+03 -0.35135336038E+03  0.53267196880E+03  0.25500000920E-02 0. -1.
       -2    1    3    3    0  502 -0.43528499258E+02  0.39798933684E+03  0.16187355832E+04  0.16675116584E+04  0.25500000920E-02 0.  1.
</event>
<event>
 5   0  0.2393421E-04  0.1791100E+04  0.7818609E-02  0.8711047E-01
        2   -1    0    0  501    0  0.00000000000E+00  0.00000000000E+00  0.82882170198E+03  0.82882170198E+03  0.25500000920E-02 0. -1.
       -2   -1    0    0    0  501  0.00000000000E+00  0.00000000000E+00 -0.96765077258E+03  0.96765077258E+03  0.25500000920E-02 0.  1.
    10030    2    1    2    0    0  0.00000000000E+00  0.00000000000E+00 -0.13882907060E+03  0.17964724746E+04  0.17911001762E+04 0.  0.
        5    1    3    3  502    0 -0.57630175644E+03 -0.65846703323E+03 -0.26047295494E+03  0.91300098498E+03  0.46999998093E+01 0.  1.
       -5    1    3    3    0  502  0.57630175644E+03  0.65846703323E+03  0.12164388434E+03  0.88347148959E+03  0.46999998093E+01 0. -1.
</event>
<event>
 5   0  0.2431811E-04  0.1809838E+04  0.7818609E-02  0.8701085E-01
       -2   -1    0    0    0  501  0.00000000000E+00  0.00000000000E+00  0.44280149934E+03  0.44280149935E+03  0.25500000920E-02 0. -1.
        2   -1    0    0  501    0  0.00000000000E+00  0.00000000000E+00 -0.18493126108E+04  0.18493126108E+04  0.25500000920E-02 0.  1.
    10030    2    1    2    0    0  0.00000000000E+00  0.00000000000E+00 -0.14065111114E+04  0.22921141101E+04  0.18098380003E+04 0.  0.
        3    1    3    3  502    0  0.71297437430E+03  0.21104606927E+03 -0.13564490158E+04  0.15468764800E+04  0.10100000352E+00 0.  1.
       -3    1    3    3    0  502 -0.71297437430E+03 -0.21104606927E+03 -0.50062095685E+02  0.74523763015E+03  0.10100000352E+00 0. -1.
</event>
<event>
 5   0  0.1253925E-04  0.1837593E+04  0.7818609E-02  0.8686559E-01
       -1   -1    0    0    0  501  0.00000000000E+00  0.00000000000E+00  0.43178629890E+03  0.43178629893E+03  0.50400001928E-02 0.  1.
        1   -1    0    0  501    0  0.00000000000E+00  0.00000000000E+00 -0.19551044810E+04  0.19551044810E+04  0.50400001928E-02 0. -1.
    10030    2    1    2    0    0  0.00000000000E+00  0.00000000000E+00 -0.15233181821E+04  0.23868907800E+04  0.18375933477E+04 0.  0.
        2    1    3    3  502    0  0.35966600577E+03  0.23632532713E+03  0.29277297669E+03  0.52050486245E+03  0.25500000920E-02 0.  1.
       -2    1    3    3    0  502 -0.35966600577E+03 -0.23632532713E+03 -0.18160911588E+04  0.18663859175E+04  0.25500000920E-02 0. -1.
</event>
<event>
 5   0  0.2417106E-04  0.1800232E+04  0.7818609E-02  0.8706176E-01
        2   -1    0    0  501    0  0.00000000000E+00  0.00000000000E+00  0.11018565693E+04  0.11018565693E+04  0.25500000920E-02 0. -1.
       -2   -1    0    0    0  501  0.00000000000E+00  0.00000000000E+00 -0.73531224659E+03  0.73531224660E+03  0.25500000920E-02 0.  1.
    10030    2    1    2    0    0  0.00000000000E+00  0.00000000000E+00  0.36654432274E+03  0.18371688159E+04  0.18002317955E+04 0.  0.
        4    1    3    3  502    0  0.18077505990E+03  0.88147947532E+03  0.15997105683E+03  0.91393546797E+03  0.12699999809E+01 0.  1.
       -4    1    3    3    0  502 -0.18077505990E+03 -0.88147947532E+03  0.20657326591E+03  0.92323334796E+03  0.12699999809E+01 0. -1.
</event>
<event>
 5   0  0.1253925E-04  0.1838805E+04  0.7818609E-02  0.8685931E-01
       -1   -1    0    0    0  501  0.00000000000E+00  0.00000000000E+00  0.69294952377E+03  0.69294952379E+03  0.50400001928E-02 0.  1.
        1   -1    0    0  501    0  0.00000000000E+00  0.00000000000E+00 -0.12198599778E+04  0.12198599778E+04  0.50400001928E-02 0. -1.
    10030    2    1    2    0    0  0.00000000000E+00  0.00000000000E+00 -0.52691045401E+03  0.19128095016E+04  0.18388054717E+04 0.  0.
        2    1    3    3  502    0  0.85998457578E+02 -0.89922040180E+03 -0.85368549222E+02  0.90734825449E+03  0.25500000920E-02 0.  1.
       -2    1    3    3    0  502 -0.85998457578E+02  0.89922040180E+03 -0.44154190479E+03  0.10054612471E+04  0.25500000920E-02 0. -1.
</event>
<event>
 5   0  0.1330225E-04  0.1827926E+04  0.7818609E-02  0.8691588E-01
       -1   -1    0    0    0  501  0.00000000000E+00  0.00000000000E+00  0.17514308873E+04  0.17514308873E+04  0.50400001928E-02 0.  1.
        1   -1    0    0  501    0  0.00000000000E+00  0.00000000000E+00 -0.47694031257E+03  0.47694031260E+03  0.50400001928E-02 0. -1.
    10030    2    1    2    0    0  0.00000000000E+00  0.00000000000E+00  0.12744905747E+04  0.22283711999E+04  0.18279255946E+04 0.  0.
        3    1    3    3  502    0  0.46208128712E+03 -0.33543743024E+02 -0.32318133149E+03  0.56488094483E+03  0.10100000352E+00 0. -1.
       -3    1    3    3    0  502 -0.46208128712E+03  0.33543743024E+02  0.15976719062E+04  0.16634902551E+04  0.10100000352E+00 0.  1.
</event>
<event>
 5   0  0.2550616E-04  0.1851491E+04  0.7818609E-02  0.8679386E-01
       -2   -1    0    0    0  501  0.00000000000E+00  0.00000000000E+00  0.73696734087E+03  0.73696734088E+03  0.25500000920E-02 0. -1.
        2   -1    0    0  501    0  0.00000000000E+00  0.00000000000E+00 -0.11628805502E+04  0.11628805502E+04  0.25500000920E-02 0.  1.
    10030    2    1    2    0    0  0.00000000000E+00  0.00000000000E+00 -0.42591320935E+03  0.18998478911E+04  0.18514912766E+04 0.  0.
        1    1    3    3  502    0 -0.74789947346E+03  0.80133070131E+02  0.34079533108E+03  0.82578228913E+03  0.50400001928E-02 0.  1.
       -1    1    3    3    0  502  0.74789947346E+03 -0.80133070131E+02 -0.76670854043E+03  0.10740656020E+04  0.50400001928E-02 0. -1.
</event>
<event>
 5   0  0.1253925E-04  0.1799956E+04  0.7818609E-02  0.8706323E-01
       -1   -1    0    0    0  501  0.00000000000E+00  0.00000000000E+00  0.87240942203E+03  0.87240942204E+03  0.50400001928E-02 0.  1.
        1   -1    0    0  501    0  0.00000000000E+00  0.00000000000E+00 -0.92841783438E+03  0.92841783439E+03  0.50400001928E-02 0. -1.
    10030    2    1    2    0    0  0.00000000000E+00  0.00000000000E+00 -0.56008412354E+02  0.18008272564E+04  0.17999560731E+04 0.  0.
        2    1    3    3  502    0 -0.56228222342E+03  0.69529757214E+03 -0.12983978496E+03  0.90358086653E+03  0.25500000920E-02 0.  1.
       -2    1    3    3    0  502  0.56228222342E+03 -0.69529757214E+03  0.73831372605E+02  0.89724638990E+03  0.25500000920E-02 0. -1.
</event>
<event>
 5   0  0.2550616E-04  0.1792883E+04  0.7818609E-02  0.8710093E-01
       -2   -1    0    0    0  501  0.00000000000E+00  0.00000000000E+00  0.54455641754E+03  0.54455641754E+03  0.25500000920E-02 0.  1.
        2   -1    0    0  501    0  0.00000000000E+00  0.00000000000E+00 -0.14757105956E+04  0.14757105956E+04  0.25500000920E-02 0. -1.
    10030    2    1    2    0    0  0.00000000000E+00  0.00000000000E+00 -0.93115417805E+03  0.20202670131E+04  0.17928833484E+04 0.  0.
        1    1    3    3  502    0 -0.35077198134E+03 -0.25708638418E+03  0.41772293361E+03  0.60301479345E+03  0.50400001928E-02 0.  1.
       -1    1    3    3    0  502  0.35077198134E+03  0.25708638418E+03 -0.13488771117E+04  0.14172522197E+04  0.50400001928E-02 0. -1.
</event>
<event>
 5   0  0.2431811E-04  0.1677086E+04  0.7818609E-02  0.8774542E-01
       -2   -1    0    0    0  501  0.00000000000E+00  0.00000000000E+00  0.56329604936E+03  0.56329604937E+03  0.25500000920E-02 0.  1.
        2   -1    0    0  501    0  0.00000000000E+00  0.00000000000E+00 -0.12482854246E+04  0.12482854246E+04  0.25500000920E-02 0. -1.
    10030    2    1    2    0    0  0.00000000000E+00  0.00000000000E+00 -0.68498937524E+03  0.18115814740E+04  0.16770858632E+04 0.  0.
        3    1    3    3  502    0  0.48739142437E+03  0.53591013159E+03  0.11375761700E+03  0.73327407926E+03  0.10100000352E+00 0.  1.
       -3    1    3    3    0  502 -0.48739142437E+03 -0.53591013159E+03 -0.79874699223E+03  0.10783073947E+04  0.10100000352E+00 0. -1.
</event>
<event>
 5   0  0.1214723E-04  0.1821542E+04  0.7818609E-02  0.8694927E-01
        1   -1    0    0  501    0  0.00000000000E+00  0.00000000000E+00  0.14327719473E+04  0.14327719473E+04  0.50400001928E-02 0. -1.
       -1   -1    0    0    0  501  0.00000000000E+00  0.00000000000E+00 -0.57895021125E+03  0.57895021127E+03  0.50400001928E-02 0.  1.
    10030    2    1    2    0    0  0.00000000000E+00  0.00000000000E+00  0.85382173604E+03  0.20117221586E+04  0.18215417882E+04 0.  0.
        1    1    3    3  502    0 -0.47651037109E+02  0.52976379756E+03 -0.38959074571E+03  0.65931877852E+03  0.50400001928E-02 0.  1.
       -1    1    3    3    0  502  0.47651037109E+02 -0.52976379756E+03  0.12434124817E+04  0.13524033800E+04  0.50400001928E-02 0. -1.
</event>
<event>
 5   0  0.1214723E-04  0.1796288E+04  0.7818609E-02  0.8708276E-01
        1   -1    0    0  501    0  0.00000000000E+00  0.00000000000E+00  0.90489778053E+03  0.90489778054E+03  0.50400001928E-02 0.  1.
       -1   -1    0    0    0  501  0.00000000000E+00  0.00000000000E+00 -0.89144019298E+03  0.89144019299E+03  0.50400001928E-02 0. -1.
    10030    2    1    2    0    0  0.00000000000E+00  0.00000000000E+00  0.13457587549E+02  0.17963379735E+04  0.17962875629E+04 0.  0.
        1    1    3    3  502    0 -0.80386050729E+03 -0.20573301952E+02 -0.39334152424E+03  0.89517178835E+03  0.50400001928E-02 0. -1.
       -1    1    3    3    0  502  0.80386050729E+03  0.20573301952E+02  0.40679911179E+03  0.90116618518E+03  0.50400001928E-02 0.  1.
</event>
<event>
 5   0  0.2550616E-04  0.1803977E+04  0.7818609E-02  0.8704187E-01
        2   -1    0    0  501    0  0.00000000000E+00  0.00000000000E+00  0.78414769003E+03  0.78414769003E+03  0.25500000920E-02 0.  1.
       -2   -1    0    0    0  501  0.00000000000E+00  0.00000000000E+00 -0.10375382358E+04  0.10375382358E+04  0.25500000920E-02 0. -1.
    10030    2    1    2    0    0  0.00000000000E+00  0.00000000000E+00 -0.25339054576E+03  0.18216859258E+04  0.18039769521E+04 0.  0.
        1    1    3    3  502    0  0.55952225681E+03 -0.63789295845E+01  0.58769369352E+03  0.81147379750E+03  0.50400001928E-02 0.  1.
       -1    1    3    3    0  502 -0.55952225681E+03  0.63789295845E+01 -0.84108423928E+03  0.10102121283E+04  0.50400001928E-02 0. -1.
</event>
<event>
 5   0  0.1253925E-04  0.1795994E+04  0.7818609E-02  0.8708433E-01
        1   -1    0    0  501    0  0.00000000000E+00  0.00000000000E+00  0.17686945182E+04  0.17686945182E+04  0.50400001928E-02 0.  1.
       -1   -1    0    0    0  501  0.00000000000E+00  0.00000000000E+00 -0.45592854886E+03  0.45592854889E+03  0.50400001928E-02 0. -1.
    10030    2    1    2    0    0  0.00000000000E+00  0.00000000000E+00  0.13127659693E+04  0.22246230671E+04  0.17959936805E+04 0.  0.
        2    1    3    3  502    0  0.11123344444E+02 -0.50396575103E+03  0.15769098075E+04  0.16555209899E+04  0.25500000920E-02 0.  1.
       -2    1    3    3    0  502 -0.11123344444E+02  0.50396575103E+03 -0.26414383818E+03  0.56910207719E+03  0.25500000920E-02 0. -1.
</event>
<event>
 5   0  0.1214723E-04  0.1804622E+04  0.7818609E-02  0.8703845E-01
        1   -1    0    0  501    0  0.00000000000E+00  0.00000000000E+00  0.69356601218E+03  0.69356601219E+03  0.50400001928E-02 0. -1.
       -1   -1    0    0    0  501  0.00000000000E+00  0.00000000000E+00 -0.11738833301E+04  0.11738833301E+04  0.50400001928E-02 0.  1.
    10030    2    1    2    0    0  0.00000000000E+00  0.00000000000E+00 -0.48031731790E+03  0.18674493423E+04  0.18046224869E+04 0.  0.
        1    1    3    3  502    0  0.31877732145E+03 -0.57604503632E+03  0.39834674648E+03  0.76949788498E+03  0.50400001928E-02 0. -1.
       -1    1    3    3    0  502 -0.31877732145E+03  0.57604503632E+03 -0.87866406438E+03  0.10979514573E+04  0.50400001928E-02 0.  1.
</event>
<event>
 5   0  0.2431811E-04  0.1824768E+04  0.7818609E-02  0.8693238E-01
        2   -1    0    0  501    0  0.00000000000E+00  0.00000000000E+00  0.20272140821E+04  0.20272140821E+04  0.25500000920E-02 0. -1.
       -2   -1    0    0    0  501  0.00000000000E+00  0.00000000000E+00 -0.41063478828E+03  0.41063478829E+03  0.25500000920E-02 0.  1.
    10030    2    1    2    0    0  0.00000000000E+00  0.00000000000E+00  0.16165792938E+04  0.24378488704E+04  0.18247680679E+04 0.  0.
        3    1    3    3  502    0  0.57515127802E+03 -0.70240849408E+03  0.68681168329E+03  0.11383703192E+04  0.10100000352E+00 0.  1.
       -3    1    3    3    0  502 -0.57515127802E+03  0.70240849408E+03  0.92976761056E+03  0.12994785512E+04  0.10100000352E+00 0. -1.
</event>
<event>
 5   0  0.1308893E-04  0.1799897E+04  0.7818609E-02  0.8706354E-01
        1   -1    0    0  501    0  0.00000000000E+00  0.00000000000E+00  0.89568535953E+03  0.89568535954E+03  0.50400001928E-02 0.  1.
       -1   -1    0    0    0  501  0.00000000000E+00  0.00000000000E+00 -0.90423183447E+03  0.90423183448E+03  0.50400001928E-02 0. -1.
    10030    2    1    2    0    0  0.00000000000E+00  0.00000000000E+00 -0.85464749368E+01  0.17999171940E+04  0.17998969035E+04 0.  0.
        4    1    3    3  502    0  0.80707067769E+03 -0.38971662559E+02  0.39199343277E+03  0.89807701980E+03  0.12699999809E+01 0.  1.
       -4    1    3    3    0  502 -0.80707067769E+03  0.38971662559E+02 -0.40053990770E+03  0.90184017422E+03  0.12699999809E+01 0. -1.
</event>
<event>
 5   0  0.1308893E-04  0.1816752E+04  0.7818609E-02  0.8697442E-01
        1   -1    0    0  501    0  0.00000000000E+00  0.00000000000E+00  0.11451145240E+04  0.11451145240E+04  0.50400001928E-02 0. -1.
       -1   -1    0    0    0  501  0.00000000000E+00  0.00000000000E+00 -0.72058004467E+03  0.72058004469E+03  0.50400001928E-02 0.  1.
    10030    2    1    2    0    0  0.00000000000E+00  0.00000000000E+00  0.42453447930E+03  0.18656945687E+04  0.18167516890E+04 0.  0.
        4    1    3    3  502    0 -0.81833409224E+03  0.36721300523E+02  0.61543223513E+03  0.10245865456E+04  0.12699999809E+01 0. -1.
       -4    1    3    3    0  502  0.81833409224E+03 -0.36721300523E+02 -0.19089775582E+03  0.84110802310E+03  0.12699999809E+01 0.  1.
</event>
<event>
 5   0  0.1308893E-04  0.1817875E+04  0.7818609E-02  0.8696851E-01
        1   -1    0    0  501    0  0.00000000000E+00  0.00000000000E+00  0.67400342299E+03  0.67400342300E+03  0.50400001928E-02 0. -1.
       -1   -1    0    0    0  501  0.00000000000E+00  0.00000000000E+00 -0.12257620085E+04  0.12257620085E+04  0.50400001928E-02 0.  1.
    10030    2    1    2    0    0  0.00000000000E+00  0.00000000000E+00 -0.55175858555E+03  0.18997654315E+04  0.18178754518E+04 0.  0.
        4    1    3    3  502    0  0.22032131885E+03 -0.48748908781E+03 -0.10438140493E+04  0.11729179327E+04  0.12699999809E+01 0.  1.
       -4    1    3    3    0  502 -0.22032131885E+03  0.48748908781E+03  0.49205546380E+03  0.72684749888E+03  0.12699999809E+01 0. -1.
</event>
<event>
 5   0  0.2569405E-04  0.1783106E+04  0.7818609E-02  0.8715335E-01
       -2   -1    0    0    0  501  0.00000000000E+00  0.00000000000E+00  0.52562060120E+03  0.52562060121E+03  0.25500000920E-02 0. -1.
        2   -1    0    0  501    0  0.00000000000E+00  0.00000000000E+00 -0.15122450963E+04  0.15122450963E+04  0.25500000920E-02 0.  1.
    10030    2    1    2    0    0  0.00000000000E+00  0.00000000000E+00 -0.98662449509E+03  0.20378656975E+04  0.17831064766E+04 0.  0.
        2    1    3    3  502    0 -0.26726569092E+03 -0.64973667406E+03 -0.11206224322E+04  0.13226425559E+04  0.25500000920E-02 0.  1.
       -2    1    3    3    0  502  0.26726569092E+03  0.64973667406E+03  0.13399793707E+03  0.71522314162E+03  0.25500000920E-02 0. -1.
</event>
<event>
 5   0  0.2417106E-04  0.1785282E+04  0.7818609E-02  0.8714166E-01
       -2   -1    0    0    0  501  0.00000000000E+00  0.00000000000E+00  0.55392557935E+03  0.55392557936E+03  0.25500000920E-02 0. -1.
        2   -1    0    0  501    0  0.00000000000E+00  0.00000000000E+00 -0.14384743122E+04  0.14384743122E+04  0.25500000920E-02 0.  1.
    10030    2    1    2    0    0  0.00000000000E+00  0.00000000000E+00 -0.88454873280E+03  0.19923998915E+04  0.17852817332E+04 0.  0.
        4    1    3    3  502    0 -0.20133645799E+02  0.28077323185E+03 -0.13876426263E+04  0.14159070035E+04  0.12699999809E+01 0.  1.
       -4    1    3    3    0  502  0.20133645799E+02 -0.28077323185E+03  0.50309389346E+03  0.57649288803E+03  0.12699999809E+01 0. -1.
</event>
<event>
 5   0  0.2431811E-04  0.1797222E+04  0.7818609E-02  0.8707778E-01
       -2   -1    0    0    0  501  0.00000000000E+00  0.00000000000E+00  0.52383666250E+03  0.52383666251E+03  0.25500000920E-02 0.  1.
        2   -1    0    0  501    0  0.00000000000E+00  0.00000000000E+00 -0.15415146490E+04  0.15415146490E+04  0.25500000920E-02 0. -1.
    10030    2    1    2    0    0  0.00000000000E+00  0.00000000000E+00 -0.10176779865E+04  0.20653513115E+04  0.17972221776E+04 0.  0.
        3    1    3    3  502    0 -0.15566547145E+03 -0.66826118567E+03  0.15798600309E+03  0.70410534627E+03  0.10100000352E+00 0.  1.
       -3    1    3    3    0  502  0.15566547145E+03  0.66826118567E+03 -0.11756639896E+04  0.13612459652E+04  0.10100000352E+00 0. -1.
</event>
<event>
 5   0  0.1330225E-04  0.1806736E+04  0.7818609E-02  0.8702725E-01
       -1   -1    0    0    0  501  0.00000000000E+00  0.00000000000E+00  0.11269288472E+04  0.11269288472E+04  0.50400001928E-02 0. -1.
        1   -1    0    0  501    0  0.00000000000E+00  0.00000000000E+00 -0.72415740765E+03  0.72415740767E+03  0.50400001928E-02 0.  1.
    10030    2    1    2    0    0  0.00000000000E+00  0.00000000000E+00  0.40277143958E+03  0.18510862549E+04  0.18067361430E+04 0.  0.
        3    1    3    3  502    0 -0.10742000916E+03  0.45383787282E+03  0.99404754268E+03  0.10980156650E+04  0.10100000352E+00 0. -1.
       -3    1    3    3    0  502  0.10742000916E+03 -0.45383787282E+03 -0.59127610310E+03  0.75307058996E+03  0.10100000352E+00 0.  1.
</event>
<event>
 5   0  0.2431811E-04  0.1818101E+04  0.7818609E-02  0.8696732E-01
       -2   -1    0    0    0  501  0.00000000000E+00  0.00000000000E+00  0.49768009217E+03  0.49768009218E+03  0.25500000920E-02 0. -1.
        2   -1    0    0  501    0  0.00000000000E+00  0.00000000000E+00 -0.16604493808E+04  0.16604493808E+04  0.25500000920E-02 0.  1.
    10030    2    1    2    0    0  0.00000000000E+00  0.00000000000E+00 -0.11627692886E+04  0.21581294730E+04  0.18181007683E+04 0.  0.
        3    1    3    3  502    0  0.76639300239E+03  0.22349895573E+03 -0.10975184768E+04  0.13571502623E+04  0.10100000352E+00 0.  1.
       -3    1    3    3    0  502 -0.76639300239E+03 -0.22349895573E+03 -0.65250811840E+02  0.80097921070E+03  0.10100000352E+00 0. -1.
</event>
<event>
 5   0  0.2569405E-04  0.1850019E+04  0.7818609E-02  0.8680143E-01
       -2   -1    0    0    0  501  0.00000000000E+00  0.00000000000E+00  0.50579205224E+03  0.50579205225E+03  0.25500000920E-02 0. -1.
        2   -1    0    0  501    0  0.00000000000E+00  0.00000000000E+00 -0.16916892434E+04  0.16916892434E+04  0.25500000920E-02 0.  1.
    10030    2    1    2    0    0  0.00000000000E+00  0.00000000000E+00 -0.11858971912E+04  0.21974812957E+04  0.18500194315E+04 0.  0.
        2    1    3    3  502    0 -0.73642451897E+03  0.24338873451E+03 -0.11916874022E+04  0.14218572406E+04  0.25500000920E-02 0.  1.
       -2    1    3    3    0  502  0.73642451897E+03 -0.24338873451E+03  0.57902109851E+01  0.77562405505E+03  0.25500000920E-02 0. -1.
</event>
<event>
 5   0  0.1330225E-04  0.1800064E+04  0.7818609E-02  0.8706265E-01
        1   -1    0    0  501    0  0.00000000000E+00  0.00000000000E+00  0.25070542274E+04  0.25070542274E+04  0.50400001928E-02 0.  1.
       -1   -1    0    0    0  501  0.00000000000E+00  0.00000000000E+00 -0.32311132967E+03  0.32311132971E+03  0.50400001928E-02 0. -1.
    10030    2    1    2    0    0  0.00000000000E+00  0.00000000000E+00  0.21839428977E+04  0.28301655571E+04  0.18000640267E+04 0.  0.
        3    1    3    3  502    0  0.59729710191E+03  0.65120952717E+03  0.82321212615E+03  0.12076903126E+04  0.10100000352E+00 0. -1.
       -3    1    3    3    0  502 -0.59729710191E+03 -0.65120952717E+03  0.13607307716E+04  0.16224752445E+04  0.10100000352E+00 0.  1.
</event>
<event>
 5   0  0.2393421E-04  0.1850401E+04  0.7818609E-02  0.8679947E-01
        2   -1    0    0  501    0  0.00000000000E+00  0.00000000000E+00  0.10182107338E+04  0.10182107338E+04  0.25500000920E-02 0.  1.
       -2   -1    0    0    0  501  0.00000000000E+00  0.00000000000E+00 -0.84068661414E+03  0.84068661414E+03  0.25500000920E-02 0. -1.
    10030    2    1    2    0    0  0.00000000000E+00  0.00000000000E+00  0.17752411963E+03  0.18588973479E+04  0.18504011827E+04 0.  0.
        5    1    3    3  502    0 -0.33059866406E+03  0.31275620214E+03 -0.72045629123E+03  0.85216857266E+03  0.46999998093E+01 0. -1.
       -5    1    3    3    0  502  0.33059866406E+03 -0.31275620214E+03  0.89798041085E+03  0.10067287753E+04  0.46999998093E+01 0.  1.
</event>
<event>
 5   0  0.1239119E-04  0.1772732E+04  0.7818609E-02  0.8720936E-01
       -1   -1    0    0    0  501  0.00000000000E+00  0.00000000000E+00  0.92623925188E+03  0.92623925190E+03  0.50400001928E-02 0.  1.
        1   -1    0    0  501    0  0.00000000000E+00  0.00000000000E+00 -0.84820970689E+03  0.84820970690E+03  0.50400001928E-02 0. -1.
    10030    2    1    2    0    0  0.00000000000E+00  0.00000000000E+00  0.78029544994E+02  0.17744489588E+04  0.17727324946E+04 0.  0.
        5    1    3    3  502    0 -0.31063336171E+03 -0.47460077240E+03 -0.64273504270E+03  0.85724524127E+03  0.46999998093E+01 0. -1.
       -5    1    3    3    0  502  0.31063336171E+03  0.47460077240E+03  0.72076458770E+03  0.91720371753E+03  0.46999998093E+01 0.  1.
</event>
<event>
 5   0  0.2393421E-04  0.1789258E+04  0.7818609E-02  0.8712033E-01
       -2   -1    0    0    0  501  0.00000000000E+00  0.00000000000E+00  0.65863603706E+03  0.65863603706E+03  0.25500000920E-02 0. -1.
        2   -1    0    0  501    0  0.00000000000E+00  0.00000000000E+00 -0.12151795755E+04  0.12151795755E+04  0.25500000920E-02 0.  1.
    10030    2    1    2    0    0  0.00000000000E+00  0.00000000000E+00 -0.55654353847E+03  0.18738156126E+04  0.17892580138E+04 0.  0.
        5    1    3    3  502    0  0.69888594826E+03  0.49667028464E+03 -0.54571466117E+03  0.10163412428E+04  0.46999998093E+01 0.  1.
       -5    1    3    3    0  502 -0.69888594826E+03 -0.49667028464E+03 -0.10828877301E+02  0.85747436983E+03  0.46999998093E+01 0. -1.
</event>
<event>
 5   0  0.2550616E-04  0.1819294E+04  0.7818609E-02  0.8696106E-01
        2   -1    0    0  501    0  0.00000000000E+00  0.00000000000E+00  0.75876798692E+03  0.75876798692E+03  0.25500000920E-02 0.  1.
       -2   -1    0    0    0  501  0.00000000000E+00  0.00000000000E+00 -0.10905276938E+04  0.10905276938E+04  0.25500000920E-02 0. -1.
    10030    2    1    2    0    0  0.00000000000E+00  0.00000000000E+00 -0.33175970690E+03  0.18492956807E+04  0.18192938223E+04 0.  0.
        1    1    3    3  502    0 -0.82688062830E+03  0.23571154499E+03 -0.46770406305E+03  0.97879446081E+03  0.50400001928E-02 0. -1.
       -1    1    3    3    0  502  0.82688062830E+03 -0.23571154499E+03  0.13594435614E+03  0.87050121993E+03  0.50400001928E-02 0.  1.
</event>
<event>
 5   0  0.2417106E-04  0.1828455E+04  0.7818609E-02  0.8691312E-01
        2   -1    0    0  501    0  0.00000000000E+00  0.00000000000E+00  0.79567887672E+03  0.79567887672E+03  0.25500000920E-02 0. -1.
       -2   -1    0    0    0  501  0.00000000000E+00  0.00000000000E+00 -0.10504385016E+04  0.10504385016E+04  0.25500000920E-02 0.  1.
    10030    2    1    2    0    0  0.00000000000E+00  0.00000000000E+00 -0.25475962489E+03  0.18461173783E+04  0.18284547870E+04 0.  0.
        4    1    3    3  502    0  0.84302981002E+03 -0.34362292274E+03 -0.42699860237E+02  0.91137306553E+03  0.12699999809E+01 0.  1.
       -4    1    3    3    0  502 -0.84302981002E+03  0.34362292274E+03 -0.21205976465E+03  0.93474431279E+03  0.12699999809E+01 0. -1.
</event>
<event>
 5   0  0.1330225E-04  0.1789429E+04  0.7818609E-02  0.8711941E-01
       -1   -1    0    0    0  501  0.00000000000E+00  0.00000000000E+00  0.43572658597E+03  0.43572658600E+03  0.50400001928E-02 0.  1.
        1   -1    0    0  501    0  0.00000000000E+00  0.00000000000E+00 -0.18371930462E+04  0.18371930462E+04  0.50400001928E-02 0. -1.
    10030    2    1    2    0    0  0.00000000000E+00  0.00000000000E+00 -0.14014664602E+04  0.22729196322E+04  0.17894287958E+04 0.  0.
        3    1    3    3  502    0  0.27900181697E+02 -0.47286607594E+03 -0.16648531826E+04  0.17309294832E+04  0.10100000352E+00 0. -1.
       -3    1    3    3    0  502 -0.27900181697E+02  0.47286607594E+03  0.26338672238E+03  0.54199014903E+03  0.10100000352E+00 0.  1.
</event>
<event>
 5   0  0.1308893E-04  0.1810335E+04  0.7818609E-02  0.8700823E-01
        1   -1    0    0  501    0  0.00000000000E+00  0.00000000000E+00  0.65841275372E+03  0.65841275374E+03  0.50400001928E-02 0. -1.
       -1   -1    0    0    0  501  0.00000000000E+00  0.00000000000E+00 -0.12443992067E+04  0.12443992067E+04  0.50400001928E-02 0.  1.
    10030    2    1    2    0    0  0.00000000000E+00  0.00000000000E+00 -0.58598645301E+03  0.19028119605E+04  0.18103351164E+04 0.  0.
        4    1    3    3  502    0 -0.23915999084E+03 -0.79744816853E+03  0.80408422720E+02  0.83641389877E+03  0.12699999809E+01 0. -1.
       -4    1    3    3    0  502  0.23915999084E+03  0.79744816853E+03 -0.66639487573E+03  0.10663980617E+04  0.12699999809E+01 0.  1.
</event>
<event>
 5   0  0.2550616E-04  0.1800534E+04  0.7818609E-02  0.8706015E-01
       -2   -1    0    0    0  501  0.00000000000E+00  0.00000000000E+00  0.52948557073E+03  0.52948557074E+03  0.25500000920E-02 0. -1.
        2   -1    0    0  501    0  0.00000000000E+00  0.00000000000E+00 -0.15306950731E+04  0.15306950731E+04  0.25500000920E-02 0.  1.
    10030    2    1    2    0    0  0.00000000000E+00  0.00000000000E+00 -0.10012095024E+04  0.20601806439E+04  0.18005343145E+04 0.  0.
        1    1    3    3  502    0  0.64752331755E+03  0.48175256230E+03 -0.95701064155E+03  0.12518951019E+04  0.50400001928E-02 0.  1.
       -1    1    3    3    0  502 -0.64752331755E+03 -0.48175256230E+03 -0.44198860835E+02  0.80828554198E+03  0.50400001928E-02 0. -1.
</event>
<event>
 5   0  0.1214723E-04  0.1773201E+04  0.7818609E-02  0.8720682E-01
       -1   -1    0    0    0  501  0.00000000000E+00  0.00000000000E+00  0.10555254913E+04  0.10555254913E+04  0.50400001928E-02 0.  1.
        1   -1    0    0  501    0  0.00000000000E+00  0.00000000000E+00 -0.74470975274E+03  0.74470975276E+03  0.50400001928E-02 0. -1.
    10030    2    1    2    0    0  0.00000000000E+00  0.00000000000E+00  0.31081573854E+03  0.18002352441E+04  0.17732006403E+04 0.  0.
        1    1    3    3  502    0 -0.69384021135E+03 -0.22488253714E+03 -0.35633436963E+03  0.81176386801E+03  0.50400001928E-02 0. -1.
       -1    1    3    3    0  502  0.69384021135E+03  0.22488253714E+03  0.66715010818E+03  0.98847137605E+03  0.50400001928E-02 0.  1.
</event>
<event>
 5   0  0.2417106E-04  0.1806599E+04  0.7818609E-02  0.8702798E-01
        2   -1    0    0  501    0  0.00000000000E+00  0.00000000000E+00  0.20861772585E+04  0.20861772585E+04  0.25500000920E-02 0. -1.
       -2   -1    0    0    0  501  0.00000000000E+00  0.00000000000E+00 -0.39112212942E+03  0.39112212943E+03  0.25500000920E-02 0.  1.
    10030    2    1    2    0    0  0.00000000000E+00  0.00000000000E+00  0.16950551291E+04  0.24772993880E+04  0.18065991162E+04 0.  0.
        4    1    3    3  502    0 -0.72812184450E+03  0.16609412376E+03  0.15443059226E+04  0.17154098851E+04  0.12699999809E+01 0. -1.
       -4    1    3    3    0  502  0.72812184450E+03 -0.16609412376E+03  0.15074920649E+03  0.76188950284E+03  0.12699999809E+01 0.  1.
</event>
<event>
 5   0  0.2393421E-04  0.1797466E+04  0.7818609E-02  0.8707648E-01
        2   -1    0    0  501    0  0.00000000000E+00  0.00000000000E+00  0.85123385984E+03  0.85123385984E+03  0.25500000920E-02 0. -1.
       -2   -1    0    0    0  501  0.00000000000E+00  0.00000000000E+00 -0.94888259529E+03  0.94888259529E+03  0.25500000920E-02 0.  1.
    10030    2    1    2    0    0  0.00000000000E+00  0.00000000000E+00 -0.97648735450E+02  0.18001164551E+04  0.17974659876E+04 0.  0.
        5    1    3    3  502    0  0.10392605857E+03 -0.59438621506E+03 -0.71584198954E+03  0.93624112401E+03  0.46999998093E+01 0.  1.
       -5    1    3    3    0  502 -0.10392605857E+03  0.59438621506E+03  0.61819325409E+03  0.86387533112E+03  0.46999998093E+01 0. -1.
</event>
<event>
 5   0  0.2393421E-04  0.1781298E+04  0.7818609E-02  0.8716309E-01
       -2   -1    0    0    0  501  0.00000000000E+00  0.00000000000E+00  0.42334427754E+03  0.42334427755E+03  0.25500000920E-02 0.  1.
        2   -1    0    0  501    0  0.00000000000E+00  0.00000000000E+00 -0.18737828611E+04  0.18737828611E+04  0.25500000920E-02 0. -1.
    10030    2    1    2    0    0  0.00000000000E+00  0.00000000000E+00 -0.14504385836E+04  0.22971271387E+04  0.17812975626E+04 0.  0.
        5    1    3    3  502    0 -0.80810132875E+03  0.36925519079E+03 -0.80529808741E+03  0.11991264541E+04  0.46999998093E+01 0.  1.
       -5    1    3    3    0  502  0.80810132875E+03 -0.36925519079E+03 -0.64514049619E+03  0.10980006846E+04  0.46999998093E+01 0. -1.
</event>
<event>
 5   0  0.1308893E-04  0.1785593E+04  0.7818609E-02  0.8713999E-01
       -1   -1    0    0    0  501  0.00000000000E+00  0.00000000000E+00  0.82681251360E+03  0.82681251362E+03  0.50400001928E-02 0. -1.
        1   -1    0    0  501    0  0.00000000000E+00  0.00000000000E+00 -0.96404638923E+03  0.96404638925E+03  0.50400001928E-02 0.  1.
    10030    2    1    2    0    0  0.00000000000E+00  0.00000000000E+00 -0.13723387563E+03  0.17908589029E+04  0.17855930313E+04 0.  0.
        4    1    3    3  502    0 -0.21371433187E+03  0.54758025978E+03 -0.74258532918E+03  0.94707578396E+03  0.12699999809E+01 0.  1.
       -4    1    3    3    0  502  0.21371433187E+03 -0.54758025978E+03  0.60535145355E+03  0.84378311891E+03  0.12699999809E+01 0. -1.
</event>
<event>
 5   0  0.1308893E-04  0.1818805E+04  0.7818609E-02  0.8696363E-01
        1   -1    0    0  501    0  0.00000000000E+00  0.00000000000E+00  0.12865738399E+04  0.12865738399E+04  0.50400001928E-02 0.  1.
       -1   -1    0    0    0  501  0.00000000000E+00  0.00000000000E+00 -0.64280237272E+03  0.64280237274E+03  0.50400001928E-02 0. -1.
    10030    2    1    2    0    0  0.00000000000E+00  0.00000000000E+00  0.64377146719E+03  0.19293762127E+04  0.18188047911E+04 0.  0.
        4    1    3    3  502    0 -0.79332081643E+03 -0.42336035401E+03  0.17791766569E+03  0.91665054181E+03  0.12699999809E+01 0. -1.
       -4    1    3    3    0  502  0.79332081643E+03  0.42336035401E+03  0.46585380150E+03  0.10127256709E+04  0.12699999809E+01 0.  1.
</event>
<event>
 5   0  0.1214723E-04  0.1786734E+04  0.7818609E-02  0.8713386E-01
       -1   -1    0    0    0  501  0.00000000000E+00  0.00000000000E+00  0.59294751718E+03  0.59294751720E+03  0.50400001928E-02 0.  1.
        1   -1    0    0  501    0  0.00000000000E+00  0.00000000000E+00 -0.13459957534E+04  0.13459957534E+04  0.50400001928E-02 0. -1.
    10030    2    1    2    0    0  0.00000000000E+00  0.00000000000E+00 -0.75304823624E+03  0.19389432706E+04  0.17867342725E+04 0.  0.
        1    1    3    3  502    0 -0.58231449169E+03  0.48940036435E+03  0.13189787911E+03  0.77201032013E+03  0.50400001928E-02 0.  1.
       -1    1    3    3    0  502  0.58231449169E+03 -0.48940036435E+03 -0.88494611534E+03  0.11669329505E+04  0.50400001928E-02 0. -1.
</event>
<event>
 5   0  0.2393421E-04  0.1813253E+04  0.7818609E-02  0.8699283E-01
        2   -1    0    0  501    0  0.00000000000E+00  0.00000000000E+00  0.89503242328E+03  0.89503242328E+03  0.25500000920E-02 0.  1.
       -2   -1    0    0    0  501  0.00000000000E+00  0.00000000000E+00 -0.91837104807E+03  0.91837104807E+03  0.25500000920E-02 0. -1.
    10030    2    1    2    0    0  0.00000000000E+00  0.00000000000E+00 -0.23338624792E+02  0.18134034714E+04  0.18132532803E+04 0.  0.
        5    1    3    3  502    0 -0.32601132490E+03 -0.50716078050E+03  0.66547932986E+03  0.89798678705E+03  0.46999998093E+01 0.  1.
       -5    1    3    3    0  502  0.32601132490E+03  0.50716078050E+03 -0.68881795466E+03  0.91541668430E+03  0.46999998093E+01 0. -1.
</event>
<event>
 5   0  0.2417106E-04  0.1794634E+04  0.7818609E-02  0.8709158E-01
       -2   -1    0    0    0  501  0.00000000000E+00  0.00000000000E+00  0.68069355319E+03  0.68069355319E+03  0.25500000920E-02 0. -1.
        2   -1    0    0  501    0  0.00000000000E+00  0.00000000000E+00 -0.11828786518E+04  0.11828786518E+04  0.25500000920E-02 0.  1.
    10030    2    1    2    0    0  0.00000000000E+00  0.00000000000E+00 -0.50218509862E+03  0.18635722050E+04  0.17946340825E+04 0.  0.
        4    1    3    3  502    0 -0.70187665887E+03  0.30710919802E+02 -0.83074891397E+03  0.10879886837E+04  0.12699999809E+01 0.  1.
       -4    1    3    3    0  502  0.70187665887E+03 -0.30710919802E+02  0.32856381536E+03  0.77558352131E+03  0.12699999809E+01 0. -1.
</event>
<event>
 5   0  0.2550616E-04  0.1793304E+04  0.7818609E-02  0.8709868E-01
       -2   -1    0    0    0  501  0.00000000000E+00  0.00000000000E+00  0.46606900290E+03  0.46606900290E+03  0.25500000920E-02 0. -1.
        2   -1    0    0  501    0  0.00000000000E+00  0.00000000000E+00 -0.17250342440E+04  0.17250342440E+04  0.25500000920E-02 0.  1.
    10030    2    1    2    0    0  0.00000000000E+00  0.00000000000E+00 -0.12589652411E+04  0.21911032469E+04  0.17933042018E+04 0.  0.
        1    1    3    3  502    0 -0.70917444412E+03  0.37530650881E+03 -0.11185203104E+04  0.13765431532E+04  0.50400001928E-02 0.  1.
       -1    1    3    3    0  502  0.70917444412E+03 -0.37530650881E+03 -0.14044493074E+03  0.81456009376E+03  0.50400001928E-02 0. -1.
</event>
<event>
 5   0  0.2550616E-04  0.1804175E+04  0.7818609E-02  0.8704082E-01
        2   -1    0    0  501    0  0.00000000000E+00  0.00000000000E+00  0.19981139152E+04  0.19981139152E+04  0.25500000920E-02 0.  1.
       -2   -1    0    0    0  501  0.00000000000E+00  0.00000000000E+00 -0.40726519241E+03  0.40726519242E+03  0.25500000920E-02 0. -1.
    10030    2    1    2    0    0  0.00000000000E+00  0.00000000000E+00  0.15908487228E+04  0.24053791076E+04  0.18041754329E+04 0.  0.
        1    1    3    3  502    0 -0.48413723640E+03 -0.31861682558E+03  0.17170480115E+04  0.18122249913E+04  0.50400001928E-02 0.  1.
       -1    1    3    3    0  502  0.48413723640E+03  0.31861682558E+03 -0.12619928871E+03  0.59315411633E+03  0.50400001928E-02 0. -1.
</event>
<event>
 5   0  0.1253925E-04  0.1791164E+04  0.7818609E-02  0.8711013E-01
        1   -1    0    0  501    0  0.00000000000E+00  0.00000000000E+00  0.15362295395E+04  0.15362295395E+04  0.50400001928E-02 0.  1.
       -1   -1    0    0    0  501  0.00000000000E+00  0.00000000000E+00 -0.52210102930E+03  0.52210102933E+03  0.50400001928E-02 0. -1.
    10030    2    1    2    0    0  0.00000000000E+00  0.00000000000E+00  0.10141285102E+04  0.20583305688E+04  0.17911638940E+04 0.  0.
        2    1    3    3  502    0  0.82139925858E+03 -0.33345445136E+03  0.36089779611E+03  0.95714984844E+03  0.25500000920E-02 0. -1.
       -2    1    3    3    0  502 -0.82139925858E+03  0.33345445136E+03  0.65323071406E+03  0.11011807204E+04  0.25500000920E-02 0.  1.
</event>
<event>
 5   0  0.1239119E-04  0.1808937E+04  0.7818609E-02  0.8701561E-01
       -1   -1    0    0    0  501  0.00000000000E+00  0.00000000000E+00  0.10435582400E+04  0.10435582400E+04  0.50400001928E-02 0. -1.
        1   -1    0    0  501    0  0.00000000000E+00  0.00000000000E+00 -0.78391732971E+03  0.78391732972E+03  0.50400001928E-02 0.  1.
    10030    2    1    2    0    0  0.00000000000E+00  0.00000000000E+00  0.25964091030E+03  0.18274755697E+04  0.18089371343E+04 0.  0.
        5    1    3    3  502    0 -0.21940558704E+03  0.87301047915E+03  0.40854398001E+02  0.90109781942E+03  0.46999998093E+01 0.  1.
       -5    1    3    3    0  502  0.21940558704E+03 -0.87301047915E+03  0.21878651230E+03  0.92637775032E+03  0.46999998093E+01 0. -1.
</event>
<event>
 5   0  0.2393421E-04  0.1620734E+04  0.7818609E-02  0.8807911E-01
        2   -1    0    0  501    0  0.00000000000E+00  0.00000000000E+00  0.86512146119E+03  0.86512146120E+03  0.25500000920E-02 0.  1.
       -2   -1    0    0    0  501  0.00000000000E+00  0.00000000000E+00 -0.75907786900E+03  0.75907786900E+03  0.25500000920E-02 0. -1.
    10030    2    1    2    0    0  0.00000000000E+00  0.00000000000E+00  0.10604359219E+03  0.16241993302E+04  0.16207338525E+04 0.  0.
        5    1    3    3  502    0 -0.23773289394E+03 -0.23520557409E+02  0.82901742662E+03  0.86276423727E+03  0.46999998093E+01 0.  1.
       -5    1    3    3    0  502  0.23773289394E+03  0.23520557409E+02 -0.72297383443E+03  0.76143509293E+03  0.46999998093E+01 0. -1.
</event>
<event>
 5   0  0.1308893E-04  0.1776802E+04  0.7818609E-02  0.8718734E-01
       -1   -1    0    0    0  501  0.00000000000E+00  0.00000000000E+00  0.16851712986E+04  0.16851712986E+04  0.50400001928E-02 0.  1.
        1   -1    0    0  501    0  0.00000000000E+00  0.00000000000E+00 -0.46835378024E+03  0.46835378027E+03  0.50400001928E-02 0. -1.
    10030    2    1    2    0    0  0.00000000000E+00  0.00000000000E+00  0.12168175184E+04  0.21535250789E+04  0.17768020127E+04 0.  0.
        4    1    3    3  502    0 -0.61873835661E+03  0.58888049292E+03  0.31242352125E+03  0.90952045519E+03  0.12699999809E+01 0.  1.
       -4    1    3    3    0  502  0.61873835661E+03 -0.58888049292E+03  0.90439399715E+03  0.12440046237E+04  0.12699999809E+01 0. -1.
</event>
<event>
 5   0  0.2569405E-04  0.1797739E+04  0.7818609E-02  0.8707503E-01
       -2   -1    0    0    0  501  0.00000000000E+00  0.00000000000E+00  0.12979000141E+04  0.12979000141E+04  0.25500000920E-02 0.  1.
        2   -1    0    0  501    0  0.00000000000E+00  0.00000000000E+00 -0.62251800326E+03  0.62251800326E+03  0.25500000920E-02 0. -1.
    10030    2    1    2    0    0  0.00000000000E+00  0.00000000000E+00  0.67538201087E+03  0.19204180174E+04  0.17977387188E+04 0.  0.
        2    1    3    3  502    0 -0.24484401758E+03 -0.86202665767E+03  0.26270404218E+03  0.93383722632E+03  0.25500000920E-02 0. -1.
       -2    1    3    3    0  502  0.24484401758E+03  0.86202665767E+03  0.41267796869E+03  0.98658079108E+03  0.25500000920E-02 0.  1.
</event>
<event>
 5   0  0.1214723E-04  0.1786624E+04  0.7818609E-02  0.8713445E-01
        1   -1    0    0  501    0  0.00000000000E+00  0.00000000000E+00  0.12120053276E+04  0.12120053276E+04  0.50400001928E-02 0.  1.
       -1   -1    0    0    0  501  0.00000000000E+00  0.00000000000E+00 -0.65841798650E+03  0.65841798652E+03  0.50400001928E-02 0. -1.
    10030    2    1    2    0    0  0.00000000000E+00  0.00000000000E+00  0.55358734107E+03  0.18704233141E+04  0.17866237516E+04 0.  0.
        1    1    3    3  502    0 -0.40531608384E+03 -0.78069201600E+03  0.43980489203E+03  0.98345792729E+03  0.50400001928E-02 0. -1.
       -1    1    3    3    0  502  0.40531608384E+03  0.78069201600E+03  0.11378244904E+03  0.88696538681E+03  0.50400001928E-02 0.  1.
</event>
<event>
 5   0  0.2431811E-04  0.1454264E+04  0.7818609E-02  0.8915449E-01
       -2   -1    0    0    0  501  0.00000000000E+00  0.00000000000E+00  0.26862372914E+03  0.26862372915E+03  0.25500000920E-02 0. -1.
        2   -1    0    0  501    0  0.00000000000E+00  0.00000000000E+00 -0.19682596472E+04  0.19682596472E+04  0.25500000920E-02 0.  1.
    10030    2    1    2    0    0  0.00000000000E+00  0.00000000000E+00 -0.16996359181E+04  0.22368833763E+04  0.14542644139E+04 0.  0.
        3    1    3    3  502    0 -0.56121601513E+03  0.29302650316E+03 -0.13998954107E+04  0.15364033059E+04  0.10100000352E+00 0.  1.
       -3    1    3    3    0  502  0.56121601513E+03 -0.29302650316E+03 -0.29974050737E+03  0.70048007049E+03  0.10100000352E+00 0. -1.
</event>
<event>
 5   0  0.2393421E-04  0.1806266E+04  0.7818609E-02  0.8702974E-01
       -2   -1    0    0    0  501  0.00000000000E+00  0.00000000000E+00  0.57634569553E+03  0.57634569554E+03  0.25500000920E-02 0.  1.
        2   -1    0    0  501    0  0.00000000000E+00  0.00000000000E+00 -0.14152082074E+04  0.14152082074E+04  0.25500000920E-02 0. -1.
    10030    2    1    2    0    0  0.00000000000E+00  0.00000000000E+00 -0.83886251191E+03  0.19915539030E+04  0.18062659368E+04 0.  0.
        5    1    3    3  502    0  0.30775166627E+03  0.69418126653E+03  0.11962622819E+03  0.76872052358E+03  0.46999998093E+01 0.  1.
       -5    1    3    3    0  502 -0.30775166627E+03 -0.69418126653E+03 -0.95848874011E+03  0.12228333794E+04  0.46999998093E+01 0. -1.
</event>
<event>
 5   0  0.1214723E-04  0.1774246E+04  0.7818609E-02  0.8720116E-01
       -1   -1    0    0    0  501  0.00000000000E+00  0.00000000000E+00  0.58135073994E+03  0.58135073997E+03  0.50400001928E-02 0. -1.
        1   -1    0    0  501    0  0.00000000000E+00  0.00000000000E+00 -0.13537219419E+04  0.13537219419E+04  0.50400001928E-02 0.  1.
    10030    2    1    2    0    0  0.00000000000E+00  0.00000000000E+00 -0.77237120194E+03  0.19350726819E+04  0.17742460400E+04 0.  0.
        1    1    3    3  502    0 -0.22598163035E+02 -0.75058629420E+01 -0.13533733299E+04  0.13535827958E+04  0.50400001928E-02 0.  1.
       -1    1    3    3    0  502  0.22598163035E+02  0.75058629420E+01  0.58100212793E+03  0.58148988610E+03  0.50400001928E-02 0. -1.
</event>
<event>
 5   0  0.1308893E-04  0.1801728E+04  0.7818609E-02  0.8705381E-01
       -1   -1    0    0    0  501  0.00000000000E+00  0.00000000000E+00  0.78050006788E+03  0.78050006789E+03  0.50400001928E-02 0.  1.
        1   -1    0    0  501    0  0.00000000000E+00  0.00000000000E+00 -0.10397897490E+04  0.10397897491E+04  0.50400001928E-02 0. -1.
    10030    2    1    2    0    0  0.00000000000E+00  0.00000000000E+00 -0.25928968116E+03  0.18202898169E+04  0.18017280258E+04 0.  0.
        4    1    3    3  502    0 -0.72376963352E+03  0.17439951978E+03  0.38282510217E+03  0.83714655029E+03  0.12699999809E+01 0. -1.
       -4    1    3    3    0  502  0.72376963352E+03 -0.17439951978E+03 -0.64211478333E+03  0.98314326666E+03  0.12699999809E+01 0.  1.
</event>
<event>
 5   0  0.1239119E-04  0.1711637E+04  0.7818609E-02  0.8754755E-01
       -1   -1    0    0    0  501  0.00000000000E+00  0.00000000000E+00  0.11960345628E+04  0.11960345628E+04  0.50400001928E-02 0.  1.
        1   -1    0    0  501    0  0.00000000000E+00  0.00000000000E+00 -0.61237819785E+03  0.61237819787E+03  0.50400001928E-02 0. -1.
    10030    2    1    2    0    0  0.00000000000E+00  0.00000000000E+00  0.58365636494E+03  0.18084127607E+04  0.17116372164E+04 0.  0.
        5    1    3    3  502    0  0.22379956372E+03  0.48996408973E+03  0.99444884100E+03  0.11309737580E+04  0.46999998093E+01 0. -1.
       -5    1    3    3    0  502 -0.22379956372E+03 -0.48996408973E+03 -0.41079247605E+03  0.67743900266E+03  0.46999998093E+01 0.  1.
</event>
<event>
 5   0  0.1239119E-04  0.1951339E+04  0.7818609E-02  0.8629715E-01
        1   -1    0    0  501    0  0.00000000000E+00  0.00000000000E+00  0.13288984841E+04  0.13288984841E+04  0.50400001928E-02 0. -1.
       -1   -1    0    0    0  501  0.00000000000E+00  0.00000000000E+00 -0.71633067733E+03  0.71633067735E+03  0.50400001928E-02 0.  1.
    10030    2    1    2    0    0  0.00000000000E+00  0.00000000000E+00  0.61256780672E+03  0.20452291614E+04  0.19513387725E+04 0.  0.
        5    1    3    3  502    0  0.13786873638E+03  0.18966017262E+03 -0.68634873596E+03  0.72531058651E+03  0.46999998093E+01 0.  1.
       -5    1    3    3    0  502 -0.13786873638E+03 -0.18966017262E+03  0.12989165427E+04  0.13199185749E+04  0.46999998093E+01 0. -1.
</event>
<event>
 5   0  0.2393421E-04  0.1795409E+04  0.7818609E-02  0.8708744E-01
       -2   -1    0    0    0  501  0.00000000000E+00  0.00000000000E+00  0.60111435867E+03  0.60111435867E+03  0.25500000920E-02 0.  1.
        2   -1    0    0  501    0  0.00000000000E+00  0.00000000000E+00 -0.13406331050E+04  0.13406331050E+04  0.25500000920E-02 0. -1.
    10030    2    1    2    0    0  0.00000000000E+00  0.00000000000E+00 -0.73951874638E+03  0.19417474637E+04  0.17954094900E+04 0.  0.
        5    1    3    3  502    0  0.89742815093E+03 -0.20184915887E+02 -0.37861203562E+03  0.97424528761E+03  0.46999998093E+01 0.  1.
       -5    1    3    3    0  502 -0.89742815093E+03  0.20184915887E+02 -0.36090671075E+03  0.96750217611E+03  0.46999998093E+01 0. -1.
</event>
<event>
 5   0  0.2393421E-04  0.1791831E+04  0.7818609E-02  0.8710656E-01
       -2   -1    0    0    0  501  0.00000000000E+00  0.00000000000E+00  0.89472664922E+03  0.89472664922E+03  0.25500000920E-02 0. -1.
        2   -1    0    0  501    0  0.00000000000E+00  0.00000000000E+00 -0.89710619843E+03  0.89710619843E+03  0.25500000920E-02 0.  1.
    10030    2    1    2    0    0  0.00000000000E+00  0.00000000000E+00 -0.23795492106E+01  0.17918328477E+04  0.17918312676E+04 0.  0.
        5    1    3    3  502    0 -0.60692372073E+03 -0.32739404371E+03  0.57073683532E+03  0.89515690682E+03  0.46999998093E+01 0. -1.
       -5    1    3    3    0  502  0.60692372073E+03  0.32739404371E+03 -0.57311638453E+03  0.89667594083E+03  0.46999998093E+01 0.  1.
</event>
<event>
 5   0  0.2431811E-04  0.1771274E+04  0.7818609E-02  0.8721727E-01
       -2   -1    0    0    0  501  0.00000000000E+00  0.00000000000E+00  0.72100283476E+03  0.72100283477E+03  0.25500000920E-02 0.  1.
        2   -1    0    0  501    0  0.00000000000E+00  0.00000000000E+00 -0.10878638543E+04  0.10878638543E+04  0.25500000920E-02 0. -1.
    10030    2    1    2    0    0  0.00000000000E+00  0.00000000000E+00 -0.36686101951E+03  0.18088666890E+04  0.17712740305E+04 0.  0.
        3    1    3    3  502    0 -0.62688767018E+03  0.45011491147E+03  0.26025711736E+03  0.81444788777E+03  0.10100000352E+00 0.  1.
       -3    1    3    3    0  502  0.62688767018E+03 -0.45011491147E+03 -0.62711813687E+03  0.99441880128E+03  0.10100000352E+00 0. -1.
</event>
<event>
 5   0  0.2393421E-04  0.1785691E+04  0.7818609E-02  0.8713946E-01
        2   -1    0    0  501    0  0.00000000000E+00  0.00000000000E+00  0.70129836386E+03  0.70129836387E+03  0.25500000920E-02 0. -1.
       -2   -1    0    0    0  501  0.00000000000E+00  0.00000000000E+00 -0.11367103298E+04  0.11367103298E+04  0.25500000920E-02 0.  1.
    10030    2    1    2    0    0  0.00000000000E+00  0.00000000000E+00 -0.43541196594E+03  0.18380086937E+04  0.17856910085E+04 0.  0.
        5    1    3    3  502    0  0.28123856065E+03 -0.84613389457E+03 -0.26502358707E+03  0.93021357076E+03  0.46999998093E+01 0.  1.
       -5    1    3    3    0  502 -0.28123856065E+03  0.84613389457E+03 -0.17038837887E+03  0.90779512291E+03  0.46999998093E+01 0. -1.
</event>
<event>
 5   0  0.1253925E-04  0.1798130E+04  0.7818609E-02  0.8707295E-01
       -1   -1    0    0    0  501  0.00000000000E+00  0.00000000000E+00  0.57591943727E+03  0.57591943729E+03  0.50400001928E-02 0.  1.
        1   -1    0    0  501    0  0.00000000000E+00  0.00000000000E+00 -0.14035254680E+04  0.14035254680E+04  0.50400001928E-02 0. -1.
    10030    2    1    2    0    0  0.00000000000E+00  0.00000000000E+00 -0.82760603073E+03  0.19794449053E+04  0.17981296925E+04 0.  0.
        2    1    3    3  502    0 -0.72984522175E+03 -0.45116590828E+03 -0.70937861073E+03  0.11133026264E+04  0.25500000920E-02 0. -1.
       -2    1    3    3    0  502  0.72984522175E+03  0.45116590828E+03 -0.11822742000E+03  0.86614227893E+03  0.25500000920E-02 0.  1.
</event>
<event>
 5   0  0.2431811E-04  0.1730127E+04  0.7818609E-02  0.8744366E-01
       -2   -1    0    0    0  501  0.00000000000E+00  0.00000000000E+00  0.72204161823E+03  0.72204161823E+03  0.25500000920E-02 0.  1.
        2   -1    0    0  501    0  0.00000000000E+00  0.00000000000E+00 -0.10364157021E+04  0.10364157021E+04  0.25500000920E-02 0. -1.
    10030    2    1    2    0    0  0.00000000000E+00  0.00000000000E+00 -0.31437408382E+03  0.17584573203E+04  0.17301274759E+04 0.  0.
        3    1    3    3  502    0 -0.41110425095E+03 -0.72201674023E+03 -0.40200542275E+03  0.92299688431E+03  0.10100000352E+00 0. -1.
       -3    1    3    3    0  502  0.41110425095E+03  0.72201674023E+03  0.87631338932E+02  0.83546043598E+03  0.10100000352E+00 0.  1.
</event>
<event>
 5   0  0.2417106E-04  0.1813505E+04  0.7818609E-02  0.8699150E-01
        2   -1    0    0  501    0  0.00000000000E+00  0.00000000000E+00  0.13895865095E+04  0.13895865095E+04  0.25500000920E-02 0.  1.
       -2   -1    0    0    0  501  0.00000000000E+00  0.00000000000E+00 -0.59168706987E+03  0.59168706987E+03  0.25500000920E-02 0. -1.
    10030    2    1    2    0    0  0.00000000000E+00  0.00000000000E+00  0.79789943959E+03  0.19812735793E+04  0.18135053020E+04 0.  0.
        4    1    3    3  502    0 -0.90508523853E+03  0.14189602800E+02  0.45694673189E+03  0.10139933740E+04  0.12699999809E+01 0.  1.
       -4    1    3    3    0  502  0.90508523853E+03 -0.14189602800E+02  0.34095270770E+03  0.96728020533E+03  0.12699999809E+01 0. -1.
</event>
<event>
 5   0  0.2431811E-04  0.1880696E+04  0.7818609E-02  0.8664525E-01
        2   -1    0    0  501    0  0.00000000000E+00  0.00000000000E+00  0.76491091401E+03  0.76491091401E+03  0.25500000920E-02 0. -1.
       -2   -1    0    0    0  501  0.00000000000E+00  0.00000000000E+00 -0.11560226150E+04  0.11560226150E+04  0.25500000920E-02 0.  1.
    10030    2    1    2    0    0  0.00000000000E+00  0.00000000000E+00 -0.39111170102E+03  0.19209335290E+04  0.18806959511E+04 0.  0.
        3    1    3    3  502    0  0.72889205593E+02  0.42250623369E+03 -0.10503786595E+04  0.11345129758E+04  0.10100000352E+00 0.  1.
       -3    1    3    3    0  502 -0.72889205593E+02 -0.42250623369E+03  0.65926695846E+03  0.78642055322E+03  0.10100000352E+00 0. -1.
</event>
<event>
 5   0  0.1253925E-04  0.1778444E+04  0.7818609E-02  0.8717847E-01
       -1   -1    0    0    0  501  0.00000000000E+00  0.00000000000E+00  0.68823268437E+03  0.68823268439E+03  0.50400001928E-02 0.  1.
        1   -1    0    0  501    0  0.00000000000E+00  0.00000000000E+00 -0.11489078046E+04  0.11489078047E+04  0.50400001928E-02 0. -1.
    10030    2    1    2    0    0  0.00000000000E+00  0.00000000000E+00 -0.46067512027E+03  0.18371404891E+04  0.17784441543E+04 0.  0.
        2    1    3    3  502    0 -0.65183282248E+03 -0.67158303848E+02 -0.85127510287E+03  0.10742744375E+04  0.25500000920E-02 0. -1.
       -2    1    3    3    0  502  0.65183282248E+03  0.67158303848E+02  0.39059998260E+03  0.76286605158E+03  0.25500000920E-02 0.  1.
</event>
<event>
 5   0  0.2569405E-04  0.1800489E+04  0.7818609E-02  0.8706040E-01
       -2   -1    0    0    0  501  0.00000000000E+00  0.00000000000E+00  0.10341452783E+04  0.10341452783E+04  0.25500000920E-02 0. -1.
        2   -1    0    0  501    0  0.00000000000E+00  0.00000000000E+00 -0.78368081699E+03  0.78368081699E+03  0.25500000920E-02 0.  1.
    10030    2    1    2    0    0  0.00000000000E+00  0.00000000000E+00  0.25046446132E+03  0.18178260953E+04  0.18004886188E+04 0.  0.
        2    1    3    3  502    0  0.12685602915E+03 -0.39191503517E+03 -0.68294432936E+03  0.79756053309E+03  0.25500000920E-02 0.  1.
       -2    1    3    3    0  502 -0.12685602915E+03  0.39191503517E+03  0.93340879068E+03  0.10202655622E+04  0.25500000920E-02 0. -1.
</event>
<event>
 5   0  0.1308893E-04  0.1786788E+04  0.7818609E-02  0.8713357E-01
       -1   -1    0    0    0  501  0.00000000000E+00  0.00000000000E+00  0.87974022403E+03  0.87974022404E+03  0.50400001928E-02 0. -1.
        1   -1    0    0  501    0  0.00000000000E+00  0.00000000000E+00 -0.90725937986E+03  0.90725937987E+03  0.50400001928E-02 0.  1.
    10030    2    1    2    0    0  0.00000000000E+00  0.00000000000E+00 -0.27519155828E+02  0.17869996039E+04  0.17867876988E+04 0.  0.
        4    1    3    3  502    0 -0.66285747925E+03  0.21360844926E+03 -0.57341717755E+03  0.90211832916E+03  0.12699999809E+01 0.  1.
       -4    1    3    3    0  502  0.66285747925E+03 -0.21360844926E+03  0.54589802172E+03  0.88488127476E+03  0.12699999809E+01 0. -1.
</event>
<event>
 5   0  0.1308893E-04  0.1800461E+04  0.7818609E-02  0.8706054E-01
       -1   -1    0    0    0  501  0.00000000000E+00  0.00000000000E+00  0.14954327188E+04  0.14954327188E+04  0.50400001928E-02 0.  1.
        1   -1    0    0  501    0  0.00000000000E+00  0.00000000000E+00 -0.54192659164E+03  0.54192659166E+03  0.50400001928E-02 0. -1.
    10030    2    1    2    0    0  0.00000000000E+00  0.00000000000E+00  0.95350612715E+03  0.20373593105E+04  0.18004607814E+04 0.  0.
        4    1    3    3  502    0  0.68912762234E+03  0.35209999928E+03 -0.43700654869E+02  0.77510170268E+03  0.12699999809E+01 0. -1.
       -4    1    3    3    0  502 -0.68912762234E+03 -0.35209999928E+03  0.99720678202E+03  0.12622576078E+04  0.12699999809E+01 0.  1.
</event>
<event>
 5   0  0.2417106E-04  0.1801189E+04  0.7818609E-02  0.8705667E-01
        2   -1    0    0  501    0  0.00000000000E+00  0.00000000000E+00  0.14181943822E+04  0.14181943822E+04  0.25500000920E-02 0.  1.
       -2   -1    0    0    0  501  0.00000000000E+00  0.00000000000E+00 -0.57190380882E+03  0.57190380883E+03  0.25500000920E-02 0. -1.
    10030    2    1    2    0    0  0.00000000000E+00  0.00000000000E+00  0.84629057340E+03  0.19900981910E+04  0.18011893502E+04 0.  0.
        4    1    3    3  502    0  0.21882506449E+03 -0.17350867491E+03  0.13691442665E+04  0.13973357880E+04  0.12699999809E+01 0.  1.
       -4    1    3    3    0  502 -0.21882506449E+03  0.17350867491E+03 -0.52285369312E+03  0.59276240301E+03  0.12699999809E+01 0. -1.
</event>
<event>
 5   0  0.1330225E-04  0.1826331E+04  0.7818609E-02  0.8692421E-01
       -1   -1    0    0    0  501  0.00000000000E+00  0.00000000000E+00  0.88598350334E+03  0.88598350336E+03  0.50400001928E-02 0. -1.
        1   -1    0    0  501    0  0.00000000000E+00  0.00000000000E+00 -0.94118143013E+03  0.94118143015E+03  0.50400001928E-02 0.  1.
    10030    2    1    2    0    0  0.00000000000E+00  0.00000000000E+00 -0.55197926790E+02  0.18271649335E+04  0.18263309895E+04 0.  0.
        3    1    3    3  502    0 -0.82222605002E+03  0.23321605277E+03 -0.34934464039E+03  0.92330227584E+03  0.10100000352E+00 0. -1.
       -3    1    3    3    0  502  0.82222605002E+03 -0.23321605277E+03  0.29414671361E+03  0.90386265766E+03  0.10100000352E+00 0.  1.
</event>
<event>
 5   0  0.9144875E-05  0.1806139E+04  0.7818609E-02  0.8703042E-01
       -4   -1    0    0    0  501  0.00000000000E+00  0.00000000000E+00  0.10657187954E+04  0.10657195521E+04  0.12699999809E+01 0.  1.
        4   -1    0    0  501    0  0.00000000000E+00  0.00000000000E+00 -0.76524203678E+03  0.76524309063E+03  0.12699999809E+01 0. -1.
    10030    2    1    2    0    0  0.00000000000E+00  0.00000000000E+00  0.30047675861E+03  0.18309626427E+04  0.18061389527E+04 0.  0.
        1    1    3    3  502    0  0.74462655627E+03 -0.43524732904E+03 -0.12106940770E+03  0.87095737395E+03  0.50400001928E-02 0. -1.
       -1    1    3    3    0  502 -0.74462655627E+03  0.43524732904E+03  0.42154616631E+03  0.96000526878E+03  0.50400001928E-02 0.  1.
</event>
<event>
 5   0  0.2431811E-04  0.1822164E+04  0.7818609E-02  0.8694601E-01
       -2   -1    0    0    0  501  0.00000000000E+00  0.00000000000E+00  0.77424800119E+03  0.77424800120E+03  0.25500000920E-02 0.  1.
        2   -1    0    0  501    0  0.00000000000E+00  0.00000000000E+00 -0.10720992542E+04  0.10720992542E+04  0.25500000920E-02 0. -1.
    10030    2    1    2    0    0  0.00000000000E+00  0.00000000000E+00 -0.29785125305E+03  0.18463472554E+04  0.18221643227E+04 0.  0.
        3    1    3    3  502    0  0.47021607473E+03  0.74972005339E+03  0.70483063618E+02  0.88777879444E+03  0.10100000352E+00 0.  1.
       -3    1    3    3    0  502 -0.47021607473E+03 -0.74972005339E+03 -0.36833431666E+03  0.95856846100E+03  0.10100000352E+00 0. -1.
</event>
<event>
 5   0  0.2431811E-04  0.1802709E+04  0.7818609E-02  0.8704860E-01
       -2   -1    0    0    0  501  0.00000000000E+00  0.00000000000E+00  0.66871245899E+03  0.66871245899E+03  0.25500000920E-02 0. -1.
        2   -1    0    0  501    0  0.00000000000E+00  0.00000000000E+00 -0.12149316106E+04  0.12149316106E+04  0.25500000920E-02 0.  1.
    10030    2    1    2    0    0  0.00000000000E+00  0.00000000000E+00 -0.54621915158E+03  0.18836440696E+04  0.18027089669E+04 0.  0.
        3    1    3    3  502    0 -0.31975035963E+03  0.15363079610E+03 -0.11389228332E+04  0.11928905835E+04  0.10100000352E+00 0.  1.
       -3    1    3    3    0  502  0.31975035963E+03 -0.15363079610E+03  0.59270368167E+03  0.69075348602E+03  0.10100000352E+00 0. -1.
</event>
<event>
 5   0  0.2417106E-04  0.1803847E+04  0.7818609E-02  0.8704257E-01
        2   -1    0    0  501    0  0.00000000000E+00  0.00000000000E+00  0.11280537827E+04  0.11280537827E+04  0.25500000920E-02 0. -1.
       -2   -1    0    0    0  501  0.00000000000E+00  0.00000000000E+00 -0.72112304138E+03  0.72112304139E+03  0.25500000920E-02 0.  1.
    10030    2    1    2    0    0  0.00000000000E+00  0.00000000000E+00  0.40693074134E+03  0.18491768241E+04  0.18038465286E+04 0.  0.
        4    1    3    3  502    0  0.49905289784E+03  0.59996840646E+03  0.66698739337E+03  0.10265912913E+04  0.12699999809E+01 0. -1.
       -4    1    3    3    0  502 -0.49905289784E+03 -0.59996840646E+03 -0.26005665204E+03  0.82258553279E+03  0.12699999809E+01 0.  1.
</event>
<event>
 5   0  0.1214723E-04  0.1793093E+04  0.7818609E-02  0.8709981E-01
       -1   -1    0    0    0  501  0.00000000000E+00  0.00000000000E+00  0.51728696054E+03  0.51728696057E+03  0.50400001928E-02 0. -1.
        1   -1    0    0  501    0  0.00000000000E+00  0.00000000000E+00 -0.15538671653E+04  0.15538671653E+04  0.50400001928E-02 0.  1.
    10030    2    1    2    0    0  0.00000000000E+00  0.00000000000E+00 -0.10365802048E+04  0.20711541259E+04  0.17930925498E+04 0.  0.
        1    1    3    3  502    0 -0.12070423687E+03  0.26557322511E+02  0.50740004599E+03  0.52223520647E+03  0.50400001928E-02 0. -1.
       -1    1    3    3    0  502  0.12070423687E+03 -0.26557322511E+02 -0.15439802507E+04  0.15489189194E+04  0.50400001928E-02 0.  1.
</event>
<event>
 5   0  0.2417106E-04  0.1785815E+04  0.7818609E-02  0.8713879E-01
        2   -1    0    0  501    0  0.00000000000E+00  0.00000000000E+00  0.10801040117E+04  0.10801040117E+04  0.25500000920E-02 0. -1.
       -2   -1    0    0    0  501  0.00000000000E+00  0.00000000000E+00 -0.73815479390E+03  0.73815479390E+03  0.25500000920E-02 0.  1.
    10030    2    1    2    0    0  0.00000000000E+00  0.00000000000E+00  0.34194921776E+03  0.18182588056E+04  0.17858151686E+04 0.  0.
        4    1    3    3  502    0  0.39730422649E+03  0.51534806919E+02 -0.64150503024E+03  0.75633114535E+03  0.12699999809E+01 0.  1.
       -4    1    3    3    0  502 -0.39730422649E+03 -0.51534806919E+02  0.98345424800E+03  0.10619276602E+04  0.12699999809E+01 0. -1.
</event>
<event>
 5   0  0.1330225E-04  0.1774828E+04  0.7818609E-02  0.8719801E-01
       -1   -1    0    0    0  501  0.00000000000E+00  0.00000000000E+00  0.51154172420E+03  0.51154172422E+03  0.50400001928E-02 0. -1.
        1   -1    0    0  501    0  0.00000000000E+00  0.00000000000E+00 -0.15394717648E+04  0.15394717648E+04  0.50400001928E-02 0.  1.
    10030    2    1    2    0    0  0.00000000000E+00  0.00000000000E+00 -0.10279300406E+04  0.20510134890E+04  0.17748284885E+04 0.  0.
        3    1    3    3  502    0 -0.55368108518E+03 -0.61833583248E+03 -0.87683845420E+03  0.12073722006E+04  0.10100000352E+00 0.  1.
       -3    1    3    3    0  502  0.55368108518E+03  0.61833583248E+03 -0.15109158636E+03  0.84364128839E+03  0.10100000352E+00 0. -1.
</event>
<event>
 5   0  0.2431811E-04  0.1796765E+04  0.7818609E-02  0.8708022E-01
       -2   -1    0    0    0  501  0.00000000000E+00  0.00000000000E+00  0.73424972313E+03  0.73424972313E+03  0.25500000920E-02 0. -1.
        2   -1    0    0  501    0  0.00000000000E+00  0.00000000000E+00 -0.10992055131E+04  0.10992055131E+04  0.25500000920E-02 0.  1.
    10030    2    1    2    0    0  0.00000000000E+00  0.00000000000E+00 -0.36495578999E+03  0.18334552363E+04  0.17967652531E+04 0.  0.
        3    1    3    3  502    0  0.80309210081E+03  0.40192120386E+03 -0.20734260138E+03  0.92167702643E+03  0.10100000352E+00 0. -1.
       -3    1    3    3    0  502 -0.80309210081E+03 -0.40192120386E+03 -0.15761318861E+03  0.91177820983E+03  0.10100000352E+00 0.  1.
</event>
<event>
 5   0  0.2431811E-04  0.1792220E+04  0.7818609E-02  0.8710448E-01
        2   -1    0    0  501    0  0.00000000000E+00  0.00000000000E+00  0.20470571437E+04  0.20470571437E+04  0.25500000920E-02 0.  1.
       -2   -1    0    0    0  501  0.00000000000E+00  0.00000000000E+00 -0.39227676581E+03  0.39227676582E+03  0.25500000920E-02 0. -1.
    10030    2    1    2    0    0  0.00000000000E+00  0.00000000000E+00  0.16547803779E+04  0.24393339095E+04  0.17922198032E+04 0.  0.
        3    1    3    3  502    0  0.86852191357E+03 -0.96818521268E+02  0.55753864773E+03  0.10366067211E+04  0.10100000352E+00 0. -1.
       -3    1    3    3    0  502 -0.86852191357E+03  0.96818521268E+02  0.10972417302E+04  0.14027271884E+04  0.10100000352E+00 0.  1.
</event>
<event>
 5   0  0.1308893E-04  0.1815314E+04  0.7818609E-02  0.8698198E-01
       -1   -1    0    0    0  501  0.00000000000E+00  0.00000000000E+00  0.16598796225E+04  0.16598796225E+04  0.50400001928E-02 0.  1.
        1   -1    0    0  501    0  0.00000000000E+00  0.00000000000E+00 -0.49632583359E+03  0.49632583361E+03  0.50400001928E-02 0. -1.
    10030    2    1    2    0    0  0.00000000000E+00  0.00000000000E+00  0.11635537889E+04  0.21562054561E+04  0.18153138983E+04 0.  0.
        4    1    3    3  502    0  0.88717514471E+02  0.24519806554E+03  0.16144318896E+04  0.16353546490E+04  0.12699999809E+01 0.  1.
       -4    1    3    3    0  502 -0.88717514471E+02 -0.24519806554E+03 -0.45087810072E+03  0.52085080717E+03  0.12699999809E+01 0. -1.
</event>
<event>
 5   0  0.1214723E-04  0.1826986E+04  0.7818609E-02  0.8692079E-01
       -1   -1    0    0    0  501  0.00000000000E+00  0.00000000000E+00  0.28941754793E+03  0.28941754798E+03  0.50400001928E-02 0.  1.
        1   -1    0    0  501    0  0.00000000000E+00  0.00000000000E+00 -0.28832728126E+04  0.28832728126E+04  0.50400001928E-02 0. -1.
    10030    2    1    2    0    0  0.00000000000E+00  0.00000000000E+00 -0.25938552646E+04  0.31726903605E+04  0.18269863136E+04 0.  0.
        1    1    3    3  502    0 -0.45508905784E+03  0.50409828562E+03 -0.23598598551E+03  0.71896489310E+03  0.50400001928E-02 0.  1.
       -1    1    3    3    0  502  0.45508905784E+03 -0.50409828562E+03 -0.23578692791E+04  0.24537254674E+04  0.50400001928E-02 0. -1.
</event>
<event>
 5   0  0.2550616E-04  0.1782566E+04  0.7818609E-02  0.8715626E-01
        2   -1    0    0  501    0  0.00000000000E+00  0.00000000000E+00  0.12585549608E+04  0.12585549608E+04  0.25500000920E-02 0.  1.
       -2   -1    0    0    0  501  0.00000000000E+00  0.00000000000E+00 -0.63118828653E+03  0.63118828654E+03  0.25500000920E-02 0. -1.
    10030    2    1    2    0    0  0.00000000000E+00  0.00000000000E+00  0.62736667430E+03  0.18897432474E+04  0.17825657343E+04 0.  0.
        1    1    3    3  502    0 -0.61486017603E+03  0.20485556115E+03  0.96232617766E+03  0.11602114071E+04  0.50400001928E-02 0.  1.
       -1    1    3    3    0  502  0.61486017603E+03 -0.20485556115E+03 -0.33495950336E+03  0.72953184024E+03  0.50400001928E-02 0. -1.
</event>
<event>
 5   0  0.1308893E-04  0.1813926E+04  0.7818609E-02  0.8698928E-01
       -1   -1    0    0    0  501  0.00000000000E+00  0.00000000000E+00  0.53055834065E+03  0.53055834068E+03  0.50400001928E-02 0. -1.
        1   -1    0    0  501    0  0.00000000000E+00  0.00000000000E+00 -0.15504085690E+04  0.15504085690E+04  0.50400001928E-02 0.  1.
    10030    2    1    2    0    0  0.00000000000E+00  0.00000000000E+00 -0.10198502283E+04  0.20809669097E+04  0.18139263466E+04 0.  0.
        4    1    3    3  502    0 -0.74693100750E+03 -0.32986125181E+03 -0.57005099810E+02  0.81851424528E+03  0.12699999809E+01 0. -1.
       -4    1    3    3    0  502  0.74693100750E+03  0.32986125181E+03 -0.96284512853E+03  0.12624526644E+04  0.12699999809E+01 0.  1.
</event>
<event>
 5   0  0.2393421E-04  0.1780819E+04  0.7818609E-02  0.8716567E-01
        2   -1    0    0  501    0  0.00000000000E+00  0.00000000000E+00  0.19347212961E+04  0.19347212961E+04  0.25500000920E-02 0. -1.
       -2   -1    0    0    0  501  0.00000000000E+00  0.00000000000E+00 -0.40978989521E+03  0.40978989522E+03  0.25500000920E-02 0.  1.
    10030    2    1    2    0    0  0.00000000000E+00  0.00000000000E+00  0.15249314009E+04  0.23445111914E+04  0.17808191792E+04 0.  0.
        5    1    3    3  502    0  0.96808130391E+02  0.81757901847E+03  0.12089242897E+04  0.14626439395E+04  0.46999998093E+01 0. -1.
       -5    1    3    3    0  502 -0.96808130391E+02 -0.81757901847E+03  0.31600711123E+03  0.88186725186E+03  0.46999998093E+01 0.  1.
</event>
<event>
 5   0  0.1253925E-04  0.1821268E+04  0.7818609E-02  0.8695071E-01
        1   -1    0    0  501    0  0.00000000000E+00  0.00000000000E+00  0.11475509833E+04  0.11475509833E+04  0.50400001928E-02 0. -1.
       -1   -1    0    0    0  501  0.00000000000E+00  0.00000000000E+00 -0.72262928291E+03  0.72262928293E+03  0.50400001928E-02 0.  1.
    10030    2    1    2    0    0  0.00000000000E+00  0.00000000000E+00  0.42492170038E+03  0.18701802662E+04  0.18212676291E+04 0.  0.
        2    1    3    3  502    0 -0.34198913738E+03  0.64986192327E+03  0.76541786134E+03  0.10607269167E+04  0.25500000920E-02 0. -1.
       -2    1    3    3    0  502  0.34198913738E+03 -0.64986192327E+03 -0.34049616096E+03  0.80945334951E+03  0.25500000920E-02 0.  1.
</event>
<event>
 5   0  0.1239119E-04  0.1807230E+04  0.7818609E-02  0.8702464E-01
        1   -1    0    0  501    0  0.00000000000E+00  0.00000000000E+00  0.16632029592E+04  0.16632029592E+04  0.50400001928E-02 0.  1.
       -1   -1    0    0    0  501  0.00000000000E+00  0.00000000000E+00 -0.49093224400E+03  0.49093224403E+03  0.50400001928E-02 0. -1.
    10030    2    1    2    0    0  0.00000000000E+00  0.00000000000E+00  0.11722707152E+04  0.21541352032E+04  0.18072298813E+04 0.  0.
        5    1    3    3  502    0 -0.25120639849E+02  0.70074151294E+03  0.12654741158E+04  0.14467607066E+04  0.46999998093E+01 0.  1.
       -5    1    3    3    0  502  0.25120639849E+02 -0.70074151294E+03 -0.93203400638E+02  0.70737449656E+03  0.46999998093E+01 0. -1.
</event>
<event>
 5   0  0.1214723E-04  0.1756506E+04  0.7818609E-02  0.8729777E-01
        1   -1    0    0  501    0  0.00000000000E+00  0.00000000000E+00  0.19566036287E+04  0.19566036287E+04  0.50400001928E-02 0.  1.
       -1   -1    0    0    0  501  0.00000000000E+00  0.00000000000E+00 -0.39421816930E+03  0.39421816933E+03  0.50400001928E-02 0. -1.
    10030    2    1    2    0    0  0.00000000000E+00  0.00000000000E+00  0.15623854594E+04  0.23508217980E+04  0.17565064197E+04 0.  0.
        1    1    3    3  502    0  0.21350113608E+03 -0.72675497009E+03  0.18630643782E+03  0.78004205685E+03  0.50400001928E-02 0. -1.
       -1    1    3    3    0  502 -0.21350113608E+03  0.72675497009E+03  0.13760790216E+04  0.15707797412E+04  0.50400001928E-02 0.  1.
</event>
<event>
 5   0  0.2393421E-04  0.1786616E+04  0.7818609E-02  0.8713450E-01
       -2   -1    0    0    0  501  0.00000000000E+00  0.00000000000E+00  0.43124431059E+03  0.43124431060E+03  0.25500000920E-02 0.  1.
        2   -1    0    0  501    0  0.00000000000E+00  0.00000000000E+00 -0.18504567684E+04  0.18504567684E+04  0.25500000920E-02 0. -1.
    10030    2    1    2    0    0  0.00000000000E+00  0.00000000000E+00 -0.14192124578E+04  0.22817010790E+04  0.17866157431E+04 0.  0.
        5    1    3    3  502    0  0.86484682250E+03  0.11547790591E+03 -0.95420386790E+03  0.12929896692E+04  0.46999998093E+01 0. -1.
       -5    1    3    3    0  502 -0.86484682250E+03 -0.11547790591E+03 -0.46500858987E+03  0.98871140976E+03  0.46999998093E+01 0.  1.
</event>
<event>
 5   0  0.1253925E-04  0.1798549E+04  0.7818609E-02  0.8707071E-01
        1   -1    0    0  501    0  0.00000000000E+00  0.00000000000E+00  0.12393624805E+04  0.12393624805E+04  0.50400001928E-02 0. -1.
       -1   -1    0    0    0  501  0.00000000000E+00  0.00000000000E+00 -0.65250861039E+03  0.65250861041E+03  0.50400001928E-02 0.  1.
    10030    2    1    2    0    0  0.00000000000E+00  0.00000000000E+00  0.58685387007E+03  0.18918710909E+04  0.17985490707E+04 0.  0.
        2    1    3    3  502    0  0.27672828579E+03  0.75685878447E+03  0.71323534612E+03  0.10761591066E+04  0.25500000920E-02 0.  1.
       -2    1    3    3    0  502 -0.27672828579E+03 -0.75685878447E+03 -0.12638147605E+03  0.81571198427E+03  0.25500000920E-02 0. -1.
</event>
<event>
 5   0  0.1330225E-04  0.1787200E+04  0.7818609E-02  0.8713136E-01
        1   -1    0    0  501    0  0.00000000000E+00  0.00000000000E+00  0.12764738201E+04  0.12764738201E+04  0.50400001928E-02 0.  1.
       -1   -1    0    0    0  501  0.00000000000E+00  0.00000000000E+00 -0.62556763580E+03  0.62556763582E+03  0.50400001928E-02 0. -1.
    10030    2    1    2    0    0  0.00000000000E+00  0.00000000000E+00  0.65090618425E+03  0.19020414559E+04  0.17871997200E+04 0.  0.
        3    1    3    3  502    0 -0.31674536160E+03  0.47839074487E+03 -0.40364931710E+03  0.70151130445E+03  0.10100000352E+00 0. -1.
       -3    1    3    3    0  502  0.31674536160E+03 -0.47839074487E+03  0.10545555014E+04  0.12005301514E+04  0.10100000352E+00 0.  1.
</event>
<event>
 5   0  0.2431811E-04  0.1767397E+04  0.7818609E-02  0.8723832E-01
       -2   -1    0    0    0  501  0.00000000000E+00  0.00000000000E+00  0.57215999286E+03  0.57215999287E+03  0.25500000920E-02 0. -1.
        2   -1    0    0  501    0  0.00000000000E+00  0.00000000000E+00 -0.13648682829E+04  0.13648682829E+04  0.25500000920E-02 0.  1.
    10030    2    1    2    0    0  0.00000000000E+00  0.00000000000E+00 -0.79270829000E+03  0.19370282757E+04  0.17673969865E+04 0.  0.
        3    1    3    3  502    0 -0.87893067944E+03 -0.78317817941E+02 -0.44857375385E+03  0.98988445928E+03  0.10100000352E+00 0.  1.
       -3    1    3    3    0  502  0.87893067944E+03  0.78317817941E+02 -0.34413453615E+03  0.94714381645E+03  0.10100000352E+00 0. -1.
</event>
<event>
 5   0  0.2393421E-04  0.1758237E+04  0.7818609E-02  0.8728829E-01
       -2   -1    0    0    0  501  0.00000000000E+00  0.00000000000E+00  0.55906303400E+03  0.55906303401E+03  0.25500000920E-02 0.  1.
        2   -1    0    0  501    0  0.00000000000E+00  0.00000000000E+00 -0.13824008155E+04  0.13824008155E+04  0.25500000920E-02 0. -1.
    10030    2    1    2    0    0  0.00000000000E+00  0.00000000000E+00 -0.82333778145E+03  0.19414638495E+04  0.17582368374E+04 0.  0.
        5    1    3    3  502    0  0.84488009762E+03 -0.17646016593E+03 -0.59599778398E+03  0.10489022919E+04  0.46999998093E+01 0. -1.
       -5    1    3    3    0  502 -0.84488009762E+03  0.17646016593E+03 -0.22733999747E+03  0.89256155752E+03  0.46999998093E+01 0.  1.
</event>
<event>
 5   0  0.2550616E-04  0.1790681E+04  0.7818609E-02  0.8711271E-01
        2   -1    0    0  501    0  0.00000000000E+00  0.00000000000E+00  0.12462659712E+04  0.12462659712E+04  0.25500000920E-02 0.  1.
       -2   -1    0    0    0  501  0.00000000000E+00  0.00000000000E+00 -0.64322931025E+03  0.64322931026E+03  0.25500000920E-02 0. -1.
    10030    2    1    2    0    0  0.00000000000E+00  0.00000000000E+00  0.60303666096E+03  0.18894952815E+04  0.17906812123E+04 0.  0.
        1    1    3    3  502    0 -0.40360649002E+03 -0.43236401228E+03  0.10107688604E+04  0.11711065396E+04  0.50400001928E-02 0.  1.
       -1    1    3    3    0  502  0.40360649002E+03  0.43236401228E+03 -0.40773219948E+03  0.71838874185E+03  0.50400001928E-02 0. -1.
</event>
<event>
 5   0  0.1308893E-04  0.1655151E+04  0.7818609E-02  0.8787365E-01
       -1   -1    0    0    0  501  0.00000000000E+00  0.00000000000E+00  0.54088338959E+03  0.54088338962E+03  0.50400001928E-02 0.  1.
        1   -1    0    0  501    0  0.00000000000E+00  0.00000000000E+00 -0.12662270818E+04  0.12662270819E+04  0.50400001928E-02 0. -1.
    10030    2    1    2    0    0  0.00000000000E+00  0.00000000000E+00 -0.72534369225E+03  0.18071104715E+04  0.16551509853E+04 0.  0.
        4    1    3    3  502    0 -0.20263453161E+03  0.37118118750E+01 -0.12387125305E+04  0.12551832046E+04  0.12699999809E+01 0. -1.
       -4    1    3    3    0  502  0.20263453161E+03 -0.37118118750E+01  0.51336883825E+03  0.55192726689E+03  0.12699999809E+01 0.  1.
</event>
<event>
 5   0  0.1330225E-04  0.1656797E+04  0.7818609E-02  0.8786396E-01
        1   -1    0    0  501    0  0.00000000000E+00  0.00000000000E+00  0.11954185241E+04  0.11954185241E+04  0.50400001928E-02 0.  1.
       -1   -1    0    0    0  501  0.00000000000E+00  0.00000000000E+00 -0.57406180026E+03  0.57406180028E+03  0.50400001928E-02 0. -1.
    10030    2    1    2    0    0  0.00000000000E+00  0.00000000000E+00  0.62135672388E+03  0.17694803244E+04  0.16567970426E+04 0.  0.
        3    1    3    3  502    0 -0.91918341373E+02 -0.52845389367E+03  0.98490795262E+03  0.11214972958E+04  0.10100000352E+00 0.  1.
       -3    1    3    3    0  502  0.91918341373E+02  0.52845389367E+03 -0.36355122875E+03  0.64798302859E+03  0.10100000352E+00 0. -1.
</event>
<event>
 5   0  0.1214723E-04  0.1834660E+04  0.7818609E-02  0.8688082E-01
       -1   -1    0    0    0  501  0.00000000000E+00  0.00000000000E+00  0.71924488837E+03  0.71924488839E+03  0.50400001928E-02 0.  1.
        1   -1    0    0  501    0  0.00000000000E+00  0.00000000000E+00 -0.11699690430E+04  0.11699690430E+04  0.50400001928E-02 0. -1.
    10030    2    1    2    0    0  0.00000000000E+00  0.00000000000E+00 -0.45072415464E+03  0.18892139314E+04  0.18346599181E+04 0.  0.
        1    1    3    3  502    0 -0.79970505311E+03 -0.13175523193E+03  0.21707266846E+03  0.83905193911E+03  0.50400001928E-02 0.  1.
       -1    1    3    3    0  502  0.79970505311E+03  0.13175523193E+03 -0.66779682311E+03  0.10501619923E+04  0.50400001928E-02 0. -1.
</event>
<event>
 5   0  0.2569405E-04  0.1804228E+04  0.7818609E-02  0.8704054E-01
        2   -1    0    0  501    0  0.00000000000E+00  0.00000000000E+00  0.12733812561E+04  0.12733812561E+04  0.25500000920E-02 0. -1.
       -2   -1    0    0    0  501  0.00000000000E+00  0.00000000000E+00 -0.63909372303E+03  0.63909372303E+03  0.25500000920E-02 0.  1.
    10030    2    1    2    0    0  0.00000000000E+00  0.00000000000E+00  0.63428753309E+03  0.19124749791E+04  0.18042283312E+04 0.  0.
        2    1    3    3  502    0  0.62461635072E+03  0.31567202331E+03  0.92051860343E+03  0.11563515517E+04  0.25500000920E-02 0. -1.
       -2    1    3    3    0  502 -0.62461635072E+03 -0.31567202331E+03 -0.28623107034E+03  0.75612342744E+03  0.25500000920E-02 0.  1.
</event>
<event>
 5   0  0.1214723E-04  0.1803008E+04  0.7818609E-02  0.8704701E-01
        1   -1    0    0  501    0  0.00000000000E+00  0.00000000000E+00  0.13865329962E+04  0.13865329963E+04  0.50400001928E-02 0.  1.
       -1   -1    0    0    0  501  0.00000000000E+00  0.00000000000E+00 -0.58614524864E+03  0.58614524866E+03  0.50400001928E-02 0. -1.
    10030    2    1    2    0    0  0.00000000000E+00  0.00000000000E+00  0.80038774761E+03  0.19726782449E+04  0.18030082949E+04 0.  0.
        1    1    3    3  502    0 -0.19387208185E+03  0.10796979856E+02 -0.56299460299E+03  0.59553831272E+03  0.50400001928E-02 0. -1.
       -1    1    3    3    0  502  0.19387208185E+03 -0.10796979856E+02  0.13633823506E+04  0.13771399322E+04  0.50400001928E-02 0.  1.
</event>
<event>
 5   0  0.9144875E-05  0.1786444E+04  0.7818609E-02  0.8713542E-01
       -4   -1    0    0    0  501  0.00000000000E+00  0.00000000000E+00  0.54279862265E+03  0.54280010837E+03  0.12699999809E+01 0. -1.
        4   -1    0    0  501    0  0.00000000000E+00  0.00000000000E+00 -0.14698699909E+04  0.14698705396E+04  0.12699999809E+01 0.  1.
    10030    2    1    2    0    0  0.00000000000E+00  0.00000000000E+00 -0.92707136829E+03  0.20126706480E+04  0.17864439021E+04 0.  0.
        4    1    3    3  502    0  0.79666708643E+03  0.28289194644E+03 -0.78838497079E+03  0.11559665977E+04  0.12699999809E+01 0.  1.
       -4    1    3    3    0  502 -0.79666708643E+03 -0.28289194644E+03 -0.13868639750E+03  0.85670405025E+03  0.12699999809E+01 0. -1.
</event>
<event>
 5   0  0.1308893E-04  0.1807628E+04  0.7818609E-02  0.8702253E-01
       -1   -1    0    0    0  501  0.00000000000E+00  0.00000000000E+00  0.89365509104E+03  0.89365509105E+03  0.50400001928E-02 0.  1.
        1   -1    0    0  501    0  0.00000000000E+00  0.00000000000E+00 -0.91408848784E+03  0.91408848785E+03  0.50400001928E-02 0. -1.
    10030    2    1    2    0    0  0.00000000000E+00  0.00000000000E+00 -0.20433396801E+02  0.18077435789E+04  0.18076280932E+04 0.  0.
        4    1    3    3  502    0  0.48561614939E+03  0.74951328473E+03  0.12866265085E+03  0.90230199997E+03  0.12699999809E+01 0.  1.
       -4    1    3    3    0  502 -0.48561614939E+03 -0.74951328473E+03 -0.14909604765E+03  0.90544157893E+03  0.12699999809E+01 0. -1.
</event>
<event>
 5   0  0.2550616E-04  0.1796930E+04  0.7818609E-02  0.8707934E-01
        2   -1    0    0  501    0  0.00000000000E+00  0.00000000000E+00  0.99265872639E+03  0.99265872639E+03  0.25500000920E-02 0. -1.
       -2   -1    0    0    0  501  0.00000000000E+00  0.00000000000E+00 -0.81320916360E+03  0.81320916360E+03  0.25500000920E-02 0.  1.
    10030    2    1    2    0    0  0.00000000000E+00  0.00000000000E+00  0.17944956279E+03  0.18058678900E+04  0.17969297957E+04 0.  0.
        1    1    3    3  502    0  0.10048328514E+03 -0.68619169628E+03  0.66377812082E+03  0.95997777492E+03  0.50400001928E-02 0. -1.
       -1    1    3    3    0  502 -0.10048328514E+03  0.68619169628E+03 -0.48432855803E+03  0.84589011508E+03  0.50400001928E-02 0.  1.
</event>
<event>
 5   0  0.2431811E-04  0.1791571E+04  0.7818609E-02  0.8710795E-01
       -2   -1    0    0    0  501  0.00000000000E+00  0.00000000000E+00  0.55318547277E+03  0.55318547278E+03  0.25500000920E-02 0. -1.
        2   -1    0    0  501    0  0.00000000000E+00  0.00000000000E+00 -0.14505646038E+04  0.14505646038E+04  0.25500000920E-02 0.  1.
    10030    2    1    2    0    0  0.00000000000E+00  0.00000000000E+00 -0.89737913104E+03  0.20037500766E+04  0.17915705581E+04 0.  0.
        3    1    3    3  502    0  0.36965514888E+03  0.70222430249E+03  0.16055464769E+02  0.79373905551E+03  0.10100000352E+00 0. -1.
       -3    1    3    3    0  502 -0.36965514888E+03 -0.70222430249E+03 -0.91343459581E+03  0.12100110211E+04  0.10100000352E+00 0.  1.
</event>
<event>
 5   0  0.1253925E-04  0.1790219E+04  0.7818609E-02  0.8711518E-01
        1   -1    0    0  501    0  0.00000000000E+00  0.00000000000E+00  0.87469456586E+03  0.87469456587E+03  0.50400001928E-02 0.  1.
       -1   -1    0    0    0  501  0.00000000000E+00  0.00000000000E+00 -0.91600064526E+03  0.91600064528E+03  0.50400001928E-02 0. -1.
    10030    2    1    2    0    0  0.00000000000E+00  0.00000000000E+00 -0.41306079406E+02  0.17906952111E+04  0.17902187428E+04 0.  0.
        2    1    3    3  502    0 -0.85964607819E+03  0.75597802178E+02  0.21713776336E+03  0.88986247012E+03  0.25500000920E-02 0.  1.
       -2    1    3    3    0  502  0.85964607819E+03 -0.75597802178E+02 -0.25844384277E+03  0.90083274103E+03  0.25500000920E-02 0. -1.
</event>
<event>
 5   0  0.9144875E-05  0.1872298E+04  0.7818609E-02  0.8668770E-01
        3   -1    0    0  501    0  0.00000000000E+00  0.00000000000E+00  0.10770695053E+04  0.10770695101E+04  0.10100000352E+00 0.  1.
       -3   -1    0    0    0  501  0.00000000000E+00  0.00000000000E+00 -0.81366573502E+03  0.81366574129E+03  0.10100000352E+00 0. -1.
    10030    2    1    2    0    0  0.00000000000E+00  0.00000000000E+00  0.26340377030E+03  0.18907352514E+04  0.18722975844E+04 0.  0.
        3    1    3    3  502    0 -0.70461354676E+03  0.48531068257E+03 -0.25199747661E+03  0.89191336312E+03  0.10100000352E+00 0.  1.
       -3    1    3    3    0  502  0.70461354676E+03 -0.48531068257E+03  0.51540124691E+03  0.99882188823E+03  0.10100000352E+00 0. -1.
</event>
<event>
 5   0  0.1239119E-04  0.1771291E+04  0.7818609E-02  0.8721717E-01
        1   -1    0    0  501    0  0.00000000000E+00  0.00000000000E+00  0.94490545772E+03  0.94490545773E+03  0.50400001928E-02 0. -1.
       -1   -1    0    0    0  501  0.00000000000E+00  0.00000000000E+00 -0.83010192750E+03  0.83010192752E+03  0.50400001928E-02 0.  1.
    10030    2    1    2    0    0  0.00000000000E+00  0.00000000000E+00  0.11480353022E+03  0.17750073853E+04  0.17712908759E+04 0.  0.
        5    1    3    3  502    0  0.19800041938E+03  0.45654211506E+03  0.79154445646E+03  0.93498640923E+03  0.46999998093E+01 0. -1.
       -5    1    3    3    0  502 -0.19800041938E+03 -0.45654211506E+03 -0.67674092625E+03  0.84002097602E+03  0.46999998093E+01 0.  1.
</event>
<event>
 5   0  0.2393421E-04  0.1782296E+04  0.7818609E-02  0.8715771E-01
        2   -1    0    0  501    0  0.00000000000E+00  0.00000000000E+00  0.66861638461E+03  0.66861638462E+03  0.25500000920E-02 0. -1.
       -2   -1    0    0    0  501  0.00000000000E+00  0.00000000000E+00 -0.11877437642E+04  0.11877437642E+04  0.25500000920E-02 0.  1.
    10030    2    1    2    0    0  0.00000000000E+00  0.00000000000E+00 -0.51912737961E+03  0.18563601488E+04  0.17822962060E+04 0.  0.
        5    1    3    3  502    0  0.23453902135E+03  0.21367598286E+03 -0.11269090960E+04  0.11707314717E+04  0.46999998093E+01 0.  1.
       -5    1    3    3    0  502 -0.23453902135E+03 -0.21367598286E+03  0.60778171637E+03  0.68562867716E+03  0.46999998093E+01 0. -1.
</event>
<event>
 5   0  0.2550616E-04  0.1800312E+04  0.7818609E-02  0.8706134E-01
        2   -1    0    0  501    0  0.00000000000E+00  0.00000000000E+00  0.65942180934E+03  0.65942180934E+03  0.25500000920E-02 0.  1.
       -2   -1    0    0    0  501  0.00000000000E+00  0.00000000000E+00 -0.12287747763E+04  0.12287747763E+04  0.25500000920E-02 0. -1.
    10030    2    1    2    0    0  0.00000000000E+00  0.00000000000E+00 -0.56935296697E+03  0.18881965857E+04  0.18003120688E+04 0.  0.
        1    1    3    3  502    0  0.33557262168E+01 -0.89663652049E+03 -0.36800673767E+03  0.96922508726E+03  0.50400001928E-02 0. -1.
       -1    1    3    3    0  502 -0.33557262168E+01  0.89663652049E+03 -0.20134622931E+03  0.91897149839E+03  0.50400001928E-02 0.  1.
</event>
<event>
 5   0  0.1239119E-04  0.1800040E+04  0.7818609E-02  0.8706278E-01
        1   -1    0    0  501    0  0.00000000000E+00  0.00000000000E+00  0.11132315838E+04  0.11132315838E+04  0.50400001928E-02 0.  1.
       -1   -1    0    0    0  501  0.00000000000E+00  0.00000000000E+00 -0.72764339972E+03  0.72764339974E+03  0.50400001928E-02 0. -1.
    10030    2    1    2    0    0  0.00000000000E+00  0.00000000000E+00  0.38558818411E+03  0.18408749836E+04  0.18000395711E+04 0.  0.
        5    1    3    3  502    0 -0.56450697280E+03  0.69821619642E+03  0.25616386181E+03  0.93371087247E+03  0.46999998093E+01 0. -1.
       -5    1    3    3    0  502  0.56450697280E+03 -0.69821619642E+03  0.12942432230E+03  0.90716411110E+03  0.46999998093E+01 0.  1.
</event>
<event>
 5   0  0.1308893E-04  0.1800700E+04  0.7818609E-02  0.8705927E-01
        1   -1    0    0  501    0  0.00000000000E+00  0.00000000000E+00  0.54384922298E+03  0.54384922300E+03  0.50400001928E-02 0. -1.
       -1   -1    0    0    0  501  0.00000000000E+00  0.00000000000E+00 -0.14905424213E+04  0.14905424213E+04  0.50400001928E-02 0.  1.
    10030    2    1    2    0    0  0.00000000000E+00  0.00000000000E+00 -0.94669319835E+03  0.20343916443E+04  0.18007002390E+04 0.  0.
        4    1    3    3  502    0 -0.34758532442E+03 -0.82584481802E+03 -0.57308433638E+03  0.10636082412E+04  0.12699999809E+01 0. -1.
       -4    1    3    3    0  502  0.34758532442E+03  0.82584481802E+03 -0.37360886197E+03  0.97078340315E+03  0.12699999809E+01 0.  1.
</event>
<event>
 5   0  0.2417106E-04  0.1810466E+04  0.7818609E-02  0.8700753E-01
        2   -1    0    0  501    0  0.00000000000E+00  0.00000000000E+00  0.10913437584E+04  0.10913437584E+04  0.25500000920E-02 0.  1.
       -2   -1    0    0    0  501  0.00000000000E+00  0.00000000000E+00 -0.75086065393E+03  0.75086065393E+03  0.25500000920E-02 0. -1.
    10030    2    1    2    0    0  0.00000000000E+00  0.00000000000E+00  0.34048310443E+03  0.18422044123E+04  0.18104663356E+04 0.  0.
        4    1    3    3  502    0 -0.19253283723E+03  0.63082791862E+03 -0.46065410204E+03  0.80449771345E+03  0.12699999809E+01 0. -1.
       -4    1    3    3    0  502  0.19253283723E+03 -0.63082791862E+03  0.80113720647E+03  0.10377066988E+04  0.12699999809E+01 0.  1.
</event>
<event>
 5   0  0.2431811E-04  0.1808660E+04  0.7818609E-02  0.8701707E-01
        2   -1    0    0  501    0  0.00000000000E+00  0.00000000000E+00  0.62444847919E+03  0.62444847920E+03  0.25500000920E-02 0.  1.
       -2   -1    0    0    0  501  0.00000000000E+00  0.00000000000E+00 -0.13096566385E+04  0.13096566385E+04  0.25500000920E-02 0. -1.
    10030    2    1    2    0    0  0.00000000000E+00  0.00000000000E+00 -0.68520815929E+03  0.19341051177E+04  0.18086603840E+04 0.  0.
        3    1    3    3  502    0  0.61542517511E+02 -0.23075367826E+03 -0.12753258614E+04  0.12974940480E+04  0.10100000352E+00 0. -1.
       -3    1    3    3    0  502 -0.61542517511E+02  0.23075367826E+03  0.59011770214E+03  0.63661106971E+03  0.10100000352E+00 0.  1.
</event>
<event>
 5   0  0.2393421E-04  0.1811293E+04  0.7818609E-02  0.8700317E-01
       -2   -1    0    0    0  501  0.00000000000E+00  0.00000000000E+00  0.56379167875E+03  0.56379167875E+03  0.25500000920E-02 0. -1.
        2   -1    0    0  501    0  0.00000000000E+00  0.00000000000E+00 -0.14547855527E+04  0.14547855527E+04  0.25500000920E-02 0.  1.
    10030    2    1    2    0    0  0.00000000000E+00  0.00000000000E+00 -0.89099387399E+03  0.20185772315E+04  0.18112934483E+04 0.  0.
        5    1    3    3  502    0  0.57619905229E+03 -0.39697671688E+03 -0.10862542221E+04  0.12921169400E+04  0.46999998093E+01 0.  1.
       -5    1    3    3    0  502 -0.57619905229E+03  0.39697671688E+03  0.19526034809E+03  0.72646029151E+03  0.46999998093E+01 0. -1.
</event>
<event>
 5   0  0.2393421E-04  0.1773534E+04  0.7818609E-02  0.8720502E-01
        2   -1    0    0  501    0  0.00000000000E+00  0.00000000000E+00  0.14001698595E+04  0.14001698595E+04  0.25500000920E-02 0. -1.
       -2   -1    0    0    0  501  0.00000000000E+00  0.00000000000E+00 -0.56161452446E+03  0.56161452446E+03  0.25500000920E-02 0.  1.
    10030    2    1    2    0    0  0.00000000000E+00  0.00000000000E+00  0.83855533508E+03  0.19617843840E+04  0.17735340198E+04 0.  0.
        5    1    3    3  502    0  0.50149916473E+03  0.72380645095E+03  0.53495544053E+03  0.10303381018E+04  0.46999998093E+01 0.  1.
       -5    1    3    3    0  502 -0.50149916473E+03 -0.72380645095E+03  0.30359989455E+03  0.93144628221E+03  0.46999998093E+01 0. -1.
</event>
<event>
 5   0  0.2393421E-04  0.1813366E+04  0.7818609E-02  0.8699223E-01
        2   -1    0    0  501    0  0.00000000000E+00  0.00000000000E+00  0.57191227590E+03  0.57191227591E+03  0.25500000920E-02 0. -1.
       -2   -1    0    0    0  501  0.00000000000E+00  0.00000000000E+00 -0.14374136100E+04  0.14374136100E+04  0.25500000920E-02 0.  1.
    10030    2    1    2    0    0  0.00000000000E+00  0.00000000000E+00 -0.86550133413E+03  0.20093258859E+04  0.18133664706E+04 0.  0.
        5    1    3    3  502    0 -0.43950678203E+03  0.65300959615E+03 -0.93133589474E+03  0.12194246114E+04  0.46999998093E+01 0.  1.
       -5    1    3    3    0  502  0.43950678203E+03 -0.65300959615E+03  0.65834560611E+02  0.78990127452E+03  0.46999998093E+01 0. -1.
</event>
<event>
 5   0  0.1239119E-04  0.1853758E+04  0.7818609E-02  0.8678223E-01
       -1   -1    0    0    0  501  0.00000000000E+00  0.00000000000E+00  0.86834000213E+03  0.86834000214E+03  0.50400001928E-02 0. -1.
        1   -1    0    0  501    0  0.00000000000E+00  0.00000000000E+00 -0.98936451991E+03  0.98936451992E+03  0.50400001928E-02 0.  1.
    10030    2    1    2    0    0  0.00000000000E+00  0.00000000000E+00 -0.12102451778E+03  0.18577045221E+04  0.18537581173E+04 0.  0.
        5    1    3    3  502    0 -0.44330671424E+03 -0.21261748070E+03 -0.84790478976E+03  0.98014879405E+03  0.46999998093E+01 0.  1.
       -5    1    3    3    0  502  0.44330671424E+03  0.21261748070E+03  0.72688027197E+03  0.87755572801E+03  0.46999998093E+01 0. -1.
</event>
<event>
 5   0  0.2550616E-04  0.1762944E+04  0.7818609E-02  0.8726257E-01
       -2   -1    0    0    0  501  0.00000000000E+00  0.00000000000E+00  0.99207958954E+03  0.99207958955E+03  0.25500000920E-02 0.  1.
        2   -1    0    0  501    0  0.00000000000E+00  0.00000000000E+00 -0.78319612249E+03  0.78319612250E+03  0.25500000920E-02 0. -1.
    10030    2    1    2    0    0  0.00000000000E+00  0.00000000000E+00  0.20888346705E+03  0.17752757120E+04  0.17629440011E+04 0.  0.
        1    1    3    3  502    0 -0.12376061286E+03 -0.84236237723E+03 -0.12541316159E+03  0.86059254296E+03  0.50400001928E-02 0. -1.
       -1    1    3    3    0  502  0.12376061286E+03  0.84236237723E+03  0.33429662864E+03  0.91468316909E+03  0.50400001928E-02 0.  1.
</event>
<event>
 5   0  0.1253925E-04  0.1761408E+04  0.7818609E-02  0.8727096E-01
        1   -1    0    0  501    0  0.00000000000E+00  0.00000000000E+00  0.86828489915E+03  0.86828489917E+03  0.50400001928E-02 0.  1.
       -1   -1    0    0    0  501  0.00000000000E+00  0.00000000000E+00 -0.89330098451E+03  0.89330098452E+03  0.50400001928E-02 0. -1.
    10030    2    1    2    0    0  0.00000000000E+00  0.00000000000E+00 -0.25016085356E+02  0.17615858837E+04  0.17614082494E+04 0.  0.
        2    1    3    3  502    0 -0.63993496119E+03  0.23391084949E+02 -0.61719771240E+03  0.88938007264E+03  0.25500000920E-02 0. -1.
       -2    1    3    3    0  502  0.63993496119E+03 -0.23391084949E+02  0.59218162705E+03  0.87220581105E+03  0.25500000920E-02 0.  1.
</event>
<event>
 5   0  0.1253925E-04  0.1796574E+04  0.7818609E-02  0.8708123E-01
       -1   -1    0    0    0  501  0.00000000000E+00  0.00000000000E+00  0.10438252842E+04  0.10438252842E+04  0.50400001928E-02 0. -1.
        1   -1    0    0  501    0  0.00000000000E+00  0.00000000000E+00 -0.77304110494E+03  0.77304110496E+03  0.50400001928E-02 0.  1.
    10030    2    1    2    0    0  0.00000000000E+00  0.00000000000E+00  0.27078417923E+03  0.18168663891E+04  0.17965743526E+04 0.  0.
        2    1    3    3  502    0  0.88373989297E+03  0.14283646464E+03  0.21053746921E+03  0.91963279629E+03  0.25500000920E-02 0. -1.
       -2    1    3    3    0  502 -0.88373989297E+03 -0.14283646464E+03  0.60246710020E+02  0.89723359285E+03  0.25500000920E-02 0.  1.
</event>
<event>
 5   0  0.1330225E-04  0.1796292E+04  0.7818609E-02  0.8708274E-01
        1   -1    0    0  501    0  0.00000000000E+00  0.00000000000E+00  0.69019177578E+03  0.69019177579E+03  0.50400001928E-02 0. -1.
       -1   -1    0    0    0  501  0.00000000000E+00  0.00000000000E+00 -0.11687561107E+04  0.11687561107E+04  0.50400001928E-02 0.  1.
    10030    2    1    2    0    0  0.00000000000E+00  0.00000000000E+00 -0.47856433495E+03  0.18589478865E+04  0.17962915749E+04 0.  0.
        3    1    3    3  502    0  0.57542418078E+02  0.68075350828E+03  0.36408924671E+03  0.77414304795E+03  0.10100000352E+00 0. -1.
       -3    1    3    3    0  502 -0.57542418078E+02 -0.68075350828E+03 -0.84265358167E+03  0.10848048386E+04  0.10100000352E+00 0.  1.
</event>
<event>
 5   0  0.2550616E-04  0.1792828E+04  0.7818609E-02  0.8710123E-01
        2   -1    0    0  501    0  0.00000000000E+00  0.00000000000E+00  0.64562826097E+03  0.64562826097E+03  0.25500000920E-02 0. -1.
       -2   -1    0    0    0  501  0.00000000000E+00  0.00000000000E+00 -0.12446142529E+04  0.12446142529E+04  0.25500000920E-02 0.  1.
    10030    2    1    2    0    0  0.00000000000E+00  0.00000000000E+00 -0.59898599194E+03  0.18902425139E+04  0.17928280851E+04 0.  0.
        1    1    3    3  502    0  0.30091722068E+03 -0.31580807344E+03  0.52617514442E+03  0.68348094018E+03  0.50400001928E-02 0. -1.
       -1    1    3    3    0  502 -0.30091722068E+03  0.31580807344E+03 -0.11251611364E+04  0.12067615737E+04  0.50400001928E-02 0.  1.
</event>
<event>
 5   0  0.1308893E-04  0.1584484E+04  0.7818609E-02  0.8830137E-01
        1   -1    0    0  501    0  0.00000000000E+00  0.00000000000E+00  0.98969859680E+03  0.98969859682E+03  0.50400001928E-02 0. -1.
       -1   -1    0    0    0  501  0.00000000000E+00  0.00000000000E+00 -0.63418063762E+03  0.63418063764E+03  0.50400001928E-02 0.  1.
    10030    2    1    2    0    0  0.00000000000E+00  0.00000000000E+00  0.35551795918E+03  0.16238792345E+04  0.15844843795E+04 0.  0.
        4    1    3    3  502    0  0.15748246308E+03 -0.77231952861E+03  0.95975859763E+02  0.79403473413E+03  0.12699999809E+01 0. -1.
       -4    1    3    3    0  502 -0.15748246308E+03  0.77231952861E+03  0.25954209942E+03  0.82984450033E+03  0.12699999809E+01 0.  1.
</event>
<event>
 5   0  0.1308893E-04  0.1841809E+04  0.7818609E-02  0.8684377E-01
       -1   -1    0    0    0  501  0.00000000000E+00  0.00000000000E+00  0.13441488567E+04  0.13441488567E+04  0.50400001928E-02 0. -1.
        1   -1    0    0  501    0  0.00000000000E+00  0.00000000000E+00 -0.63093089680E+03  0.63093089682E+03  0.50400001928E-02 0.  1.
    10030    2    1    2    0    0  0.00000000000E+00  0.00000000000E+00  0.71321795993E+03  0.19750797536E+04  0.18418089408E+04 0.  0.
        4    1    3    3  502    0  0.20577143304E+02  0.80961900189E+03  0.82668517599E+03  0.11572883565E+04  0.12699999809E+01 0.  1.
       -4    1    3    3    0  502 -0.20577143304E+02 -0.80961900189E+03 -0.11346721606E+03  0.81779139704E+03  0.12699999809E+01 0. -1.
</event>
<event>
 5   0  0.1239119E-04  0.1784628E+04  0.7818609E-02  0.8714517E-01
        1   -1    0    0  501    0  0.00000000000E+00  0.00000000000E+00  0.16922234373E+04  0.16922234373E+04  0.50400001928E-02 0.  1.
       -1   -1    0    0    0  501  0.00000000000E+00  0.00000000000E+00 -0.47051937227E+03  0.47051937229E+03  0.50400001928E-02 0. -1.
    10030    2    1    2    0    0  0.00000000000E+00  0.00000000000E+00  0.12217040650E+04  0.21627428096E+04  0.17846275908E+04 0.  0.
        5    1    3    3  502    0 -0.58346391990E+02 -0.87317657924E+03  0.39969310800E+03  0.96209059374E+03  0.46999998093E+01 0. -1.
       -5    1    3    3    0  502  0.58346391990E+02  0.87317657924E+03  0.82201095704E+03  0.12006522159E+04  0.46999998093E+01 0.  1.
</event>
<event>
 5   0  0.2569405E-04  0.1712348E+04  0.7818609E-02  0.8754353E-01
       -2   -1    0    0    0  501  0.00000000000E+00  0.00000000000E+00  0.52180066297E+03  0.52180066297E+03  0.25500000920E-02 0. -1.
        2   -1    0    0  501    0  0.00000000000E+00  0.00000000000E+00 -0.14048159009E+04  0.14048159009E+04  0.25500000920E-02 0.  1.
    10030    2    1    2    0    0  0.00000000000E+00  0.00000000000E+00 -0.88301523795E+03  0.19266165639E+04  0.17123479418E+04 0.  0.
        2    1    3    3  502    0  0.62906441149E+03 -0.58059261466E+03 -0.42466629676E+03  0.95558949429E+03  0.25500000920E-02 0. -1.
       -2    1    3    3    0  502 -0.62906441149E+03  0.58059261466E+03 -0.45834894119E+03  0.97102706960E+03  0.25500000920E-02 0.  1.
</event>
<event>
 5   0  0.2417106E-04  0.1791325E+04  0.7818609E-02  0.8710926E-01
        2   -1    0    0  501    0  0.00000000000E+00  0.00000000000E+00  0.13965243601E+04  0.13965243601E+04  0.25500000920E-02 0.  1.
       -2   -1    0    0    0  501  0.00000000000E+00  0.00000000000E+00 -0.57443409818E+03  0.57443409818E+03  0.25500000920E-02 0. -1.
    10030    2    1    2    0    0  0.00000000000E+00  0.00000000000E+00  0.82209026194E+03  0.19709584583E+04  0.17913248855E+04 0.  0.
        4    1    3    3  502    0  0.26673572500E+03 -0.52320101238E+03 -0.33302577900E+03  0.67512593545E+03  0.12699999809E+01 0. -1.
       -4    1    3    3    0  502 -0.26673572500E+03  0.52320101238E+03  0.11551160409E+04  0.12958325228E+04  0.12699999809E+01 0.  1.
</event>
<event>
 5   0  0.2393421E-04  0.1826123E+04  0.7818609E-02  0.8692530E-01
       -2   -1    0    0    0  501  0.00000000000E+00  0.00000000000E+00  0.93453853405E+03  0.93453853406E+03  0.25500000920E-02 0.  1.
        2   -1    0    0  501    0  0.00000000000E+00  0.00000000000E+00 -0.89207764371E+03  0.89207764372E+03  0.25500000920E-02 0. -1.
    10030    2    1    2    0    0  0.00000000000E+00  0.00000000000E+00  0.42460890341E+02  0.18266161778E+04  0.18261225955E+04 0.  0.
        5    1    3    3  502    0 -0.40638638964E+03  0.19665024544E+02  0.83883882000E+03  0.93231393148E+03  0.46999998093E+01 0.  1.
       -5    1    3    3    0  502  0.40638638964E+03 -0.19665024544E+02 -0.79637792966E+03  0.89430224630E+03  0.46999998093E+01 0. -1.
</event>
<event>
 5   0  0.2431811E-04  0.1835173E+04  0.7818609E-02  0.8687815E-01
       -2   -1    0    0    0  501  0.00000000000E+00  0.00000000000E+00  0.49207139283E+03  0.49207139284E+03  0.25500000920E-02 0. -1.
        2   -1    0    0  501    0  0.00000000000E+00  0.00000000000E+00 -0.17110629179E+04  0.17110629179E+04  0.25500000920E-02 0.  1.
    10030    2    1    2    0    0  0.00000000000E+00  0.00000000000E+00 -0.12189915251E+04  0.22031343107E+04  0.18351731398E+04 0.  0.
        3    1    3    3  502    0  0.59406704200E+03  0.68994173512E+03 -0.47246006406E+03  0.10257454707E+04  0.10100000352E+00 0. -1.
       -3    1    3    3    0  502 -0.59406704200E+03 -0.68994173512E+03 -0.74653146101E+03  0.11773888401E+04  0.10100000352E+00 0.  1.
</event>
<event>
 5   0  0.2393421E-04  0.1851500E+04  0.7818609E-02  0.8679382E-01
       -2   -1    0    0    0  501  0.00000000000E+00  0.00000000000E+00  0.71807506593E+03  0.71807506594E+03  0.25500000920E-02 0.  1.
        2   -1    0    0  501    0  0.00000000000E+00  0.00000000000E+00 -0.11934869611E+04  0.11934869611E+04  0.25500000920E-02 0. -1.
    10030    2    1    2    0    0  0.00000000000E+00  0.00000000000E+00 -0.47541189512E+03  0.19115620270E+04  0.18515001791E+04 0.  0.
        5    1    3    3  502    0  0.20396123151E+03 -0.59539511531E+03 -0.93862186476E+03  0.11301011558E+04  0.46999998093E+01 0. -1.
       -5    1    3    3    0  502 -0.20396123151E+03  0.59539511531E+03  0.46320996963E+03  0.78146087122E+03  0.46999998093E+01 0.  1.
</event>
<event>
 5   0  0.2569405E-04  0.1795226E+04  0.7818609E-02  0.8708842E-01
       -2   -1    0    0    0  501  0.00000000000E+00  0.00000000000E+00  0.75105021048E+03  0.75105021049E+03  0.25500000920E-02 0. -1.
        2   -1    0    0  501    0  0.00000000000E+00  0.00000000000E+00 -0.10727770989E+04  0.10727770989E+04  0.25500000920E-02 0.  1.
    10030    2    1    2    0    0  0.00000000000E+00  0.00000000000E+00 -0.32172688837E+03  0.18238273093E+04  0.17952264101E+04 0.  0.
        2    1    3    3  502    0 -0.67906276003E+03 -0.14786074534E+03  0.41627196171E+03  0.81010578210E+03  0.25500000920E-02 0. -1.
       -2    1    3    3    0  502  0.67906276003E+03  0.14786074534E+03 -0.73799885008E+03  0.10137215272E+04  0.25500000920E-02 0.  1.
</event>
<event>
 5   0  0.1214723E-04  0.1820862E+04  0.7818609E-02  0.8695283E-01
        1   -1    0    0  501    0  0.00000000000E+00  0.00000000000E+00  0.13682599233E+04  0.13682599233E+04  0.50400001928E-02 0. -1.
       -1   -1    0    0    0  501  0.00000000000E+00  0.00000000000E+00 -0.60579458779E+03  0.60579458781E+03  0.50400001928E-02 0.  1.
    10030    2    1    2    0    0  0.00000000000E+00  0.00000000000E+00  0.76246533553E+03  0.19740545111E+04  0.18208618358E+04 0.  0.
        1    1    3    3  502    0 -0.35789220616E+03  0.79542190160E+03  0.66415086372E+03  0.10963025142E+04  0.50400001928E-02 0. -1.
       -1    1    3    3    0  502  0.35789220616E+03 -0.79542190160E+03  0.98314471807E+02  0.87775199696E+03  0.50400001928E-02 0.  1.
</event>
<event>
 5   0  0.1308893E-04  0.1778096E+04  0.7818609E-02  0.8718035E-01
        1   -1    0    0  501    0  0.00000000000E+00  0.00000000000E+00  0.88742594918E+03  0.88742594919E+03  0.50400001928E-02 0.  1.
       -1   -1    0    0    0  501  0.00000000000E+00  0.00000000000E+00 -0.89067332265E+03  0.89067332266E+03  0.50400001928E-02 0. -1.
    10030    2    1    2    0    0  0.00000000000E+00  0.00000000000E+00 -0.32473734685E+01  0.17780992719E+04  0.17780963065E+04 0.  0.
        4    1    3    3  502    0  0.57851165832E+03 -0.40981101935E+03  0.53483242086E+03  0.88806989685E+03  0.12699999809E+01 0.  1.
       -4    1    3    3    0  502 -0.57851165832E+03  0.40981101935E+03 -0.53807979433E+03  0.89002937500E+03  0.12699999809E+01 0. -1.
</event>
<event>
 5   0  0.2417106E-04  0.1787026E+04  0.7818609E-02  0.8713230E-01
       -2   -1    0    0    0  501  0.00000000000E+00  0.00000000000E+00  0.10495409092E+04  0.10495409092E+04  0.25500000920E-02 0.  1.
        2   -1    0    0  501    0  0.00000000000E+00  0.00000000000E+00 -0.76068046802E+03  0.76068046802E+03  0.25500000920E-02 0. -1.
    10030    2    1    2    0    0  0.00000000000E+00  0.00000000000E+00  0.28886044118E+03  0.18102213772E+04  0.17870257637E+04 0.  0.
        4    1    3    3  502    0  0.13922859799E+03 -0.84604343001E+03 -0.11020798931E+03  0.86447758894E+03  0.12699999809E+01 0. -1.
       -4    1    3    3    0  502 -0.13922859799E+03  0.84604343001E+03  0.39906843048E+03  0.94574378828E+03  0.12699999809E+01 0.  1.
</event>
<event>
 5   0  0.2417106E-04  0.1647129E+04  0.7818609E-02  0.8792107E-01
        2   -1    0    0  501    0  0.00000000000E+00  0.00000000000E+00  0.12108011228E+04  0.12108011229E+04  0.25500000920E-02 0. -1.
       -2   -1    0    0    0  501  0.00000000000E+00  0.00000000000E+00 -0.56017342228E+03  0.56017342229E+03  0.25500000920E-02 0.  1.
    10030    2    1    2    0    0  0.00000000000E+00  0.00000000000E+00  0.65062770057E+03  0.17709745451E+04  0.16471291494E+04 0.  0.
        4    1    3    3  502    0 -0.53694540486E+03 -0.49349252581E+03 -0.86094061284E+02  0.73434259111E+03  0.12699999809E+01 0.  1.
       -4    1    3    3    0  502  0.53694540486E+03  0.49349252581E+03  0.73672176185E+03  0.10366319540E+04  0.12699999809E+01 0. -1.
</event>
<event>
 5   0  0.1253925E-04  0.1830939E+04  0.7818609E-02  0.8690018E-01
        1   -1    0    0  501    0  0.00000000000E+00  0.00000000000E+00  0.16547061415E+04  0.16547061415E+04  0.50400001928E-02 0. -1.
       -1   -1    0    0    0  501  0.00000000000E+00  0.00000000000E+00 -0.50648516104E+03  0.50648516106E+03  0.50400001928E-02 0.  1.
    10030    2    1    2    0    0  0.00000000000E+00  0.00000000000E+00  0.11482209805E+04  0.21611913026E+04  0.18309386736E+04 0.  0.
        2    1    3    3  502    0 -0.10970572425E+03  0.56610111049E+03  0.14134035325E+04  0.15265042938E+04  0.25500000920E-02 0. -1.
       -2    1    3    3    0  502  0.10970572425E+03 -0.56610111049E+03 -0.26518255203E+03  0.63468700880E+03  0.25500000920E-02 0.  1.
</event>
<event>
 5   0  0.1253925E-04  0.1865482E+04  0.7818609E-02  0.8672231E-01
        1   -1    0    0  501    0  0.00000000000E+00  0.00000000000E+00  0.10842373045E+04  0.10842373045E+04  0.50400001928E-02 0.  1.
       -1   -1    0    0    0  501  0.00000000000E+00  0.00000000000E+00 -0.80241302927E+03  0.80241302928E+03  0.50400001928E-02 0. -1.
    10030    2    1    2    0    0  0.00000000000E+00  0.00000000000E+00  0.28182427527E+03  0.18866503338E+04  0.18654823934E+04 0.  0.
        2    1    3    3  502    0 -0.11603441524E+03 -0.89547087544E+03 -0.95565973325E+02  0.90800051187E+03  0.25500000920E-02 0. -1.
       -2    1    3    3    0  502  0.11603441524E+03  0.89547087544E+03  0.37739024859E+03  0.97864982196E+03  0.25500000920E-02 0.  1.
</event>
<event>
 5   0  0.2569405E-04  0.1806101E+04  0.7818609E-02  0.8703062E-01
       -2   -1    0    0    0  501  0.00000000000E+00  0.00000000000E+00  0.46103682706E+03  0.46103682706E+03  0.25500000920E-02 0.  1.
        2   -1    0    0  501    0  0.00000000000E+00  0.00000000000E+00 -0.17688391382E+04  0.17688391382E+04  0.25500000920E-02 0. -1.
    10030    2    1    2    0    0  0.00000000000E+00  0.00000000000E+00 -0.13078023111E+04  0.22298759652E+04  0.18061007545E+04 0.  0.
        2    1    3    3  502    0 -0.65958516475E+03 -0.14216593271E+03 -0.13949254287E+04  0.15495420916E+04  0.25500000920E-02 0. -1.
       -2    1    3    3    0  502  0.65958516475E+03  0.14216593271E+03  0.87123117599E+02  0.68033387363E+03  0.25500000920E-02 0.  1.
</event>
<event>
 5   0  0.2431811E-04  0.1802230E+04  0.7818609E-02  0.8705114E-01
       -2   -1    0    0    0  501  0.00000000000E+00  0.00000000000E+00  0.87056792607E+03  0.87056792607E+03  0.25500000920E-02 0. -1.
        2   -1    0    0  501    0  0.00000000000E+00  0.00000000000E+00 -0.93273410925E+03  0.93273410925E+03  0.25500000920E-02 0.  1.
    10030    2    1    2    0    0  0.00000000000E+00  0.00000000000E+00 -0.62166183179E+02  0.18033020353E+04  0.18022301729E+04 0.  0.
        3    1    3    3  502    0 -0.25735511454E+02 -0.80568114485E+02 -0.92875368722E+03  0.93259689006E+03  0.10100000352E+00 0.  1.
       -3    1    3    3    0  502  0.25735511454E+02  0.80568114485E+02  0.86658750404E+03  0.87070514526E+03  0.10100000352E+00 0. -1.
</event>
<event>
 5   0  0.2569405E-04  0.1811019E+04  0.7818609E-02  0.8700461E-01
       -2   -1    0    0    0  501  0.00000000000E+00  0.00000000000E+00  0.52068407420E+03  0.52068407421E+03  0.25500000920E-02 0. -1.
        2   -1    0    0  501    0  0.00000000000E+00  0.00000000000E+00 -0.15747508443E+04  0.15747508443E+04  0.25500000920E-02 0.  1.
    10030    2    1    2    0    0  0.00000000000E+00  0.00000000000E+00 -0.10540667701E+04  0.20954349185E+04  0.18110192550E+04 0.  0.
        2    1    3    3  502    0  0.56541198773E+02 -0.32500242215E+03  0.44868354179E+03  0.55690250694E+03  0.25500000920E-02 0. -1.
       -2    1    3    3    0  502 -0.56541198773E+02  0.32500242215E+03 -0.15027503119E+04  0.15385324116E+04  0.25500000920E-02 0.  1.
</event>
<event>
 5   0  0.2550616E-04  0.1804850E+04  0.7818609E-02  0.8703725E-01
        2   -1    0    0  501    0  0.00000000000E+00  0.00000000000E+00  0.11905580375E+04  0.11905580375E+04  0.25500000920E-02 0.  1.
       -2   -1    0    0    0  501  0.00000000000E+00  0.00000000000E+00 -0.68402427377E+03  0.68402427378E+03  0.25500000920E-02 0. -1.
    10030    2    1    2    0    0  0.00000000000E+00  0.00000000000E+00  0.50653376375E+03  0.18745823113E+04  0.18048496857E+04 0.  0.
        1    1    3    3  502    0 -0.37492171585E+03  0.24902997329E+03 -0.55912221710E+03  0.71777425023E+03  0.50400001928E-02 0. -1.
       -1    1    3    3    0  502  0.37492171585E+03 -0.24902997329E+03  0.10656559808E+04  0.11568080611E+04  0.50400001928E-02 0.  1.
</event>
<event>
 5   0  0.1330225E-04  0.1797347E+04  0.7818609E-02  0.8707712E-01
       -1   -1    0    0    0  501  0.00000000000E+00  0.00000000000E+00  0.79691617614E+03  0.79691617615E+03  0.50400001928E-02 0. -1.
        1   -1    0    0  501    0  0.00000000000E+00  0.00000000000E+00 -0.10134240475E+04  0.10134240475E+04  0.50400001928E-02 0.  1.
    10030    2    1    2    0    0  0.00000000000E+00  0.00000000000E+00 -0.21650787132E+03  0.18103402236E+04  0.17973469523E+04 0.  0.
        3    1    3    3  502    0  0.48889837361E+03  0.24269206865E+03 -0.82734284945E+03  0.99116964272E+03  0.10100000352E+00 0.  1.
       -3    1    3    3    0  502 -0.48889837361E+03 -0.24269206865E+03  0.61083497813E+03  0.81917058090E+03  0.10100000352E+00 0. -1.
</event>
<event>
 5   0  0.2393421E-04  0.1776730E+04  0.7818609E-02  0.8718773E-01
       -2   -1    0    0    0  501  0.00000000000E+00  0.00000000000E+00  0.81122096940E+03  0.81122096941E+03  0.25500000920E-02 0. -1.
        2   -1    0    0  501    0  0.00000000000E+00  0.00000000000E+00 -0.97284458993E+03  0.97284458993E+03  0.25500000920E-02 0.  1.
    10030    2    1    2    0    0  0.00000000000E+00  0.00000000000E+00 -0.16162362052E+03  0.17840655593E+04  0.17767295026E+04 0.  0.
        5    1    3    3  502    0 -0.66614293324E+03  0.14865781444E+02  0.50915343127E+03  0.83858613483E+03  0.46999998093E+01 0. -1.
       -5    1    3    3    0  502  0.66614293324E+03 -0.14865781444E+02 -0.67077705179E+03  0.94547942451E+03  0.46999998093E+01 0.  1.
</event>
<event>
 5   0  0.2417106E-04  0.1793047E+04  0.7818609E-02  0.8710006E-01
       -2   -1    0    0    0  501  0.00000000000E+00  0.00000000000E+00  0.64576826178E+03  0.64576826179E+03  0.25500000920E-02 0.  1.
        2   -1    0    0  501    0  0.00000000000E+00  0.00000000000E+00 -0.12446482250E+04  0.12446482250E+04  0.25500000920E-02 0. -1.
    10030    2    1    2    0    0  0.00000000000E+00  0.00000000000E+00 -0.59887996317E+03  0.18904164867E+04  0.17930469272E+04 0.  0.
        4    1    3    3  502    0 -0.13630237953E+03 -0.13164406884E+03 -0.12232919674E+04  0.12378826075E+04  0.12699999809E+01 0. -1.
       -4    1    3    3    0  502  0.13630237953E+03  0.13164406884E+03  0.62441200428E+03  0.65253387921E+03  0.12699999809E+01 0.  1.
</event>
<event>
 5   0  0.2569405E-04  0.1786041E+04  0.7818609E-02  0.8713758E-01
       -2   -1    0    0    0  501  0.00000000000E+00  0.00000000000E+00  0.94809093883E+03  0.94809093883E+03  0.25500000920E-02 0. -1.
        2   -1    0    0  501    0  0.00000000000E+00  0.00000000000E+00 -0.84114893217E+03  0.84114893218E+03  0.25500000920E-02 0.  1.
    10030    2    1    2    0    0  0.00000000000E+00  0.00000000000E+00  0.10694200665E+03  0.17892398710E+04  0.17860410755E+04 0.  0.
        2    1    3    3  502    0 -0.14950704089E+03  0.32898289982E+03  0.87157525217E+03  0.94351763303E+03  0.25500000920E-02 0. -1.
       -2    1    3    3    0  502  0.14950704089E+03 -0.32898289982E+03 -0.76463324552E+03  0.84572223797E+03  0.25500000920E-02 0.  1.
</event>
<event>
 5   0  0.1330225E-04  0.1808122E+04  0.7818609E-02  0.8701992E-01
        1   -1    0    0  501    0  0.00000000000E+00  0.00000000000E+00  0.92801494859E+03  0.92801494860E+03  0.50400001928E-02 0. -1.
       -1   -1    0    0    0  501  0.00000000000E+00  0.00000000000E+00 -0.88072531375E+03  0.88072531376E+03  0.50400001928E-02 0.  1.
    10030    2    1    2    0    0  0.00000000000E+00  0.00000000000E+00  0.47289634842E+02  0.18087402624E+04  0.18081219614E+04 0.  0.
        3    1    3    3  502    0 -0.87579392633E+03  0.21939656820E+03 -0.23022942013E+02  0.90314999950E+03  0.10100000352E+00 0.  1.
       -3    1    3    3    0  502  0.87579392633E+03 -0.21939656820E+03  0.70312576856E+02  0.90559026287E+03  0.10100000352E+00 0. -1.
</event>
<event>
 5   0  0.1239119E-04  0.1798889E+04  0.7818609E-02  0.8706890E-01
        1   -1    0    0  501    0  0.00000000000E+00  0.00000000000E+00  0.10497486796E+04  0.10497486796E+04  0.50400001928E-02 0.  1.
       -1   -1    0    0    0  501  0.00000000000E+00  0.00000000000E+00 -0.77066140987E+03  0.77066140989E+03  0.50400001928E-02 0. -1.
    10030    2    1    2    0    0  0.00000000000E+00  0.00000000000E+00  0.27908726970E+03  0.18204100895E+04  0.17988894323E+04 0.  0.
        5    1    3    3  502    0 -0.31164829324E+03  0.15654492168E+03 -0.69943908646E+03  0.78158051207E+03  0.46999998093E+01 0. -1.
       -5    1    3    3    0  502  0.31164829324E+03 -0.15654492168E+03  0.97852635616E+03  0.10388295774E+04  0.46999998093E+01 0.  1.
</event>
<event>
 5   0  0.2550616E-04  0.1819595E+04  0.7818609E-02  0.8695948E-01
        2   -1    0    0  501    0  0.00000000000E+00  0.00000000000E+00  0.10606999747E+04  0.10606999747E+04  0.25500000920E-02 0. -1.
       -2   -1    0    0    0  501  0.00000000000E+00  0.00000000000E+00 -0.78036371146E+03  0.78036371147E+03  0.25500000920E-02 0.  1.
    10030    2    1    2    0    0  0.00000000000E+00  0.00000000000E+00  0.28033626326E+03  0.18410636862E+04  0.18195953056E+04 0.  0.
        1    1    3    3  502    0 -0.73984551691E+03  0.36734219474E+03  0.52600721025E+03  0.97928303477E+03  0.50400001928E-02 0. -1.
       -1    1    3    3    0  502  0.73984551691E+03 -0.36734219474E+03 -0.24567094699E+03  0.86178065142E+03  0.50400001928E-02 0.  1.
</event>
<event>
 5   0  0.2393421E-04  0.1741351E+04  0.7818609E-02  0.8738126E-01
        2   -1    0    0  501    0  0.00000000000E+00  0.00000000000E+00  0.10830956087E+04  0.10830956087E+04  0.25500000920E-02 0.  1.
       -2   -1    0    0    0  501  0.00000000000E+00  0.00000000000E+00 -0.69991568719E+03  0.69991568719E+03  0.25500000920E-02 0. -1.
    10030    2    1    2    0    0  0.00000000000E+00  0.00000000000E+00  0.38317992150E+03  0.17830112959E+04  0.17413507484E+04 0.  0.
        5    1    3    3  502    0  0.61324546478E+03  0.60855131168E+03  0.81078130318E+02  0.86775598657E+03  0.46999998093E+01 0. -1.
       -5    1    3    3    0  502 -0.61324546478E+03 -0.60855131168E+03  0.30210179119E+03  0.91525530932E+03  0.46999998093E+01 0.  1.
</event>
<event>
 5   0  0.2393421E-04  0.1775263E+04  0.7818609E-02  0.8719566E-01
       -2   -1    0    0    0  501  0.00000000000E+00  0.00000000000E+00  0.50172174026E+03  0.50172174027E+03  0.25500000920E-02 0. -1.
        2   -1    0    0  501    0  0.00000000000E+00  0.00000000000E+00 -0.15703712319E+04  0.15703712319E+04  0.25500000920E-02 0.  1.
    10030    2    1    2    0    0  0.00000000000E+00  0.00000000000E+00 -0.10686494917E+04  0.20720929722E+04  0.17752626705E+04 0.  0.
        5    1    3    3  502    0  0.56384417192E+02  0.56613195888E+03  0.26090220813E+03  0.62592064159E+03  0.46999998093E+01 0. -1.
       -5    1    3    3    0  502 -0.56384417192E+02 -0.56613195888E+03 -0.13295516998E+04  0.14461723306E+04  0.46999998093E+01 0.  1.
</event>
<event>
 5   0  0.1308893E-04  0.1805976E+04  0.7818609E-02  0.8703128E-01
        1   -1    0    0  501    0  0.00000000000E+00  0.00000000000E+00  0.60588267018E+03  0.60588267020E+03  0.50400001928E-02 0. -1.
       -1   -1    0    0    0  501  0.00000000000E+00  0.00000000000E+00 -0.13457848968E+04  0.13457848968E+04  0.50400001928E-02 0.  1.
    10030    2    1    2    0    0  0.00000000000E+00  0.00000000000E+00 -0.73990222665E+03  0.19516675670E+04  0.18059764636E+04 0.  0.
        4    1    3    3  502    0 -0.88808416262E+03  0.12729363449E+03 -0.48062890454E+03  0.10177931549E+04  0.12699999809E+01 0.  1.
       -4    1    3    3    0  502  0.88808416262E+03 -0.12729363449E+03 -0.25927332211E+03  0.93387441219E+03  0.12699999809E+01 0. -1.
</event>
<event>
 5   0  0.1308893E-04  0.1785077E+04  0.7818609E-02  0.8714276E-01
       -1   -1    0    0    0  501  0.00000000000E+00  0.00000000000E+00  0.67814426586E+03  0.67814426588E+03  0.50400001928E-02 0.  1.
        1   -1    0    0  501    0  0.00000000000E+00  0.00000000000E+00 -0.11747124965E+04  0.11747124965E+04  0.50400001928E-02 0. -1.
    10030    2    1    2    0    0  0.00000000000E+00  0.00000000000E+00 -0.49656823068E+03  0.18528567624E+04  0.17850765178E+04 0.  0.
        4    1    3    3  502    0  0.24544276193E+03 -0.16150920391E+03 -0.11230756251E+04  0.11608737420E+04  0.12699999809E+01 0. -1.
       -4    1    3    3    0  502 -0.24544276193E+03  0.16150920391E+03  0.62650739443E+03  0.69198302039E+03  0.12699999809E+01 0.  1.
</event>
<event>
 5   0  0.1253925E-04  0.1807029E+04  0.7818609E-02  0.8702570E-01
        1   -1    0    0  501    0  0.00000000000E+00  0.00000000000E+00  0.10060886788E+04  0.10060886788E+04  0.50400001928E-02 0.  1.
       -1   -1    0    0    0  501  0.00000000000E+00  0.00000000000E+00 -0.81139851517E+03  0.81139851518E+03  0.50400001928E-02 0. -1.
    10030    2    1    2    0    0  0.00000000000E+00  0.00000000000E+00  0.19469016365E+03  0.18174871940E+04  0.18070294521E+04 0.  0.
        2    1    3    3  502    0 -0.82064666926E+03  0.31248970169E+03  0.31124482137E+03  0.93165664720E+03  0.25500000920E-02 0. -1.
       -2    1    3    3    0  502  0.82064666926E+03 -0.31248970169E+03 -0.11655465772E+03  0.88583054682E+03  0.25500000920E-02 0.  1.
</event>
<event>
 5   0  0.2550616E-04  0.1799384E+04  0.7818609E-02  0.8706627E-01
        2   -1    0    0  501    0  0.00000000000E+00  0.00000000000E+00  0.12624241848E+04  0.12624241848E+04  0.25500000920E-02 0. -1.
       -2   -1    0    0    0  501  0.00000000000E+00  0.00000000000E+00 -0.64118355924E+03  0.64118355925E+03  0.25500000920E-02 0.  1.
    10030    2    1    2    0    0  0.00000000000E+00  0.00000000000E+00  0.62124062558E+03  0.19036077441E+04  0.17993839302E+04 0.  0.
        1    1    3    3  502    0  0.11168958658E+03  0.10639100335E+03  0.12483307323E+04  0.12578247996E+04  0.50400001928E-02 0. -1.
       -1    1    3    3    0  502 -0.11168958658E+03 -0.10639100335E+03 -0.62709010672E+03  0.64578294443E+03  0.50400001928E-02 0.  1.
</event>
<event>
 5   0  0.2393421E-04  0.1803131E+04  0.7818609E-02  0.8704636E-01
       -2   -1    0    0    0  501  0.00000000000E+00  0.00000000000E+00  0.13405200199E+04  0.13405200199E+04  0.25500000920E-02 0. -1.
        2   -1    0    0  501    0  0.00000000000E+00  0.00000000000E+00 -0.60634671452E+03  0.60634671452E+03  0.25500000920E-02 0.  1.
    10030    2    1    2    0    0  0.00000000000E+00  0.00000000000E+00  0.73417330541E+03  0.19468667345E+04  0.18031305109E+04 0.  0.
        5    1    3    3  502    0 -0.49354501318E+03 -0.25346083320E+03 -0.40017114672E+03  0.68409656531E+03  0.46999998093E+01 0.  1.
       -5    1    3    3    0  502  0.49354501318E+03  0.25346083320E+03  0.11343444521E+04  0.12627701691E+04  0.46999998093E+01 0. -1.
</event>
<event>
 5   0  0.2431811E-04  0.1751355E+04  0.7818609E-02  0.8732605E-01
        2   -1    0    0  501    0  0.00000000000E+00  0.00000000000E+00  0.13622240129E+04  0.13622240129E+04  0.25500000920E-02 0.  1.
       -2   -1    0    0    0  501  0.00000000000E+00  0.00000000000E+00 -0.56291127505E+03  0.56291127506E+03  0.25500000920E-02 0. -1.
    10030    2    1    2    0    0  0.00000000000E+00  0.00000000000E+00  0.79931273781E+03  0.19251352879E+04  0.17513551964E+04 0.  0.
        3    1    3    3  502    0 -0.18482015088E+03  0.48108767051E+02  0.13390531308E+04  0.13526035040E+04  0.10100000352E+00 0.  1.
       -3    1    3    3    0  502  0.18482015088E+03 -0.48108767051E+02 -0.53974039298E+03  0.57253178397E+03  0.10100000352E+00 0. -1.
</event>
<event>
 5   0  0.1308893E-04  0.1795931E+04  0.7818609E-02  0.8708466E-01
       -1   -1    0    0    0  501  0.00000000000E+00  0.00000000000E+00  0.97723343777E+03  0.97723343778E+03  0.50400001928E-02 0.  1.
        1   -1    0    0  501    0  0.00000000000E+00  0.00000000000E+00 -0.82512760579E+03  0.82512760580E+03  0.50400001928E-02 0. -1.
    10030    2    1    2    0    0  0.00000000000E+00  0.00000000000E+00  0.15210583198E+03  0.18023610436E+04  0.17959312758E+04 0.  0.
        4    1    3    3  502    0 -0.81434826416E+03 -0.18715068210E+03 -0.25398950100E+03  0.87332740291E+03  0.12699999809E+01 0.  1.
       -4    1    3    3    0  502  0.81434826416E+03  0.18715068210E+03  0.40609533297E+03  0.92903364068E+03  0.12699999809E+01 0. -1.
</event>
<event>
 5   0  0.2550616E-04  0.1799457E+04  0.7818609E-02  0.8706588E-01
        2   -1    0    0  501    0  0.00000000000E+00  0.00000000000E+00  0.99833141513E+03  0.99833141513E+03  0.25500000920E-02 0.  1.
       -2   -1    0    0    0  501  0.00000000000E+00  0.00000000000E+00 -0.81086414705E+03  0.81086414706E+03  0.25500000920E-02 0. -1.
    10030    2    1    2    0    0  0.00000000000E+00  0.00000000000E+00  0.18746726807E+03  0.18091955622E+04  0.17994567529E+04 0.  0.
        1    1    3    3  502    0  0.44995493116E+02  0.53338197506E+03  0.82082817905E+03  0.97993868444E+03  0.50400001928E-02 0.  1.
       -1    1    3    3    0  502 -0.44995493116E+02 -0.53338197506E+03 -0.63336091097E+03  0.82925687775E+03  0.50400001928E-02 0. -1.
</event>
<event>
 5   0  0.1308893E-04  0.2009428E+04  0.7818609E-02  0.8602225E-01
       -1   -1    0    0    0  501  0.00000000000E+00  0.00000000000E+00  0.10355241775E+04  0.10355241775E+04  0.50400001928E-02 0.  1.
        1   -1    0    0  501    0  0.00000000000E+00  0.00000000000E+00 -0.97482097811E+03  0.97482097813E+03  0.50400001928E-02 0. -1.
    10030    2    1    2    0    0  0.00000000000E+00  0.00000000000E+00  0.60703199360E+02  0.20103451556E+04  0.20094284676E+04 0.  0.
        4    1    3    3  502    0  0.31491940463E+03 -0.95243736668E+03  0.86394203645E+02  0.10068648073E+04  0.12699999809E+01 0. -1.
       -4    1    3    3    0  502 -0.31491940463E+03  0.95243736668E+03 -0.25691004285E+02  0.10034803483E+04  0.12699999809E+01 0.  1.
</event>
<event>
 5   0  0.2431811E-04  0.1811425E+04  0.7818609E-02  0.8700247E-01
       -2   -1    0    0    0  501  0.00000000000E+00  0.00000000000E+00  0.78280383377E+03  0.78280383378E+03  0.25500000920E-02 0. -1.
        2   -1    0    0  501    0  0.00000000000E+00  0.00000000000E+00 -0.10479190817E+04  0.10479190817E+04  0.25500000920E-02 0.  1.
    10030    2    1    2    0    0  0.00000000000E+00  0.00000000000E+00 -0.26511524797E+03  0.18307229155E+04  0.18114249360E+04 0.  0.
        3    1    3    3  502    0  0.26651529911E+03  0.68308531139E+03  0.40478233639E+03  0.83754683293E+03  0.10100000352E+00 0. -1.
       -3    1    3    3    0  502 -0.26651529911E+03 -0.68308531139E+03 -0.66989758436E+03  0.99317608259E+03  0.10100000352E+00 0.  1.
</event>
<event>
 5   0  0.2417106E-04  0.1804366E+04  0.7818609E-02  0.8703981E-01
        2   -1    0    0  501    0  0.00000000000E+00  0.00000000000E+00  0.12605225343E+04  0.12605225343E+04  0.25500000920E-02 0.  1.
       -2   -1    0    0    0  501  0.00000000000E+00  0.00000000000E+00 -0.64571155354E+03  0.64571155355E+03  0.25500000920E-02 0. -1.
    10030    2    1    2    0    0  0.00000000000E+00  0.00000000000E+00  0.61481098075E+03  0.19062340878E+04  0.18043657766E+04 0.  0.
        4    1    3    3  502    0  0.51896265611E+03  0.49204986724E+02 -0.47050028196E+03  0.70222182918E+03  0.12699999809E+01 0. -1.
       -4    1    3    3    0  502 -0.51896265611E+03 -0.49204986724E+02  0.10853112627E+04  0.12040122587E+04  0.12699999809E+01 0.  1.
</event>
<event>
 5   0  0.1214723E-04  0.1796223E+04  0.7818609E-02  0.8708310E-01
        1   -1    0    0  501    0  0.00000000000E+00  0.00000000000E+00  0.20455210926E+04  0.20455210926E+04  0.50400001928E-02 0. -1.
       -1   -1    0    0    0  501  0.00000000000E+00  0.00000000000E+00 -0.39432721937E+03  0.39432721940E+03  0.50400001928E-02 0.  1.
    10030    2    1    2    0    0  0.00000000000E+00  0.00000000000E+00  0.16511938732E+04  0.24398483120E+04  0.17962234211E+04 0.  0.
        1    1    3    3  502    0  0.80712496310E+03 -0.39105305627E+03  0.76143231523E+03  0.11765000508E+04  0.50400001928E-02 0. -1.
       -1    1    3    3    0  502 -0.80712496310E+03  0.39105305627E+03  0.88976155797E+03  0.12633482611E+04  0.50400001928E-02 0.  1.
</event>
<event>
 5   0  0.2550616E-04  0.1786911E+04  0.7818609E-02  0.8713291E-01
        2   -1    0    0  501    0  0.00000000000E+00  0.00000000000E+00  0.11324440302E+04  0.11324440302E+04  0.25500000920E-02 0. -1.
       -2   -1    0    0    0  501  0.00000000000E+00  0.00000000000E+00 -0.70490283120E+03  0.70490283120E+03  0.25500000920E-02 0.  1.
    10030    2    1    2    0    0  0.00000000000E+00  0.00000000000E+00  0.42754119904E+03  0.18373468614E+04  0.17869113051E+04 0.  0.
        1    1    3    3  502    0  0.48860614856E+03  0.12429709105E+03 -0.54466453912E+03  0.74218946062E+03  0.50400001928E-02 0.  1.
       -1    1    3    3    0  502 -0.48860614856E+03 -0.12429709105E+03  0.97220573815E+03  0.10951574008E+04  0.50400001928E-02 0. -1.
</event>
<event>
 5   0  0.1239119E-04  0.1903760E+04  0.7818609E-02  0.8652987E-01
       -1   -1    0    0    0  501  0.00000000000E+00  0.00000000000E+00  0.13366892759E+04  0.13366892759E+04  0.50400001928E-02 0. -1.
        1   -1    0    0  501    0  0.00000000000E+00  0.00000000000E+00 -0.67785081367E+03  0.67785081369E+03  0.50400001928E-02 0.  1.
    10030    2    1    2    0    0  0.00000000000E+00  0.00000000000E+00  0.65883846224E+03  0.20145400896E+04  0.19037603981E+04 0.  0.
        5    1    3    3  502    0 -0.70794449974E+03 -0.96064180473E+02 -0.33618146491E+03  0.78959091233E+03  0.46999998093E+01 0.  1.
       -5    1    3    3    0  502  0.70794449974E+03  0.96064180473E+02  0.99501992715E+03  0.12249491773E+04  0.46999998093E+01 0. -1.
</event>
<event>
 5   0  0.1239119E-04  0.1795977E+04  0.7818609E-02  0.8708442E-01
       -1   -1    0    0    0  501  0.00000000000E+00  0.00000000000E+00  0.12666105773E+04  0.12666105774E+04  0.50400001928E-02 0.  1.
        1   -1    0    0  501    0  0.00000000000E+00  0.00000000000E+00 -0.63664650746E+03  0.63664650748E+03  0.50400001928E-02 0. -1.
    10030    2    1    2    0    0  0.00000000000E+00  0.00000000000E+00  0.62996406989E+03  0.19032570848E+04  0.17959768377E+04 0.  0.
        5    1    3    3  502    0 -0.15926322003E+03  0.24770367674E+03  0.12139705377E+04  0.12491871121E+04  0.46999998093E+01 0.  1.
       -5    1    3    3    0  502  0.15926322003E+03 -0.24770367674E+03 -0.58400646781E+03  0.65406997269E+03  0.46999998093E+01 0. -1.
</event>
<event>
 5   0  0.1308893E-04  0.1806052E+04  0.7818609E-02  0.8703088E-01
        1   -1    0    0  501    0  0.00000000000E+00  0.00000000000E+00  0.99101922951E+03  0.99101922952E+03  0.50400001928E-02 0. -1.
       -1   -1    0    0    0  501  0.00000000000E+00  0.00000000000E+00 -0.82284582698E+03  0.82284582699E+03  0.50400001928E-02 0.  1.
    10030    2    1    2    0    0  0.00000000000E+00  0.00000000000E+00  0.16817340253E+03  0.18138650565E+04  0.18060520895E+04 0.  0.
        4    1    3    3  502    0  0.87327517470E+03 -0.21529252619E+03  0.31525940463E+01  0.89942868218E+03  0.12699999809E+01 0. -1.
       -4    1    3    3    0  502 -0.87327517470E+03  0.21529252619E+03  0.16502080849E+03  0.91443637434E+03  0.12699999809E+01 0.  1.
</event>
<event>
 5   0  0.1330225E-04  0.1821322E+04  0.7818609E-02  0.8695042E-01
       -1   -1    0    0    0  501  0.00000000000E+00  0.00000000000E+00  0.29565443113E+03  0.29565443117E+03  0.50400001928E-02 0. -1.
        1   -1    0    0  501    0  0.00000000000E+00  0.00000000000E+00 -0.28049766016E+04  0.28049766016E+04  0.50400001928E-02 0.  1.
    10030    2    1    2    0    0  0.00000000000E+00  0.00000000000E+00 -0.25093221704E+04  0.31006310327E+04  0.18213223345E+04 0.  0.
        3    1    3    3  502    0 -0.59290441398E+03  0.46274029585E+03 -0.38054615743E+03  0.84289952761E+03  0.10100000352E+00 0. -1.
       -3    1    3    3    0  502  0.59290441398E+03 -0.46274029585E+03 -0.21287760130E+04  0.22577315051E+04  0.10100000352E+00 0.  1.
</event>
<event>
 5   0  0.1330225E-04  0.1773993E+04  0.7818609E-02  0.8720253E-01
        1   -1    0    0  501    0  0.00000000000E+00  0.00000000000E+00  0.10918188923E+04  0.10918188923E+04  0.50400001928E-02 0. -1.
       -1   -1    0    0    0  501  0.00000000000E+00  0.00000000000E+00 -0.72059856850E+03  0.72059856852E+03  0.50400001928E-02 0.  1.
    10030    2    1    2    0    0  0.00000000000E+00  0.00000000000E+00  0.37122032380E+03  0.18124174608E+04  0.17739933832E+04 0.  0.
        3    1    3    3  502    0 -0.54108113346E+03  0.23083914100E+03  0.86384722883E+03  0.10451256130E+04  0.10100000352E+00 0. -1.
       -3    1    3    3    0  502  0.54108113346E+03 -0.23083914100E+03 -0.49262690502E+03  0.76729184784E+03  0.10100000352E+00 0.  1.
</event>
<event>
 5   0  0.1308893E-04  0.1795393E+04  0.7818609E-02  0.8708753E-01
        1   -1    0    0  501    0  0.00000000000E+00  0.00000000000E+00  0.15558123222E+04  0.15558123222E+04  0.50400001928E-02 0.  1.
       -1   -1    0    0    0  501  0.00000000000E+00  0.00000000000E+00 -0.51796694987E+03  0.51796694989E+03  0.50400001928E-02 0. -1.
    10030    2    1    2    0    0  0.00000000000E+00  0.00000000000E+00  0.10378453723E+04  0.20737792721E+04  0.17953933977E+04 0.  0.
        4    1    3    3  502    0  0.29427972846E+03  0.65556419328E+03  0.11403949830E+04  0.13479122005E+04  0.12699999809E+01 0.  1.
       -4    1    3    3    0  502 -0.29427972846E+03 -0.65556419328E+03 -0.10254961066E+03  0.72586707161E+03  0.12699999809E+01 0. -1.
</event>
<event>
 5   0  0.1330225E-04  0.1862293E+04  0.7818609E-02  0.8673857E-01
       -1   -1    0    0    0  501  0.00000000000E+00  0.00000000000E+00  0.75138879509E+03  0.75138879510E+03  0.50400001928E-02 0. -1.
        1   -1    0    0  501    0  0.00000000000E+00  0.00000000000E+00 -0.11539078106E+04  0.11539078106E+04  0.50400001928E-02 0.  1.
    10030    2    1    2    0    0  0.00000000000E+00  0.00000000000E+00 -0.40251901551E+03  0.19052966057E+04  0.18622925651E+04 0.  0.
        3    1    3    3  502    0  0.47064992522E+03  0.52393375864E+03  0.42191644175E+03  0.82099417146E+03  0.10100000352E+00 0. -1.
       -3    1    3    3    0  502 -0.47064992522E+03 -0.52393375864E+03 -0.82443545725E+03  0.10843024343E+04  0.10100000352E+00 0.  1.
</event>
<event>
 5   0  0.1214723E-04  0.1799001E+04  0.7818609E-02  0.8706831E-01
        1   -1    0    0  501    0  0.00000000000E+00  0.00000000000E+00  0.17040205001E+04  0.17040205001E+04  0.50400001928E-02 0.  1.
       -1   -1    0    0    0  501  0.00000000000E+00  0.00000000000E+00 -0.47481871698E+03  0.47481871701E+03  0.50400001928E-02 0. -1.
    10030    2    1    2    0    0  0.00000000000E+00  0.00000000000E+00  0.12292017831E+04  0.21788392171E+04  0.17990006421E+04 0.  0.
        1    1    3    3  502    0  0.35189491594E+03 -0.15159884373E+03 -0.37103724848E+03  0.53336749158E+03  0.50400001928E-02 0. -1.
       -1    1    3    3    0  502 -0.35189491594E+03  0.15159884373E+03  0.16002390316E+04  0.16454717255E+04  0.50400001928E-02 0.  1.
</event>
<event>
 5   0  0.1239119E-04  0.1766107E+04  0.7818609E-02  0.8724534E-01
       -1   -1    0    0    0  501  0.00000000000E+00  0.00000000000E+00  0.10695195432E+04  0.10695195433E+04  0.50400001928E-02 0. -1.
        1   -1    0    0  501    0  0.00000000000E+00  0.00000000000E+00 -0.72909732240E+03  0.72909732241E+03  0.50400001928E-02 0.  1.
    10030    2    1    2    0    0  0.00000000000E+00  0.00000000000E+00  0.34042222084E+03  0.17986168657E+04  0.17661073979E+04 0.  0.
        5    1    3    3  502    0 -0.61046118433E+03  0.17151688502E+03  0.79608096183E+03  0.10177661260E+04  0.46999998093E+01 0. -1.
       -5    1    3    3    0  502  0.61046118433E+03 -0.17151688502E+03 -0.45565874099E+03  0.78085073968E+03  0.46999998093E+01 0.  1.
</event>
<event>
 5   0  0.2431811E-04  0.1807471E+04  0.7818609E-02  0.8702337E-01
        2   -1    0    0  501    0  0.00000000000E+00  0.00000000000E+00  0.59870070685E+03  0.59870070685E+03  0.25500000920E-02 0. -1.
       -2   -1    0    0    0  501  0.00000000000E+00  0.00000000000E+00 -0.13641833404E+04  0.13641833404E+04  0.25500000920E-02 0.  1.
    10030    2    1    2    0    0  0.00000000000E+00  0.00000000000E+00 -0.76548263355E+03  0.19628840472E+04  0.18074706417E+04 0.  0.
        3    1    3    3  502    0 -0.36295894005E+03  0.82146845314E+03 -0.49235528678E+03  0.10241891184E+04  0.10100000352E+00 0. -1.
       -3    1    3    3    0  502  0.36295894005E+03 -0.82146845314E+03 -0.27312734677E+03  0.93869492883E+03  0.10100000352E+00 0.  1.
</event>
<event>
 5   0  0.2569405E-04  0.1793650E+04  0.7818609E-02  0.8709684E-01
        2   -1    0    0  501    0  0.00000000000E+00  0.00000000000E+00  0.81267814986E+03  0.81267814987E+03  0.25500000920E-02 0.  1.
       -2   -1    0    0    0  501  0.00000000000E+00  0.00000000000E+00 -0.98968453645E+03  0.98968453645E+03  0.25500000920E-02 0. -1.
    10030    2    1    2    0    0  0.00000000000E+00  0.00000000000E+00 -0.17700638659E+03  0.18023626863E+04  0.17936499079E+04 0.  0.
        2    1    3    3  502    0  0.89020877016E+03  0.10687381092E+03 -0.10863378105E+03  0.90315832738E+03  0.25500000920E-02 0. -1.
       -2    1    3    3    0  502 -0.89020877016E+03 -0.10687381092E+03 -0.68372605531E+02  0.89920435893E+03  0.25500000920E-02 0.  1.
</event>
<event>
 5   0  0.1239119E-04  0.1801106E+04  0.7818609E-02  0.8705712E-01
        1   -1    0    0  501    0  0.00000000000E+00  0.00000000000E+00  0.14642784098E+04  0.14642784098E+04  0.50400001928E-02 0. -1.
       -1   -1    0    0    0  501  0.00000000000E+00  0.00000000000E+00 -0.55385350855E+03  0.55385350857E+03  0.50400001928E-02 0.  1.
    10030    2    1    2    0    0  0.00000000000E+00  0.00000000000E+00  0.91042490122E+03  0.20181319183E+04  0.18011060322E+04 0.  0.
        5    1    3    3  502    0  0.45702947933E+03  0.21652726732E+03 -0.37969884132E+03  0.63241861339E+03  0.46999998093E+01 0.  1.
       -5    1    3    3    0  502 -0.45702947933E+03 -0.21652726732E+03  0.12901237425E+04  0.13857133050E+04  0.46999998093E+01 0. -1.
</event>
<event>
 5   0  0.2431811E-04  0.1795646E+04  0.7818609E-02  0.8708619E-01
        2   -1    0    0  501    0  0.00000000000E+00  0.00000000000E+00  0.12937857414E+04  0.12937857414E+04  0.25500000920E-02 0. -1.
       -2   -1    0    0    0  501  0.00000000000E+00  0.00000000000E+00 -0.62304421792E+03  0.62304421793E+03  0.25500000920E-02 0.  1.
    10030    2    1    2    0    0  0.00000000000E+00  0.00000000000E+00  0.67074152344E+03  0.19168299593E+04  0.17956455390E+04 0.  0.
        3    1    3    3  502    0  0.74617669632E+02 -0.20116482846E+03  0.12660161712E+04  0.12840685499E+04  0.10100000352E+00 0. -1.
       -3    1    3    3    0  502 -0.74617669632E+02  0.20116482846E+03 -0.59527464774E+03  0.63276140944E+03  0.10100000352E+00 0.  1.
</event>
<event>
 5   0  0.2550616E-04  0.1787966E+04  0.7818609E-02  0.8712725E-01
        2   -1    0    0  501    0  0.00000000000E+00  0.00000000000E+00  0.10248654164E+04  0.10248654164E+04  0.25500000920E-02 0.  1.
       -2   -1    0    0    0  501  0.00000000000E+00  0.00000000000E+00 -0.77981513369E+03  0.77981513370E+03  0.25500000920E-02 0. -1.
    10030    2    1    2    0    0  0.00000000000E+00  0.00000000000E+00  0.24505028274E+03  0.18046805501E+04  0.17879659524E+04 0.  0.
        1    1    3    3  502    0 -0.61313662942E+02 -0.21326965077E+03  0.99662448828E+03  0.10210306949E+04  0.50400001928E-02 0.  1.
       -1    1    3    3    0  502  0.61313662942E+02  0.21326965077E+03 -0.75157420554E+03  0.78364985527E+03  0.50400001928E-02 0. -1.
</event>
<event>
 5   0  0.2417106E-04  0.1799351E+04  0.7818609E-02  0.8706644E-01
        2   -1    0    0  501    0  0.00000000000E+00  0.00000000000E+00  0.11430597104E+04  0.11430597104E+04  0.25500000920E-02 0. -1.
       -2   -1    0    0    0  501  0.00000000000E+00  0.00000000000E+00 -0.70811381940E+03  0.70811381941E+03  0.25500000920E-02 0.  1.
    10030    2    1    2    0    0  0.00000000000E+00  0.00000000000E+00  0.43494589096E+03  0.18511735298E+04  0.17993514135E+04 0.  0.
        4    1    3    3  502    0 -0.10485853299E+03  0.88076839451E+02 -0.69732789378E+03  0.71064804646E+03  0.12699999809E+01 0.  1.
       -4    1    3    3    0  502  0.10485853299E+03 -0.88076839451E+02  0.11322737847E+04  0.11405254833E+04  0.12699999809E+01 0. -1.
</event>
<event>
 5   0  0.2569405E-04  0.1815019E+04  0.7818609E-02  0.8698353E-01
       -2   -1    0    0    0  501  0.00000000000E+00  0.00000000000E+00  0.58572224661E+03  0.58572224661E+03  0.25500000920E-02 0. -1.
        2   -1    0    0  501    0  0.00000000000E+00  0.00000000000E+00 -0.14060817683E+04  0.14060817683E+04  0.25500000920E-02 0.  1.
    10030    2    1    2    0    0  0.00000000000E+00  0.00000000000E+00 -0.82035952165E+03  0.19918040149E+04  0.18150188674E+04 0.  0.
        2    1    3    3  502    0 -0.36091358005E+03 -0.88620815880E+02 -0.13187465746E+04  0.13701112324E+04  0.25500000920E-02 0.  1.
       -2    1    3    3    0  502  0.36091358005E+03  0.88620815880E+02  0.49838705290E+03  0.62169278247E+03  0.25500000920E-02 0. -1.
</event>
<event>
 5   0  0.1239119E-04  0.1992053E+04  0.7818609E-02  0.8610345E-01
        1   -1    0    0  501    0  0.00000000000E+00  0.00000000000E+00  0.46110538684E+03  0.46110538686E+03  0.50400001928E-02 0. -1.
       -1   -1    0    0    0  501  0.00000000000E+00  0.00000000000E+00 -0.21515019332E+04  0.21515019332E+04  0.50400001928E-02 0.  1.
    10030    2    1    2    0    0  0.00000000000E+00  0.00000000000E+00 -0.16903965463E+04  0.26126073200E+04  0.19920533439E+04 0.  0.
        5    1    3    3  502    0  0.46522835689E+03 -0.85147495518E+03 -0.55018027590E+03  0.11154225430E+04  0.46999998093E+01 0. -1.
       -5    1    3    3    0  502 -0.46522835689E+03  0.85147495518E+03 -0.11402162704E+04  0.14971847771E+04  0.46999998093E+01 0.  1.
</event>
<event>
 5   0  0.2569405E-04  0.1783289E+04  0.7818609E-02  0.8715237E-01
       -2   -1    0    0    0  501  0.00000000000E+00  0.00000000000E+00  0.62216960490E+03  0.62216960491E+03  0.25500000920E-02 0. -1.
        2   -1    0    0  501    0  0.00000000000E+00  0.00000000000E+00 -0.12778341334E+04  0.12778341334E+04  0.25500000920E-02 0.  1.
    10030    2    1    2    0    0  0.00000000000E+00  0.00000000000E+00 -0.65566452854E+03  0.19000037384E+04  0.17832886002E+04 0.  0.
        2    1    3    3  502    0  0.59103998357E+03 -0.27997558912E+03 -0.97356400354E+03  0.11728347973E+04  0.25500000920E-02 0. -1.
       -2    1    3    3    0  502 -0.59103998357E+03  0.27997558912E+03  0.31789947500E+03  0.72716894109E+03  0.25500000920E-02 0.  1.
</event>
<event>
 5   0  0.1239119E-04  0.1812928E+04  0.7818609E-02  0.8699454E-01
        1   -1    0    0  501    0  0.00000000000E+00  0.00000000000E+00  0.56257406603E+03  0.56257406605E+03  0.50400001928E-02 0. -1.
       -1   -1    0    0    0  501  0.00000000000E+00  0.00000000000E+00 -0.14605672205E+04  0.14605672205E+04  0.50400001928E-02 0.  1.
    10030    2    1    2    0    0  0.00000000000E+00  0.00000000000E+00 -0.89799315444E+03  0.20231412865E+04  0.18129282831E+04 0.  0.
        5    1    3    3  502    0 -0.30561567693E+03  0.28127321041E+03 -0.13481103217E+04  0.14106520090E+04  0.46999998093E+01 0.  1.
       -5    1    3    3    0  502  0.30561567693E+03 -0.28127321041E+03  0.45011716726E+03  0.61248927757E+03  0.46999998093E+01 0. -1.
</event>
<event>
 5   0  0.1253925E-04  0.1712835E+04  0.7818609E-02  0.8754078E-01
       -1   -1    0    0    0  501  0.00000000000E+00  0.00000000000E+00  0.41736692314E+03  0.41736692317E+03  0.50400001928E-02 0.  1.
        1   -1    0    0  501    0  0.00000000000E+00  0.00000000000E+00 -0.17573286046E+04  0.17573286046E+04  0.50400001928E-02 0. -1.
    10030    2    1    2    0    0  0.00000000000E+00  0.00000000000E+00 -0.13399616815E+04  0.21746955278E+04  0.17128348814E+04 0.  0.
        2    1    3    3  502    0  0.16248598643E+03  0.62416349359E+03 -0.13853556988E+04  0.15281335591E+04  0.25500000920E-02 0.  1.
       -2    1    3    3    0  502 -0.16248598643E+03 -0.62416349359E+03  0.45394017259E+02  0.64656196867E+03  0.25500000920E-02 0. -1.
</event>
<event>
 5   0  0.1253925E-04  0.1783885E+04  0.7818609E-02  0.8714916E-01
        1   -1    0    0  501    0  0.00000000000E+00  0.00000000000E+00  0.25501249541E+04  0.25501249541E+04  0.50400001928E-02 0.  1.
       -1   -1    0    0    0  501  0.00000000000E+00  0.00000000000E+00 -0.31196974703E+03  0.31196974707E+03  0.50400001928E-02 0. -1.
    10030    2    1    2    0    0  0.00000000000E+00  0.00000000000E+00  0.22381552071E+04  0.28620947012E+04  0.17838854637E+04 0.  0.
        2    1    3    3  502    0  0.49015753978E+03 -0.61612887119E+03  0.44657524175E+03  0.90515117316E+03  0.25500000920E-02 0.  1.
       -2    1    3    3    0  502 -0.49015753978E+03  0.61612887119E+03  0.17915799653E+04  0.19569435280E+04  0.25500000920E-02 0. -1.
</event>
<event>
 5   0  0.1308893E-04  0.1785978E+04  0.7818609E-02  0.8713792E-01
        1   -1    0    0  501    0  0.00000000000E+00  0.00000000000E+00  0.56562826241E+03  0.56562826244E+03  0.50400001928E-02 0. -1.
       -1   -1    0    0    0  501  0.00000000000E+00  0.00000000000E+00 -0.14098110692E+04  0.14098110692E+04  0.50400001928E-02 0.  1.
    10030    2    1    2    0    0  0.00000000000E+00  0.00000000000E+00 -0.84418280681E+03  0.19754393317E+04  0.17859775871E+04 0.  0.
        4    1    3    3  502    0  0.76126511606E+02 -0.41558146176E+03  0.44808322280E+03  0.61585987415E+03  0.12699999809E+01 0. -1.
       -4    1    3    3    0  502 -0.76126511606E+02  0.41558146176E+03 -0.12922660296E+04  0.13595794575E+04  0.12699999809E+01 0.  1.
</event>
<event>
 5   0  0.2550616E-04  0.1760520E+04  0.7818609E-02  0.8727581E-01
       -2   -1    0    0    0  501  0.00000000000E+00  0.00000000000E+00  0.54195579898E+03  0.54195579898E+03  0.25500000920E-02 0. -1.
        2   -1    0    0  501    0  0.00000000000E+00  0.00000000000E+00 -0.14297426630E+04  0.14297426630E+04  0.25500000920E-02 0.  1.
    10030    2    1    2    0    0  0.00000000000E+00  0.00000000000E+00 -0.88778686403E+03  0.19716984620E+04  0.17605196134E+04 0.  0.
        1    1    3    3  502    0  0.31752765924E+03  0.70131516040E+03 -0.92193158935E+03  0.12010930955E+04  0.50400001928E-02 0.  1.
       -1    1    3    3    0  502 -0.31752765924E+03 -0.70131516040E+03  0.34144725320E+02  0.77060536650E+03  0.50400001928E-02 0. -1.
</event>
<event>
 5   0  0.2417106E-04  0.1743839E+04  0.7818609E-02  0.8736749E-01
       -2   -1    0    0    0  501  0.00000000000E+00  0.00000000000E+00  0.77648889934E+03  0.77648889934E+03  0.25500000920E-02 0.  1.
        2   -1    0    0  501    0  0.00000000000E+00  0.00000000000E+00 -0.97907859283E+03  0.97907859284E+03  0.25500000920E-02 0. -1.
    10030    2    1    2    0    0  0.00000000000E+00  0.00000000000E+00 -0.20258969350E+03  0.17555674922E+04  0.17438390510E+04 0.  0.
        4    1    3    3  502    0 -0.24596252285E+03 -0.81305896096E+03  0.96699217857E+02  0.85493554627E+03  0.12699999809E+01 0.  1.
       -4    1    3    3    0  502  0.24596252285E+03  0.81305896096E+03 -0.29928891135E+03  0.90063194591E+03  0.12699999809E+01 0. -1.
</event>
<event>
 5   0  0.1330225E-04  0.1776478E+04  0.7818609E-02  0.8718909E-01
        1   -1    0    0  501    0  0.00000000000E+00  0.00000000000E+00  0.24421795365E+04  0.24421795365E+04  0.50400001928E-02 0. -1.
       -1   -1    0    0    0  501  0.00000000000E+00  0.00000000000E+00 -0.32305918052E+03  0.32305918056E+03  0.50400001928E-02 0.  1.
    10030    2    1    2    0    0  0.00000000000E+00  0.00000000000E+00  0.21191203560E+04  0.27652387171E+04  0.17764779985E+04 0.  0.
        3    1    3    3  502    0 -0.57177736407E+03 -0.51785339249E+03  0.17449296602E+04  0.19078472212E+04  0.10100000352E+00 0. -1.
       -3    1    3    3    0  502  0.57177736407E+03  0.51785339249E+03  0.37419069579E+03  0.85739149588E+03  0.10100000352E+00 0.  1.
</event>
<event>
 5   0  0.2431811E-04  0.1789093E+04  0.7818609E-02  0.8712121E-01
       -2   -1    0    0    0  501  0.00000000000E+00  0.00000000000E+00  0.76561266728E+03  0.76561266728E+03  0.25500000920E-02 0.  1.
        2   -1    0    0  501    0  0.00000000000E+00  0.00000000000E+00 -0.10451937815E+04  0.10451937815E+04  0.25500000920E-02 0. -1.
    10030    2    1    2    0    0  0.00000000000E+00  0.00000000000E+00 -0.27958111418E+03  0.18108064487E+04  0.17890931768E+04 0.  0.
        3    1    3    3  502    0 -0.62073219440E+03 -0.52329890002E+03  0.24035177568E+03  0.84671080199E+03  0.10100000352E+00 0.  1.
       -3    1    3    3    0  502  0.62073219440E+03  0.52329890002E+03 -0.51993288986E+03  0.96409564675E+03  0.10100000352E+00 0. -1.
</event>
<event>
 5   0  0.1330225E-04  0.1796588E+04  0.7818609E-02  0.8708116E-01
        1   -1    0    0  501    0  0.00000000000E+00  0.00000000000E+00  0.18690257673E+04  0.18690257673E+04  0.50400001928E-02 0. -1.
       -1   -1    0    0    0  501  0.00000000000E+00  0.00000000000E+00 -0.43173957773E+03  0.43173957776E+03  0.50400001928E-02 0.  1.
    10030    2    1    2    0    0  0.00000000000E+00  0.00000000000E+00  0.14372861896E+04  0.23007653451E+04  0.17965883174E+04 0.  0.
        3    1    3    3  502    0 -0.69209607844E+03  0.35790706257E+03  0.12911262679E+04  0.15080124326E+04  0.10100000352E+00 0. -1.
       -3    1    3    3    0  502  0.69209607844E+03 -0.35790706257E+03  0.14615992169E+03  0.79275291241E+03  0.10100000352E+00 0.  1.
</event>
<event>
 5   0  0.1253925E-04  0.1800644E+04  0.7818609E-02  0.8705957E-01
        1   -1    0    0  501    0  0.00000000000E+00  0.00000000000E+00  0.15016497891E+04  0.15016497892E+04  0.50400001928E-02 0.  1.
       -1   -1    0    0    0  501  0.00000000000E+00  0.00000000000E+00 -0.53979298317E+03  0.53979298319E+03  0.50400001928E-02 0. -1.
    10030    2    1    2    0    0  0.00000000000E+00  0.00000000000E+00  0.96185680598E+03  0.20414427723E+04  0.18006443507E+04 0.  0.
        2    1    3    3  502    0 -0.47501645967E+02 -0.23357379418E+03 -0.50337230403E+03  0.55695314001E+03  0.25500000920E-02 0. -1.
       -2    1    3    3    0  502  0.47501645967E+02  0.23357379418E+03  0.14652291100E+04  0.14844896323E+04  0.25500000920E-02 0.  1.
</event>
<event>
 5   0  0.2569405E-04  0.1806859E+04  0.7818609E-02  0.8702661E-01
       -2   -1    0    0    0  501  0.00000000000E+00  0.00000000000E+00  0.45239938722E+03  0.45239938723E+03  0.25500000920E-02 0. -1.
        2   -1    0    0  501    0  0.00000000000E+00  0.00000000000E+00 -0.18041242267E+04  0.18041242267E+04  0.25500000920E-02 0.  1.
    10030    2    1    2    0    0  0.00000000000E+00  0.00000000000E+00 -0.13517248395E+04  0.22565236140E+04  0.18068588154E+04 0.  0.
        2    1    3    3  502    0 -0.47102060629E+03 -0.22121124845E+03  0.24643118241E+03  0.57578047523E+03  0.25500000920E-02 0. -1.
       -2    1    3    3    0  502  0.47102060629E+03  0.22121124845E+03 -0.15981560219E+04  0.16807431387E+04  0.25500000920E-02 0.  1.
</event>
<event>
 5   0  0.1239119E-04  0.1805159E+04  0.7818609E-02  0.8703561E-01
       -1   -1    0    0    0  501  0.00000000000E+00  0.00000000000E+00  0.60200859056E+03  0.60200859059E+03  0.50400001928E-02 0.  1.
        1   -1    0    0  501    0  0.00000000000E+00  0.00000000000E+00 -0.13532201437E+04  0.13532201437E+04  0.50400001928E-02 0. -1.
    10030    2    1    2    0    0  0.00000000000E+00  0.00000000000E+00 -0.75121155315E+03  0.19552287343E+04  0.18051594406E+04 0.  0.
        5    1    3    3  502    0  0.53656603731E+03  0.51248444305E+03 -0.93221907606E+03  0.11914688047E+04  0.46999998093E+01 0. -1.
       -5    1    3    3    0  502 -0.53656603731E+03 -0.51248444305E+03  0.18100752290E+03  0.76375992963E+03  0.46999998093E+01 0.  1.
</event>
<event>
 5   0  0.1214723E-04  0.1816316E+04  0.7818609E-02  0.8697671E-01
        1   -1    0    0  501    0  0.00000000000E+00  0.00000000000E+00  0.65887707151E+03  0.65887707152E+03  0.50400001928E-02 0.  1.
       -1   -1    0    0    0  501  0.00000000000E+00  0.00000000000E+00 -0.12517517261E+04  0.12517517262E+04  0.50400001928E-02 0. -1.
    10030    2    1    2    0    0  0.00000000000E+00  0.00000000000E+00 -0.59287465464E+03  0.19106287977E+04  0.18163155140E+04 0.  0.
        1    1    3    3  502    0 -0.73074626953E+03  0.27359386451E+03 -0.78522268291E+03  0.11069861674E+04  0.50400001928E-02 0. -1.
       -1    1    3    3    0  502  0.73074626953E+03 -0.27359386451E+03  0.19234802827E+03  0.80364263024E+03  0.50400001928E-02 0.  1.
</event>
<event>
 5   0  0.2417106E-04  0.1787441E+04  0.7818609E-02  0.8713007E-01
        2   -1    0    0  501    0  0.00000000000E+00  0.00000000000E+00  0.81606880899E+03  0.81606880899E+03  0.25500000920E-02 0.  1.
       -2   -1    0    0    0  501  0.00000000000E+00  0.00000000000E+00 -0.97876100804E+03  0.97876100805E+03  0.25500000920E-02 0. -1.
    10030    2    1    2    0    0  0.00000000000E+00  0.00000000000E+00 -0.16269219906E+03  0.17948298170E+04  0.17874409978E+04 0.  0.
        4    1    3    3  502    0 -0.61393807607E+02 -0.88123121709E+03 -0.21754254364E+03  0.90976042384E+03  0.12699999809E+01 0. -1.
       -4    1    3    3    0  502  0.61393807607E+02  0.88123121709E+03  0.54850344583E+02  0.88506939320E+03  0.12699999809E+01 0.  1.
</event>
<event>
 5   0  0.1214723E-04  0.1802242E+04  0.7818609E-02  0.8705108E-01
        1   -1    0    0  501    0  0.00000000000E+00  0.00000000000E+00  0.15606556901E+04  0.15606556901E+04  0.50400001928E-02 0. -1.
       -1   -1    0    0    0  501  0.00000000000E+00  0.00000000000E+00 -0.52030606075E+03  0.52030606078E+03  0.50400001928E-02 0.  1.
    10030    2    1    2    0    0  0.00000000000E+00  0.00000000000E+00  0.10403496294E+04  0.20809617509E+04  0.18022415092E+04 0.  0.
        1    1    3    3  502    0 -0.72386115441E+03  0.24093997132E+03 -0.33566684324E+02  0.76364505038E+03  0.50400001928E-02 0.  1.
       -1    1    3    3    0  502  0.72386115441E+03 -0.24093997132E+03  0.10739163137E+04  0.13173167005E+04  0.50400001928E-02 0. -1.
</event>
<event>
 5   0  0.2417106E-04  0.1553995E+04  0.7818609E-02  0.8849320E-01
        2   -1    0    0  501    0  0.00000000000E+00  0.00000000000E+00  0.12599386406E+04  0.12599386406E+04  0.25500000920E-02 0.  1.
       -2   -1    0    0    0  501  0.00000000000E+00  0.00000000000E+00 -0.47917047252E+03  0.47917047253E+03  0.25500000920E-02 0. -1.
    10030    2    1    2    0    0  0.00000000000E+00  0.00000000000E+00  0.78076816812E+03  0.17391091132E+04  0.15539953588E+04 0.  0.
        4    1    3    3  502    0 -0.18289245476E+03  0.53107258515E+03  0.99121359375E+03  0.11392952831E+04  0.12699999809E+01 0.  1.
       -4    1    3    3    0  502  0.18289245476E+03 -0.53107258515E+03 -0.21044542563E+03  0.59981383010E+03  0.12699999809E+01 0. -1.
</event>
<event>
 5   0  0.2393421E-04  0.1807099E+04  0.7818609E-02  0.8702533E-01
        2   -1    0    0  501    0  0.00000000000E+00  0.00000000000E+00  0.91728179783E+03  0.91728179784E+03  0.25500000920E-02 0. -1.
       -2   -1    0    0    0  501  0.00000000000E+00  0.00000000000E+00 -0.89002287148E+03  0.89002287148E+03  0.25500000920E-02 0.  1.
    10030    2    1    2    0    0  0.00000000000E+00  0.00000000000E+00  0.27258926352E+02  0.18073046693E+04  0.18070990893E+04 0.  0.
        5    1    3    3  502    0  0.73903935948E+03  0.31965525714E+03 -0.39632085397E+03  0.89746920146E+03  0.46999998093E+01 0.  1.
       -5    1    3    3    0  502 -0.73903935948E+03 -0.31965525714E+03  0.42357978032E+03  0.90983546786E+03  0.46999998093E+01 0. -1.
</event>
<event>
 5   0  0.1308893E-04  0.1797039E+04  0.7818609E-02  0.8707875E-01
        1   -1    0    0  501    0  0.00000000000E+00  0.00000000000E+00  0.68497214826E+03  0.68497214828E+03  0.50400001928E-02 0.  1.
       -1   -1    0    0    0  501  0.00000000000E+00  0.00000000000E+00 -0.11786429579E+04  0.11786429579E+04  0.50400001928E-02 0. -1.
    10030    2    1    2    0    0  0.00000000000E+00  0.00000000000E+00 -0.49367080967E+03  0.18636151062E+04  0.17970393417E+04 0.  0.
        4    1    3    3  502    0  0.69972811199E+02  0.77395047249E+03 -0.71458917796E+03  0.10557153188E+04  0.12699999809E+01 0. -1.
       -4    1    3    3    0  502 -0.69972811199E+02 -0.77395047249E+03  0.22091836829E+03  0.80789978743E+03  0.12699999809E+01 0.  1.
</event>
<event>
 5   0  0.2393421E-04  0.1790549E+04  0.7818609E-02  0.8711342E-01
        2   -1    0    0  501    0  0.00000000000E+00  0.00000000000E+00  0.12145745977E+04  0.12145745977E+04  0.25500000920E-02 0. -1.
       -2   -1    0    0    0  501  0.00000000000E+00  0.00000000000E+00 -0.65991526641E+03  0.65991526641E+03  0.25500000920E-02 0.  1.
    10030    2    1    2    0    0  0.00000000000E+00  0.00000000000E+00  0.55465933126E+03  0.18744898641E+04  0.17905488759E+04 0.  0.
        5    1    3    3  502    0  0.62139194768E+03  0.24033096172E+03  0.90336681792E+03  0.11224885841E+04  0.46999998093E+01 0. -1.
       -5    1    3    3    0  502 -0.62139194768E+03 -0.24033096172E+03 -0.34870748665E+03  0.75200127995E+03  0.46999998093E+01 0.  1.
</event>
<event>
 5   0  0.9144875E-05  0.1758211E+04  0.7818609E-02  0.8728843E-01
       -4   -1    0    0    0  501  0.00000000000E+00  0.00000000000E+00  0.12676333034E+04  0.12676339396E+04  0.12699999809E+01 0.  1.
        4   -1    0    0  501    0  0.00000000000E+00  0.00000000000E+00 -0.60965968966E+03  0.60966101245E+03  0.12699999809E+01 0. -1.
    10030    2    1    2    0    0  0.00000000000E+00  0.00000000000E+00  0.65797361375E+03  0.18772949520E+04  0.17582113242E+04 0.  0.
        5    1    3    3  502    0  0.21749212588E+03  0.77031560519E+03 -0.59108763035E+02  0.80262375512E+03  0.46999998093E+01 0.  1.
       -5    1    3    3    0  502 -0.21749212588E+03 -0.77031560519E+03  0.71708237679E+03  0.10746711969E+04  0.46999998093E+01 0. -1.
</event>
<event>
 5   0  0.2569405E-04  0.1797983E+04  0.7818609E-02  0.8707373E-01
       -2   -1    0    0    0  501  0.00000000000E+00  0.00000000000E+00  0.85640834536E+03  0.85640834537E+03  0.25500000920E-02 0. -1.
        2   -1    0    0  501    0  0.00000000000E+00  0.00000000000E+00 -0.94369157910E+03  0.94369157911E+03  0.25500000920E-02 0.  1.
    10030    2    1    2    0    0  0.00000000000E+00  0.00000000000E+00 -0.87283233740E+02  0.18000999245E+04  0.17979825848E+04 0.  0.
        2    1    3    3  502    0  0.67770481247E+03  0.22587786833E+03 -0.59006884262E+03  0.92654512210E+03  0.25500000920E-02 0.  1.
       -2    1    3    3    0  502 -0.67770481247E+03 -0.22587786833E+03  0.50278560888E+03  0.87355480237E+03  0.25500000920E-02 0. -1.
</event>
<event>
 5   0  0.1239119E-04  0.1789812E+04  0.7818609E-02  0.8711736E-01
        1   -1    0    0  501    0  0.00000000000E+00  0.00000000000E+00  0.76067484866E+03  0.76067484868E+03  0.50400001928E-02 0.  1.
       -1   -1    0    0    0  501  0.00000000000E+00  0.00000000000E+00 -0.10528245737E+04  0.10528245737E+04  0.50400001928E-02 0. -1.
    10030    2    1    2    0    0  0.00000000000E+00  0.00000000000E+00 -0.29214972507E+03  0.18134994224E+04  0.17898124743E+04 0.  0.
        5    1    3    3  502    0  0.68340656218E+03 -0.44029752046E+03 -0.52509580681E+03  0.96780893367E+03  0.46999998093E+01 0. -1.
       -5    1    3    3    0  502 -0.68340656218E+03  0.44029752046E+03  0.23294608174E+03  0.84569048875E+03  0.46999998093E+01 0.  1.
</event>
</LesHouchesEvents>
