<LesHouchesEvents version="3.0">
<header>
<!--
#*********************************************************************
#                                                                    *
#                        MadGraph5_aMC@NLO                           *
#                                                                    *
#                           Going Beyond                             *
#                                                                    *
#                   http://madgraph.hep.uiuc.edu                     *
#                   http://madgraph.phys.ucl.ac.be                   *
#                   http://amcatnlo.cern.ch                          *
#                                                                    *
#                     The MadGraph5_aMC@NLO team                     *
#                                                                    *
#....................................................................*
#                                                                    *
# This file contains all the information necessary to reproduce      *
# the events generated:                                              *
#                                                                    *
# 1. software version                                                *
# 2. proc_card          : code generation info including model       *
# 3. param_card         : model primary parameters in the LH format  *
# 4. run_card           : running parameters (collider and cuts)     *
# 5. pythia_card        : present only if pythia has been run        *
# 6. pgs_card           : present only if pgs has been run           *
# 7. delphes_cards      : present only if delphes has been run       *
#                                                                    *
#                                                                    *
#*********************************************************************
-->
<MGVersion>
#5.2.2.3
</MGVersion>
<MG5ProcCard>
#************************************************************
#*                     MadGraph5_aMC@NLO                    *
#*                                                          *
#*                *                       *                 *
#*                  *        * *        *                   *
#*                    * * * * 5 * * * *                     *
#*                  *        * *        *                   *
#*                *                       *                 *
#*                                                          *
#*                                                          *
#*         VERSION 2.2.3                 2015-02-10         *
#*                                                          *
#*    The MadGraph5_aMC@NLO Development Team - Find us at   *
#*    https://server06.fynu.ucl.ac.be/projects/madgraph     *
#*                                                          *
#************************************************************
#*                                                          *
#*               Command File for MadGraph5_aMC@NLO         *
#*                                                          *
#*     run as ./bin/mg5_aMC  filename                       *
#*                                                          *
#************************************************************
set group_subprocesses Auto
set ignore_six_quark_processes False
set loop_optimized_output True
set gauge unitary
set complex_mass_scheme False
import model sm
define p = g u c d s u~ c~ d~ s~
define j = g u c d s u~ c~ d~ s~
define l+ = e+ mu+
define l- = e- mu-
define vl = ve vm vt
define vl~ = ve~ vm~ vt~
import model Zprime_UFO
generate p p > zph, zph > j j
add process p p > zph, zph > b b~
output Dijet_signal
</MG5ProcCard>
<MGProcCard>
#*********************************************************************
#                        MadGraph/MadEvent                           *
#                   http://madgraph.hep.uiuc.edu                     *
#                                                                    *
#                          proc_card.dat                             *
#*********************************************************************
#                                                                    *
#            This Files is generated by MADGRAPH 5                   *
#                                                                    *
# WARNING: This Files is generated for MADEVENT (compatibility issue)*
#          This files is NOT a valid MG4 proc_card.dat               *
#          Running this in MG4 will NEVER reproduce the result of MG5*
#                                                                    *
#*********************************************************************
#*********************************************************************
# Process(es) requested : mg2 input                                  *
#*********************************************************************
# Begin PROCESS # This is TAG. Do not modify this line
p p > zph , zph > j j           #Process
# Be carefull the coupling are here in MG5 convention
          
end_coup           # End the couplings input

done               # this tells MG there are no more procs
# End PROCESS  # This is TAG. Do not modify this line
#*********************************************************************
# Model information                                                  *
#*********************************************************************
# Begin MODEL  # This is TAG. Do not modify this line
Zprime_UFO
# End   MODEL  # This is TAG. Do not modify this line
#*********************************************************************
# Start multiparticle definitions                                    *
#*********************************************************************
# Begin MULTIPARTICLES # This is TAG. Do not modify this line

# End  MULTIPARTICLES # This is TAG. Do not modify this line
</MGProcCard>
<MGRunCard>
#*********************************************************************
#                       MadGraph5_aMC@NLO                            *
#                                                                    *
#                     run_card.dat MadEvent                          *
#                                                                    *
#  This file is used to set the parameters of the run.               *
#                                                                    *
#  Some notation/conventions:                                        *
#                                                                    *
#   Lines starting with a '# ' are info or comments                  *
#                                                                    *
#   mind the format:   value    = variable     ! comment             *
#*********************************************************************
#
#*******************                                                 
# Running parameters
#*******************                                                 
#                                                                    
#*********************************************************************
# Tag name for the run (one word)                                    *
#*********************************************************************
  tag_1     = run_tag ! name of the run 
#*********************************************************************
# Run to generate the grid pack                                      *
#*********************************************************************
  .false.     = gridpack  !True = setting up the grid pack
#*********************************************************************
# Number of events and rnd seed                                      *
# Warning: Do not generate more than 1M events in a single run       *
# If you want to run Pythia, avoid more than 50k events in a run.    *
#*********************************************************************
  2000 = nevents ! Number of unweighted events requested 
 2577 = iseed   ! rnd seed (0=assigned automatically=default))
#*********************************************************************
# Collider type and energy                                           *
# lpp: 0=No PDF, 1=proton, -1=antiproton, 2=photon from proton,      *
#                                         3=photon from electron     *
#*********************************************************************
        1     = lpp1    ! beam 1 type 
        1     = lpp2    ! beam 2 type
     4000     = ebeam1  ! beam 1 total energy in GeV
     4000     = ebeam2  ! beam 2 total energy in GeV
#*********************************************************************
# Beam polarization from -100 (left-handed) to 100 (right-handed)    *
#*********************************************************************
        0     = polbeam1 ! beam polarization for beam 1
        0     = polbeam2 ! beam polarization for beam 2
#*********************************************************************
# PDF CHOICE: this automatically fixes also alpha_s and its evol.    *
#*********************************************************************
 'nn23lo1'    = pdlabel     ! PDF set                                     
 230000    = lhaid     ! if pdlabel=lhapdf, this is the lhapdf number
#*********************************************************************
# Renormalization and factorization scales                           *
#*********************************************************************
 F        = fixed_ren_scale  ! if .true. use fixed ren scale
 F        = fixed_fac_scale  ! if .true. use fixed fac scale
 91.1880  = scale            ! fixed ren scale
 91.1880  = dsqrt_q2fact1    ! fixed fact scale for pdf1
 91.1880  = dsqrt_q2fact2    ! fixed fact scale for pdf2
 1        = scalefact        ! scale factor for event-by-event scales
#*********************************************************************
# Matching - Warning! ickkw > 1 is still beta
#*********************************************************************
 0        = ickkw            ! 0 no matching, 1 MLM, 2 CKKW matching
 1        = highestmult      ! for ickkw=2, highest mult group
 1        = ktscheme         ! for ickkw=1, 1 Durham kT, 2 Pythia pTE
 1        = alpsfact         ! scale factor for QCD emission vx
 F        = chcluster        ! cluster only according to channel diag
 T        = pdfwgt           ! for ickkw=1, perform pdf reweighting
 5        = asrwgtflavor     ! highest quark flavor for a_s reweight
 T        = clusinfo         ! include clustering tag in output
 3.0      = lhe_version       ! Change the way clustering information pass to shower.        
#*********************************************************************
#**********************************************************
#
#**********************************************************
# Automatic ptj and mjj cuts if xqcut > 0
# (turn off for VBF and single top processes)
#**********************************************************
   T  = auto_ptj_mjj  ! Automatic setting of ptj and mjj
#**********************************************************
#                                                                    
#**********************************
# BW cutoff (M+/-bwcutoff*Gamma)
#**********************************
  15  = bwcutoff      ! (M+/-bwcutoff*Gamma)
#**********************************************************
# Apply pt/E/eta/dr/mij cuts on decay products or not
# (note that etmiss/ptll/ptheavy/ht/sorted cuts always apply)
#**********************************************************
   T  = cut_decays    ! Cut decay products 
#*************************************************************
# Number of helicities to sum per event (0 = all helicities)
# 0 gives more stable result, but longer run time (needed for
# long decay chains e.g.).
# Use >=2 if most helicities contribute, e.g. pure QCD.
#*************************************************************
   0  = nhel          ! Number of helicities used per event
#*******************                                                 
# Standard Cuts
#*******************                                                 
#                                                                    
#*********************************************************************
# Minimum and maximum pt's (for max, -1 means no cut)                *
#*********************************************************************
 20  = ptj       ! minimum pt for the jets 
  0  = ptb       ! minimum pt for the b 
 10  = pta       ! minimum pt for the photons 
 10  = ptl       ! minimum pt for the charged leptons 
  0  = misset    ! minimum missing Et (sum of neutrino's momenta)
  0  = ptheavy   ! minimum pt for one heavy final state
 1.0 = ptonium   ! minimum pt for the quarkonium states
 -1  = ptjmax    ! maximum pt for the jets
 -1  = ptbmax    ! maximum pt for the b
 -1  = ptamax    ! maximum pt for the photons
 -1  = ptlmax    ! maximum pt for the charged leptons
 -1  = missetmax ! maximum missing Et (sum of neutrino's momenta)
#*********************************************************************
# Minimum and maximum E's (in the center of mass frame)              *
#*********************************************************************
  0  = ej     ! minimum E for the jets 
  0  = eb     ! minimum E for the b 
  0  = ea     ! minimum E for the photons 
  0  = el     ! minimum E for the charged leptons 
 -1   = ejmax ! maximum E for the jets
 -1   = ebmax ! maximum E for the b
 -1   = eamax ! maximum E for the photons
 -1   = elmax ! maximum E for the charged leptons
#*********************************************************************
# Maximum and minimum absolute rapidity (for max, -1 means no cut)   *
#*********************************************************************
   5  = etaj    ! max rap for the jets 
  -1  = etab    ! max rap for the b
 2.5  = etaa    ! max rap for the photons 
 2.5  = etal    ! max rap for the charged leptons 
 0.6  = etaonium ! max rap for the quarkonium states
   0  = etajmin ! min rap for the jets
   0  = etabmin ! min rap for the b
   0  = etaamin ! min rap for the photons
   0  = etalmin ! main rap for the charged leptons
#*********************************************************************
# Minimum and maximum DeltaR distance                                *
#*********************************************************************
 0.4 = drjj    ! min distance between jets 
 0   = drbb    ! min distance between b's 
 0.4 = drll    ! min distance between leptons 
 0.4 = draa    ! min distance between gammas 
 0   = drbj    ! min distance between b and jet 
 0.4 = draj    ! min distance between gamma and jet 
 0.4 = drjl    ! min distance between jet and lepton 
 0   = drab    ! min distance between gamma and b 
 0   = drbl    ! min distance between b and lepton 
 0.4 = dral    ! min distance between gamma and lepton 
 -1  = drjjmax ! max distance between jets
 -1  = drbbmax ! max distance between b's
 -1  = drllmax ! max distance between leptons
 -1  = draamax ! max distance between gammas
 -1  = drbjmax ! max distance between b and jet
 -1  = drajmax ! max distance between gamma and jet
 -1  = drjlmax ! max distance between jet and lepton
 -1  = drabmax ! max distance between gamma and b
 -1  = drblmax ! max distance between b and lepton
 -1  = dralmax ! maxdistance between gamma and lepton
#*********************************************************************
# Minimum and maximum invariant mass for pairs                       *
# WARNING: for four lepton final state mmll cut require to have      *
#          different lepton masses for each flavor!                  *           
#*********************************************************************
 0   = mmjj    ! min invariant mass of a jet pair 
 0   = mmbb    ! min invariant mass of a b pair 
 0   = mmaa    ! min invariant mass of gamma gamma pair
 0   = mmll    ! min invariant mass of l+l- (same flavour) lepton pair
 -1  = mmjjmax ! max invariant mass of a jet pair
 -1  = mmbbmax ! max invariant mass of a b pair
 -1  = mmaamax ! max invariant mass of gamma gamma pair
 -1  = mmllmax ! max invariant mass of l+l- (same flavour) lepton pair
#*********************************************************************
# Minimum and maximum invariant mass for all letpons                 *
#*********************************************************************
 0   = mmnl    ! min invariant mass for all letpons (l+- and vl) 
 -1  = mmnlmax ! max invariant mass for all letpons (l+- and vl) 
#*********************************************************************
# Minimum and maximum pt for 4-momenta sum of leptons                *
#*********************************************************************
 0   = ptllmin  ! Minimum pt for 4-momenta sum of leptons(l and vl)
 -1  = ptllmax  ! Maximum pt for 4-momenta sum of leptons(l and vl)
#*********************************************************************
# Inclusive cuts                                                     *
#*********************************************************************
 0  = xptj ! minimum pt for at least one jet  
 0  = xptb ! minimum pt for at least one b 
 0  = xpta ! minimum pt for at least one photon 
 0  = xptl ! minimum pt for at least one charged lepton 
#*********************************************************************
# Control the pt's of the jets sorted by pt                          *
#*********************************************************************
 0   = ptj1min ! minimum pt for the leading jet in pt
 0   = ptj2min ! minimum pt for the second jet in pt
 0   = ptj3min ! minimum pt for the third jet in pt
 0   = ptj4min ! minimum pt for the fourth jet in pt
 -1  = ptj1max ! maximum pt for the leading jet in pt 
 -1  = ptj2max ! maximum pt for the second jet in pt
 -1  = ptj3max ! maximum pt for the third jet in pt
 -1  = ptj4max ! maximum pt for the fourth jet in pt
 0   = cutuse  ! reject event if fails any (0) / all (1) jet pt cuts
#*********************************************************************
# Control the pt's of leptons sorted by pt                           *
#*********************************************************************
 0   = ptl1min ! minimum pt for the leading lepton in pt
 0   = ptl2min ! minimum pt for the second lepton in pt
 0   = ptl3min ! minimum pt for the third lepton in pt
 0   = ptl4min ! minimum pt for the fourth lepton in pt
 -1  = ptl1max ! maximum pt for the leading lepton in pt 
 -1  = ptl2max ! maximum pt for the second lepton in pt
 -1  = ptl3max ! maximum pt for the third lepton in pt
 -1  = ptl4max ! maximum pt for the fourth lepton in pt
#*********************************************************************
# Control the Ht(k)=Sum of k leading jets                            *
#*********************************************************************
 0   = htjmin ! minimum jet HT=Sum(jet pt)
 -1  = htjmax ! maximum jet HT=Sum(jet pt)
 0   = ihtmin  !inclusive Ht for all partons (including b)
 -1  = ihtmax  !inclusive Ht for all partons (including b)
 0   = ht2min ! minimum Ht for the two leading jets
 0   = ht3min ! minimum Ht for the three leading jets
 0   = ht4min ! minimum Ht for the four leading jets
 -1  = ht2max ! maximum Ht for the two leading jets
 -1  = ht3max ! maximum Ht for the three leading jets
 -1  = ht4max ! maximum Ht for the four leading jets
#***********************************************************************
# Photon-isolation cuts, according to hep-ph/9801442                   *
# When ptgmin=0, all the other parameters are ignored                  *
# When ptgmin>0, pta and draj are not going to be used                 *
#***********************************************************************
   0 = ptgmin ! Min photon transverse momentum
 0.4 = R0gamma ! Radius of isolation code
 1.0 = xn ! n parameter of eq.(3.4) in hep-ph/9801442
 1.0 = epsgamma ! epsilon_gamma parameter of eq.(3.4) in hep-ph/9801442
 .true. = isoEM ! isolate photons from EM energy (photons and leptons)
#*********************************************************************
# WBF cuts                                                           *
#*********************************************************************
 0   = xetamin ! minimum rapidity for two jets in the WBF case  
 0   = deltaeta ! minimum rapidity for two jets in the WBF case 
#*********************************************************************
# KT DURHAM CUT                                                      *
#*********************************************************************
 -1    =  ktdurham        
 0.4  =  dparameter 
#*********************************************************************
# maximal pdg code for quark to be considered as a light jet         *
# (otherwise b cuts are applied)                                     *
#*********************************************************************
 4 = maxjetflavor    ! Maximum jet pdg code
#*********************************************************************
# Jet measure cuts                                                   *
#*********************************************************************
 0   = xqcut   ! minimum kt jet measure between partons
#*********************************************************************
#
#*********************************************************************
# Store info for systematics studies                                 *
# WARNING: If use_syst is T, matched Pythia output is                *
#          meaningful ONLY if plotted taking matchscale              *
#          reweighting into account!                                 *
#*********************************************************************
   F  = use_syst      ! Enable systematics studies
#
#**************************************
# Parameter of the systematics study
#  will be used by SysCalc (if installed)
#**************************************                                  
#
0.5 1 2 = sys_scalefact  # factorization/renormalization scale factor
0.5 1 2 = sys_alpsfact  # \alpha_s emission scale factors
30 50 = sys_matchscale # variation of merging scale
# PDF sets and number of members (0 or none for all members).
CT10nlo.LHgrid = sys_pdf # matching scales
# MSTW2008nlo68cl.LHgrid 1  = sys_pdf
</MGRunCard>
<slha>
######################################################################
## PARAM_CARD AUTOMATICALY GENERATED BY MG5 FOLLOWING UFO MODEL   ####
######################################################################
##                                                                  ##
##  Width set on Auto will be computed following the information    ##
##        present in the decay.py files of the model.               ##
##        See  arXiv:1402.1178 for more details.                    ##
##                                                                  ##
######################################################################

###################################
## INFORMATION FOR CKMBLOCK
###################################
Block ckmblock 
    1 2.277360e-01 # cabi 

###################################
## INFORMATION FOR FRBLOCK
###################################
Block frblock 
    1 1.400000e+00 # gz 

###################################
## INFORMATION FOR MASS
###################################
Block mass 
    1 5.040000e-03 # MD 
    2 2.550000e-03 # MU 
    3 1.010000e-01 # MS 
    4 1.270000e+00 # MC 
    5 4.700000e+00 # MB 
    6 1.720000e+02 # MT 
   11 5.110000e-04 # Me 
   13 1.056600e-01 # MM 
   15 1.777000e+00 # MTA 
   23 9.118760e+01 # MZ 
   25 1.200000e+02 # MH 
  10030 2.000000e+03 # MZph 
  10031 3.000000e+02 # MZpl 
## Dependent parameters, given by model restrictions.
## Those values should be edited following the 
## analytical expression. MG5 ignores those values 
## but they are important for interfacing the output of MG5
## to external program such as Pythia.
  12 0.000000 # ve : 0.0 
  14 0.000000 # vm : 0.0 
  16 0.000000 # vt : 0.0 
  21 0.000000 # g : 0.0 
  22 0.000000 # a : 0.0 
  24 79.824360 # w+ : cmath.sqrt(MZ__exp__2/2. + cmath.sqrt(MZ__exp__4/4. - (aEW*cmath.pi*MZ__exp__2)/(Gf*sqrt__2))) 

###################################
## INFORMATION FOR SMINPUTS
###################################
Block sminputs 
    1 1.279000e+02 # aEWM1 
    2 1.166370e-05 # Gf 
    3 1.184000e-01 # aS 

###################################
## INFORMATION FOR YUKAWA
###################################
Block yukawa 
    1 5.040000e-03 # ymdo 
    2 2.550000e-03 # ymup 
    3 1.010000e-01 # yms 
    4 1.270000e+00 # ymc 
    5 4.700000e+00 # ymb 
    6 1.720000e+02 # ymt 
   11 5.110000e-04 # yme 
   13 1.056600e-01 # ymm 
   15 1.777000e+00 # ymtau 

###################################
## INFORMATION FOR DECAY
###################################
DECAY   6 1.508336e+00 # WT 
DECAY  23 2.495200e+00 # WZ 
DECAY  24 2.085000e+00 # WW 
DECAY  25 5.753088e-03 # WH 
## Dependent parameters, given by model restrictions.
## Those values should be edited following the 
## analytical expression. MG5 ignores those values 
## but they are important for interfacing the output of MG5
## to external program such as Pythia.
DECAY  1 0.000000 # d : 0.0 
DECAY  2 0.000000 # u : 0.0 
DECAY  3 0.000000 # s : 0.0 
DECAY  4 0.000000 # c : 0.0 
DECAY  5 0.000000 # b : 0.0 
DECAY  11 0.000000 # e- : 0.0 
DECAY  12 0.000000 # ve : 0.0 
DECAY  13 0.000000 # mu- : 0.0 
DECAY  14 0.000000 # vm : 0.0 
DECAY  15 0.000000 # ta- : 0.0 
DECAY  16 0.000000 # vt : 0.0 
DECAY  21 0.000000 # g : 0.0 
DECAY  22 0.000000 # a : 0.0 
DECAY  10030 0.308725 # zph : (gz__exp__2*MZph*(5 + cmath.sqrt(1 - (4*MT__exp__2)/MZph__exp__2)))/(144.*cmath.pi) 
DECAY  10031 0.132629 # zpl : (5*gz__exp__2*MZpl)/(144.*cmath.pi) 
#===========================================================
# QUANTUM NUMBERS OF NEW STATE(S) (NON SM PDG CODE)
#===========================================================

Block QNUMBERS 10030  # zph 
        1 0  # 3 times electric charge
        2 3  # number of spin states (2S+1)
        3 1  # colour rep (1: singlet, 3: triplet, 8: octet)
        4 0  # Particle/Antiparticle distinction (0=own anti)
Block QNUMBERS 10031  # zpl 
        1 0  # 3 times electric charge
        2 3  # number of spin states (2S+1)
        3 1  # colour rep (1: singlet, 3: triplet, 8: octet)
        4 0  # Particle/Antiparticle distinction (0=own anti)
</slha>
## END BANNER##
<MGGenerationInfo>
#  Number of Events        :         3934
#  Integrated weight (pb)  :  0.72793E-01
#  Max wgt                 :  0.25961E-04
#  Average wgt             :  0.18504E-04
</MGGenerationInfo>
</header>
<init>
     2212     2212  0.40000000000E+04  0.40000000000E+04 0 0  247000  247000 2   1
  0.72850382410E-01  0.16157727034E-03  0.25960610000E-04   0
</init>
<event>
 5   0  0.2421737E-04  0.1752300E+04  0.7818609E-02  0.8732085E-01
       -2   -1    0    0    0  501  0.00000000000E+00  0.00000000000E+00  0.45480938838E+03  0.45480938839E+03  0.25500000920E-02 0.  1.
        2   -1    0    0  501    0  0.00000000000E+00  0.00000000000E+00 -0.16878262334E+04  0.16878262334E+04  0.25500000920E-02 0. -1.
    10030    2    1    2    0    0  0.00000000000E+00  0.00000000000E+00 -0.12330168451E+04  0.21426356218E+04  0.17523004502E+04 0.  0.
        1    1    3    3  502    0 -0.30898141252E+03 -0.32858607207E+03 -0.15349607825E+04  0.15998571574E+04  0.50400001928E-02 0. -1.
       -1    1    3    3    0  502  0.30898141252E+03  0.32858607207E+03  0.30194393749E+03  0.54277846444E+03  0.50400001928E-02 0.  1.
</event>
<event>
 5   0  0.2421737E-04  0.2013866E+04  0.7818609E-02  0.8600165E-01
       -2   -1    0    0    0  501  0.00000000000E+00  0.00000000000E+00  0.93946486012E+03  0.93946486012E+03  0.25500000920E-02 0.  1.
        2   -1    0    0  501    0  0.00000000000E+00  0.00000000000E+00 -0.10792460464E+04  0.10792460464E+04  0.25500000920E-02 0. -1.
    10030    2    1    2    0    0  0.00000000000E+00  0.00000000000E+00 -0.13978118630E+03  0.20187109065E+04  0.20138656718E+04 0.  0.
        1    1    3    3  502    0 -0.40001172462E+03 -0.65285141042E+03 -0.72544368452E+03  0.10547477819E+04  0.50400001928E-02 0. -1.
       -1    1    3    3    0  502  0.40001172462E+03  0.65285141042E+03  0.58566249821E+03  0.96396312469E+03  0.50400001928E-02 0.  1.
</event>
<event>
 5   0  0.2488886E-04  0.1762684E+04  0.7818609E-02  0.8726399E-01
       -2   -1    0    0    0  501  0.00000000000E+00  0.00000000000E+00  0.40856372906E+03  0.40856372906E+03  0.25500000920E-02 0. -1.
        2   -1    0    0  501    0  0.00000000000E+00  0.00000000000E+00 -0.19012065478E+04  0.19012065478E+04  0.25500000920E-02 0.  1.
    10030    2    1    2    0    0  0.00000000000E+00  0.00000000000E+00 -0.14926428187E+04  0.23097702768E+04  0.17626843584E+04 0.  0.
        3    1    3    3  502    0 -0.85338797507E+03 -0.11508404090E+02 -0.10344854872E+04  0.13411054071E+04  0.10100000352E+00 0.  1.
       -3    1    3    3    0  502  0.85338797507E+03  0.11508404090E+02 -0.45815733150E+03  0.96866486979E+03  0.10100000352E+00 0. -1.
</event>
<event>
 5   0  0.2421737E-04  0.2219223E+04  0.7818609E-02  0.8510469E-01
        2   -1    0    0  501    0  0.00000000000E+00  0.00000000000E+00  0.98088731841E+03  0.98088731841E+03  0.25500000920E-02 0.  1.
       -2   -1    0    0    0  501  0.00000000000E+00  0.00000000000E+00 -0.12552285400E+04  0.12552285400E+04  0.25500000920E-02 0. -1.
    10030    2    1    2    0    0  0.00000000000E+00  0.00000000000E+00 -0.27434122162E+03  0.22361158584E+04  0.22192230682E+04 0.  0.
        1    1    3    3  502    0 -0.26606020349E+03 -0.63583398231E+03 -0.10133672690E+04  0.12255554279E+04  0.50400001928E-02 0. -1.
       -1    1    3    3    0  502  0.26606020349E+03  0.63583398231E+03  0.73902604741E+03  0.10105604305E+04  0.50400001928E-02 0.  1.
</event>
<event>
 5   0  0.2488886E-04  0.1856775E+04  0.7818609E-02  0.8676676E-01
        2   -1    0    0  501    0  0.00000000000E+00  0.00000000000E+00  0.16401058833E+04  0.16401058833E+04  0.25500000920E-02 0.  1.
       -2   -1    0    0    0  501  0.00000000000E+00  0.00000000000E+00 -0.52551693028E+03  0.52551693028E+03  0.25500000920E-02 0. -1.
    10030    2    1    2    0    0  0.00000000000E+00  0.00000000000E+00  0.11145889530E+04  0.21656228135E+04  0.18567750635E+04 0.  0.
        3    1    3    3  502    0 -0.28785535963E+02 -0.41624677259E+03  0.15245892568E+04  0.15806525219E+04  0.10100000352E+00 0.  1.
       -3    1    3    3    0  502  0.28785535963E+02  0.41624677259E+03 -0.41000030383E+03  0.58497029165E+03  0.10100000352E+00 0. -1.
</event>
<event>
 5   0  0.1207228E-04  0.2029924E+04  0.7818609E-02  0.8592756E-01
       -1   -1    0    0    0  501  0.00000000000E+00  0.00000000000E+00  0.10874615412E+04  0.10874615412E+04  0.50400001928E-02 0.  1.
        1   -1    0    0  501    0  0.00000000000E+00  0.00000000000E+00 -0.94729625133E+03  0.94729625134E+03  0.50400001928E-02 0. -1.
    10030    2    1    2    0    0  0.00000000000E+00  0.00000000000E+00  0.14016528985E+03  0.20347577925E+04  0.20299243744E+04 0.  0.
        1    1    3    3  502    0 -0.62753242744E+03  0.61692082185E+03  0.57701401604E+03  0.10522991127E+04  0.50400001928E-02 0.  1.
       -1    1    3    3    0  502  0.62753242744E+03 -0.61692082185E+03 -0.43684872619E+03  0.98245867980E+03  0.50400001928E-02 0. -1.
</event>
<event>
 5   0  0.1231056E-04  0.2299398E+04  0.7818609E-02  0.8478159E-01
       -1   -1    0    0    0  501  0.00000000000E+00  0.00000000000E+00  0.97087206132E+03  0.97087206134E+03  0.50400001928E-02 0. -1.
        1   -1    0    0  501    0  0.00000000000E+00  0.00000000000E+00 -0.13614638547E+04  0.13614638547E+04  0.50400001928E-02 0.  1.
    10030    2    1    2    0    0  0.00000000000E+00  0.00000000000E+00 -0.39059179341E+03  0.23323359161E+04  0.22993975029E+04 0.  0.
        3    1    3    3  502    0  0.80083639783E+03 -0.41965329541E+03 -0.91565176381E+03  0.12868045645E+04  0.10100000352E+00 0.  1.
       -3    1    3    3    0  502 -0.80083639783E+03  0.41965329541E+03  0.52505997040E+03  0.10455313516E+04  0.10100000352E+00 0. -1.
</event>
<event>
 5   0  0.2421737E-04  0.2080004E+04  0.7818609E-02  0.8570103E-01
        2   -1    0    0  501    0  0.00000000000E+00  0.00000000000E+00  0.12475361573E+04  0.12475361573E+04  0.25500000920E-02 0. -1.
       -2   -1    0    0    0  501  0.00000000000E+00  0.00000000000E+00 -0.86699242152E+03  0.86699242152E+03  0.25500000920E-02 0.  1.
    10030    2    1    2    0    0  0.00000000000E+00  0.00000000000E+00  0.38054373581E+03  0.21145285788E+04  0.20800042250E+04 0.  0.
        1    1    3    3  502    0  0.28506198832E+02 -0.31549235021E+03 -0.81675390604E+03  0.87603365773E+03  0.50400001928E-02 0.  1.
       -1    1    3    3    0  502 -0.28506198832E+02  0.31549235021E+03  0.11972976419E+04  0.12384949211E+04  0.50400001928E-02 0. -1.
</event>
<event>
 5   0  0.1210633E-04  0.2014883E+04  0.7818609E-02  0.8599694E-01
       -1   -1    0    0    0  501  0.00000000000E+00  0.00000000000E+00  0.55722633992E+03  0.55722633994E+03  0.50400001928E-02 0. -1.
        1   -1    0    0  501    0  0.00000000000E+00  0.00000000000E+00 -0.18214115417E+04  0.18214115417E+04  0.50400001928E-02 0.  1.
    10030    2    1    2    0    0  0.00000000000E+00  0.00000000000E+00 -0.12641852018E+04  0.23786378816E+04  0.20148831101E+04 0.  0.
        2    1    3    3  502    0  0.15571308712E+03 -0.12277451988E+03  0.53396083306E+03  0.56959136184E+03  0.25500000920E-02 0. -1.
       -2    1    3    3    0  502 -0.15571308712E+03  0.12277451988E+03 -0.17981460348E+04  0.18090465198E+04  0.25500000920E-02 0.  1.
</event>
<event>
 5   0  0.2421737E-04  0.1743603E+04  0.7818609E-02  0.8736879E-01
        2   -1    0    0  501    0  0.00000000000E+00  0.00000000000E+00  0.12896864377E+04  0.12896864377E+04  0.25500000920E-02 0.  1.
       -2   -1    0    0    0  501  0.00000000000E+00  0.00000000000E+00 -0.58931976777E+03  0.58931976778E+03  0.25500000920E-02 0. -1.
    10030    2    1    2    0    0  0.00000000000E+00  0.00000000000E+00  0.70036666996E+03  0.18790062055E+04  0.17436028355E+04 0.  0.
        1    1    3    3  502    0  0.52127136256E+03 -0.54147049414E+03 -0.12584798581E+03  0.76207076115E+03  0.50400001928E-02 0. -1.
       -1    1    3    3    0  502 -0.52127136256E+03  0.54147049414E+03  0.82621465577E+03  0.11169354444E+04  0.50400001928E-02 0.  1.
</event>
<event>
 5   0  0.2596061E-04  0.1908657E+04  0.7818609E-02  0.8650559E-01
       -2   -1    0    0    0  501  0.00000000000E+00  0.00000000000E+00  0.33290704303E+03  0.33290704304E+03  0.25500000920E-02 0. -1.
        2   -1    0    0  501    0  0.00000000000E+00  0.00000000000E+00 -0.27357275041E+04  0.27357275041E+04  0.25500000920E-02 0.  1.
    10030    2    1    2    0    0  0.00000000000E+00  0.00000000000E+00 -0.24028204611E+04  0.30686345472E+04  0.19086570713E+04 0.  0.
        5    1    3    3  502    0 -0.84754314508E+03  0.31800643727E+03 -0.16871073812E+04  0.19146307432E+04  0.46999998093E+01 0.  1.
       -5    1    3    3    0  502  0.84754314508E+03 -0.31800643727E+03 -0.71571307988E+03  0.11540038040E+04  0.46999998093E+01 0. -1.
</event>
<event>
 5   0  0.2596061E-04  0.1955116E+04  0.7818609E-02  0.8627898E-01
       -2   -1    0    0    0  501  0.00000000000E+00  0.00000000000E+00  0.78655825536E+03  0.78655825536E+03  0.25500000920E-02 0. -1.
        2   -1    0    0  501    0  0.00000000000E+00  0.00000000000E+00 -0.12149383185E+04  0.12149383185E+04  0.25500000920E-02 0.  1.
    10030    2    1    2    0    0  0.00000000000E+00  0.00000000000E+00 -0.42838006314E+03  0.20014965739E+04  0.19551161236E+04 0.  0.
        5    1    3    3  502    0 -0.31476895134E+03  0.70230725628E+02 -0.11588956670E+04  0.12029435168E+04  0.46999998093E+01 0.  1.
       -5    1    3    3    0  502  0.31476895134E+03 -0.70230725628E+02  0.73051560384E+03  0.79855305710E+03  0.46999998093E+01 0. -1.
</event>
<event>
 5   0  0.1324930E-04  0.1976441E+04  0.7818609E-02  0.8617715E-01
        1   -1    0    0  501    0  0.00000000000E+00  0.00000000000E+00  0.19515258365E+04  0.19515258365E+04  0.50400001928E-02 0.  1.
       -1   -1    0    0    0  501  0.00000000000E+00  0.00000000000E+00 -0.50041840071E+03  0.50041840074E+03  0.50400001928E-02 0. -1.
    10030    2    1    2    0    0  0.00000000000E+00  0.00000000000E+00  0.14511074358E+04  0.24519442373E+04  0.19764406777E+04 0.  0.
        5    1    3    3  502    0  0.21507218328E+02 -0.34448865747E+02  0.19504762873E+04  0.19509046933E+04  0.46999998093E+01 0.  1.
       -5    1    3    3    0  502 -0.21507218328E+02  0.34448865747E+02 -0.49936885151E+03  0.50103954400E+03  0.46999998093E+01 0. -1.
</event>
<event>
 5   0  0.1207228E-04  0.1973378E+04  0.7818609E-02  0.8619169E-01
        1   -1    0    0  501    0  0.00000000000E+00  0.00000000000E+00  0.22705353702E+04  0.22705353702E+04  0.50400001928E-02 0. -1.
       -1   -1    0    0    0  501  0.00000000000E+00  0.00000000000E+00 -0.42877792117E+03  0.42877792120E+03  0.50400001928E-02 0.  1.
    10030    2    1    2    0    0  0.00000000000E+00  0.00000000000E+00  0.18417574490E+04  0.26993132914E+04  0.19733782567E+04 0.  0.
        1    1    3    3  502    0  0.33481285562E+03  0.59691955292E+03  0.18930662700E+04  0.20129859671E+04  0.50400001928E-02 0. -1.
       -1    1    3    3    0  502 -0.33481285562E+03 -0.59691955292E+03 -0.51308821010E+02  0.68632732431E+03  0.50400001928E-02 0.  1.
</event>
<event>
 5   0  0.1231056E-04  0.1961346E+04  0.7818609E-02  0.8624909E-01
        1   -1    0    0  501    0  0.00000000000E+00  0.00000000000E+00  0.20787042249E+04  0.20787042249E+04  0.50400001928E-02 0.  1.
       -1   -1    0    0    0  501  0.00000000000E+00  0.00000000000E+00 -0.46265353438E+03  0.46265353441E+03  0.50400001928E-02 0. -1.
    10030    2    1    2    0    0  0.00000000000E+00  0.00000000000E+00  0.16160506905E+04  0.25413577593E+04  0.19613463301E+04 0.  0.
        3    1    3    3  502    0 -0.13759198547E+03 -0.50607128141E+03  0.18817397180E+04  0.19534543949E+04  0.10100000352E+00 0.  1.
       -3    1    3    3    0  502  0.13759198547E+03  0.50607128141E+03 -0.26568902752E+03  0.58790336440E+03  0.10100000352E+00 0. -1.
</event>
<event>
 5   0  0.1231056E-04  0.1483089E+04  0.7818609E-02  0.8895777E-01
        1   -1    0    0  501    0  0.00000000000E+00  0.00000000000E+00  0.14451734023E+04  0.14451734023E+04  0.50400001928E-02 0. -1.
       -1   -1    0    0    0  501  0.00000000000E+00  0.00000000000E+00 -0.38049989705E+03  0.38049989709E+03  0.50400001928E-02 0.  1.
    10030    2    1    2    0    0  0.00000000000E+00  0.00000000000E+00  0.10646735052E+04  0.18256732994E+04  0.14830891151E+04 0.  0.
        3    1    3    3  502    0 -0.41923192283E+03 -0.37691011626E+03  0.11253534057E+04  0.12586647444E+04  0.10100000352E+00 0. -1.
       -3    1    3    3    0  502  0.41923192283E+03  0.37691011626E+03 -0.60679900509E+02  0.56700855495E+03  0.10100000352E+00 0.  1.
</event>
<event>
 5   0  0.2421737E-04  0.2009102E+04  0.7818609E-02  0.8602377E-01
       -2   -1    0    0    0  501  0.00000000000E+00  0.00000000000E+00  0.53661110450E+03  0.53661110450E+03  0.25500000920E-02 0. -1.
        2   -1    0    0  501    0  0.00000000000E+00  0.00000000000E+00 -0.18805479692E+04  0.18805479692E+04  0.25500000920E-02 0.  1.
    10030    2    1    2    0    0  0.00000000000E+00  0.00000000000E+00 -0.13439368647E+04  0.24171590737E+04  0.20091022103E+04 0.  0.
        1    1    3    3  502    0 -0.32866709013E+02  0.98195738711E+03 -0.42017052559E+03  0.10685802737E+04  0.50400001928E-02 0. -1.
       -1    1    3    3    0  502  0.32866709013E+02 -0.98195738711E+03 -0.92376633914E+03  0.13485788001E+04  0.50400001928E-02 0.  1.
</event>
<event>
 5   0  0.1258546E-04  0.1995814E+04  0.7818609E-02  0.8608580E-01
        1   -1    0    0  501    0  0.00000000000E+00  0.00000000000E+00  0.10089700573E+04  0.10089700573E+04  0.50400001928E-02 0. -1.
       -1   -1    0    0    0  501  0.00000000000E+00  0.00000000000E+00 -0.98696502378E+03  0.98696502379E+03  0.50400001928E-02 0.  1.
    10030    2    1    2    0    0  0.00000000000E+00  0.00000000000E+00  0.22005033494E+02  0.19959350811E+04  0.19958137755E+04 0.  0.
        4    1    3    3  502    0  0.86711212330E+03 -0.47104763927E+03  0.15949464113E+03  0.99960465500E+03  0.12699999809E+01 0. -1.
       -4    1    3    3    0  502 -0.86711212330E+03  0.47104763927E+03 -0.13748960763E+03  0.99633042609E+03  0.12699999809E+01 0.  1.
</event>
<event>
 5   0  0.1207228E-04  0.1994044E+04  0.7818609E-02  0.8609410E-01
       -1   -1    0    0    0  501  0.00000000000E+00  0.00000000000E+00  0.57532345859E+03  0.57532345861E+03  0.50400001928E-02 0. -1.
        1   -1    0    0  501    0  0.00000000000E+00  0.00000000000E+00 -0.17278151536E+04  0.17278151536E+04  0.50400001928E-02 0.  1.
    10030    2    1    2    0    0  0.00000000000E+00  0.00000000000E+00 -0.11524916950E+04  0.23031386122E+04  0.19940437207E+04 0.  0.
        1    1    3    3  502    0  0.13059800099E+03 -0.61663914527E+02  0.56317767651E+03  0.58140121394E+03  0.50400001928E-02 0. -1.
       -1    1    3    3    0  502 -0.13059800099E+03  0.61663914527E+02 -0.17156693716E+04  0.17217373983E+04  0.50400001928E-02 0.  1.
</event>
<event>
 5   0  0.2463085E-04  0.1949519E+04  0.7818609E-02  0.8630593E-01
        2   -1    0    0  501    0  0.00000000000E+00  0.00000000000E+00  0.51318396102E+03  0.51318396103E+03  0.25500000920E-02 0. -1.
       -2   -1    0    0    0  501  0.00000000000E+00  0.00000000000E+00 -0.18514916627E+04  0.18514916627E+04  0.25500000920E-02 0.  1.
    10030    2    1    2    0    0  0.00000000000E+00  0.00000000000E+00 -0.13383077017E+04  0.23646756238E+04  0.19495187358E+04 0.  0.
        2    1    3    3  502    0 -0.62874129653E+03  0.64246946749E+03 -0.21196016053E+03  0.92358526638E+03  0.25500000920E-02 0. -1.
       -2    1    3    3    0  502  0.62874129653E+03 -0.64246946749E+03 -0.11263475412E+04  0.14410903574E+04  0.25500000920E-02 0.  1.
</event>
<event>
 5   0  0.1231056E-04  0.1944840E+04  0.7818609E-02  0.8632853E-01
        1   -1    0    0  501    0  0.00000000000E+00  0.00000000000E+00  0.11217008107E+04  0.11217008107E+04  0.50400001928E-02 0.  1.
       -1   -1    0    0    0  501  0.00000000000E+00  0.00000000000E+00 -0.84300634619E+03  0.84300634620E+03  0.50400001928E-02 0. -1.
    10030    2    1    2    0    0  0.00000000000E+00  0.00000000000E+00  0.27869446450E+03  0.19647071569E+04  0.19448402525E+04 0.  0.
        3    1    3    3  502    0  0.58540791067E+03  0.71506789378E+03 -0.16635993575E+03  0.93898889930E+03  0.10100000352E+00 0. -1.
       -3    1    3    3    0  502 -0.58540791067E+03 -0.71506789378E+03  0.44505440025E+03  0.10257182576E+04  0.10100000352E+00 0.  1.
</event>
<event>
 5   0  0.2488886E-04  0.2636219E+04  0.7818609E-02  0.8356002E-01
       -2   -1    0    0    0  501  0.00000000000E+00  0.00000000000E+00  0.12824623733E+04  0.12824623733E+04  0.25500000920E-02 0. -1.
        2   -1    0    0  501    0  0.00000000000E+00  0.00000000000E+00 -0.13547473908E+04  0.13547473908E+04  0.25500000920E-02 0.  1.
    10030    2    1    2    0    0  0.00000000000E+00  0.00000000000E+00 -0.72285017469E+02  0.26372097641E+04  0.26362189242E+04 0.  0.
        3    1    3    3  502    0  0.21137736650E+03  0.67829615351E+03  0.10745209197E+04  0.12881619774E+04  0.10100000352E+00 0. -1.
       -3    1    3    3    0  502 -0.21137736650E+03 -0.67829615351E+03 -0.11468059372E+04  0.13490477867E+04  0.10100000352E+00 0.  1.
</event>
<event>
 5   0  0.1207228E-04  0.2014475E+04  0.7818609E-02  0.8599883E-01
       -1   -1    0    0    0  501  0.00000000000E+00  0.00000000000E+00  0.52168400018E+03  0.52168400020E+03  0.50400001928E-02 0.  1.
        1   -1    0    0  501    0  0.00000000000E+00  0.00000000000E+00 -0.19447154295E+04  0.19447154295E+04  0.50400001928E-02 0. -1.
    10030    2    1    2    0    0  0.00000000000E+00  0.00000000000E+00 -0.14230314293E+04  0.24663994297E+04  0.20144745464E+04 0.  0.
        1    1    3    3  502    0  0.77721342410E+02 -0.96491482471E+03 -0.37083763313E+03  0.10366396559E+04  0.50400001928E-02 0. -1.
       -1    1    3    3    0  502 -0.77721342410E+02  0.96491482471E+03 -0.10521937962E+04  0.14297597738E+04  0.50400001928E-02 0.  1.
</event>
<event>
 5   0  0.2463085E-04  0.1949074E+04  0.7818609E-02  0.8630807E-01
       -2   -1    0    0    0  501  0.00000000000E+00  0.00000000000E+00  0.71229003308E+03  0.71229003309E+03  0.25500000920E-02 0. -1.
        2   -1    0    0  501    0  0.00000000000E+00  0.00000000000E+00 -0.13333364081E+04  0.13333364081E+04  0.25500000920E-02 0.  1.
    10030    2    1    2    0    0  0.00000000000E+00  0.00000000000E+00 -0.62104637502E+03  0.20456264412E+04  0.19490738665E+04 0.  0.
        2    1    3    3  502    0 -0.17893070894E+03 -0.39531110112E+03  0.60530603334E+03  0.74477007142E+03  0.25500000920E-02 0. -1.
       -2    1    3    3    0  502  0.17893070894E+03  0.39531110112E+03 -0.12263524084E+04  0.13008563698E+04  0.25500000920E-02 0.  1.
</event>
<event>
 5   0  0.1210633E-04  0.2055153E+04  0.7818609E-02  0.8581260E-01
       -1   -1    0    0    0  501  0.00000000000E+00  0.00000000000E+00  0.10652314244E+04  0.10652314244E+04  0.50400001928E-02 0.  1.
        1   -1    0    0  501    0  0.00000000000E+00  0.00000000000E+00 -0.99125246662E+03  0.99125246664E+03  0.50400001928E-02 0. -1.
    10030    2    1    2    0    0  0.00000000000E+00  0.00000000000E+00  0.73978957813E+02  0.20564838911E+04  0.20551528187E+04 0.  0.
        2    1    3    3  502    0  0.63892075462E+03 -0.44004605591E+03 -0.63728150789E+03  0.10039860469E+04  0.25500000920E-02 0. -1.
       -2    1    3    3    0  502 -0.63892075462E+03  0.44004605591E+03  0.71126046570E+03  0.10524978442E+04  0.25500000920E-02 0.  1.
</event>
<event>
 5   0  0.2488886E-04  0.1951787E+04  0.7818609E-02  0.8629500E-01
        2   -1    0    0  501    0  0.00000000000E+00  0.00000000000E+00  0.18803187278E+04  0.18803187278E+04  0.25500000920E-02 0.  1.
       -2   -1    0    0    0  501  0.00000000000E+00  0.00000000000E+00 -0.50649271083E+03  0.50649271084E+03  0.25500000920E-02 0. -1.
    10030    2    1    2    0    0  0.00000000000E+00  0.00000000000E+00  0.13738260169E+04  0.23868114386E+04  0.19517865966E+04 0.  0.
        3    1    3    3  502    0 -0.51685546501E+02  0.31257217271E+03 -0.44185396057E+03  0.54369816217E+03  0.10100000352E+00 0. -1.
       -3    1    3    3    0  502  0.51685546501E+02 -0.31257217271E+03  0.18156799775E+04  0.18431132764E+04  0.10100000352E+00 0.  1.
</event>
<event>
 5   0  0.2596061E-04  0.2071393E+04  0.7818609E-02  0.8573951E-01
        2   -1    0    0  501    0  0.00000000000E+00  0.00000000000E+00  0.13189751091E+04  0.13189751091E+04  0.25500000920E-02 0. -1.
       -2   -1    0    0    0  501  0.00000000000E+00  0.00000000000E+00 -0.81325849572E+03  0.81325849573E+03  0.25500000920E-02 0.  1.
    10030    2    1    2    0    0  0.00000000000E+00  0.00000000000E+00  0.50571661339E+03  0.21322336048E+04  0.20713934567E+04 0.  0.
        5    1    3    3  502    0  0.90213619594E+03  0.50522327001E+03  0.31415005669E+03  0.10806537913E+04  0.46999998093E+01 0. -1.
       -5    1    3    3    0  502 -0.90213619594E+03 -0.50522327001E+03  0.19156655670E+03  0.10515798135E+04  0.46999998093E+01 0.  1.
</event>
<event>
 5   0  0.1210633E-04  0.2003783E+04  0.7818609E-02  0.8604854E-01
        1   -1    0    0  501    0  0.00000000000E+00  0.00000000000E+00  0.12315588166E+04  0.12315588166E+04  0.50400001928E-02 0. -1.
       -1   -1    0    0    0  501  0.00000000000E+00  0.00000000000E+00 -0.81505387201E+03  0.81505387203E+03  0.50400001928E-02 0.  1.
    10030    2    1    2    0    0  0.00000000000E+00  0.00000000000E+00  0.41650494455E+03  0.20466126886E+04  0.20037832039E+04 0.  0.
        2    1    3    3  502    0  0.28574483866E+03  0.85169226051E+03 -0.24480154451E+03  0.93110558780E+03  0.25500000920E-02 0. -1.
       -2    1    3    3    0  502 -0.28574483866E+03 -0.85169226051E+03  0.66130648906E+03  0.11155071008E+04  0.25500000920E-02 0.  1.
</event>
<event>
 5   0  0.2488886E-04  0.2032348E+04  0.7818609E-02  0.8591644E-01
        2   -1    0    0  501    0  0.00000000000E+00  0.00000000000E+00  0.98916361313E+03  0.98916361313E+03  0.25500000920E-02 0.  1.
       -2   -1    0    0    0  501  0.00000000000E+00  0.00000000000E+00 -0.10439222608E+04  0.10439222608E+04  0.25500000920E-02 0. -1.
    10030    2    1    2    0    0  0.00000000000E+00  0.00000000000E+00 -0.54758647660E+02  0.20330858739E+04  0.20323483120E+04 0.  0.
        3    1    3    3  502    0 -0.54069418108E+03  0.68506085191E+03  0.49333944390E+03  0.10025180225E+04  0.10100000352E+00 0.  1.
       -3    1    3    3    0  502  0.54069418108E+03 -0.68506085191E+03 -0.54809809156E+03  0.10305678515E+04  0.10100000352E+00 0. -1.
</event>
<event>
 5   0  0.2421737E-04  0.1985685E+04  0.7818609E-02  0.8613343E-01
        2   -1    0    0  501    0  0.00000000000E+00  0.00000000000E+00  0.10744270200E+04  0.10744270200E+04  0.25500000920E-02 0.  1.
       -2   -1    0    0    0  501  0.00000000000E+00  0.00000000000E+00 -0.91745302982E+03  0.91745302982E+03  0.25500000920E-02 0. -1.
    10030    2    1    2    0    0  0.00000000000E+00  0.00000000000E+00  0.15697399022E+03  0.19918800499E+04  0.19856850957E+04 0.  0.
        1    1    3    3  502    0 -0.79175453953E+02  0.56632041113E+03 -0.73567853715E+03  0.93177812306E+03  0.50400001928E-02 0. -1.
       -1    1    3    3    0  502  0.79175453953E+02 -0.56632041113E+03  0.89265252736E+03  0.10601019268E+04  0.50400001928E-02 0.  1.
</event>
<event>
 5   0  0.1324930E-04  0.1957464E+04  0.7818609E-02  0.8626770E-01
        1   -1    0    0  501    0  0.00000000000E+00  0.00000000000E+00  0.14564203065E+04  0.14564203065E+04  0.50400001928E-02 0.  1.
       -1   -1    0    0    0  501  0.00000000000E+00  0.00000000000E+00 -0.65771987103E+03  0.65771987105E+03  0.50400001928E-02 0. -1.
    10030    2    1    2    0    0  0.00000000000E+00  0.00000000000E+00  0.79870043546E+03  0.21141401776E+04  0.19574642538E+04 0.  0.
        5    1    3    3  502    0 -0.29989412024E+03  0.28102454527E+03  0.13586930163E+04  0.14194999405E+04  0.46999998093E+01 0.  1.
       -5    1    3    3    0  502  0.29989412024E+03 -0.28102454527E+03 -0.55999258084E+03  0.69464023710E+03  0.46999998093E+01 0. -1.
</event>
<event>
 5   0  0.2488886E-04  0.1966423E+04  0.7818609E-02  0.8622482E-01
        2   -1    0    0  501    0  0.00000000000E+00  0.00000000000E+00  0.21735041025E+04  0.21735041025E+04  0.25500000920E-02 0.  1.
       -2   -1    0    0    0  501  0.00000000000E+00  0.00000000000E+00 -0.44476771219E+03  0.44476771220E+03  0.25500000920E-02 0. -1.
    10030    2    1    2    0    0  0.00000000000E+00  0.00000000000E+00  0.17287363903E+04  0.26182718147E+04  0.19664225864E+04 0.  0.
        3    1    3    3  502    0 -0.69028276766E+03 -0.13298838590E+02 -0.67710189010E+02  0.69372317125E+03  0.10100000352E+00 0. -1.
       -3    1    3    3    0  502  0.69028276766E+03  0.13298838590E+02  0.17964465793E+04  0.19245486435E+04  0.10100000352E+00 0.  1.
</event>
<event>
 5   0  0.1258546E-04  0.1963215E+04  0.7818609E-02  0.8624015E-01
       -1   -1    0    0    0  501  0.00000000000E+00  0.00000000000E+00  0.37103490574E+03  0.37103490577E+03  0.50400001928E-02 0. -1.
        1   -1    0    0  501    0  0.00000000000E+00  0.00000000000E+00 -0.25969334933E+04  0.25969334933E+04  0.50400001928E-02 0.  1.
    10030    2    1    2    0    0  0.00000000000E+00  0.00000000000E+00 -0.22258985876E+04  0.29679683991E+04  0.19632146841E+04 0.  0.
        4    1    3    3  502    0  0.93375062359E+03 -0.23782341279E+03 -0.82971084775E+03  0.12715627812E+04  0.12699999809E+01 0. -1.
       -4    1    3    3    0  502 -0.93375062359E+03  0.23782341279E+03 -0.13961877398E+04  0.16964056179E+04  0.12699999809E+01 0.  1.
</event>
<event>
 5   0  0.1207228E-04  0.2030689E+04  0.7818609E-02  0.8592405E-01
        1   -1    0    0  501    0  0.00000000000E+00  0.00000000000E+00  0.77310575656E+03  0.77310575658E+03  0.50400001928E-02 0. -1.
       -1   -1    0    0    0  501  0.00000000000E+00  0.00000000000E+00 -0.13334843373E+04  0.13334843373E+04  0.50400001928E-02 0.  1.
    10030    2    1    2    0    0  0.00000000000E+00  0.00000000000E+00 -0.56037858078E+03  0.21065900939E+04  0.20306889644E+04 0.  0.
        1    1    3    3  502    0  0.35012995777E+03 -0.90243636125E+03 -0.59814500264E+03  0.11378751327E+04  0.50400001928E-02 0.  1.
       -1    1    3    3    0  502 -0.35012995777E+03  0.90243636125E+03  0.37766421862E+02  0.96871496121E+03  0.50400001928E-02 0. -1.
</event>
<event>
 5   0  0.1231056E-04  0.1992509E+04  0.7818609E-02  0.8610131E-01
        1   -1    0    0  501    0  0.00000000000E+00  0.00000000000E+00  0.14872947898E+04  0.14872947898E+04  0.50400001928E-02 0. -1.
       -1   -1    0    0    0  501  0.00000000000E+00  0.00000000000E+00 -0.66733461482E+03  0.66733461484E+03  0.50400001928E-02 0.  1.
    10030    2    1    2    0    0  0.00000000000E+00  0.00000000000E+00  0.81996017498E+03  0.21546294046E+04  0.19925092679E+04 0.  0.
        3    1    3    3  502    0 -0.10920837665E+03  0.34332313780E+03  0.14143846699E+04  0.14595483038E+04  0.10100000352E+00 0. -1.
       -3    1    3    3    0  502  0.10920837665E+03 -0.34332313780E+03 -0.59442449489E+03  0.69508110088E+03  0.10100000352E+00 0.  1.
</event>
<event>
 5   0  0.2540506E-04  0.1982867E+04  0.7818609E-02  0.8614673E-01
        2   -1    0    0  501    0  0.00000000000E+00  0.00000000000E+00  0.23606206192E+04  0.23606206192E+04  0.25500000920E-02 0. -1.
       -2   -1    0    0    0  501  0.00000000000E+00  0.00000000000E+00 -0.41639086382E+03  0.41639086383E+03  0.25500000920E-02 0.  1.
    10030    2    1    2    0    0  0.00000000000E+00  0.00000000000E+00  0.19442297554E+04  0.27770114830E+04  0.19828674780E+04 0.  0.
        4    1    3    3  502    0  0.77230582637E+03  0.52218512308E+03  0.14445758122E+04  0.17192831304E+04  0.12699999809E+01 0. -1.
       -4    1    3    3    0  502 -0.77230582637E+03 -0.52218512308E+03  0.49965394315E+03  0.10577283527E+04  0.12699999809E+01 0.  1.
</event>
<event>
 5   0  0.2540506E-04  0.2003122E+04  0.7818609E-02  0.8605162E-01
        2   -1    0    0  501    0  0.00000000000E+00  0.00000000000E+00  0.23265704160E+04  0.23265704160E+04  0.25500000920E-02 0.  1.
       -2   -1    0    0    0  501  0.00000000000E+00  0.00000000000E+00 -0.43116034578E+03  0.43116034578E+03  0.25500000920E-02 0. -1.
    10030    2    1    2    0    0  0.00000000000E+00  0.00000000000E+00  0.18954100702E+04  0.27577307618E+04  0.20031224676E+04 0.  0.
        4    1    3    3  502    0  0.99641289721E+03  0.66415249710E+02  0.84219392088E+03  0.13063467612E+04  0.12699999809E+01 0.  1.
       -4    1    3    3    0  502 -0.99641289721E+03 -0.66415249710E+02  0.10532161493E+04  0.14513840006E+04  0.12699999809E+01 0. -1.
</event>
<event>
 5   0  0.9099125E-05  0.1935532E+04  0.7818609E-02  0.8637369E-01
        4   -1    0    0  501    0  0.00000000000E+00  0.00000000000E+00  0.99011292485E+03  0.99011373935E+03  0.12699999809E+01 0. -1.
       -4   -1    0    0    0  501  0.00000000000E+00  0.00000000000E+00 -0.94592142838E+03  0.94592228093E+03  0.12699999809E+01 0.  1.
    10030    2    1    2    0    0  0.00000000000E+00  0.00000000000E+00  0.44191496472E+02  0.19360360203E+04  0.19355316023E+04 0.  0.
        4    1    3    3  502    0  0.24647806744E+03 -0.88601558448E+03 -0.27930317183E+03  0.96113835027E+03  0.12699999809E+01 0.  1.
       -4    1    3    3    0  502 -0.24647806744E+03  0.88601558448E+03  0.32349466831E+03  0.97489767001E+03  0.12699999809E+01 0. -1.
</event>
<event>
 5   0  0.1231056E-04  0.1918141E+04  0.7818609E-02  0.8645879E-01
       -1   -1    0    0    0  501  0.00000000000E+00  0.00000000000E+00  0.10522737805E+04  0.10522737805E+04  0.50400001928E-02 0. -1.
        1   -1    0    0  501    0  0.00000000000E+00  0.00000000000E+00 -0.87412292444E+03  0.87412292446E+03  0.50400001928E-02 0.  1.
    10030    2    1    2    0    0  0.00000000000E+00  0.00000000000E+00  0.17815085609E+03  0.19263967050E+04  0.19181414279E+04 0.  0.
        3    1    3    3  502    0  0.52622125072E+03  0.75701314190E+03 -0.17633248461E+03  0.93865374716E+03  0.10100000352E+00 0. -1.
       -3    1    3    3    0  502 -0.52622125072E+03 -0.75701314190E+03  0.35448334070E+03  0.98774295784E+03  0.10100000352E+00 0.  1.
</event>
<event>
 5   0  0.1324930E-04  0.1977958E+04  0.7818609E-02  0.8616996E-01
        1   -1    0    0  501    0  0.00000000000E+00  0.00000000000E+00  0.60109971129E+03  0.60109971132E+03  0.50400001928E-02 0. -1.
       -1   -1    0    0    0  501  0.00000000000E+00  0.00000000000E+00 -0.16271502123E+04  0.16271502123E+04  0.50400001928E-02 0.  1.
    10030    2    1    2    0    0  0.00000000000E+00  0.00000000000E+00 -0.10260505010E+04  0.22282499236E+04  0.19779580611E+04 0.  0.
        5    1    3    3  502    0  0.31529944501E+02 -0.32592318954E+03  0.53824736124E+03  0.63004156590E+03  0.46999998093E+01 0. -1.
       -5    1    3    3    0  502 -0.31529944501E+02  0.32592318954E+03 -0.15642978622E+04  0.15982083577E+04  0.46999998093E+01 0.  1.
</event>
<event>
 5   0  0.2463085E-04  0.2042756E+04  0.7818609E-02  0.8586888E-01
       -2   -1    0    0    0  501  0.00000000000E+00  0.00000000000E+00  0.67701762807E+03  0.67701762808E+03  0.25500000920E-02 0.  1.
        2   -1    0    0  501    0  0.00000000000E+00  0.00000000000E+00 -0.15408947803E+04  0.15408947803E+04  0.25500000920E-02 0. -1.
    10030    2    1    2    0    0  0.00000000000E+00  0.00000000000E+00 -0.86387715225E+03  0.22179124084E+04  0.20427559123E+04 0.  0.
        2    1    3    3  502    0  0.72448491387E+03 -0.29467518665E+02  0.34909357171E+03  0.80474408783E+03  0.25500000920E-02 0.  1.
       -2    1    3    3    0  502 -0.72448491387E+03  0.29467518665E+02 -0.12129707240E+04  0.14131683206E+04  0.25500000920E-02 0. -1.
</event>
<event>
 5   0  0.2488886E-04  0.1959691E+04  0.7818609E-02  0.8625702E-01
        2   -1    0    0  501    0  0.00000000000E+00  0.00000000000E+00  0.21045961995E+04  0.21045961995E+04  0.25500000920E-02 0.  1.
       -2   -1    0    0    0  501  0.00000000000E+00  0.00000000000E+00 -0.45619053175E+03  0.45619053175E+03  0.25500000920E-02 0. -1.
    10030    2    1    2    0    0  0.00000000000E+00  0.00000000000E+00  0.16484056678E+04  0.25607867313E+04  0.19596906484E+04 0.  0.
        3    1    3    3  502    0  0.87762396248E+03  0.75823259481E+02  0.13849162269E+04  0.16413305432E+04  0.10100000352E+00 0.  1.
       -3    1    3    3    0  502 -0.87762396248E+03 -0.75823259481E+02  0.26348944088E+03  0.91945618811E+03  0.10100000352E+00 0. -1.
</event>
<event>
 5   0  0.2421737E-04  0.1985230E+04  0.7818609E-02  0.8613557E-01
       -2   -1    0    0    0  501  0.00000000000E+00  0.00000000000E+00  0.12235660608E+04  0.12235660608E+04  0.25500000920E-02 0. -1.
        2   -1    0    0  501    0  0.00000000000E+00  0.00000000000E+00 -0.80525686371E+03  0.80525686371E+03  0.25500000920E-02 0.  1.
    10030    2    1    2    0    0  0.00000000000E+00  0.00000000000E+00  0.41830919711E+03  0.20288229245E+04  0.19852304337E+04 0.  0.
        1    1    3    3  502    0 -0.48681682111E+03  0.18813713903E+03  0.10720281381E+04  0.11923214874E+04  0.50400001928E-02 0. -1.
       -1    1    3    3    0  502  0.48681682111E+03 -0.18813713903E+03 -0.65371894103E+03  0.83650143711E+03  0.50400001928E-02 0.  1.
</event>
<event>
 5   0  0.2463085E-04  0.1920574E+04  0.7818609E-02  0.8644683E-01
        2   -1    0    0  501    0  0.00000000000E+00  0.00000000000E+00  0.13216128034E+04  0.13216128034E+04  0.25500000920E-02 0.  1.
       -2   -1    0    0    0  501  0.00000000000E+00  0.00000000000E+00 -0.69774698347E+03  0.69774698348E+03  0.25500000920E-02 0. -1.
    10030    2    1    2    0    0  0.00000000000E+00  0.00000000000E+00  0.62386581990E+03  0.20193597869E+04  0.19205742338E+04 0.  0.
        2    1    3    3  502    0  0.62208799161E+03  0.49542484043E+03 -0.25400127271E+03  0.83483883976E+03  0.25500000920E-02 0. -1.
       -2    1    3    3    0  502 -0.62208799161E+03 -0.49542484043E+03  0.87786709261E+03  0.11845209471E+04  0.25500000920E-02 0.  1.
</event>
<event>
 5   0  0.2488886E-04  0.1993660E+04  0.7818609E-02  0.8609591E-01
        2   -1    0    0  501    0  0.00000000000E+00  0.00000000000E+00  0.21009462981E+04  0.21009462981E+04  0.25500000920E-02 0. -1.
       -2   -1    0    0    0  501  0.00000000000E+00  0.00000000000E+00 -0.47296300251E+03  0.47296300251E+03  0.25500000920E-02 0.  1.
    10030    2    1    2    0    0  0.00000000000E+00  0.00000000000E+00  0.16279832956E+04  0.25739093006E+04  0.19936598198E+04 0.  0.
        3    1    3    3  502    0 -0.58037865121E+03 -0.56890210498E+03  0.68775571278E+02  0.81560963287E+03  0.10100000352E+00 0.  1.
       -3    1    3    3    0  502  0.58037865121E+03  0.56890210498E+03  0.15592077243E+04  0.17582996678E+04  0.10100000352E+00 0. -1.
</event>
<event>
 5   0  0.1231056E-04  0.1971044E+04  0.7818609E-02  0.8620279E-01
       -1   -1    0    0    0  501  0.00000000000E+00  0.00000000000E+00  0.71873722730E+03  0.71873722732E+03  0.50400001928E-02 0.  1.
        1   -1    0    0  501    0  0.00000000000E+00  0.00000000000E+00 -0.13513332783E+04  0.13513332783E+04  0.50400001928E-02 0. -1.
    10030    2    1    2    0    0  0.00000000000E+00  0.00000000000E+00 -0.63259605103E+03  0.20700705057E+04  0.19710439200E+04 0.  0.
        3    1    3    3  502    0 -0.78522416593E+03 -0.43507625055E+03  0.11080942049E+03  0.90451482709E+03  0.10100000352E+00 0.  1.
       -3    1    3    3    0  502  0.78522416593E+03  0.43507625055E+03 -0.74340547152E+03  0.11655556786E+04  0.10100000352E+00 0. -1.
</event>
<event>
 5   0  0.2596061E-04  0.1964827E+04  0.7818609E-02  0.8623244E-01
       -2   -1    0    0    0  501  0.00000000000E+00  0.00000000000E+00  0.10062030993E+04  0.10062030993E+04  0.25500000920E-02 0.  1.
        2   -1    0    0  501    0  0.00000000000E+00  0.00000000000E+00 -0.95918672515E+03  0.95918672515E+03  0.25500000920E-02 0. -1.
    10030    2    1    2    0    0  0.00000000000E+00  0.00000000000E+00  0.47016374131E+02  0.19653898244E+04  0.19648273773E+04 0.  0.
        5    1    3    3  502    0 -0.38583720849E+03 -0.84661877835E+03 -0.29198796318E+03  0.97514756214E+03  0.46999998093E+01 0. -1.
       -5    1    3    3    0  502  0.38583720849E+03  0.84661877835E+03  0.33900433731E+03  0.99024226229E+03  0.46999998093E+01 0.  1.
</event>
<event>
 5   0  0.1324930E-04  0.2014235E+04  0.7818609E-02  0.8599994E-01
       -1   -1    0    0    0  501  0.00000000000E+00  0.00000000000E+00  0.74229151159E+03  0.74229151161E+03  0.50400001928E-02 0. -1.
        1   -1    0    0  501    0  0.00000000000E+00  0.00000000000E+00 -0.13664255832E+04  0.13664255832E+04  0.50400001928E-02 0.  1.
    10030    2    1    2    0    0  0.00000000000E+00  0.00000000000E+00 -0.62413407157E+03  0.21087170948E+04  0.20142354496E+04 0.  0.
        5    1    3    3  502    0  0.66359725050E+03  0.36561056391E+03  0.38255523469E+03  0.84876557005E+03  0.46999998093E+01 0. -1.
       -5    1    3    3    0  502 -0.66359725050E+03 -0.36561056391E+03 -0.10066893063E+04  0.12599515247E+04  0.46999998093E+01 0.  1.
</event>
<event>
 5   0  0.1231056E-04  0.1963927E+04  0.7818609E-02  0.8623674E-01
       -1   -1    0    0    0  501  0.00000000000E+00  0.00000000000E+00  0.58484687065E+03  0.58484687067E+03  0.50400001928E-02 0. -1.
        1   -1    0    0  501    0  0.00000000000E+00  0.00000000000E+00 -0.16487268775E+04  0.16487268775E+04  0.50400001928E-02 0.  1.
    10030    2    1    2    0    0  0.00000000000E+00  0.00000000000E+00 -0.10638800068E+04  0.22335737482E+04  0.19639274476E+04 0.  0.
        3    1    3    3  502    0 -0.36343204244E+03  0.87309855358E+03 -0.83255907758E+03  0.12599756194E+04  0.10100000352E+00 0.  1.
       -3    1    3    3    0  502  0.36343204244E+03 -0.87309855358E+03 -0.23132092925E+03  0.97359812871E+03  0.10100000352E+00 0. -1.
</event>
<event>
 5   0  0.2488886E-04  0.1980461E+04  0.7818609E-02  0.8615811E-01
        2   -1    0    0  501    0  0.00000000000E+00  0.00000000000E+00  0.26243430445E+04  0.26243430445E+04  0.25500000920E-02 0. -1.
       -2   -1    0    0    0  501  0.00000000000E+00  0.00000000000E+00 -0.37363867513E+03  0.37363867514E+03  0.25500000920E-02 0.  1.
    10030    2    1    2    0    0  0.00000000000E+00  0.00000000000E+00  0.22507043693E+04  0.29979817196E+04  0.19804606113E+04 0.  0.
        3    1    3    3  502    0  0.72131434413E+03  0.28835151884E+03  0.19574448332E+03  0.80109730646E+03  0.10100000352E+00 0.  1.
       -3    1    3    3    0  502 -0.72131434413E+03 -0.28835151884E+03  0.20549598860E+04  0.21968844132E+04  0.10100000352E+00 0. -1.
</event>
<event>
 5   0  0.1207228E-04  0.2031402E+04  0.7818609E-02  0.8592078E-01
       -1   -1    0    0    0  501  0.00000000000E+00  0.00000000000E+00  0.11044164698E+04  0.11044164699E+04  0.50400001928E-02 0. -1.
        1   -1    0    0  501    0  0.00000000000E+00  0.00000000000E+00 -0.93411213309E+03  0.93411213310E+03  0.50400001928E-02 0.  1.
    10030    2    1    2    0    0  0.00000000000E+00  0.00000000000E+00  0.17030433676E+03  0.20385286030E+04  0.20314022984E+04 0.  0.
        1    1    3    3  502    0  0.91482341439E+03  0.41844888953E+03 -0.55508995632E+02  0.10075130775E+04  0.50400001928E-02 0. -1.
       -1    1    3    3    0  502 -0.91482341439E+03 -0.41844888953E+03  0.22581333239E+03  0.10310155255E+04  0.50400001928E-02 0.  1.
</event>
<event>
 5   0  0.1231056E-04  0.2051845E+04  0.7818609E-02  0.8582758E-01
       -1   -1    0    0    0  501  0.00000000000E+00  0.00000000000E+00  0.12870740823E+04  0.12870740823E+04  0.50400001928E-02 0.  1.
        1   -1    0    0  501    0  0.00000000000E+00  0.00000000000E+00 -0.81775932973E+03  0.81775932974E+03  0.50400001928E-02 0. -1.
    10030    2    1    2    0    0  0.00000000000E+00  0.00000000000E+00  0.46931475259E+03  0.21048334121E+04  0.20518448664E+04 0.  0.
        3    1    3    3  502    0  0.67345585815E+03 -0.49030515351E+03  0.84893280741E+03  0.11893817125E+04  0.10100000352E+00 0.  1.
       -3    1    3    3    0  502 -0.67345585815E+03  0.49030515351E+03 -0.37961805482E+03  0.91545169953E+03  0.10100000352E+00 0. -1.
</event>
<event>
 5   0  0.1210633E-04  0.1997652E+04  0.7818609E-02  0.8607719E-01
        1   -1    0    0  501    0  0.00000000000E+00  0.00000000000E+00  0.25775702785E+04  0.25775702785E+04  0.50400001928E-02 0. -1.
       -1   -1    0    0    0  501  0.00000000000E+00  0.00000000000E+00 -0.38705167748E+03  0.38705167752E+03  0.50400001928E-02 0.  1.
    10030    2    1    2    0    0  0.00000000000E+00  0.00000000000E+00  0.21905186010E+04  0.29646219560E+04  0.19976515213E+04 0.  0.
        2    1    3    3  502    0  0.20610086744E+03 -0.52292760750E+03  0.23205898489E+04  0.23876909551E+04  0.25500000920E-02 0. -1.
       -2    1    3    3    0  502 -0.20610086744E+03  0.52292760750E+03 -0.13007124791E+03  0.57693100089E+03  0.25500000920E-02 0.  1.
</event>
<event>
 5   0  0.1324930E-04  0.1918926E+04  0.7818609E-02  0.8645493E-01
        1   -1    0    0  501    0  0.00000000000E+00  0.00000000000E+00  0.19515281502E+04  0.19515281502E+04  0.50400001928E-02 0.  1.
       -1   -1    0    0    0  501  0.00000000000E+00  0.00000000000E+00 -0.47171690801E+03  0.47171690804E+03  0.50400001928E-02 0. -1.
    10030    2    1    2    0    0  0.00000000000E+00  0.00000000000E+00  0.14798112422E+04  0.24232450583E+04  0.19189255587E+04 0.  0.
        5    1    3    3  502    0  0.12692904708E+03  0.88725731364E+03  0.30756909070E+03  0.94760612026E+03  0.46999998093E+01 0. -1.
       -5    1    3    3    0  502 -0.12692904708E+03 -0.88725731364E+03  0.11722421515E+04  0.14756389380E+04  0.46999998093E+01 0.  1.
</event>
<event>
 5   0  0.2540506E-04  0.1753005E+04  0.7818609E-02  0.8731698E-01
       -2   -1    0    0    0  501  0.00000000000E+00  0.00000000000E+00  0.21945855383E+03  0.21945855385E+03  0.25500000920E-02 0. -1.
        2   -1    0    0  501    0  0.00000000000E+00  0.00000000000E+00 -0.35006899557E+04  0.35006899557E+04  0.25500000920E-02 0.  1.
    10030    2    1    2    0    0  0.00000000000E+00  0.00000000000E+00 -0.32812314018E+04  0.37201485095E+04  0.17530046835E+04 0.  0.
        4    1    3    3  502    0  0.37991176382E+03 -0.77674584433E+03 -0.19451112733E+04  0.21286442947E+04  0.12699999809E+01 0.  1.
       -4    1    3    3    0  502 -0.37991176382E+03  0.77674584433E+03 -0.13361201286E+04  0.15915042148E+04  0.12699999809E+01 0. -1.
</event>
<event>
 5   0  0.2421737E-04  0.2021547E+04  0.7818609E-02  0.8596613E-01
        2   -1    0    0  501    0  0.00000000000E+00  0.00000000000E+00  0.10460469403E+04  0.10460469403E+04  0.25500000920E-02 0. -1.
       -2   -1    0    0    0  501  0.00000000000E+00  0.00000000000E+00 -0.97668936548E+03  0.97668936548E+03  0.25500000920E-02 0.  1.
    10030    2    1    2    0    0  0.00000000000E+00  0.00000000000E+00  0.69357574845E+02  0.20227363058E+04  0.20215468557E+04 0.  0.
        1    1    3    3  502    0  0.90675108658E+03  0.21105398705E+03  0.42851119467E+03  0.10248722664E+04  0.50400001928E-02 0. -1.
       -1    1    3    3    0  502 -0.90675108658E+03 -0.21105398705E+03 -0.35915361983E+03  0.99786403940E+03  0.50400001928E-02 0.  1.
</event>
<event>
 5   0  0.1258546E-04  0.1998111E+04  0.7818609E-02  0.8607504E-01
        1   -1    0    0  501    0  0.00000000000E+00  0.00000000000E+00  0.83046773448E+03  0.83046773449E+03  0.50400001928E-02 0. -1.
       -1   -1    0    0    0  501  0.00000000000E+00  0.00000000000E+00 -0.12018672296E+04  0.12018672296E+04  0.50400001928E-02 0.  1.
    10030    2    1    2    0    0  0.00000000000E+00  0.00000000000E+00 -0.37139949513E+03  0.20323349641E+04  0.19981110633E+04 0.  0.
        4    1    3    3  502    0 -0.16044585132E+02 -0.99785222385E+03 -0.13860492391E+03  0.10075611283E+04  0.12699999809E+01 0. -1.
       -4    1    3    3    0  502  0.16044585132E+02  0.99785222385E+03 -0.23279457122E+03  0.10247738359E+04  0.12699999809E+01 0.  1.
</event>
<event>
 5   0  0.2463085E-04  0.2205612E+04  0.7818609E-02  0.8516096E-01
        2   -1    0    0  501    0  0.00000000000E+00  0.00000000000E+00  0.19059665164E+04  0.19059665164E+04  0.25500000920E-02 0.  1.
       -2   -1    0    0    0  501  0.00000000000E+00  0.00000000000E+00 -0.63809157245E+03  0.63809157245E+03  0.25500000920E-02 0. -1.
    10030    2    1    2    0    0  0.00000000000E+00  0.00000000000E+00  0.12678749439E+04  0.25440580888E+04  0.22056120887E+04 0.  0.
        2    1    3    3  502    0 -0.71262892294E+03 -0.52641272200E+03  0.13913854211E+04  0.16495162096E+04  0.25500000920E-02 0.  1.
       -2    1    3    3    0  502  0.71262892294E+03  0.52641272200E+03 -0.12351047718E+03  0.89454187922E+03  0.25500000920E-02 0. -1.
</event>
<event>
 5   0  0.1324930E-04  0.2033501E+04  0.7818609E-02  0.8591116E-01
        1   -1    0    0  501    0  0.00000000000E+00  0.00000000000E+00  0.13393299277E+04  0.13393299277E+04  0.50400001928E-02 0.  1.
       -1   -1    0    0    0  501  0.00000000000E+00  0.00000000000E+00 -0.77186480825E+03  0.77186480827E+03  0.50400001928E-02 0. -1.
    10030    2    1    2    0    0  0.00000000000E+00  0.00000000000E+00  0.56746511948E+03  0.21111947360E+04  0.20335010577E+04 0.  0.
        5    1    3    3  502    0 -0.12725418532E+03 -0.18641919346E+03  0.13129793367E+04  0.13322471887E+04  0.46999998093E+01 0.  1.
       -5    1    3    3    0  502  0.12725418532E+03  0.18641919346E+03 -0.74551421719E+03  0.77894754727E+03  0.46999998093E+01 0. -1.
</event>
<event>
 5   0  0.2463085E-04  0.1851529E+04  0.7818609E-02  0.8679367E-01
        2   -1    0    0  501    0  0.00000000000E+00  0.00000000000E+00  0.82620762452E+03  0.82620762453E+03  0.25500000920E-02 0. -1.
       -2   -1    0    0    0  501  0.00000000000E+00  0.00000000000E+00 -0.10373173375E+04  0.10373173375E+04  0.25500000920E-02 0.  1.
    10030    2    1    2    0    0  0.00000000000E+00  0.00000000000E+00 -0.21110971300E+03  0.18635249620E+04  0.18515285505E+04 0.  0.
        2    1    3    3  502    0 -0.24213184716E+03 -0.54130616485E+03  0.60996570506E+03  0.85070462375E+03  0.25500000920E-02 0. -1.
       -2    1    3    3    0  502  0.24213184716E+03  0.54130616485E+03 -0.82107541806E+03  0.10128203383E+04  0.25500000920E-02 0.  1.
</event>
<event>
 5   0  0.1258546E-04  0.1903119E+04  0.7818609E-02  0.8653305E-01
       -1   -1    0    0    0  501  0.00000000000E+00  0.00000000000E+00  0.15406076986E+04  0.15406076986E+04  0.50400001928E-02 0. -1.
        1   -1    0    0  501    0  0.00000000000E+00  0.00000000000E+00 -0.58773291843E+03  0.58773291845E+03  0.50400001928E-02 0.  1.
    10030    2    1    2    0    0  0.00000000000E+00  0.00000000000E+00  0.95287478015E+03  0.21283406170E+04  0.19031193960E+04 0.  0.
        4    1    3    3  502    0 -0.38868038779E+03 -0.78862194893E+03  0.69404676783E+02  0.88193857170E+03  0.12699999809E+01 0.  1.
       -4    1    3    3    0  502  0.38868038779E+03  0.78862194893E+03  0.88347010336E+03  0.12464020453E+04  0.12699999809E+01 0. -1.
</event>
<event>
 5   0  0.1210633E-04  0.1935411E+04  0.7818609E-02  0.8637428E-01
       -1   -1    0    0    0  501  0.00000000000E+00  0.00000000000E+00  0.79806035117E+03  0.79806035119E+03  0.50400001928E-02 0.  1.
        1   -1    0    0  501    0  0.00000000000E+00  0.00000000000E+00 -0.11734127939E+04  0.11734127939E+04  0.50400001928E-02 0. -1.
    10030    2    1    2    0    0  0.00000000000E+00  0.00000000000E+00 -0.37535244275E+03  0.19714731451E+04  0.19354113014E+04 0.  0.
        2    1    3    3  502    0  0.44976920620E+03 -0.82303116525E+03 -0.43040505121E+03  0.10319501664E+04  0.25500000920E-02 0. -1.
       -2    1    3    3    0  502 -0.44976920620E+03  0.82303116525E+03  0.55052608464E+02  0.93952297871E+03  0.25500000920E-02 0.  1.
</event>
<event>
 5   0  0.1210633E-04  0.1975381E+04  0.7818609E-02  0.8618218E-01
        1   -1    0    0  501    0  0.00000000000E+00  0.00000000000E+00  0.16869426014E+04  0.16869426014E+04  0.50400001928E-02 0.  1.
       -1   -1    0    0    0  501  0.00000000000E+00  0.00000000000E+00 -0.57828407292E+03  0.57828407294E+03  0.50400001928E-02 0. -1.
    10030    2    1    2    0    0  0.00000000000E+00  0.00000000000E+00  0.11086585284E+04  0.22652266743E+04  0.19753805085E+04 0.  0.
        2    1    3    3  502    0  0.39230017993E+03 -0.39155139539E+03 -0.38313164689E+03  0.67379654589E+03  0.25500000920E-02 0. -1.
       -2    1    3    3    0  502 -0.39230017993E+03  0.39155139539E+03  0.14917901753E+04  0.15914301284E+04  0.25500000920E-02 0.  1.
</event>
<event>
 5   0  0.2463085E-04  0.1985411E+04  0.7818609E-02  0.8613472E-01
        2   -1    0    0  501    0  0.00000000000E+00  0.00000000000E+00  0.12279702631E+04  0.12279702631E+04  0.25500000920E-02 0. -1.
       -2   -1    0    0    0  501  0.00000000000E+00  0.00000000000E+00 -0.80251503325E+03  0.80251503325E+03  0.25500000920E-02 0.  1.
    10030    2    1    2    0    0  0.00000000000E+00  0.00000000000E+00  0.42545522980E+03  0.20304852963E+04  0.19854113896E+04 0.  0.
        2    1    3    3  502    0  0.16843240117E+03  0.29611943464E+01  0.12132456051E+04  0.12248849500E+04  0.25500000920E-02 0. -1.
       -2    1    3    3    0  502 -0.16843240117E+03 -0.29611943464E+01 -0.78779037534E+03  0.80560034627E+03  0.25500000920E-02 0.  1.
</event>
<event>
 5   0  0.9099125E-05  0.2002701E+04  0.7818609E-02  0.8605359E-01
       -3   -1    0    0    0  501  0.00000000000E+00  0.00000000000E+00  0.11825932106E+04  0.11825932149E+04  0.10100000352E+00 0.  1.
        3   -1    0    0  501    0  0.00000000000E+00  0.00000000000E+00 -0.84788441547E+03  0.84788442148E+03  0.10100000352E+00 0. -1.
    10030    2    1    2    0    0  0.00000000000E+00  0.00000000000E+00  0.33470879516E+03  0.20304776364E+04  0.20027005404E+04 0.  0.
        4    1    3    3  502    0  0.58922064430E+03  0.99134546231E+01 -0.65345541462E+03  0.87993456350E+03  0.12699999809E+01 0. -1.
       -4    1    3    3    0  502 -0.58922064430E+03 -0.99134546231E+01  0.98816420978E+03  0.11505430729E+04  0.12699999809E+01 0.  1.
</event>
<event>
 5   0  0.2596061E-04  0.1858283E+04  0.7818609E-02  0.8675905E-01
       -2   -1    0    0    0  501  0.00000000000E+00  0.00000000000E+00  0.10346697704E+04  0.10346697704E+04  0.25500000920E-02 0.  1.
        2   -1    0    0  501    0  0.00000000000E+00  0.00000000000E+00 -0.83437657676E+03  0.83437657676E+03  0.25500000920E-02 0. -1.
    10030    2    1    2    0    0  0.00000000000E+00  0.00000000000E+00  0.20029319361E+03  0.18690463471E+04  0.18582833165E+04 0.  0.
        5    1    3    3  502    0  0.33384370990E+02  0.81546715821E+03 -0.34647590180E+03  0.88666162817E+03  0.46999998093E+01 0. -1.
       -5    1    3    3    0  502 -0.33384370990E+02 -0.81546715821E+03  0.54676909541E+03  0.98238471896E+03  0.46999998093E+01 0.  1.
</event>
<event>
 5   0  0.2596061E-04  0.1978332E+04  0.7818609E-02  0.8616819E-01
       -2   -1    0    0    0  501  0.00000000000E+00  0.00000000000E+00  0.10456858308E+04  0.10456858308E+04  0.25500000920E-02 0.  1.
        2   -1    0    0  501    0  0.00000000000E+00  0.00000000000E+00 -0.93570063305E+03  0.93570063306E+03  0.25500000920E-02 0. -1.
    10030    2    1    2    0    0  0.00000000000E+00  0.00000000000E+00  0.10998519770E+03  0.19813864638E+04  0.19783315130E+04 0.  0.
        5    1    3    3  502    0 -0.24817667547E+03 -0.90222389484E+03  0.37615455645E+03  0.10085206785E+04  0.46999998093E+01 0.  1.
       -5    1    3    3    0  502  0.24817667547E+03  0.90222389484E+03 -0.26616935875E+03  0.97286578530E+03  0.46999998093E+01 0. -1.
</event>
<event>
 5   0  0.2540506E-04  0.1944699E+04  0.7818609E-02  0.8632921E-01
       -2   -1    0    0    0  501  0.00000000000E+00  0.00000000000E+00  0.32666940962E+03  0.32666940963E+03  0.25500000920E-02 0. -1.
        2   -1    0    0  501    0  0.00000000000E+00  0.00000000000E+00 -0.28942531085E+04  0.28942531085E+04  0.25500000920E-02 0.  1.
    10030    2    1    2    0    0  0.00000000000E+00  0.00000000000E+00 -0.25675836988E+04  0.32209225181E+04  0.19446994156E+04 0.  0.
        4    1    3    3  502    0 -0.39267979194E+03  0.35936485348E+03  0.63919064906E+02  0.53612291191E+03  0.12699999809E+01 0. -1.
       -4    1    3    3    0  502  0.39267979194E+03 -0.35936485348E+03 -0.26315027637E+04  0.26847996062E+04  0.12699999809E+01 0.  1.
</event>
<event>
 5   0  0.1258546E-04  0.2008937E+04  0.7818609E-02  0.8602453E-01
       -1   -1    0    0    0  501  0.00000000000E+00  0.00000000000E+00  0.87977898338E+03  0.87977898339E+03  0.50400001928E-02 0.  1.
        1   -1    0    0  501    0  0.00000000000E+00  0.00000000000E+00 -0.11468305737E+04  0.11468305737E+04  0.50400001928E-02 0. -1.
    10030    2    1    2    0    0  0.00000000000E+00  0.00000000000E+00 -0.26705159033E+03  0.20266095571E+04  0.20089374667E+04 0.  0.
        4    1    3    3  502    0  0.96206352402E+03  0.17510281230E+03 -0.36517286210E+03  0.10438295125E+04  0.12699999809E+01 0. -1.
       -4    1    3    3    0  502 -0.96206352402E+03 -0.17510281230E+03  0.98121271776E+02  0.98278004457E+03  0.12699999809E+01 0.  1.
</event>
<event>
 5   0  0.1210633E-04  0.1985592E+04  0.7818609E-02  0.8613387E-01
        1   -1    0    0  501    0  0.00000000000E+00  0.00000000000E+00  0.10324330386E+04  0.10324330386E+04  0.50400001928E-02 0. -1.
       -1   -1    0    0    0  501  0.00000000000E+00  0.00000000000E+00 -0.95468043096E+03  0.95468043098E+03  0.50400001928E-02 0.  1.
    10030    2    1    2    0    0  0.00000000000E+00  0.00000000000E+00  0.77752607604E+02  0.19871134696E+04  0.19855917186E+04 0.  0.
        2    1    3    3  502    0 -0.53302726876E+03 -0.61202160853E+03  0.61111440664E+03  0.10159475068E+04  0.25500000920E-02 0. -1.
       -2    1    3    3    0  502  0.53302726876E+03  0.61202160853E+03 -0.53336179904E+03  0.97116596276E+03  0.25500000920E-02 0.  1.
</event>
<event>
 5   0  0.2463085E-04  0.1964542E+04  0.7818609E-02  0.8623380E-01
       -2   -1    0    0    0  501  0.00000000000E+00  0.00000000000E+00  0.88250020694E+03  0.88250020695E+03  0.25500000920E-02 0. -1.
        2   -1    0    0  501    0  0.00000000000E+00  0.00000000000E+00 -0.10933210911E+04  0.10933210912E+04  0.25500000920E-02 0.  1.
    10030    2    1    2    0    0  0.00000000000E+00  0.00000000000E+00 -0.21082088421E+03  0.19758212981E+04  0.19645417676E+04 0.  0.
        2    1    3    3  502    0 -0.38495778889E+03  0.88190279355E+03 -0.30380186217E+03  0.10090790890E+04  0.25500000920E-02 0.  1.
       -2    1    3    3    0  502  0.38495778889E+03 -0.88190279355E+03  0.92980977961E+02  0.96674220905E+03  0.25500000920E-02 0. -1.
</event>
<event>
 5   0  0.1210633E-04  0.1834015E+04  0.7818609E-02  0.8688417E-01
        1   -1    0    0  501    0  0.00000000000E+00  0.00000000000E+00  0.10422859634E+04  0.10422859634E+04  0.50400001928E-02 0.  1.
       -1   -1    0    0    0  501  0.00000000000E+00  0.00000000000E+00 -0.80678728568E+03  0.80678728570E+03  0.50400001928E-02 0. -1.
    10030    2    1    2    0    0  0.00000000000E+00  0.00000000000E+00  0.23549867767E+03  0.18490732491E+04  0.18340153361E+04 0.  0.
        2    1    3    3  502    0 -0.21063818584E+03 -0.45150966852E+03  0.89392310067E+03  0.10233904123E+04  0.25500000920E-02 0.  1.
       -2    1    3    3    0  502  0.21063818584E+03  0.45150966852E+03 -0.65842442299E+03  0.82568283675E+03  0.25500000920E-02 0. -1.
</event>
<event>
 5   0  0.2488886E-04  0.2035084E+04  0.7818609E-02  0.8590391E-01
       -2   -1    0    0    0  501  0.00000000000E+00  0.00000000000E+00  0.84522517681E+03  0.84522517681E+03  0.25500000920E-02 0. -1.
        2   -1    0    0  501    0  0.00000000000E+00  0.00000000000E+00 -0.12249895784E+04  0.12249895784E+04  0.25500000920E-02 0.  1.
    10030    2    1    2    0    0  0.00000000000E+00  0.00000000000E+00 -0.37976440164E+03  0.20702147553E+04  0.20350843059E+04 0.  0.
        3    1    3    3  502    0 -0.43985976404E+03  0.27925454412E+03 -0.10790023124E+04  0.11982093777E+04  0.10100000352E+00 0.  1.
       -3    1    3    3    0  502  0.43985976404E+03 -0.27925454412E+03  0.69923791077E+03  0.87200537756E+03  0.10100000352E+00 0. -1.
</event>
<event>
 5   0  0.2596061E-04  0.2017899E+04  0.7818609E-02  0.8598298E-01
       -2   -1    0    0    0  501  0.00000000000E+00  0.00000000000E+00  0.20195496204E+04  0.20195496204E+04  0.25500000920E-02 0.  1.
        2   -1    0    0  501    0  0.00000000000E+00  0.00000000000E+00 -0.50406228665E+03  0.50406228665E+03  0.25500000920E-02 0. -1.
    10030    2    1    2    0    0  0.00000000000E+00  0.00000000000E+00  0.15154873338E+04  0.25236119071E+04  0.20178987087E+04 0.  0.
        5    1    3    3  502    0 -0.10223006872E+03  0.20598735343E+03  0.19863244644E+04  0.19995971456E+04  0.46999998093E+01 0.  1.
       -5    1    3    3    0  502  0.10223006872E+03 -0.20598735343E+03 -0.47083713061E+03  0.52401476151E+03  0.46999998093E+01 0. -1.
</event>
<event>
 5   0  0.1324930E-04  0.2036116E+04  0.7818609E-02  0.8589919E-01
        1   -1    0    0  501    0  0.00000000000E+00  0.00000000000E+00  0.20844729538E+04  0.20844729538E+04  0.50400001928E-02 0.  1.
       -1   -1    0    0    0  501  0.00000000000E+00  0.00000000000E+00 -0.49722021560E+03  0.49722021563E+03  0.50400001928E-02 0. -1.
    10030    2    1    2    0    0  0.00000000000E+00  0.00000000000E+00  0.15872527382E+04  0.25816931694E+04  0.20361160002E+04 0.  0.
        5    1    3    3  502    0  0.66997816189E+03  0.46284413576E+03  0.15683474896E+04  0.17671534652E+04  0.46999998093E+01 0.  1.
       -5    1    3    3    0  502 -0.66997816189E+03 -0.46284413576E+03  0.18905248642E+02  0.81453970428E+03  0.46999998093E+01 0. -1.
</event>
<event>
 5   0  0.1231056E-04  0.2004653E+04  0.7818609E-02  0.8604448E-01
        1   -1    0    0  501    0  0.00000000000E+00  0.00000000000E+00  0.63489167998E+03  0.63489168000E+03  0.50400001928E-02 0. -1.
       -1   -1    0    0    0  501  0.00000000000E+00  0.00000000000E+00 -0.15824089435E+04  0.15824089435E+04  0.50400001928E-02 0.  1.
    10030    2    1    2    0    0  0.00000000000E+00  0.00000000000E+00 -0.94751726355E+03  0.22173006235E+04  0.20046528603E+04 0.  0.
        3    1    3    3  502    0  0.94814074843E+03 -0.11770843496E+03 -0.13857509615E+03  0.96541660539E+03  0.10100000352E+00 0. -1.
       -3    1    3    3    0  502 -0.94814074843E+03  0.11770843496E+03 -0.80894216740E+03  0.12518840181E+04  0.10100000352E+00 0.  1.
</event>
<event>
 5   0  0.2488886E-04  0.2005915E+04  0.7818609E-02  0.8603860E-01
       -2   -1    0    0    0  501  0.00000000000E+00  0.00000000000E+00  0.43955562195E+03  0.43955562196E+03  0.25500000920E-02 0.  1.
        2   -1    0    0  501    0  0.00000000000E+00  0.00000000000E+00 -0.22885010463E+04  0.22885010463E+04  0.25500000920E-02 0. -1.
    10030    2    1    2    0    0  0.00000000000E+00  0.00000000000E+00 -0.18489454244E+04  0.27280566683E+04  0.20059147547E+04 0.  0.
        3    1    3    3  502    0 -0.80891066630E+03 -0.25741967272E+03 -0.19801782751E+03  0.87167219995E+03  0.10100000352E+00 0.  1.
       -3    1    3    3    0  502  0.80891066630E+03  0.25741967272E+03 -0.16509275969E+04  0.18563844683E+04  0.10100000352E+00 0. -1.
</event>
<event>
 5   0  0.2421737E-04  0.2009689E+04  0.7818609E-02  0.8602104E-01
        2   -1    0    0  501    0  0.00000000000E+00  0.00000000000E+00  0.74881057353E+03  0.74881057353E+03  0.25500000920E-02 0. -1.
       -2   -1    0    0    0  501  0.00000000000E+00  0.00000000000E+00 -0.13484221973E+04  0.13484221973E+04  0.25500000920E-02 0.  1.
    10030    2    1    2    0    0  0.00000000000E+00  0.00000000000E+00 -0.59961162376E+03  0.20972327708E+04  0.20096893281E+04 0.  0.
        1    1    3    3  502    0 -0.83152011020E+03  0.26591382540E+03  0.21943976616E+03  0.90016091184E+03  0.50400001928E-02 0. -1.
       -1    1    3    3    0  502  0.83152011020E+03 -0.26591382540E+03 -0.81905138992E+03  0.11970718590E+04  0.50400001928E-02 0.  1.
</event>
<event>
 5   0  0.2421737E-04  0.1460130E+04  0.7818609E-02  0.8911407E-01
       -2   -1    0    0    0  501  0.00000000000E+00  0.00000000000E+00  0.81951550419E+03  0.81951550420E+03  0.25500000920E-02 0. -1.
        2   -1    0    0  501    0  0.00000000000E+00  0.00000000000E+00 -0.65037821553E+03  0.65037821554E+03  0.25500000920E-02 0.  1.
    10030    2    1    2    0    0  0.00000000000E+00  0.00000000000E+00  0.16913728866E+03  0.14698937197E+04  0.14601301740E+04 0.  0.
        1    1    3    3  502    0 -0.59092154840E+03 -0.22290952523E+03 -0.28410157051E+03  0.69252482641E+03  0.50400001928E-02 0.  1.
       -1    1    3    3    0  502  0.59092154840E+03  0.22290952523E+03  0.45323885918E+03  0.77736889332E+03  0.50400001928E-02 0. -1.
</event>
<event>
 5   0  0.2463085E-04  0.2003880E+04  0.7818609E-02  0.8604809E-01
        2   -1    0    0  501    0  0.00000000000E+00  0.00000000000E+00  0.89815443827E+03  0.89815443827E+03  0.25500000920E-02 0. -1.
       -2   -1    0    0    0  501  0.00000000000E+00  0.00000000000E+00 -0.11177179566E+04  0.11177179566E+04  0.25500000920E-02 0.  1.
    10030    2    1    2    0    0  0.00000000000E+00  0.00000000000E+00 -0.21956351831E+03  0.20158723948E+04  0.20038795806E+04 0.  0.
        2    1    3    3  502    0  0.39855011591E+03  0.52360144849E+03  0.65030794227E+03  0.92514922663E+03  0.25500000920E-02 0. -1.
       -2    1    3    3    0  502 -0.39855011591E+03 -0.52360144849E+03 -0.86987146057E+03  0.10907231682E+04  0.25500000920E-02 0.  1.
</event>
<event>
 5   0  0.1207228E-04  0.1235677E+04  0.7818609E-02  0.9082189E-01
       -1   -1    0    0    0  501  0.00000000000E+00  0.00000000000E+00  0.52472541383E+03  0.52472541385E+03  0.50400001928E-02 0.  1.
        1   -1    0    0  501    0  0.00000000000E+00  0.00000000000E+00 -0.72747459912E+03  0.72747459914E+03  0.50400001928E-02 0. -1.
    10030    2    1    2    0    0  0.00000000000E+00  0.00000000000E+00 -0.20274918530E+03  0.12522000130E+04  0.12356769968E+04 0.  0.
        1    1    3    3  502    0 -0.37246283216E+03 -0.39536781696E+03  0.19697712269E+03  0.57779257431E+03  0.50400001928E-02 0.  1.
       -1    1    3    3    0  502  0.37246283216E+03  0.39536781696E+03 -0.39972630799E+03  0.67440743869E+03  0.50400001928E-02 0. -1.
</event>
<event>
 5   0  0.2421737E-04  0.1951011E+04  0.7818609E-02  0.8629873E-01
       -2   -1    0    0    0  501  0.00000000000E+00  0.00000000000E+00  0.12746967537E+04  0.12746967537E+04  0.25500000920E-02 0.  1.
        2   -1    0    0  501    0  0.00000000000E+00  0.00000000000E+00 -0.74653930113E+03  0.74653930113E+03  0.25500000920E-02 0. -1.
    10030    2    1    2    0    0  0.00000000000E+00  0.00000000000E+00  0.52815745262E+03  0.20212360549E+04  0.19510112493E+04 0.  0.
        1    1    3    3  502    0  0.17033883079E+03  0.54575821045E+03 -0.55477865670E+03  0.79664716123E+03  0.50400001928E-02 0.  1.
       -1    1    3    3    0  502 -0.17033883079E+03 -0.54575821045E+03  0.10829361093E+04  0.12245888936E+04  0.50400001928E-02 0. -1.
</event>
<event>
 5   0  0.2540506E-04  0.1999286E+04  0.7818609E-02  0.8606955E-01
       -2   -1    0    0    0  501  0.00000000000E+00  0.00000000000E+00  0.54674784931E+03  0.54674784932E+03  0.25500000920E-02 0.  1.
        2   -1    0    0  501    0  0.00000000000E+00  0.00000000000E+00 -0.18276909274E+04  0.18276909274E+04  0.25500000920E-02 0. -1.
    10030    2    1    2    0    0  0.00000000000E+00  0.00000000000E+00 -0.12809430780E+04  0.23744387767E+04  0.19992859563E+04 0.  0.
        4    1    3    3  502    0  0.93967699347E+03 -0.16087701292E+03 -0.99757559993E+03  0.13798670066E+04  0.12699999809E+01 0. -1.
       -4    1    3    3    0  502 -0.93967699347E+03  0.16087701292E+03 -0.28336747811E+03  0.99457177011E+03  0.12699999809E+01 0.  1.
</event>
<event>
 5   0  0.2488886E-04  0.1974917E+04  0.7818609E-02  0.8618439E-01
       -2   -1    0    0    0  501  0.00000000000E+00  0.00000000000E+00  0.11425899667E+04  0.11425899667E+04  0.25500000920E-02 0. -1.
        2   -1    0    0  501    0  0.00000000000E+00  0.00000000000E+00 -0.85338920160E+03  0.85338920161E+03  0.25500000920E-02 0.  1.
    10030    2    1    2    0    0  0.00000000000E+00  0.00000000000E+00  0.28920076510E+03  0.19959791683E+04  0.19749166458E+04 0.  0.
        3    1    3    3  502    0 -0.93338863560E+03  0.23385684199E+03  0.36870965126E+03  0.10304611515E+04  0.10100000352E+00 0. -1.
       -3    1    3    3    0  502  0.93338863560E+03 -0.23385684199E+03 -0.79508886153E+02  0.96551801681E+03  0.10100000352E+00 0.  1.
</event>
<event>
 5   0  0.1324930E-04  0.1989808E+04  0.7818609E-02  0.8611401E-01
       -1   -1    0    0    0  501  0.00000000000E+00  0.00000000000E+00  0.97395196918E+03  0.97395196919E+03  0.50400001928E-02 0.  1.
        1   -1    0    0  501    0  0.00000000000E+00  0.00000000000E+00 -0.10163069202E+04  0.10163069202E+04  0.50400001928E-02 0. -1.
    10030    2    1    2    0    0  0.00000000000E+00  0.00000000000E+00 -0.42354950978E+02  0.19902588894E+04  0.19898081578E+04 0.  0.
        5    1    3    3  502    0  0.82165416253E+03  0.55502534862E+03 -0.10270259936E+03  0.99686439114E+03  0.46999998093E+01 0. -1.
       -5    1    3    3    0  502 -0.82165416253E+03 -0.55502534862E+03  0.60347648378E+02  0.99339449821E+03  0.46999998093E+01 0.  1.
</event>
<event>
 5   0  0.9099125E-05  0.1989387E+04  0.7818609E-02  0.8611599E-01
       -4   -1    0    0    0  501  0.00000000000E+00  0.00000000000E+00  0.13222946221E+04  0.13222952320E+04  0.12699999809E+01 0.  1.
        4   -1    0    0  501    0  0.00000000000E+00  0.00000000000E+00 -0.74825479241E+03  0.74825587018E+03  0.12699999809E+01 0. -1.
    10030    2    1    2    0    0  0.00000000000E+00  0.00000000000E+00  0.57403982965E+03  0.20705511021E+04  0.19893868755E+04 0.  0.
        3    1    3    3  502    0  0.37160767095E+03 -0.65146918394E+03 -0.39302125833E+03  0.84674085671E+03  0.10100000352E+00 0. -1.
       -3    1    3    3    0  502 -0.37160767095E+03  0.65146918394E+03  0.96706108798E+03  0.12238102454E+04  0.10100000352E+00 0.  1.
</event>
<event>
 5   0  0.2421737E-04  0.1689133E+04  0.7818609E-02  0.8767587E-01
        2   -1    0    0  501    0  0.00000000000E+00  0.00000000000E+00  0.17257126690E+04  0.17257126690E+04  0.25500000920E-02 0.  1.
       -2   -1    0    0    0  501  0.00000000000E+00  0.00000000000E+00 -0.41333208424E+03  0.41333208425E+03  0.25500000920E-02 0. -1.
    10030    2    1    2    0    0  0.00000000000E+00  0.00000000000E+00  0.13123805848E+04  0.21390447533E+04  0.16891328122E+04 0.  0.
        1    1    3    3  502    0  0.14036569311E+03 -0.82257664192E+03  0.82109675852E+03  0.11706984012E+04  0.50400001928E-02 0.  1.
       -1    1    3    3    0  502 -0.14036569311E+03  0.82257664192E+03  0.49128382624E+03  0.96834635208E+03  0.50400001928E-02 0. -1.
</event>
<event>
 5   0  0.2540506E-04  0.1845242E+04  0.7818609E-02  0.8682603E-01
       -2   -1    0    0    0  501  0.00000000000E+00  0.00000000000E+00  0.47200737406E+03  0.47200737407E+03  0.25500000920E-02 0.  1.
        2   -1    0    0  501    0  0.00000000000E+00  0.00000000000E+00 -0.18034248885E+04  0.18034248885E+04  0.25500000920E-02 0. -1.
    10030    2    1    2    0    0  0.00000000000E+00  0.00000000000E+00 -0.13314175144E+04  0.22754322626E+04  0.18452423645E+04 0.  0.
        4    1    3    3  502    0 -0.16665233831E+03 -0.52015469571E+03  0.25121148451E+03  0.60120107467E+03  0.12699999809E+01 0.  1.
       -4    1    3    3    0  502  0.16665233831E+03  0.52015469571E+03 -0.15826289989E+04  0.16742311879E+04  0.12699999809E+01 0. -1.
</event>
<event>
 5   0  0.2488886E-04  0.1992908E+04  0.7818609E-02  0.8609944E-01
        2   -1    0    0  501    0  0.00000000000E+00  0.00000000000E+00  0.95943592876E+03  0.95943592876E+03  0.25500000920E-02 0.  1.
       -2   -1    0    0    0  501  0.00000000000E+00  0.00000000000E+00 -0.10349004416E+04  0.10349004416E+04  0.25500000920E-02 0. -1.
    10030    2    1    2    0    0  0.00000000000E+00  0.00000000000E+00 -0.75464512885E+02  0.19943363704E+04  0.19929080926E+04 0.  0.
        3    1    3    3  502    0 -0.50393881971E+03 -0.80607736727E+03  0.26115486233E+03  0.98585847278E+03  0.10100000352E+00 0.  1.
       -3    1    3    3    0  502  0.50393881971E+03  0.80607736727E+03 -0.33661937522E+03  0.10084778976E+04  0.10100000352E+00 0. -1.
</event>
<event>
 5   0  0.1207228E-04  0.2072508E+04  0.7818609E-02  0.8573452E-01
       -1   -1    0    0    0  501  0.00000000000E+00  0.00000000000E+00  0.16680173694E+04  0.16680173694E+04  0.50400001928E-02 0.  1.
        1   -1    0    0  501    0  0.00000000000E+00  0.00000000000E+00 -0.64377141513E+03  0.64377141515E+03  0.50400001928E-02 0. -1.
    10030    2    1    2    0    0  0.00000000000E+00  0.00000000000E+00  0.10242459542E+04  0.23117887845E+04  0.20725075656E+04 0.  0.
        1    1    3    3  502    0  0.60326179599E+03  0.22142801303E+03 -0.39467172987E+03  0.75413588553E+03  0.50400001928E-02 0. -1.
       -1    1    3    3    0  502 -0.60326179599E+03 -0.22142801303E+03  0.14189176841E+04  0.15576528990E+04  0.50400001928E-02 0.  1.
</event>
<event>
 5   0  0.2463085E-04  0.1966773E+04  0.7818609E-02  0.8622315E-01
       -2   -1    0    0    0  501  0.00000000000E+00  0.00000000000E+00  0.54686481632E+03  0.54686481632E+03  0.25500000920E-02 0.  1.
        2   -1    0    0  501    0  0.00000000000E+00  0.00000000000E+00 -0.17683503997E+04  0.17683503997E+04  0.25500000920E-02 0. -1.
    10030    2    1    2    0    0  0.00000000000E+00  0.00000000000E+00 -0.12214855834E+04  0.23152152160E+04  0.19667726015E+04 0.  0.
        2    1    3    3  502    0 -0.81286278534E+03  0.21254841327E+03 -0.12122795586E+04  0.14749726994E+04  0.25500000920E-02 0. -1.
       -2    1    3    3    0  502  0.81286278534E+03 -0.21254841327E+03 -0.92060247466E+01  0.84024251659E+03  0.25500000920E-02 0.  1.
</event>
<event>
 5   0  0.1207228E-04  0.1997560E+04  0.7818609E-02  0.8607763E-01
       -1   -1    0    0    0  501  0.00000000000E+00  0.00000000000E+00  0.10208108087E+04  0.10208108087E+04  0.50400001928E-02 0.  1.
        1   -1    0    0  501    0  0.00000000000E+00  0.00000000000E+00 -0.97722417411E+03  0.97722417413E+03  0.50400001928E-02 0. -1.
    10030    2    1    2    0    0  0.00000000000E+00  0.00000000000E+00  0.43586634566E+02  0.19980349828E+04  0.19975595105E+04 0.  0.
        1    1    3    3  502    0  0.51465186610E+03 -0.59375544951E+03  0.63850225592E+03  0.10124708430E+04  0.50400001928E-02 0.  1.
       -1    1    3    3    0  502 -0.51465186610E+03  0.59375544951E+03 -0.59491562136E+03  0.98556413980E+03  0.50400001928E-02 0. -1.
</event>
<event>
 5   0  0.1210633E-04  0.2103565E+04  0.7818609E-02  0.8559675E-01
       -1   -1    0    0    0  501  0.00000000000E+00  0.00000000000E+00  0.78663140506E+03  0.78663140508E+03  0.50400001928E-02 0. -1.
        1   -1    0    0  501    0  0.00000000000E+00  0.00000000000E+00 -0.14063080813E+04  0.14063080813E+04  0.50400001928E-02 0.  1.
    10030    2    1    2    0    0  0.00000000000E+00  0.00000000000E+00 -0.61967667624E+03  0.21929394864E+04  0.21035646907E+04 0.  0.
        2    1    3    3  502    0 -0.23764812279E+03  0.76355006022E+03 -0.10220645493E+04  0.12977292736E+04  0.25500000920E-02 0.  1.
       -2    1    3    3    0  502  0.23764812279E+03 -0.76355006022E+03  0.40238787301E+03  0.89521021279E+03  0.25500000920E-02 0. -1.
</event>
<event>
 5   0  0.2596061E-04  0.1322142E+04  0.7818609E-02  0.9012188E-01
       -2   -1    0    0    0  501  0.00000000000E+00  0.00000000000E+00  0.10001050691E+04  0.10001050691E+04  0.25500000920E-02 0.  1.
        2   -1    0    0  501    0  0.00000000000E+00  0.00000000000E+00 -0.43696884456E+03  0.43696884457E+03  0.25500000920E-02 0. -1.
    10030    2    1    2    0    0  0.00000000000E+00  0.00000000000E+00  0.56313622452E+03  0.14370739136E+04  0.13221418328E+04 0.  0.
        5    1    3    3  502    0  0.58532820227E+02 -0.55853137226E+03 -0.97471344468E+02  0.57000538404E+03  0.46999998093E+01 0. -1.
       -5    1    3    3    0  502 -0.58532820227E+02  0.55853137226E+03  0.66060756898E+03  0.86706852961E+03  0.46999998093E+01 0.  1.
</event>
<event>
 5   0  0.1207228E-04  0.1996434E+04  0.7818609E-02  0.8608290E-01
        1   -1    0    0  501    0  0.00000000000E+00  0.00000000000E+00  0.10751150579E+04  0.10751150580E+04  0.50400001928E-02 0. -1.
       -1   -1    0    0    0  501  0.00000000000E+00  0.00000000000E+00 -0.92681883488E+03  0.92681883489E+03  0.50400001928E-02 0.  1.
    10030    2    1    2    0    0  0.00000000000E+00  0.00000000000E+00  0.14829622306E+03  0.20019338929E+04  0.19964337058E+04 0.  0.
        1    1    3    3  502    0  0.55733800688E+03 -0.78388218614E+03 -0.19368313230E+03  0.98112694970E+03  0.50400001928E-02 0.  1.
       -1    1    3    3    0  502 -0.55733800688E+03  0.78388218614E+03  0.34197935537E+03  0.10208069432E+04  0.50400001928E-02 0. -1.
</event>
<event>
 5   0  0.2540506E-04  0.2004754E+04  0.7818609E-02  0.8604401E-01
        2   -1    0    0  501    0  0.00000000000E+00  0.00000000000E+00  0.14638649831E+04  0.14638649831E+04  0.25500000920E-02 0. -1.
       -2   -1    0    0    0  501  0.00000000000E+00  0.00000000000E+00 -0.68637450470E+03  0.68637450471E+03  0.25500000920E-02 0.  1.
    10030    2    1    2    0    0  0.00000000000E+00  0.00000000000E+00  0.77749047843E+03  0.21502394878E+04  0.20047539527E+04 0.  0.
        4    1    3    3  502    0 -0.24187628902E+03 -0.46962660426E+03 -0.52495917610E+03  0.74473957602E+03  0.12699999809E+01 0.  1.
       -4    1    3    3    0  502  0.24187628902E+03  0.46962660426E+03  0.13024496545E+04  0.14054999118E+04  0.12699999809E+01 0. -1.
</event>
<event>
 5   0  0.9099125E-05  0.2009690E+04  0.7818609E-02  0.8602104E-01
        3   -1    0    0  501    0  0.00000000000E+00  0.00000000000E+00  0.80707960624E+03  0.80707961256E+03  0.10100000352E+00 0.  1.
       -3   -1    0    0    0  501  0.00000000000E+00  0.00000000000E+00 -0.12510700339E+04  0.12510700380E+04  0.10100000352E+00 0. -1.
    10030    2    1    2    0    0  0.00000000000E+00  0.00000000000E+00 -0.44399042767E+03  0.20581496506E+04  0.20096896487E+04 0.  0.
        4    1    3    3  502    0 -0.24111547847E+03  0.28119760932E+03  0.73460693802E+03  0.82271364139E+03  0.12699999809E+01 0.  1.
       -4    1    3    3    0  502  0.24111547847E+03 -0.28119760932E+03 -0.11785973657E+04  0.12354360092E+04  0.12699999809E+01 0. -1.
</event>
<event>
 5   0  0.2488886E-04  0.1995319E+04  0.7818609E-02  0.8608812E-01
       -2   -1    0    0    0  501  0.00000000000E+00  0.00000000000E+00  0.12128955720E+04  0.12128955720E+04  0.25500000920E-02 0.  1.
        2   -1    0    0  501    0  0.00000000000E+00  0.00000000000E+00 -0.82061846299E+03  0.82061846300E+03  0.25500000920E-02 0. -1.
    10030    2    1    2    0    0  0.00000000000E+00  0.00000000000E+00  0.39227710897E+03  0.20335140350E+04  0.19953190221E+04 0.  0.
        3    1    3    3  502    0  0.25069496997E+02  0.63831045993E+03 -0.58485684645E+03  0.86609829926E+03  0.10100000352E+00 0. -1.
       -3    1    3    3    0  502 -0.25069496997E+02 -0.63831045993E+03  0.97713395541E+03  0.11674157357E+04  0.10100000352E+00 0.  1.
</event>
<event>
 5   0  0.2488886E-04  0.1940617E+04  0.7818609E-02  0.8634899E-01
        2   -1    0    0  501    0  0.00000000000E+00  0.00000000000E+00  0.16447159297E+04  0.16447159297E+04  0.25500000920E-02 0.  1.
       -2   -1    0    0    0  501  0.00000000000E+00  0.00000000000E+00 -0.57243818515E+03  0.57243818516E+03  0.25500000920E-02 0. -1.
    10030    2    1    2    0    0  0.00000000000E+00  0.00000000000E+00  0.10722777445E+04  0.22171541148E+04  0.19406166050E+04 0.  0.
        3    1    3    3  502    0  0.70277171967E+03  0.66548554559E+03  0.61478976058E+03  0.11466148269E+04  0.10100000352E+00 0.  1.
       -3    1    3    3    0  502 -0.70277171967E+03 -0.66548554559E+03  0.45748798393E+03  0.10705392879E+04  0.10100000352E+00 0. -1.
</event>
<event>
 5   0  0.1231056E-04  0.1938632E+04  0.7818609E-02  0.8635862E-01
       -1   -1    0    0    0  501  0.00000000000E+00  0.00000000000E+00  0.10052559704E+04  0.10052559704E+04  0.50400001928E-02 0. -1.
        1   -1    0    0  501    0  0.00000000000E+00  0.00000000000E+00 -0.93466118158E+03  0.93466118160E+03  0.50400001928E-02 0.  1.
    10030    2    1    2    0    0  0.00000000000E+00  0.00000000000E+00  0.70594788781E+02  0.19399171520E+04  0.19386322324E+04 0.  0.
        3    1    3    3  502    0 -0.42600412939E+02  0.55430634727E+02  0.10027299748E+04  0.10051640478E+04  0.10100000352E+00 0. -1.
       -3    1    3    3    0  502  0.42600412939E+02 -0.55430634727E+02 -0.93213518604E+03  0.93475310414E+03  0.10100000352E+00 0.  1.
</event>
<event>
 5   0  0.2463085E-04  0.1999475E+04  0.7818609E-02  0.8606866E-01
        2   -1    0    0  501    0  0.00000000000E+00  0.00000000000E+00  0.18022118586E+04  0.18022118586E+04  0.25500000920E-02 0.  1.
       -2   -1    0    0    0  501  0.00000000000E+00  0.00000000000E+00 -0.55458223226E+03  0.55458223227E+03  0.25500000920E-02 0. -1.
    10030    2    1    2    0    0  0.00000000000E+00  0.00000000000E+00  0.12476296263E+04  0.23567940908E+04  0.19994746065E+04 0.  0.
        2    1    3    3  502    0 -0.33238221478E+03 -0.71450567129E+03 -0.10133257712E+03  0.79452160587E+03  0.25500000920E-02 0. -1.
       -2    1    3    3    0  502  0.33238221478E+03  0.71450567129E+03  0.13489622034E+04  0.15622724850E+04  0.25500000920E-02 0.  1.
</event>
<event>
 5   0  0.2540506E-04  0.1949078E+04  0.7818609E-02  0.8630805E-01
        2   -1    0    0  501    0  0.00000000000E+00  0.00000000000E+00  0.77113955611E+03  0.77113955612E+03  0.25500000920E-02 0.  1.
       -2   -1    0    0    0  501  0.00000000000E+00  0.00000000000E+00 -0.12315882483E+04  0.12315882483E+04  0.25500000920E-02 0. -1.
    10030    2    1    2    0    0  0.00000000000E+00  0.00000000000E+00 -0.46044869220E+03  0.20027278044E+04  0.19490781566E+04 0.  0.
        4    1    3    3  502    0  0.18689412808E+03 -0.76179045579E+03 -0.82447778697E+03  0.11379891686E+04  0.12699999809E+01 0. -1.
       -4    1    3    3    0  502 -0.18689412808E+03  0.76179045579E+03  0.36402909477E+03  0.86473863588E+03  0.12699999809E+01 0.  1.
</event>
<event>
 5   0  0.2540506E-04  0.1558228E+04  0.7818609E-02  0.8846629E-01
       -2   -1    0    0    0  501  0.00000000000E+00  0.00000000000E+00  0.40331532077E+03  0.40331532078E+03  0.25500000920E-02 0.  1.
        2   -1    0    0  501    0  0.00000000000E+00  0.00000000000E+00 -0.15050720019E+04  0.15050720019E+04  0.25500000920E-02 0. -1.
    10030    2    1    2    0    0  0.00000000000E+00  0.00000000000E+00 -0.11017566811E+04  0.19083873227E+04  0.15582279644E+04 0.  0.
        4    1    3    3  502    0  0.49394622830E+03 -0.31460556039E+03  0.78460797136E+02  0.59086144287E+03  0.12699999809E+01 0.  1.
       -4    1    3    3    0  502 -0.49394622830E+03  0.31460556039E+03 -0.11802174783E+04  0.13175258798E+04  0.12699999809E+01 0. -1.
</event>
<event>
 5   0  0.1258546E-04  0.2006026E+04  0.7818609E-02  0.8603808E-01
       -1   -1    0    0    0  501  0.00000000000E+00  0.00000000000E+00  0.11752198690E+04  0.11752198690E+04  0.50400001928E-02 0.  1.
        1   -1    0    0  501    0  0.00000000000E+00  0.00000000000E+00 -0.85603988720E+03  0.85603988721E+03  0.50400001928E-02 0. -1.
    10030    2    1    2    0    0  0.00000000000E+00  0.00000000000E+00  0.31917998183E+03  0.20312597563E+04  0.20060260060E+04 0.  0.
        4    1    3    3  502    0  0.43981490473E+03  0.68679144464E+03 -0.43163286749E+03  0.92272866221E+03  0.12699999809E+01 0. -1.
       -4    1    3    3    0  502 -0.43981490473E+03 -0.68679144464E+03  0.75081284932E+03  0.11085310940E+04  0.12699999809E+01 0.  1.
</event>
<event>
 5   0  0.1231056E-04  0.1989501E+04  0.7818609E-02  0.8611545E-01
       -1   -1    0    0    0  501  0.00000000000E+00  0.00000000000E+00  0.94258064823E+03  0.94258064825E+03  0.50400001928E-02 0.  1.
        1   -1    0    0  501    0  0.00000000000E+00  0.00000000000E+00 -0.10498076262E+04  0.10498076262E+04  0.50400001928E-02 0. -1.
    10030    2    1    2    0    0  0.00000000000E+00  0.00000000000E+00 -0.10722697798E+03  0.19923882745E+04  0.19895007945E+04 0.  0.
        3    1    3    3  502    0  0.84409662327E+03 -0.48844616756E+03 -0.24998371058E+03  0.10067624515E+04  0.10100000352E+00 0. -1.
       -3    1    3    3    0  502 -0.84409662327E+03  0.48844616756E+03  0.14275673259E+03  0.98562582297E+03  0.10100000352E+00 0.  1.
</event>
<event>
 5   0  0.1207228E-04  0.1963765E+04  0.7818609E-02  0.8623752E-01
        1   -1    0    0  501    0  0.00000000000E+00  0.00000000000E+00  0.11468848537E+04  0.11468848537E+04  0.50400001928E-02 0. -1.
       -1   -1    0    0    0  501  0.00000000000E+00  0.00000000000E+00 -0.84061876374E+03  0.84061876375E+03  0.50400001928E-02 0.  1.
    10030    2    1    2    0    0  0.00000000000E+00  0.00000000000E+00  0.30626608991E+03  0.19875036174E+04  0.19637646782E+04 0.  0.
        1    1    3    3  502    0  0.13846236490E+03 -0.17551765828E+03  0.11207841989E+04  0.11428628507E+04  0.50400001928E-02 0. -1.
       -1    1    3    3    0  502 -0.13846236490E+03  0.17551765828E+03 -0.81451810903E+03  0.84464076673E+03  0.50400001928E-02 0.  1.
</event>
<event>
 5   0  0.1210633E-04  0.2014637E+04  0.7818609E-02  0.8599808E-01
       -1   -1    0    0    0  501  0.00000000000E+00  0.00000000000E+00  0.13780315369E+04  0.13780315369E+04  0.50400001928E-02 0.  1.
        1   -1    0    0  501    0  0.00000000000E+00  0.00000000000E+00 -0.73633310071E+03  0.73633310073E+03  0.50400001928E-02 0. -1.
    10030    2    1    2    0    0  0.00000000000E+00  0.00000000000E+00  0.64169843623E+03  0.21143646377E+04  0.20146366764E+04 0.  0.
        2    1    3    3  502    0 -0.93688588963E+02 -0.91194104221E+03  0.75897843410E+03  0.11901522086E+04  0.25500000920E-02 0.  1.
       -2    1    3    3    0  502  0.93688588963E+02  0.91194104221E+03 -0.11727999787E+03  0.92421242909E+03  0.25500000920E-02 0. -1.
</event>
<event>
 5   0  0.1207228E-04  0.1966634E+04  0.7818609E-02  0.8622381E-01
        1   -1    0    0  501    0  0.00000000000E+00  0.00000000000E+00  0.13991574865E+04  0.13991574865E+04  0.50400001928E-02 0.  1.
       -1   -1    0    0    0  501  0.00000000000E+00  0.00000000000E+00 -0.69106753126E+03  0.69106753128E+03  0.50400001928E-02 0. -1.
    10030    2    1    2    0    0  0.00000000000E+00  0.00000000000E+00  0.70808995525E+03  0.20902250178E+04  0.19666339874E+04 0.  0.
        1    1    3    3  502    0 -0.83688446571E+03  0.55907401911E+02  0.89953461784E+03  0.12299039699E+04  0.50400001928E-02 0.  1.
       -1    1    3    3    0  502  0.83688446571E+03 -0.55907401911E+02 -0.19144466259E+03  0.86032104786E+03  0.50400001928E-02 0. -1.
</event>
<event>
 5   0  0.2463085E-04  0.2004368E+04  0.7818609E-02  0.8604581E-01
        2   -1    0    0  501    0  0.00000000000E+00  0.00000000000E+00  0.18205717147E+04  0.18205717147E+04  0.25500000920E-02 0.  1.
       -2   -1    0    0    0  501  0.00000000000E+00  0.00000000000E+00 -0.55168001303E+03  0.55168001304E+03  0.25500000920E-02 0. -1.
    10030    2    1    2    0    0  0.00000000000E+00  0.00000000000E+00  0.12688917016E+04  0.23722517277E+04  0.20043682569E+04 0.  0.
        2    1    3    3  502    0  0.22125304491E+03 -0.13581782313E+03 -0.51119091092E+03  0.57333719431E+03  0.25500000920E-02 0. -1.
       -2    1    3    3    0  502 -0.22125304491E+03  0.13581782313E+03  0.17800826126E+04  0.17989145334E+04  0.25500000920E-02 0.  1.
</event>
<event>
 5   0  0.1258546E-04  0.2018829E+04  0.7818609E-02  0.8597868E-01
       -1   -1    0    0    0  501  0.00000000000E+00  0.00000000000E+00  0.68372805536E+03  0.68372805538E+03  0.50400001928E-02 0.  1.
        1   -1    0    0  501    0  0.00000000000E+00  0.00000000000E+00 -0.14902386900E+04  0.14902386900E+04  0.50400001928E-02 0. -1.
    10030    2    1    2    0    0  0.00000000000E+00  0.00000000000E+00 -0.80651063464E+03  0.21739667454E+04  0.20188293653E+04 0.  0.
        4    1    3    3  502    0  0.73830723306E+02 -0.95841365685E+03 -0.73500173294E+03  0.12100565580E+04  0.12699999809E+01 0.  1.
       -4    1    3    3    0  502 -0.73830723306E+02  0.95841365685E+03 -0.71508901697E+02  0.96391018734E+03  0.12699999809E+01 0. -1.
</event>
<event>
 5   0  0.2463085E-04  0.1982439E+04  0.7818609E-02  0.8614875E-01
       -2   -1    0    0    0  501  0.00000000000E+00  0.00000000000E+00  0.12928502198E+04  0.12928502198E+04  0.25500000920E-02 0.  1.
        2   -1    0    0  501    0  0.00000000000E+00  0.00000000000E+00 -0.75996140210E+03  0.75996140210E+03  0.25500000920E-02 0. -1.
    10030    2    1    2    0    0  0.00000000000E+00  0.00000000000E+00  0.53288881775E+03  0.20528116219E+04  0.19824391701E+04 0.  0.
        2    1    3    3  502    0  0.57791234902E+03 -0.51228418081E+03  0.90986993337E+03  0.11934324701E+04  0.25500000920E-02 0.  1.
       -2    1    3    3    0  502 -0.57791234902E+03  0.51228418081E+03 -0.37698111563E+03  0.85937915183E+03  0.25500000920E-02 0. -1.
</event>
<event>
 5   0  0.1207228E-04  0.1876078E+04  0.7818609E-02  0.8666856E-01
        1   -1    0    0  501    0  0.00000000000E+00  0.00000000000E+00  0.17154030387E+04  0.17154030388E+04  0.50400001928E-02 0.  1.
       -1   -1    0    0    0  501  0.00000000000E+00  0.00000000000E+00 -0.51295085421E+03  0.51295085423E+03  0.50400001928E-02 0. -1.
    10030    2    1    2    0    0  0.00000000000E+00  0.00000000000E+00  0.12024521845E+04  0.22283538930E+04  0.18760783076E+04 0.  0.
        1    1    3    3  502    0 -0.64161739247E+03 -0.68307299053E+03  0.64955931016E+03  0.11402582541E+04  0.50400001928E-02 0. -1.
       -1    1    3    3    0  502  0.64161739247E+03  0.68307299053E+03  0.55289287438E+03  0.10880956388E+04  0.50400001928E-02 0.  1.
</event>
<event>
 5   0  0.1231056E-04  0.1915707E+04  0.7818609E-02  0.8647077E-01
       -1   -1    0    0    0  501  0.00000000000E+00  0.00000000000E+00  0.90621271965E+03  0.90621271967E+03  0.50400001928E-02 0.  1.
        1   -1    0    0  501    0  0.00000000000E+00  0.00000000000E+00 -0.10124366233E+04  0.10124366233E+04  0.50400001928E-02 0. -1.
    10030    2    1    2    0    0  0.00000000000E+00  0.00000000000E+00 -0.10622390364E+03  0.19186493430E+04  0.19157066016E+04 0.  0.
        3    1    3    3  502    0  0.67078307333E+03 -0.15156905793E+03  0.61466545266E+03  0.92235391238E+03  0.10100000352E+00 0.  1.
       -3    1    3    3    0  502 -0.67078307333E+03  0.15156905793E+03 -0.72088935630E+03  0.99629543059E+03  0.10100000352E+00 0. -1.
</event>
<event>
 5   0  0.2463085E-04  0.1990149E+04  0.7818609E-02  0.8611240E-01
       -2   -1    0    0    0  501  0.00000000000E+00  0.00000000000E+00  0.59097223390E+03  0.59097223391E+03  0.25500000920E-02 0.  1.
        2   -1    0    0  501    0  0.00000000000E+00  0.00000000000E+00 -0.16754985551E+04  0.16754985551E+04  0.25500000920E-02 0. -1.
    10030    2    1    2    0    0  0.00000000000E+00  0.00000000000E+00 -0.10845263212E+04  0.22664707891E+04  0.19901488628E+04 0.  0.
        2    1    3    3  502    0 -0.68032887331E+03  0.62416329749E+03 -0.11959070677E+03  0.93098288649E+03  0.25500000920E-02 0.  1.
       -2    1    3    3    0  502  0.68032887331E+03 -0.62416329749E+03 -0.96493561447E+03  0.13354879026E+04  0.25500000920E-02 0. -1.
</event>
<event>
 5   0  0.2421737E-04  0.2011716E+04  0.7818609E-02  0.8601162E-01
       -2   -1    0    0    0  501  0.00000000000E+00  0.00000000000E+00  0.61213892428E+03  0.61213892429E+03  0.25500000920E-02 0.  1.
        2   -1    0    0  501    0  0.00000000000E+00  0.00000000000E+00 -0.16528122558E+04  0.16528122558E+04  0.25500000920E-02 0. -1.
    10030    2    1    2    0    0  0.00000000000E+00  0.00000000000E+00 -0.10406733315E+04  0.22649511801E+04  0.20117163978E+04 0.  0.
        1    1    3    3  502    0  0.57897457053E+03 -0.34388912583E+03 -0.13615727700E+04  0.15189969362E+04  0.50400001928E-02 0. -1.
       -1    1    3    3    0  502 -0.57897457053E+03  0.34388912583E+03  0.32089943854E+03  0.74595424382E+03  0.50400001928E-02 0.  1.
</event>
<event>
 5   0  0.2596061E-04  0.1978587E+04  0.7818609E-02  0.8616698E-01
        2   -1    0    0  501    0  0.00000000000E+00  0.00000000000E+00  0.22609974141E+04  0.22609974141E+04  0.25500000920E-02 0. -1.
       -2   -1    0    0    0  501  0.00000000000E+00  0.00000000000E+00 -0.43286297849E+03  0.43286297850E+03  0.25500000920E-02 0.  1.
    10030    2    1    2    0    0  0.00000000000E+00  0.00000000000E+00  0.18281344356E+04  0.26938603926E+04  0.19785874507E+04 0.  0.
        5    1    3    3  502    0 -0.22429509356E+03  0.66140077933E+03 -0.39882556133E+02  0.69955127630E+03  0.46999998093E+01 0.  1.
       -5    1    3    3    0  502  0.22429509356E+03 -0.66140077933E+03  0.18680169918E+04  0.19943091163E+04  0.46999998093E+01 0. -1.
</event>
<event>
 5   0  0.1258546E-04  0.1945088E+04  0.7818609E-02  0.8632733E-01
       -1   -1    0    0    0  501  0.00000000000E+00  0.00000000000E+00  0.12712901817E+04  0.12712901817E+04  0.50400001928E-02 0. -1.
        1   -1    0    0  501    0  0.00000000000E+00  0.00000000000E+00 -0.74400180554E+03  0.74400180556E+03  0.50400001928E-02 0.  1.
    10030    2    1    2    0    0  0.00000000000E+00  0.00000000000E+00  0.52728837614E+03  0.20152919872E+04  0.19450883688E+04 0.  0.
        4    1    3    3  502    0  0.63970881511E+03 -0.24876744335E+03  0.97751734314E+03  0.11944263803E+04  0.12699999809E+01 0. -1.
       -4    1    3    3    0  502 -0.63970881511E+03  0.24876744335E+03 -0.45022896699E+03  0.82086560692E+03  0.12699999809E+01 0.  1.
</event>
<event>
 5   0  0.1207228E-04  0.2019474E+04  0.7818609E-02  0.8597570E-01
        1   -1    0    0  501    0  0.00000000000E+00  0.00000000000E+00  0.16359165740E+04  0.16359165741E+04  0.50400001928E-02 0. -1.
       -1   -1    0    0    0  501  0.00000000000E+00  0.00000000000E+00 -0.62323989458E+03  0.62323989460E+03  0.50400001928E-02 0.  1.
    10030    2    1    2    0    0  0.00000000000E+00  0.00000000000E+00  0.10126766795E+04  0.22591564687E+04  0.20194736673E+04 0.  0.
        1    1    3    3  502    0 -0.28863172386E+03  0.68219245498E+03  0.12739831410E+04  0.14736783439E+04  0.50400001928E-02 0. -1.
       -1    1    3    3    0  502  0.28863172386E+03 -0.68219245498E+03 -0.26130646152E+03  0.78547812478E+03  0.50400001928E-02 0.  1.
</event>
<event>
 5   0  0.1231056E-04  0.2001539E+04  0.7818609E-02  0.8605901E-01
       -1   -1    0    0    0  501  0.00000000000E+00  0.00000000000E+00  0.79669419027E+03  0.79669419029E+03  0.50400001928E-02 0.  1.
        1   -1    0    0  501    0  0.00000000000E+00  0.00000000000E+00 -0.12571194171E+04  0.12571194171E+04  0.50400001928E-02 0. -1.
    10030    2    1    2    0    0  0.00000000000E+00  0.00000000000E+00 -0.46042522682E+03  0.20538136074E+04  0.20015391439E+04 0.  0.
        3    1    3    3  502    0 -0.85387648521E+02 -0.39922327387E+03 -0.11677880578E+04  0.12370930568E+04  0.10100000352E+00 0. -1.
       -3    1    3    3    0  502  0.85387648521E+02  0.39922327387E+03  0.70736283100E+03  0.81672055062E+03  0.10100000352E+00 0.  1.
</event>
<event>
 5   0  0.2488886E-04  0.1985499E+04  0.7818609E-02  0.8613430E-01
       -2   -1    0    0    0  501  0.00000000000E+00  0.00000000000E+00  0.48215884240E+03  0.48215884241E+03  0.25500000920E-02 0. -1.
        2   -1    0    0  501    0  0.00000000000E+00  0.00000000000E+00 -0.20440394863E+04  0.20440394863E+04  0.25500000920E-02 0.  1.
    10030    2    1    2    0    0  0.00000000000E+00  0.00000000000E+00 -0.15618806439E+04  0.25261983287E+04  0.19854991438E+04 0.  0.
        3    1    3    3  502    0  0.33696188362E+03 -0.47138228346E+03 -0.18065685774E+04  0.18972175951E+04  0.10100000352E+00 0.  1.
       -3    1    3    3    0  502 -0.33696188362E+03  0.47138228346E+03  0.24468793353E+03  0.62898073356E+03  0.10100000352E+00 0. -1.
</event>
<event>
 5   0  0.2463085E-04  0.2003129E+04  0.7818609E-02  0.8605159E-01
        2   -1    0    0  501    0  0.00000000000E+00  0.00000000000E+00  0.11473908362E+04  0.11473908362E+04  0.25500000920E-02 0.  1.
       -2   -1    0    0    0  501  0.00000000000E+00  0.00000000000E+00 -0.87427151972E+03  0.87427151973E+03  0.25500000920E-02 0. -1.
    10030    2    1    2    0    0  0.00000000000E+00  0.00000000000E+00  0.27311931646E+03  0.20216623559E+04  0.20031286829E+04 0.  0.
        2    1    3    3  502    0 -0.89778146196E+03 -0.62285382275E+02  0.58021775343E+03  0.10707677917E+04  0.25500000920E-02 0.  1.
       -2    1    3    3    0  502  0.89778146196E+03  0.62285382275E+02 -0.30709843697E+03  0.95089456423E+03  0.25500000920E-02 0. -1.
</event>
<event>
 5   0  0.9099125E-05  0.1953094E+04  0.7818609E-02  0.8628870E-01
       -4   -1    0    0    0  501  0.00000000000E+00  0.00000000000E+00  0.51391800901E+03  0.51391957823E+03  0.12699999809E+01 0.  1.
        4   -1    0    0  501    0  0.00000000000E+00  0.00000000000E+00 -0.18556291923E+04  0.18556296269E+04  0.12699999809E+01 0. -1.
    10030    2    1    2    0    0  0.00000000000E+00  0.00000000000E+00 -0.13417111833E+04  0.23695492052E+04  0.19530935810E+04 0.  0.
        1    1    3    3  502    0  0.90439778289E+03 -0.28539992516E+03 -0.95344978339E+03  0.13447880712E+04  0.50400001928E-02 0. -1.
       -1    1    3    3    0  502 -0.90439778289E+03  0.28539992516E+03 -0.38826139995E+03  0.10247611340E+04  0.50400001928E-02 0.  1.
</event>
<event>
 5   0  0.1210633E-04  0.1998139E+04  0.7818609E-02  0.8607491E-01
       -1   -1    0    0    0  501  0.00000000000E+00  0.00000000000E+00  0.94799921815E+03  0.94799921816E+03  0.50400001928E-02 0. -1.
        1   -1    0    0  501    0  0.00000000000E+00  0.00000000000E+00 -0.10528910410E+04  0.10528910410E+04  0.50400001928E-02 0.  1.
    10030    2    1    2    0    0  0.00000000000E+00  0.00000000000E+00 -0.10489182285E+03  0.20008902592E+04  0.19981390179E+04 0.  0.
        2    1    3    3  502    0  0.83517018372E+03  0.37466111879E+03  0.34842978194E+03  0.97943019285E+03  0.25500000920E-02 0. -1.
       -2    1    3    3    0  502 -0.83517018372E+03 -0.37466111879E+03 -0.45332160478E+03  0.10214600663E+04  0.25500000920E-02 0.  1.
</event>
<event>
 5   0  0.2540506E-04  0.1979320E+04  0.7818609E-02  0.8616351E-01
       -2   -1    0    0    0  501  0.00000000000E+00  0.00000000000E+00  0.31158903639E+03  0.31158903640E+03  0.25500000920E-02 0.  1.
        2   -1    0    0  501    0  0.00000000000E+00  0.00000000000E+00 -0.31433295212E+04  0.31433295212E+04  0.25500000920E-02 0. -1.
    10030    2    1    2    0    0  0.00000000000E+00  0.00000000000E+00 -0.28317404848E+04  0.34549185576E+04  0.19793201020E+04 0.  0.
        4    1    3    3  502    0  0.80450290835E+03 -0.39746194997E+03 -0.21444487536E+04  0.23246210446E+04  0.12699999809E+01 0. -1.
       -4    1    3    3    0  502 -0.80450290835E+03  0.39746194997E+03 -0.68729173122E+03  0.11302975130E+04  0.12699999809E+01 0.  1.
</event>
<event>
 5   0  0.1231056E-04  0.1993868E+04  0.7818609E-02  0.8609493E-01
        1   -1    0    0  501    0  0.00000000000E+00  0.00000000000E+00  0.60015484095E+03  0.60015484098E+03  0.50400001928E-02 0.  1.
       -1   -1    0    0    0  501  0.00000000000E+00  0.00000000000E+00 -0.16560354231E+04  0.16560354231E+04  0.50400001928E-02 0. -1.
    10030    2    1    2    0    0  0.00000000000E+00  0.00000000000E+00 -0.10558805821E+04  0.22561902641E+04  0.19938682765E+04 0.  0.
        3    1    3    3  502    0 -0.65470382496E+02  0.99421827964E+03 -0.56583177113E+03  0.11458280682E+04  0.10100000352E+00 0. -1.
       -3    1    3    3    0  502  0.65470382496E+02 -0.99421827964E+03 -0.49004881099E+03  0.11103621958E+04  0.10100000352E+00 0.  1.
</event>
<event>
 5   0  0.2421737E-04  0.1994691E+04  0.7818609E-02  0.8609107E-01
       -2   -1    0    0    0  501  0.00000000000E+00  0.00000000000E+00  0.11832017417E+04  0.11832017417E+04  0.25500000920E-02 0.  1.
        2   -1    0    0  501    0  0.00000000000E+00  0.00000000000E+00 -0.84068311419E+03  0.84068311420E+03  0.25500000920E-02 0. -1.
    10030    2    1    2    0    0  0.00000000000E+00  0.00000000000E+00  0.34251862753E+03  0.20238848559E+04  0.19946906777E+04 0.  0.
        1    1    3    3  502    0  0.15719223522E+03 -0.98261812816E+03  0.10357510811E+03  0.10004876749E+04  0.50400001928E-02 0.  1.
       -1    1    3    3    0  502 -0.15719223522E+03  0.98261812816E+03  0.23894351942E+03  0.10233971810E+04  0.50400001928E-02 0. -1.
</event>
<event>
 5   0  0.9099125E-05  0.1469530E+04  0.7818609E-02  0.8904972E-01
       -4   -1    0    0    0  501  0.00000000000E+00  0.00000000000E+00  0.63156624754E+03  0.63156752444E+03  0.12699999809E+01 0.  1.
        4   -1    0    0  501    0  0.00000000000E+00  0.00000000000E+00 -0.85482373329E+03  0.85482467670E+03  0.12699999809E+01 0. -1.
    10030    2    1    2    0    0  0.00000000000E+00  0.00000000000E+00 -0.22325748575E+03  0.14863922011E+04  0.14695298128E+04 0.  0.
        5    1    3    3  502    0  0.33376276583E+03  0.15723260194E+02 -0.77351707316E+03  0.84261234102E+03  0.46999998093E+01 0. -1.
       -5    1    3    3    0  502 -0.33376276583E+03 -0.15723260194E+02  0.55025958741E+03  0.64377986012E+03  0.46999998093E+01 0.  1.
</event>
<event>
 5   0  0.1258546E-04  0.1981593E+04  0.7818609E-02  0.8615275E-01
        1   -1    0    0  501    0  0.00000000000E+00  0.00000000000E+00  0.95224074964E+03  0.95224074966E+03  0.50400001928E-02 0. -1.
       -1   -1    0    0    0  501  0.00000000000E+00  0.00000000000E+00 -0.10309128798E+04  0.10309128798E+04  0.50400001928E-02 0.  1.
    10030    2    1    2    0    0  0.00000000000E+00  0.00000000000E+00 -0.78672130141E+02  0.19831536295E+04  0.19815925449E+04 0.  0.
        4    1    3    3  502    0 -0.18539144036E+03  0.91112766500E+03  0.30320836751E+03  0.97798800356E+03  0.12699999809E+01 0. -1.
       -4    1    3    3    0  502  0.18539144036E+03 -0.91112766500E+03 -0.38188049765E+03  0.10051656259E+04  0.12699999809E+01 0.  1.
</event>
<event>
 5   0  0.2540506E-04  0.1772554E+04  0.7818609E-02  0.8721033E-01
        2   -1    0    0  501    0  0.00000000000E+00  0.00000000000E+00  0.12249071451E+04  0.12249071451E+04  0.25500000920E-02 0. -1.
       -2   -1    0    0    0  501  0.00000000000E+00  0.00000000000E+00 -0.64126233625E+03  0.64126233625E+03  0.25500000920E-02 0.  1.
    10030    2    1    2    0    0  0.00000000000E+00  0.00000000000E+00  0.58364480889E+03  0.18661694814E+04  0.17725538836E+04 0.  0.
        4    1    3    3  502    0 -0.40481017259E+01 -0.34805031138E+03  0.11499334718E+04  0.12014591166E+04  0.12699999809E+01 0. -1.
       -4    1    3    3    0  502  0.40481017259E+01  0.34805031138E+03 -0.56628866293E+03  0.66471036478E+03  0.12699999809E+01 0.  1.
</event>
<event>
 5   0  0.2463085E-04  0.2017013E+04  0.7818609E-02  0.8598708E-01
        2   -1    0    0  501    0  0.00000000000E+00  0.00000000000E+00  0.20049004033E+04  0.20049004033E+04  0.25500000920E-02 0. -1.
       -2   -1    0    0    0  501  0.00000000000E+00  0.00000000000E+00 -0.50729946953E+03  0.50729946954E+03  0.25500000920E-02 0.  1.
    10030    2    1    2    0    0  0.00000000000E+00  0.00000000000E+00  0.14976009338E+04  0.25121998728E+04  0.20170125543E+04 0.  0.
        2    1    3    3  502    0 -0.24468306396E+03 -0.16475776043E+03  0.19499674984E+04  0.19721531802E+04  0.25500000920E-02 0. -1.
       -2    1    3    3    0  502  0.24468306396E+03  0.16475776043E+03 -0.45236656463E+03  0.54004669262E+03  0.25500000920E-02 0.  1.
</event>
<event>
 5   0  0.1324930E-04  0.1963843E+04  0.7818609E-02  0.8623714E-01
        1   -1    0    0  501    0  0.00000000000E+00  0.00000000000E+00  0.87077887571E+03  0.87077887572E+03  0.50400001928E-02 0.  1.
       -1   -1    0    0    0  501  0.00000000000E+00  0.00000000000E+00 -0.11072504043E+04  0.11072504043E+04  0.50400001928E-02 0. -1.
    10030    2    1    2    0    0  0.00000000000E+00  0.00000000000E+00 -0.23647152860E+03  0.19780292800E+04  0.19638434380E+04 0.  0.
        5    1    3    3  502    0  0.92311463393E+02  0.45305215856E+03 -0.99073234221E+03  0.10933207803E+04  0.46999998093E+01 0. -1.
       -5    1    3    3    0  502 -0.92311463393E+02 -0.45305215856E+03  0.75426081361E+03  0.88470849979E+03  0.46999998093E+01 0.  1.
</event>
<event>
 5   0  0.2596061E-04  0.2003040E+04  0.7818609E-02  0.8605201E-01
        2   -1    0    0  501    0  0.00000000000E+00  0.00000000000E+00  0.14338040908E+04  0.14338040908E+04  0.25500000920E-02 0. -1.
       -2   -1    0    0    0  501  0.00000000000E+00  0.00000000000E+00 -0.69956711167E+03  0.69956711167E+03  0.25500000920E-02 0.  1.
    10030    2    1    2    0    0  0.00000000000E+00  0.00000000000E+00  0.73423697917E+03  0.21333712025E+04  0.20030398763E+04 0.  0.
        5    1    3    3  502    0 -0.81810318053E+03 -0.30190885600E+03  0.89168774075E+03  0.12472252757E+04  0.46999998093E+01 0. -1.
       -5    1    3    3    0  502  0.81810318053E+03  0.30190885600E+03 -0.15745076158E+03  0.88614592683E+03  0.46999998093E+01 0.  1.
</event>
<event>
 5   0  0.2463085E-04  0.1309153E+04  0.7818609E-02  0.9022338E-01
        2   -1    0    0  501    0  0.00000000000E+00  0.00000000000E+00  0.73236424711E+03  0.73236424711E+03  0.25500000920E-02 0.  1.
       -2   -1    0    0    0  501  0.00000000000E+00  0.00000000000E+00 -0.58505079367E+03  0.58505079368E+03  0.25500000920E-02 0. -1.
    10030    2    1    2    0    0  0.00000000000E+00  0.00000000000E+00  0.14731345344E+03  0.13174150408E+04  0.13091528315E+04 0.  0.
        2    1    3    3  502    0 -0.17287035954E+03 -0.23186151562E+03 -0.51726845467E+03  0.59263022015E+03  0.25500000920E-02 0. -1.
       -2    1    3    3    0  502  0.17287035954E+03  0.23186151562E+03  0.66458190811E+03  0.72478482064E+03  0.25500000920E-02 0.  1.
</event>
<event>
 5   0  0.2596061E-04  0.2118555E+04  0.7818609E-02  0.8553114E-01
        2   -1    0    0  501    0  0.00000000000E+00  0.00000000000E+00  0.96600248078E+03  0.96600248079E+03  0.25500000920E-02 0.  1.
       -2   -1    0    0    0  501  0.00000000000E+00  0.00000000000E+00 -0.11615588119E+04  0.11615588119E+04  0.25500000920E-02 0. -1.
    10030    2    1    2    0    0  0.00000000000E+00  0.00000000000E+00 -0.19555633107E+03  0.21275612926E+04  0.21185548790E+04 0.  0.
        5    1    3    3  502    0  0.10009763586E+04  0.32607091057E+03 -0.21562564184E+03  0.10746126821E+04  0.46999998093E+01 0. -1.
       -5    1    3    3    0  502 -0.10009763586E+04 -0.32607091057E+03  0.20069310765E+02  0.10529486105E+04  0.46999998093E+01 0.  1.
</event>
<event>
 5   0  0.1231056E-04  0.2035744E+04  0.7818609E-02  0.8590089E-01
       -1   -1    0    0    0  501  0.00000000000E+00  0.00000000000E+00  0.78577477476E+03  0.78577477478E+03  0.50400001928E-02 0. -1.
        1   -1    0    0  501    0  0.00000000000E+00  0.00000000000E+00 -0.13185245537E+04  0.13185245538E+04  0.50400001928E-02 0.  1.
    10030    2    1    2    0    0  0.00000000000E+00  0.00000000000E+00 -0.53274977899E+03  0.21042993285E+04  0.20357439272E+04 0.  0.
        3    1    3    3  502    0 -0.53879231483E+03  0.30653796678E+03 -0.11009045179E+04  0.12634292427E+04  0.10100000352E+00 0.  1.
       -3    1    3    3    0  502  0.53879231483E+03 -0.30653796678E+03  0.56815473894E+03  0.84087008580E+03  0.10100000352E+00 0. -1.
</event>
<event>
 5   0  0.2421737E-04  0.1946863E+04  0.7818609E-02  0.8631875E-01
       -2   -1    0    0    0  501  0.00000000000E+00  0.00000000000E+00  0.12313184543E+04  0.12313184543E+04  0.25500000920E-02 0. -1.
        2   -1    0    0  501    0  0.00000000000E+00  0.00000000000E+00 -0.76955627146E+03  0.76955627146E+03  0.25500000920E-02 0.  1.
    10030    2    1    2    0    0  0.00000000000E+00  0.00000000000E+00  0.46176218288E+03  0.20008747258E+04  0.19468629522E+04 0.  0.
        1    1    3    3  502    0  0.99305302357E+02  0.32664840005E+03  0.11677679578E+04  0.12166522608E+04  0.50400001928E-02 0. -1.
       -1    1    3    3    0  502 -0.99305302357E+02 -0.32664840005E+03 -0.70600577495E+03  0.78422246501E+03  0.50400001928E-02 0.  1.
</event>
<event>
 5   0  0.1231056E-04  0.1714094E+04  0.7818609E-02  0.8753367E-01
       -1   -1    0    0    0  501  0.00000000000E+00  0.00000000000E+00  0.38776545742E+03  0.38776545745E+03  0.50400001928E-02 0. -1.
        1   -1    0    0  501    0  0.00000000000E+00  0.00000000000E+00 -0.18942615387E+04  0.18942615387E+04  0.50400001928E-02 0.  1.
    10030    2    1    2    0    0  0.00000000000E+00  0.00000000000E+00 -0.15064960813E+04  0.22820269962E+04  0.17140935705E+04 0.  0.
        3    1    3    3  502    0 -0.14250707313E+03 -0.59257595403E+03 -0.15554509235E+04  0.16705933416E+04  0.10100000352E+00 0.  1.
       -3    1    3    3    0  502  0.14250707313E+03  0.59257595403E+03  0.48954842252E+02  0.61143365459E+03  0.10100000352E+00 0. -1.
</event>
<event>
 5   0  0.2463085E-04  0.1812401E+04  0.7818609E-02  0.8699732E-01
        2   -1    0    0  501    0  0.00000000000E+00  0.00000000000E+00  0.16451316159E+04  0.16451316159E+04  0.25500000920E-02 0.  1.
       -2   -1    0    0    0  501  0.00000000000E+00  0.00000000000E+00 -0.49916948702E+03  0.49916948703E+03  0.25500000920E-02 0. -1.
    10030    2    1    2    0    0  0.00000000000E+00  0.00000000000E+00  0.11459621289E+04  0.21443011030E+04  0.18124011750E+04 0.  0.
        2    1    3    3  502    0 -0.75761868433E+02 -0.34661179532E+03 -0.41357953230E+03  0.54491065957E+03  0.25500000920E-02 0. -1.
       -2    1    3    3    0  502  0.75761868433E+02  0.34661179532E+03  0.15595416612E+04  0.15993904434E+04  0.25500000920E-02 0.  1.
</event>
<event>
 5   0  0.2421737E-04  0.2018328E+04  0.7818609E-02  0.8598100E-01
        2   -1    0    0  501    0  0.00000000000E+00  0.00000000000E+00  0.17162671540E+04  0.17162671540E+04  0.25500000920E-02 0.  1.
       -2   -1    0    0    0  501  0.00000000000E+00  0.00000000000E+00 -0.59338750855E+03  0.59338750856E+03  0.25500000920E-02 0. -1.
    10030    2    1    2    0    0  0.00000000000E+00  0.00000000000E+00  0.11228796454E+04  0.23096546625E+04  0.20183275160E+04 0.  0.
        1    1    3    3  502    0  0.97989294789E+03 -0.19033343717E+03  0.73115172276E+03  0.12373357864E+04  0.50400001928E-02 0. -1.
       -1    1    3    3    0  502 -0.97989294789E+03  0.19033343717E+03  0.39172792264E+03  0.10723188761E+04  0.50400001928E-02 0.  1.
</event>
<event>
 5   0  0.2421737E-04  0.2024736E+04  0.7818609E-02  0.8595142E-01
       -2   -1    0    0    0  501  0.00000000000E+00  0.00000000000E+00  0.66920795929E+03  0.66920795929E+03  0.25500000920E-02 0. -1.
        2   -1    0    0  501    0  0.00000000000E+00  0.00000000000E+00 -0.15314960553E+04  0.15314960553E+04  0.25500000920E-02 0.  1.
    10030    2    1    2    0    0  0.00000000000E+00  0.00000000000E+00 -0.86228809597E+03  0.22007040146E+04  0.20247363777E+04 0.  0.
        1    1    3    3  502    0  0.50194900216E+03 -0.30226068449E+03  0.46618140090E+03  0.74875858641E+03  0.50400001928E-02 0. -1.
       -1    1    3    3    0  502 -0.50194900216E+03  0.30226068449E+03 -0.13284694969E+04  0.14519454281E+04  0.50400001928E-02 0.  1.
</event>
<event>
 5   0  0.2596061E-04  0.1931262E+04  0.7818609E-02  0.8639450E-01
       -2   -1    0    0    0  501  0.00000000000E+00  0.00000000000E+00  0.58233426075E+03  0.58233426076E+03  0.25500000920E-02 0.  1.
        2   -1    0    0  501    0  0.00000000000E+00  0.00000000000E+00 -0.16012164849E+04  0.16012164849E+04  0.25500000920E-02 0. -1.
    10030    2    1    2    0    0  0.00000000000E+00  0.00000000000E+00 -0.10188822241E+04  0.21835507456E+04  0.19312619895E+04 0.  0.
        5    1    3    3  502    0 -0.90207783754E+03 -0.27626255474E+03 -0.27675093603E+03  0.98319814622E+03  0.46999998093E+01 0.  1.
       -5    1    3    3    0  502  0.90207783754E+03  0.27626255474E+03 -0.74213128810E+03  0.12003525994E+04  0.46999998093E+01 0. -1.
</event>
<event>
 5   0  0.1258546E-04  0.1998709E+04  0.7818609E-02  0.8607224E-01
        1   -1    0    0  501    0  0.00000000000E+00  0.00000000000E+00  0.11335334087E+04  0.11335334087E+04  0.50400001928E-02 0. -1.
       -1   -1    0    0    0  501  0.00000000000E+00  0.00000000000E+00 -0.88105884827E+03  0.88105884829E+03  0.50400001928E-02 0.  1.
    10030    2    1    2    0    0  0.00000000000E+00  0.00000000000E+00  0.25247456044E+03  0.20145922570E+04  0.19987092231E+04 0.  0.
        4    1    3    3  502    0  0.70086892119E+03 -0.52504853115E+03  0.61153488102E+03  0.10681150352E+04  0.12699999809E+01 0. -1.
       -4    1    3    3    0  502 -0.70086892119E+03  0.52504853115E+03 -0.35906032058E+03  0.94647722184E+03  0.12699999809E+01 0.  1.
</event>
<event>
 5   0  0.1324930E-04  0.2005068E+04  0.7818609E-02  0.8604255E-01
       -1   -1    0    0    0  501  0.00000000000E+00  0.00000000000E+00  0.77736182472E+03  0.77736182474E+03  0.50400001928E-02 0. -1.
        1   -1    0    0  501    0  0.00000000000E+00  0.00000000000E+00 -0.12929297311E+04  0.12929297311E+04  0.50400001928E-02 0.  1.
    10030    2    1    2    0    0  0.00000000000E+00  0.00000000000E+00 -0.51556790638E+03  0.20702915558E+04  0.20050677944E+04 0.  0.
        5    1    3    3  502    0  0.89698583618E+03  0.44721847857E+03 -0.28002932396E+03  0.10406855770E+04  0.46999998093E+01 0. -1.
       -5    1    3    3    0  502 -0.89698583618E+03 -0.44721847857E+03 -0.23553858242E+03  0.10296059789E+04  0.46999998093E+01 0.  1.
</event>
<event>
 5   0  0.2540506E-04  0.1460752E+04  0.7818609E-02  0.8910980E-01
       -2   -1    0    0    0  501  0.00000000000E+00  0.00000000000E+00  0.48528160350E+03  0.48528160351E+03  0.25500000920E-02 0.  1.
        2   -1    0    0  501    0  0.00000000000E+00  0.00000000000E+00 -0.10992565757E+04  0.10992565757E+04  0.25500000920E-02 0. -1.
    10030    2    1    2    0    0  0.00000000000E+00  0.00000000000E+00 -0.61397497221E+03  0.15845381792E+04  0.14607518526E+04 0.  0.
        4    1    3    3  502    0  0.40809579455E+03  0.48969556451E+02  0.34791902664E+03  0.53850669169E+03  0.12699999809E+01 0.  1.
       -4    1    3    3    0  502 -0.40809579455E+03 -0.48969556451E+02 -0.96189399885E+03  0.10460314875E+04  0.12699999809E+01 0. -1.
</event>
<event>
 5   0  0.1258546E-04  0.2007827E+04  0.7818609E-02  0.8602970E-01
       -1   -1    0    0    0  501  0.00000000000E+00  0.00000000000E+00  0.68429181955E+03  0.68429181957E+03  0.50400001928E-02 0.  1.
        1   -1    0    0  501    0  0.00000000000E+00  0.00000000000E+00 -0.14728257015E+04  0.14728257015E+04  0.50400001928E-02 0. -1.
    10030    2    1    2    0    0  0.00000000000E+00  0.00000000000E+00 -0.78853388193E+03  0.21571175211E+04  0.20078272627E+04 0.  0.
        4    1    3    3  502    0  0.40444743682E+03 -0.77139399182E+03  0.14206560724E+03  0.88250250392E+03  0.12699999809E+01 0.  1.
       -4    1    3    3    0  502 -0.40444743682E+03  0.77139399182E+03 -0.93059948917E+03  0.12746150171E+04  0.12699999809E+01 0. -1.
</event>
<event>
 5   0  0.1207228E-04  0.1969771E+04  0.7818609E-02  0.8620886E-01
        1   -1    0    0  501    0  0.00000000000E+00  0.00000000000E+00  0.16487899034E+04  0.16487899034E+04  0.50400001928E-02 0. -1.
       -1   -1    0    0    0  501  0.00000000000E+00  0.00000000000E+00 -0.58830986763E+03  0.58830986765E+03  0.50400001928E-02 0.  1.
    10030    2    1    2    0    0  0.00000000000E+00  0.00000000000E+00  0.10604800357E+04  0.22370997710E+04  0.19697709205E+04 0.  0.
        1    1    3    3  502    0  0.86679053686E+03  0.10163595200E+03  0.11846234424E+02  0.87280927746E+03  0.50400001928E-02 0. -1.
       -1    1    3    3    0  502 -0.86679053686E+03 -0.10163595200E+03  0.10486338013E+04  0.13642904935E+04  0.50400001928E-02 0.  1.
</event>
<event>
 5   0  0.2421737E-04  0.1970097E+04  0.7818609E-02  0.8620730E-01
        2   -1    0    0  501    0  0.00000000000E+00  0.00000000000E+00  0.13822495546E+04  0.13822495546E+04  0.25500000920E-02 0. -1.
       -2   -1    0    0    0  501  0.00000000000E+00  0.00000000000E+00 -0.70198686913E+03  0.70198686914E+03  0.25500000920E-02 0.  1.
    10030    2    1    2    0    0  0.00000000000E+00  0.00000000000E+00  0.68026268545E+03  0.20842364237E+04  0.19700974973E+04 0.  0.
        1    1    3    3  502    0 -0.73909340140E+03 -0.32118572279E+03 -0.25917003962E+03  0.84651546588E+03  0.50400001928E-02 0.  1.
       -1    1    3    3    0  502  0.73909340140E+03  0.32118572279E+03  0.93943272506E+03  0.12377209578E+04  0.50400001928E-02 0. -1.
</event>
<event>
 5   0  0.1324930E-04  0.2001097E+04  0.7818609E-02  0.8606108E-01
        1   -1    0    0  501    0  0.00000000000E+00  0.00000000000E+00  0.11400119609E+04  0.11400119609E+04  0.50400001928E-02 0.  1.
       -1   -1    0    0    0  501  0.00000000000E+00  0.00000000000E+00 -0.87814665408E+03  0.87814665409E+03  0.50400001928E-02 0. -1.
    10030    2    1    2    0    0  0.00000000000E+00  0.00000000000E+00  0.26186530679E+03  0.20181586150E+04  0.20010973880E+04 0.  0.
        5    1    3    3  502    0 -0.69186021863E+02  0.97615099940E+03 -0.79214048009E+02  0.98181181224E+03  0.46999998093E+01 0. -1.
       -5    1    3    3    0  502  0.69186021863E+02 -0.97615099940E+03  0.34107935480E+03  0.10363468027E+04  0.46999998093E+01 0.  1.
</event>
<event>
 5   0  0.2540506E-04  0.2004833E+04  0.7818609E-02  0.8604365E-01
        2   -1    0    0  501    0  0.00000000000E+00  0.00000000000E+00  0.73310862905E+03  0.73310862905E+03  0.25500000920E-02 0.  1.
       -2   -1    0    0    0  501  0.00000000000E+00  0.00000000000E+00 -0.13706543223E+04  0.13706543223E+04  0.25500000920E-02 0. -1.
    10030    2    1    2    0    0  0.00000000000E+00  0.00000000000E+00 -0.63754569322E+03  0.21037629513E+04  0.20048326724E+04 0.  0.
        4    1    3    3  502    0 -0.23952068777E+02  0.25443313314E+03 -0.13358954337E+04  0.13601206356E+04  0.12699999809E+01 0. -1.
       -4    1    3    3    0  502  0.23952068777E+02 -0.25443313314E+03  0.69834974044E+03  0.74364231571E+03  0.12699999809E+01 0.  1.
</event>
<event>
 5   0  0.2421737E-04  0.1704649E+04  0.7818609E-02  0.8758717E-01
       -2   -1    0    0    0  501  0.00000000000E+00  0.00000000000E+00  0.56451392685E+03  0.56451392686E+03  0.25500000920E-02 0.  1.
        2   -1    0    0  501    0  0.00000000000E+00  0.00000000000E+00 -0.12868722113E+04  0.12868722113E+04  0.25500000920E-02 0. -1.
    10030    2    1    2    0    0  0.00000000000E+00  0.00000000000E+00 -0.72235828440E+03  0.18513861381E+04  0.17046492722E+04 0.  0.
        1    1    3    3  502    0 -0.72162367731E+03 -0.23622071253E+03 -0.78169893265E+03  0.10897679469E+04  0.50400001928E-02 0. -1.
       -1    1    3    3    0  502  0.72162367731E+03  0.23622071253E+03  0.59340648243E+02  0.76161819125E+03  0.50400001928E-02 0.  1.
</event>
<event>
 5   0  0.2488886E-04  0.1987160E+04  0.7818609E-02  0.8612648E-01
       -2   -1    0    0    0  501  0.00000000000E+00  0.00000000000E+00  0.99478903916E+03  0.99478903916E+03  0.25500000920E-02 0. -1.
        2   -1    0    0  501    0  0.00000000000E+00  0.00000000000E+00 -0.99237202698E+03  0.99237202698E+03  0.25500000920E-02 0.  1.
    10030    2    1    2    0    0  0.00000000000E+00  0.00000000000E+00  0.24170121776E+01  0.19871610661E+04  0.19871595962E+04 0.  0.
        3    1    3    3  502    0 -0.60360588483E+03  0.50556393775E+03 -0.60481656682E+03  0.99284341618E+03  0.10100000352E+00 0.  1.
       -3    1    3    3    0  502  0.60360588483E+03 -0.50556393775E+03  0.60723357900E+03  0.99431764996E+03  0.10100000352E+00 0. -1.
</event>
<event>
 5   0  0.2463085E-04  0.2057304E+04  0.7818609E-02  0.8580288E-01
        2   -1    0    0  501    0  0.00000000000E+00  0.00000000000E+00  0.23153013999E+04  0.23153013999E+04  0.25500000920E-02 0.  1.
       -2   -1    0    0    0  501  0.00000000000E+00  0.00000000000E+00 -0.45701410224E+03  0.45701410224E+03  0.25500000920E-02 0. -1.
    10030    2    1    2    0    0  0.00000000000E+00  0.00000000000E+00  0.18582872977E+04  0.27723155022E+04  0.20573044410E+04 0.  0.
        2    1    3    3  502    0  0.10101798135E+04  0.15233268023E+03  0.10911684596E+04  0.14947632282E+04  0.25500000920E-02 0.  1.
       -2    1    3    3    0  502 -0.10101798135E+04 -0.15233268023E+03  0.76711883808E+03  0.12775522740E+04  0.25500000920E-02 0. -1.
</event>
<event>
 5   0  0.2421737E-04  0.2033462E+04  0.7818609E-02  0.8591134E-01
       -2   -1    0    0    0  501  0.00000000000E+00  0.00000000000E+00  0.99790451121E+03  0.99790451122E+03  0.25500000920E-02 0.  1.
        2   -1    0    0  501    0  0.00000000000E+00  0.00000000000E+00 -0.10359122239E+04  0.10359122239E+04  0.25500000920E-02 0. -1.
    10030    2    1    2    0    0  0.00000000000E+00  0.00000000000E+00 -0.38007712685E+02  0.20338167351E+04  0.20334615624E+04 0.  0.
        1    1    3    3  502    0  0.41395979889E+03 -0.76022456142E+03  0.51441600945E+03  0.10069398838E+04  0.50400001928E-02 0.  1.
       -1    1    3    3    0  502 -0.41395979889E+03  0.76022456142E+03 -0.55242372213E+03  0.10268768513E+04  0.50400001928E-02 0. -1.
</event>
<event>
 5   0  0.2488886E-04  0.2024871E+04  0.7818609E-02  0.8595080E-01
       -2   -1    0    0    0  501  0.00000000000E+00  0.00000000000E+00  0.55907827979E+03  0.55907827979E+03  0.25500000920E-02 0.  1.
        2   -1    0    0  501    0  0.00000000000E+00  0.00000000000E+00 -0.18334199083E+04  0.18334199083E+04  0.25500000920E-02 0. -1.
    10030    2    1    2    0    0  0.00000000000E+00  0.00000000000E+00 -0.12743416286E+04  0.23924981881E+04  0.20248706117E+04 0.  0.
        3    1    3    3  502    0  0.19100962099E+03 -0.99420571824E+03 -0.62562097268E+03  0.11900971797E+04  0.10100000352E+00 0.  1.
       -3    1    3    3    0  502 -0.19100962099E+03  0.99420571824E+03 -0.64872065587E+03  0.12024010084E+04  0.10100000352E+00 0. -1.
</event>
<event>
 5   0  0.2463085E-04  0.2035684E+04  0.7818609E-02  0.8590117E-01
       -2   -1    0    0    0  501  0.00000000000E+00  0.00000000000E+00  0.65597023824E+03  0.65597023825E+03  0.25500000920E-02 0.  1.
        2   -1    0    0  501    0  0.00000000000E+00  0.00000000000E+00 -0.15793432201E+04  0.15793432201E+04  0.25500000920E-02 0. -1.
    10030    2    1    2    0    0  0.00000000000E+00  0.00000000000E+00 -0.92337298183E+03  0.22353134583E+04  0.20356838147E+04 0.  0.
        2    1    3    3  502    0 -0.74075054088E+03 -0.39375573069E+03 -0.10946210072E+04  0.13791120653E+04  0.25500000920E-02 0. -1.
       -2    1    3    3    0  502  0.74075054088E+03  0.39375573069E+03  0.17124802534E+03  0.85620139304E+03  0.25500000920E-02 0.  1.
</event>
<event>
 5   0  0.1231056E-04  0.1952206E+04  0.7818609E-02  0.8629298E-01
        1   -1    0    0  501    0  0.00000000000E+00  0.00000000000E+00  0.11109573358E+04  0.11109573358E+04  0.50400001928E-02 0. -1.
       -1   -1    0    0    0  501  0.00000000000E+00  0.00000000000E+00 -0.85761829452E+03  0.85761829453E+03  0.50400001928E-02 0.  1.
    10030    2    1    2    0    0  0.00000000000E+00  0.00000000000E+00  0.25333904130E+03  0.19685756304E+04  0.19522062756E+04 0.  0.
        3    1    3    3  502    0 -0.16100325312E+03  0.72680531962E+03 -0.50997956021E+03  0.90235646070E+03  0.10100000352E+00 0.  1.
       -3    1    3    3    0  502  0.16100325312E+03 -0.72680531962E+03  0.76331860151E+03  0.10662191697E+04  0.10100000352E+00 0. -1.
</event>
<event>
 5   0  0.1207228E-04  0.1960837E+04  0.7818609E-02  0.8625153E-01
        1   -1    0    0  501    0  0.00000000000E+00  0.00000000000E+00  0.76910857705E+03  0.76910857707E+03  0.50400001928E-02 0.  1.
       -1   -1    0    0    0  501  0.00000000000E+00  0.00000000000E+00 -0.12497848881E+04  0.12497848881E+04  0.50400001928E-02 0. -1.
    10030    2    1    2    0    0  0.00000000000E+00  0.00000000000E+00 -0.48067631101E+03  0.20188934651E+04  0.19608368386E+04 0.  0.
        1    1    3    3  502    0  0.88980274260E+03 -0.59783779541E+02  0.17902623065E+03  0.90960068839E+03  0.50400001928E-02 0.  1.
       -1    1    3    3    0  502 -0.88980274260E+03  0.59783779541E+02 -0.65970254165E+03  0.11092927767E+04  0.50400001928E-02 0. -1.
</event>
<event>
 5   0  0.2463085E-04  0.1977142E+04  0.7818609E-02  0.8617383E-01
       -2   -1    0    0    0  501  0.00000000000E+00  0.00000000000E+00  0.14566489802E+04  0.14566489802E+04  0.25500000920E-02 0.  1.
        2   -1    0    0  501    0  0.00000000000E+00  0.00000000000E+00 -0.67090493290E+03  0.67090493290E+03  0.25500000920E-02 0. -1.
    10030    2    1    2    0    0  0.00000000000E+00  0.00000000000E+00  0.78574404731E+03  0.21275539131E+04  0.19771423685E+04 0.  0.
        2    1    3    3  502    0 -0.76288101256E+03  0.61434721003E+03  0.53669241591E+03  0.11168924223E+04  0.25500000920E-02 0.  1.
       -2    1    3    3    0  502  0.76288101256E+03 -0.61434721003E+03  0.24905163140E+03  0.10106614908E+04  0.25500000920E-02 0. -1.
</event>
<event>
 5   0  0.2596061E-04  0.1986489E+04  0.7818609E-02  0.8612964E-01
        2   -1    0    0  501    0  0.00000000000E+00  0.00000000000E+00  0.14341403262E+04  0.14341403262E+04  0.25500000920E-02 0.  1.
       -2   -1    0    0    0  501  0.00000000000E+00  0.00000000000E+00 -0.68789265200E+03  0.68789265200E+03  0.25500000920E-02 0. -1.
    10030    2    1    2    0    0  0.00000000000E+00  0.00000000000E+00  0.74624767422E+03  0.21220329782E+04  0.19864889553E+04 0.  0.
        5    1    3    3  502    0 -0.70668291730E+02  0.85267957154E+03  0.91197938547E+03  0.12505138739E+04  0.46999998093E+01 0.  1.
       -5    1    3    3    0  502  0.70668291730E+02 -0.85267957154E+03 -0.16573171125E+03  0.87151910438E+03  0.46999998093E+01 0. -1.
</event>
<event>
 5   0  0.2596061E-04  0.2027981E+04  0.7818609E-02  0.8593649E-01
        2   -1    0    0  501    0  0.00000000000E+00  0.00000000000E+00  0.14808963901E+04  0.14808963901E+04  0.25500000920E-02 0. -1.
       -2   -1    0    0    0  501  0.00000000000E+00  0.00000000000E+00 -0.69429318841E+03  0.69429318842E+03  0.25500000920E-02 0.  1.
    10030    2    1    2    0    0  0.00000000000E+00  0.00000000000E+00  0.78660320172E+03  0.21751895785E+04  0.20279805486E+04 0.  0.
        5    1    3    3  502    0 -0.64274140155E+03  0.11738476838E+02 -0.44777496874E+03  0.78344037025E+03  0.46999998093E+01 0.  1.
       -5    1    3    3    0  502  0.64274140155E+03 -0.11738476838E+02  0.12343781705E+04  0.13917492083E+04  0.46999998093E+01 0. -1.
</event>
<event>
 5   0  0.1258546E-04  0.1990089E+04  0.7818609E-02  0.8611268E-01
        1   -1    0    0  501    0  0.00000000000E+00  0.00000000000E+00  0.14480273619E+04  0.14480273619E+04  0.50400001928E-02 0. -1.
       -1   -1    0    0    0  501  0.00000000000E+00  0.00000000000E+00 -0.68376742903E+03  0.68376742904E+03  0.50400001928E-02 0.  1.
    10030    2    1    2    0    0  0.00000000000E+00  0.00000000000E+00  0.76425993287E+03  0.21317947910E+04  0.19900893914E+04 0.  0.
        4    1    3    3  502    0  0.85451093546E+03  0.50602490694E+03  0.44870164887E+03  0.10897637028E+04  0.12699999809E+01 0. -1.
       -4    1    3    3    0  502 -0.85451093546E+03 -0.50602490694E+03  0.31555828400E+03  0.10420310882E+04  0.12699999809E+01 0.  1.
</event>
<event>
 5   0  0.1324930E-04  0.1984635E+04  0.7818609E-02  0.8613838E-01
        1   -1    0    0  501    0  0.00000000000E+00  0.00000000000E+00  0.15259547334E+04  0.15259547334E+04  0.50400001928E-02 0.  1.
       -1   -1    0    0    0  501  0.00000000000E+00  0.00000000000E+00 -0.64529687272E+03  0.64529687274E+03  0.50400001928E-02 0. -1.
    10030    2    1    2    0    0  0.00000000000E+00  0.00000000000E+00  0.88065786072E+03  0.21712516062E+04  0.19846347950E+04 0.  0.
        5    1    3    3  502    0 -0.12100194264E+03  0.17013684578E+03  0.15016424087E+04  0.15160936746E+04  0.46999998093E+01 0.  1.
       -5    1    3    3    0  502  0.12100194264E+03 -0.17013684578E+03 -0.62098454803E+03  0.65515793158E+03  0.46999998093E+01 0. -1.
</event>
<event>
 5   0  0.2421737E-04  0.2018354E+04  0.7818609E-02  0.8598087E-01
        2   -1    0    0  501    0  0.00000000000E+00  0.00000000000E+00  0.24542878552E+04  0.24542878552E+04  0.25500000920E-02 0. -1.
       -2   -1    0    0    0  501  0.00000000000E+00  0.00000000000E+00 -0.41496275513E+03  0.41496275514E+03  0.25500000920E-02 0.  1.
    10030    2    1    2    0    0  0.00000000000E+00  0.00000000000E+00  0.20393251001E+04  0.28692506103E+04  0.20183538345E+04 0.  0.
        1    1    3    3  502    0  0.72070849771E+03  0.52270853995E+03  0.16951643426E+04  0.19147394352E+04  0.50400001928E-02 0. -1.
       -1    1    3    3    0  502 -0.72070849771E+03 -0.52270853995E+03  0.34416075750E+03  0.95451117512E+03  0.50400001928E-02 0.  1.
</event>
<event>
 5   0  0.2540506E-04  0.2001475E+04  0.7818609E-02  0.8605931E-01
       -2   -1    0    0    0  501  0.00000000000E+00  0.00000000000E+00  0.51907960032E+03  0.51907960033E+03  0.25500000920E-02 0.  1.
        2   -1    0    0  501    0  0.00000000000E+00  0.00000000000E+00 -0.19293293215E+04  0.19293293215E+04  0.25500000920E-02 0. -1.
    10030    2    1    2    0    0  0.00000000000E+00  0.00000000000E+00 -0.14102497212E+04  0.24484089218E+04  0.20014749492E+04 0.  0.
        4    1    3    3  502    0  0.61661846485E+02 -0.22501171191E+03 -0.18955943874E+04  0.19098984654E+04  0.12699999809E+01 0. -1.
       -4    1    3    3    0  502 -0.61661846485E+02  0.22501171191E+03  0.48534466618E+03  0.53851045644E+03  0.12699999809E+01 0.  1.
</event>
<event>
 5   0  0.2463085E-04  0.2033323E+04  0.7818609E-02  0.8591197E-01
       -2   -1    0    0    0  501  0.00000000000E+00  0.00000000000E+00  0.53307399267E+03  0.53307399268E+03  0.25500000920E-02 0. -1.
        2   -1    0    0  501    0  0.00000000000E+00  0.00000000000E+00 -0.19389447604E+04  0.19389447604E+04  0.25500000920E-02 0.  1.
    10030    2    1    2    0    0  0.00000000000E+00  0.00000000000E+00 -0.14058707678E+04  0.24720187531E+04  0.20333234126E+04 0.  0.
        2    1    3    3  502    0 -0.13406317795E+03 -0.14079699561E+03  0.51026432478E+03  0.54604616179E+03  0.25500000920E-02 0. -1.
       -2    1    3    3    0  502  0.13406317795E+03  0.14079699561E+03 -0.19161350925E+04  0.19259725913E+04  0.25500000920E-02 0.  1.
</event>
<event>
 5   0  0.2463085E-04  0.1967835E+04  0.7818609E-02  0.8621808E-01
        2   -1    0    0  501    0  0.00000000000E+00  0.00000000000E+00  0.16878768940E+04  0.16878768940E+04  0.25500000920E-02 0. -1.
       -2   -1    0    0    0  501  0.00000000000E+00  0.00000000000E+00 -0.57355694594E+03  0.57355694594E+03  0.25500000920E-02 0.  1.
    10030    2    1    2    0    0  0.00000000000E+00  0.00000000000E+00  0.11143199480E+04  0.22614338399E+04  0.19678348675E+04 0.  0.
        2    1    3    3  502    0  0.36455946033E+03  0.77987326101E+03  0.11046753426E+04  0.14005047361E+04  0.25500000920E-02 0. -1.
       -2    1    3    3    0  502 -0.36455946033E+03 -0.77987326101E+03  0.96446054561E+01  0.86092910381E+03  0.25500000920E-02 0.  1.
</event>
<event>
 5   0  0.9099125E-05  0.1951055E+04  0.7818609E-02  0.8629852E-01
       -4   -1    0    0    0  501  0.00000000000E+00  0.00000000000E+00  0.11678057943E+04  0.11678064848E+04  0.12699999809E+01 0.  1.
        4   -1    0    0  501    0  0.00000000000E+00  0.00000000000E+00 -0.81490645977E+03  0.81490744939E+03  0.12699999809E+01 0. -1.
    10030    2    1    2    0    0  0.00000000000E+00  0.00000000000E+00  0.35289933448E+03  0.19827139342E+04  0.19510552541E+04 0.  0.
        4    1    3    3  502    0 -0.84282351106E+03  0.46056145944E+03  0.28437765360E+01  0.96045719773E+03  0.12699999809E+01 0.  1.
       -4    1    3    3    0  502  0.84282351106E+03 -0.46056145944E+03  0.35005555795E+03  0.10222567365E+04  0.12699999809E+01 0. -1.
</event>
<event>
 5   0  0.1231056E-04  0.1989154E+04  0.7818609E-02  0.8611708E-01
        1   -1    0    0  501    0  0.00000000000E+00  0.00000000000E+00  0.23743420866E+04  0.23743420866E+04  0.50400001928E-02 0. -1.
       -1   -1    0    0    0  501  0.00000000000E+00  0.00000000000E+00 -0.41661361152E+03  0.41661361155E+03  0.50400001928E-02 0.  1.
    10030    2    1    2    0    0  0.00000000000E+00  0.00000000000E+00  0.19577284751E+04  0.27909556982E+04  0.19891538218E+04 0.  0.
        3    1    3    3  502    0 -0.51391973072E+03 -0.82944248120E+03  0.70862917949E+03  0.12059202476E+04  0.10100000352E+00 0. -1.
       -3    1    3    3    0  502  0.51391973072E+03  0.82944248120E+03  0.12490992956E+04  0.15850354506E+04  0.10100000352E+00 0.  1.
</event>
<event>
 5   0  0.2596061E-04  0.1738212E+04  0.7818609E-02  0.8739866E-01
       -2   -1    0    0    0  501  0.00000000000E+00  0.00000000000E+00  0.69878482542E+03  0.69878482542E+03  0.25500000920E-02 0.  1.
        2   -1    0    0  501    0  0.00000000000E+00  0.00000000000E+00 -0.10809405678E+04  0.10809405678E+04  0.25500000920E-02 0. -1.
    10030    2    1    2    0    0  0.00000000000E+00  0.00000000000E+00 -0.38215574241E+03  0.17797253933E+04  0.17382115705E+04 0.  0.
        5    1    3    3  502    0 -0.75501417706E+03 -0.30917654930E+03  0.11555114128E+03  0.82402105704E+03  0.46999998093E+01 0.  1.
       -5    1    3    3    0  502  0.75501417706E+03  0.30917654930E+03 -0.49770688369E+03  0.95570433622E+03  0.46999998093E+01 0. -1.
</event>
<event>
 5   0  0.2421737E-04  0.2038212E+04  0.7818609E-02  0.8588961E-01
        2   -1    0    0  501    0  0.00000000000E+00  0.00000000000E+00  0.15841977284E+04  0.15841977284E+04  0.25500000920E-02 0.  1.
       -2   -1    0    0    0  501  0.00000000000E+00  0.00000000000E+00 -0.65558579695E+03  0.65558579695E+03  0.25500000920E-02 0. -1.
    10030    2    1    2    0    0  0.00000000000E+00  0.00000000000E+00  0.92861193147E+03  0.22397835254E+04  0.20382124819E+04 0.  0.
        1    1    3    3  502    0  0.33685078972E+03 -0.37535358425E+03  0.14374456950E+04  0.15233544872E+04  0.50400001928E-02 0.  1.
       -1    1    3    3    0  502 -0.33685078972E+03  0.37535358425E+03 -0.50883376352E+03  0.71642903812E+03  0.50400001928E-02 0. -1.
</event>
<event>
 5   0  0.1258546E-04  0.2006693E+04  0.7818609E-02  0.8603498E-01
        1   -1    0    0  501    0  0.00000000000E+00  0.00000000000E+00  0.78020639882E+03  0.78020639884E+03  0.50400001928E-02 0. -1.
       -1   -1    0    0    0  501  0.00000000000E+00  0.00000000000E+00 -0.12903051711E+04  0.12903051711E+04  0.50400001928E-02 0.  1.
    10030    2    1    2    0    0  0.00000000000E+00  0.00000000000E+00 -0.51009877224E+03  0.20705115699E+04  0.20066931514E+04 0.  0.
        4    1    3    3  502    0 -0.65822664302E+03 -0.25404661047E+03 -0.99110941802E+03  0.12165942155E+04  0.12699999809E+01 0.  1.
       -4    1    3    3    0  502  0.65822664302E+03  0.25404661047E+03  0.48101064578E+03  0.85391735438E+03  0.12699999809E+01 0. -1.
</event>
<event>
 5   0  0.1231056E-04  0.1943824E+04  0.7818609E-02  0.8633345E-01
        1   -1    0    0  501    0  0.00000000000E+00  0.00000000000E+00  0.20029983139E+04  0.20029983139E+04  0.50400001928E-02 0.  1.
       -1   -1    0    0    0  501  0.00000000000E+00  0.00000000000E+00 -0.47159943230E+03  0.47159943232E+03  0.50400001928E-02 0. -1.
    10030    2    1    2    0    0  0.00000000000E+00  0.00000000000E+00  0.15313988816E+04  0.24745977463E+04  0.19438239301E+04 0.  0.
        3    1    3    3  502    0  0.49946945885E+03  0.79991151935E+03  0.10650293286E+04  0.14225384564E+04  0.10100000352E+00 0.  1.
       -3    1    3    3    0  502 -0.49946945885E+03 -0.79991151935E+03  0.46636955308E+03  0.10520592898E+04  0.10100000352E+00 0. -1.
</event>
<event>
 5   0  0.2596061E-04  0.1938416E+04  0.7818609E-02  0.8635967E-01
       -2   -1    0    0    0  501  0.00000000000E+00  0.00000000000E+00  0.92054120919E+03  0.92054120920E+03  0.25500000920E-02 0. -1.
        2   -1    0    0  501    0  0.00000000000E+00  0.00000000000E+00 -0.10204479012E+04  0.10204479012E+04  0.25500000920E-02 0.  1.
    10030    2    1    2    0    0  0.00000000000E+00  0.00000000000E+00 -0.99906691974E+02  0.19409891104E+04  0.19384162039E+04 0.  0.
        5    1    3    3  502    0  0.29813702643E+03 -0.13480927615E+03 -0.96345972927E+03  0.10175146030E+04  0.46999998093E+01 0.  1.
       -5    1    3    3    0  502 -0.29813702643E+03  0.13480927615E+03  0.86355303730E+03  0.92347450733E+03  0.46999998093E+01 0. -1.
</event>
<event>
 5   0  0.2596061E-04  0.1993114E+04  0.7818609E-02  0.8609847E-01
       -2   -1    0    0    0  501  0.00000000000E+00  0.00000000000E+00  0.55787330771E+03  0.55787330772E+03  0.25500000920E-02 0. -1.
        2   -1    0    0  501    0  0.00000000000E+00  0.00000000000E+00 -0.17801989229E+04  0.17801989229E+04  0.25500000920E-02 0.  1.
    10030    2    1    2    0    0  0.00000000000E+00  0.00000000000E+00 -0.12223256152E+04  0.23380722307E+04  0.19931136059E+04 0.  0.
        5    1    3    3  502    0  0.46869023120E+03  0.21795823586E+03 -0.16106387814E+04  0.16915542260E+04  0.46999998093E+01 0.  1.
       -5    1    3    3    0  502 -0.46869023120E+03 -0.21795823586E+03  0.38831316612E+03  0.64651800469E+03  0.46999998093E+01 0. -1.
</event>
<event>
 5   0  0.2463085E-04  0.1981732E+04  0.7818609E-02  0.8615209E-01
        2   -1    0    0  501    0  0.00000000000E+00  0.00000000000E+00  0.73829320635E+03  0.73829320635E+03  0.25500000920E-02 0.  1.
       -2   -1    0    0    0  501  0.00000000000E+00  0.00000000000E+00 -0.13298454250E+04  0.13298454250E+04  0.25500000920E-02 0. -1.
    10030    2    1    2    0    0  0.00000000000E+00  0.00000000000E+00 -0.59155221866E+03  0.20681386314E+04  0.19817324166E+04 0.  0.
        2    1    3    3  502    0 -0.17829666542E+03  0.97387927502E+03 -0.33732795336E+03  0.10459544404E+04  0.25500000920E-02 0. -1.
       -2    1    3    3    0  502  0.17829666542E+03 -0.97387927502E+03 -0.25422426530E+03  0.10221841910E+04  0.25500000920E-02 0.  1.
</event>
<event>
 5   0  0.2540506E-04  0.1982710E+04  0.7818609E-02  0.8614747E-01
        2   -1    0    0  501    0  0.00000000000E+00  0.00000000000E+00  0.14128974942E+04  0.14128974942E+04  0.25500000920E-02 0. -1.
       -2   -1    0    0    0  501  0.00000000000E+00  0.00000000000E+00 -0.69558116498E+03  0.69558116498E+03  0.25500000920E-02 0.  1.
    10030    2    1    2    0    0  0.00000000000E+00  0.00000000000E+00  0.71731632920E+03  0.21084786592E+04  0.19827101503E+04 0.  0.
        4    1    3    3  502    0  0.41170602936E+03  0.18630481839E+03 -0.57967993691E+03  0.73501141632E+03  0.12699999809E+01 0.  1.
       -4    1    3    3    0  502 -0.41170602936E+03 -0.18630481839E+03  0.12969962661E+04  0.13734672428E+04  0.12699999809E+01 0. -1.
</event>
<event>
 5   0  0.1207228E-04  0.1927434E+04  0.7818609E-02  0.8641320E-01
        1   -1    0    0  501    0  0.00000000000E+00  0.00000000000E+00  0.10491883535E+04  0.10491883536E+04  0.50400001928E-02 0.  1.
       -1   -1    0    0    0  501  0.00000000000E+00  0.00000000000E+00 -0.88520856800E+03  0.88520856801E+03  0.50400001928E-02 0. -1.
    10030    2    1    2    0    0  0.00000000000E+00  0.00000000000E+00  0.16397978554E+03  0.19343969216E+04  0.19274340663E+04 0.  0.
        1    1    3    3  502    0  0.25117913075E+03 -0.90862893402E+03  0.28284538887E+03  0.98422508071E+03  0.50400001928E-02 0. -1.
       -1    1    3    3    0  502 -0.25117913075E+03  0.90862893402E+03 -0.11886560333E+03  0.95017184085E+03  0.50400001928E-02 0.  1.
</event>
<event>
 5   0  0.1207228E-04  0.1996106E+04  0.7818609E-02  0.8608444E-01
       -1   -1    0    0    0  501  0.00000000000E+00  0.00000000000E+00  0.11032822498E+04  0.11032822498E+04  0.50400001928E-02 0.  1.
        1   -1    0    0  501    0  0.00000000000E+00  0.00000000000E+00 -0.90285992332E+03  0.90285992334E+03  0.50400001928E-02 0. -1.
    10030    2    1    2    0    0  0.00000000000E+00  0.00000000000E+00  0.20042232644E+03  0.20061421731E+04  0.19961055357E+04 0.  0.
        1    1    3    3  502    0  0.84627535114E+03  0.52205667716E+02  0.62935815342E+03  0.10559351718E+04  0.50400001928E-02 0.  1.
       -1    1    3    3    0  502 -0.84627535114E+03 -0.52205667716E+02 -0.42893582698E+03  0.95020700133E+03  0.50400001928E-02 0. -1.
</event>
<event>
 5   0  0.1231056E-04  0.2024353E+04  0.7818609E-02  0.8595319E-01
        1   -1    0    0  501    0  0.00000000000E+00  0.00000000000E+00  0.12092717740E+04  0.12092717740E+04  0.50400001928E-02 0.  1.
       -1   -1    0    0    0  501  0.00000000000E+00  0.00000000000E+00 -0.84720477628E+03  0.84720477630E+03  0.50400001928E-02 0. -1.
    10030    2    1    2    0    0  0.00000000000E+00  0.00000000000E+00  0.36206699767E+03  0.20564765503E+04  0.20243525609E+04 0.  0.
        3    1    3    3  502    0  0.13250277069E+02 -0.10015870016E+04  0.32876722932E+03  0.10542485441E+04  0.10100000352E+00 0. -1.
       -3    1    3    3    0  502 -0.13250277069E+02  0.10015870016E+04  0.33299768353E+02  0.10022280061E+04  0.10100000352E+00 0.  1.
</event>
<event>
 5   0  0.2421737E-04  0.1994960E+04  0.7818609E-02  0.8608980E-01
       -2   -1    0    0    0  501  0.00000000000E+00  0.00000000000E+00  0.20448782136E+04  0.20448782136E+04  0.25500000920E-02 0. -1.
        2   -1    0    0  501    0  0.00000000000E+00  0.00000000000E+00 -0.48656529636E+03  0.48656529637E+03  0.25500000920E-02 0.  1.
    10030    2    1    2    0    0  0.00000000000E+00  0.00000000000E+00  0.15583129173E+04  0.25314435100E+04  0.19949604247E+04 0.  0.
        1    1    3    3  502    0  0.95834087458E+03 -0.22175314982E+03  0.56920849081E+03  0.11364814109E+04  0.50400001928E-02 0. -1.
       -1    1    3    3    0  502 -0.95834087458E+03  0.22175314982E+03  0.98910442645E+03  0.13949620991E+04  0.50400001928E-02 0.  1.
</event>
<event>
 5   0  0.2463085E-04  0.2031645E+04  0.7818609E-02  0.8591967E-01
        2   -1    0    0  501    0  0.00000000000E+00  0.00000000000E+00  0.20657718713E+04  0.20657718713E+04  0.25500000920E-02 0. -1.
       -2   -1    0    0    0  501  0.00000000000E+00  0.00000000000E+00 -0.49952061750E+03  0.49952061751E+03  0.25500000920E-02 0.  1.
    10030    2    1    2    0    0  0.00000000000E+00  0.00000000000E+00  0.15662512538E+04  0.25652924888E+04  0.20316452848E+04 0.  0.
        2    1    3    3  502    0  0.11924317360E+03 -0.93702143177E+03  0.12550112557E+04  0.15707582086E+04  0.25500000920E-02 0. -1.
       -2    1    3    3    0  502 -0.11924317360E+03  0.93702143177E+03  0.31123999811E+03  0.99453428019E+03  0.25500000920E-02 0.  1.
</event>
<event>
 5   0  0.1258546E-04  0.2015599E+04  0.7818609E-02  0.8599362E-01
       -1   -1    0    0    0  501  0.00000000000E+00  0.00000000000E+00  0.23773472771E+04  0.23773472771E+04  0.50400001928E-02 0.  1.
        1   -1    0    0  501    0  0.00000000000E+00  0.00000000000E+00 -0.42722419242E+03  0.42722419245E+03  0.50400001928E-02 0. -1.
    10030    2    1    2    0    0  0.00000000000E+00  0.00000000000E+00  0.19501230847E+04  0.28045714696E+04  0.20155994350E+04 0.  0.
        4    1    3    3  502    0 -0.51603566527E+03 -0.78928390948E+02  0.21745511248E+04  0.22363355531E+04  0.12699999809E+01 0.  1.
       -4    1    3    3    0  502  0.51603566527E+03  0.78928390948E+02 -0.22442804009E+03  0.56823591650E+03  0.12699999809E+01 0. -1.
</event>
<event>
 5   0  0.1324930E-04  0.1916705E+04  0.7818609E-02  0.8646586E-01
        1   -1    0    0  501    0  0.00000000000E+00  0.00000000000E+00  0.21642338327E+04  0.21642338327E+04  0.50400001928E-02 0. -1.
       -1   -1    0    0    0  501  0.00000000000E+00  0.00000000000E+00 -0.42437151276E+03  0.42437151279E+03  0.50400001928E-02 0.  1.
    10030    2    1    2    0    0  0.00000000000E+00  0.00000000000E+00  0.17398623199E+04  0.25886053455E+04  0.19167046570E+04 0.  0.
        5    1    3    3  502    0 -0.55304558699E+03 -0.65748791570E+03  0.14433462804E+04  0.16797084139E+04  0.46999998093E+01 0. -1.
       -5    1    3    3    0  502  0.55304558699E+03  0.65748791570E+03  0.29651603957E+03  0.90889693161E+03  0.46999998093E+01 0.  1.
</event>
<event>
 5   0  0.2421737E-04  0.2064405E+04  0.7818609E-02  0.8577087E-01
        2   -1    0    0  501    0  0.00000000000E+00  0.00000000000E+00  0.11211530848E+04  0.11211530848E+04  0.25500000920E-02 0.  1.
       -2   -1    0    0    0  501  0.00000000000E+00  0.00000000000E+00 -0.95030947099E+03  0.95030947099E+03  0.25500000920E-02 0. -1.
    10030    2    1    2    0    0  0.00000000000E+00  0.00000000000E+00  0.17084361381E+03  0.20714625558E+04  0.20644053816E+04 0.  0.
        1    1    3    3  502    0 -0.83004384523E+03 -0.20326165091E+03  0.66632599803E+03  0.10836412780E+04  0.50400001928E-02 0.  1.
       -1    1    3    3    0  502  0.83004384523E+03  0.20326165091E+03 -0.49548238422E+03  0.98782127778E+03  0.50400001928E-02 0. -1.
</event>
<event>
 5   0  0.1231056E-04  0.2011129E+04  0.7818609E-02  0.8601435E-01
        1   -1    0    0  501    0  0.00000000000E+00  0.00000000000E+00  0.12093276996E+04  0.12093276996E+04  0.50400001928E-02 0. -1.
       -1   -1    0    0    0  501  0.00000000000E+00  0.00000000000E+00 -0.83613416432E+03  0.83613416433E+03  0.50400001928E-02 0.  1.
    10030    2    1    2    0    0  0.00000000000E+00  0.00000000000E+00  0.37319353529E+03  0.20454618640E+04  0.20111292405E+04 0.  0.
        3    1    3    3  502    0  0.11634558913E+03  0.77431961819E+03  0.82828174560E+03  0.11398060482E+04  0.10100000352E+00 0. -1.
       -3    1    3    3    0  502 -0.11634558913E+03 -0.77431961819E+03 -0.45508821031E+03  0.90565581575E+03  0.10100000352E+00 0.  1.
</event>
<event>
 5   0  0.2463085E-04  0.1951999E+04  0.7818609E-02  0.8629398E-01
        2   -1    0    0  501    0  0.00000000000E+00  0.00000000000E+00  0.18877266218E+04  0.18877266218E+04  0.25500000920E-02 0.  1.
       -2   -1    0    0    0  501  0.00000000000E+00  0.00000000000E+00 -0.50461478689E+03  0.50461478690E+03  0.25500000920E-02 0. -1.
    10030    2    1    2    0    0  0.00000000000E+00  0.00000000000E+00  0.13831118349E+04  0.23923414087E+04  0.19519987367E+04 0.  0.
        2    1    3    3  502    0  0.47951628723E+02  0.24694461242E+03  0.18473121639E+04  0.18643613468E+04  0.25500000920E-02 0.  1.
       -2    1    3    3    0  502 -0.47951628723E+02 -0.24694461242E+03 -0.46420032904E+03  0.52798006192E+03  0.25500000920E-02 0. -1.
</event>
<event>
 5   0  0.2463085E-04  0.2010642E+04  0.7818609E-02  0.8601661E-01
       -2   -1    0    0    0  501  0.00000000000E+00  0.00000000000E+00  0.56670984482E+03  0.56670984483E+03  0.25500000920E-02 0. -1.
        2   -1    0    0  501    0  0.00000000000E+00  0.00000000000E+00 -0.17833997661E+04  0.17833997661E+04  0.25500000920E-02 0.  1.
    10030    2    1    2    0    0  0.00000000000E+00  0.00000000000E+00 -0.12166899213E+04  0.23501096109E+04  0.20106418922E+04 0.  0.
        2    1    3    3  502    0  0.48760085941E+03  0.18812504920E+03  0.39544220581E+03  0.65537788365E+03  0.25500000920E-02 0. -1.
       -2    1    3    3    0  502 -0.48760085941E+03 -0.18812504920E+03 -0.16121321271E+04  0.16947317273E+04  0.25500000920E-02 0.  1.
</event>
<event>
 5   0  0.2540506E-04  0.1724398E+04  0.7818609E-02  0.8747570E-01
        2   -1    0    0  501    0  0.00000000000E+00  0.00000000000E+00  0.14760282171E+04  0.14760282171E+04  0.25500000920E-02 0.  1.
       -2   -1    0    0    0  501  0.00000000000E+00  0.00000000000E+00 -0.50364021019E+03  0.50364021020E+03  0.25500000920E-02 0. -1.
    10030    2    1    2    0    0  0.00000000000E+00  0.00000000000E+00  0.97238800695E+03  0.19796684273E+04  0.17243980533E+04 0.  0.
        4    1    3    3  502    0  0.30951050376E+03  0.10702793301E+02 -0.43758094905E+03  0.53608768089E+03  0.12699999809E+01 0. -1.
       -4    1    3    3    0  502 -0.30951050376E+03 -0.10702793301E+02  0.14099689560E+04  0.14435807464E+04  0.12699999809E+01 0.  1.
</event>
<event>
 5   0  0.2488886E-04  0.2008961E+04  0.7818609E-02  0.8602443E-01
        2   -1    0    0  501    0  0.00000000000E+00  0.00000000000E+00  0.20959491226E+04  0.20959491226E+04  0.25500000920E-02 0.  1.
       -2   -1    0    0    0  501  0.00000000000E+00  0.00000000000E+00 -0.48139570541E+03  0.48139570542E+03  0.25500000920E-02 0. -1.
    10030    2    1    2    0    0  0.00000000000E+00  0.00000000000E+00  0.16145534172E+04  0.25773448280E+04  0.20089608322E+04 0.  0.
        3    1    3    3  502    0  0.10687490773E+03  0.97229489093E+03  0.51415924234E+03  0.11050517352E+04  0.10100000352E+00 0. -1.
       -3    1    3    3    0  502 -0.10687490773E+03 -0.97229489093E+03  0.11003941748E+04  0.14722930928E+04  0.10100000352E+00 0.  1.
</event>
<event>
 5   0  0.2421737E-04  0.2061577E+04  0.7818609E-02  0.8578361E-01
        2   -1    0    0  501    0  0.00000000000E+00  0.00000000000E+00  0.63671355386E+03  0.63671355387E+03  0.25500000920E-02 0. -1.
       -2   -1    0    0    0  501  0.00000000000E+00  0.00000000000E+00 -0.16687638036E+04  0.16687638036E+04  0.25500000920E-02 0.  1.
    10030    2    1    2    0    0  0.00000000000E+00  0.00000000000E+00 -0.10320502497E+04  0.23054773575E+04  0.20615766122E+04 0.  0.
        1    1    3    3  502    0 -0.47957806852E+03 -0.64309369981E+03 -0.12398735135E+04  0.14767704494E+04  0.50400001928E-02 0.  1.
       -1    1    3    3    0  502  0.47957806852E+03  0.64309369981E+03  0.20782326379E+03  0.82870690810E+03  0.50400001928E-02 0. -1.
</event>
<event>
 5   0  0.2596061E-04  0.2001137E+04  0.7818609E-02  0.8606089E-01
        2   -1    0    0  501    0  0.00000000000E+00  0.00000000000E+00  0.73632558507E+03  0.73632558507E+03  0.25500000920E-02 0. -1.
       -2   -1    0    0    0  501  0.00000000000E+00  0.00000000000E+00 -0.13596395067E+04  0.13596395067E+04  0.25500000920E-02 0.  1.
    10030    2    1    2    0    0  0.00000000000E+00  0.00000000000E+00 -0.62331392160E+03  0.20959650917E+04  0.20011370320E+04 0.  0.
        5    1    3    3  502    0 -0.19150545178E+03  0.31060055888E+02  0.71642493612E+03  0.74224379029E+03  0.46999998093E+01 0. -1.
       -5    1    3    3    0  502  0.19150545178E+03 -0.31060055888E+02 -0.13397388577E+04  0.13537213015E+04  0.46999998093E+01 0.  1.
</event>
<event>
 5   0  0.1258546E-04  0.1955045E+04  0.7818609E-02  0.8627932E-01
        1   -1    0    0  501    0  0.00000000000E+00  0.00000000000E+00  0.18353820320E+04  0.18353820320E+04  0.50400001928E-02 0. -1.
       -1   -1    0    0    0  501  0.00000000000E+00  0.00000000000E+00 -0.52062716974E+03  0.52062716976E+03  0.50400001928E-02 0.  1.
    10030    2    1    2    0    0  0.00000000000E+00  0.00000000000E+00  0.13147548623E+04  0.23560092018E+04  0.19550445036E+04 0.  0.
        4    1    3    3  502    0  0.60833791565E+03 -0.25076718790E+03 -0.21378761240E+03  0.69185689146E+03  0.12699999809E+01 0.  1.
       -4    1    3    3    0  502 -0.60833791565E+03  0.25076718790E+03  0.15285424747E+04  0.16641523103E+04  0.12699999809E+01 0. -1.
</event>
<event>
 5   0  0.1324930E-04  0.2071562E+04  0.7818609E-02  0.8573875E-01
        1   -1    0    0  501    0  0.00000000000E+00  0.00000000000E+00  0.27198318288E+04  0.27198318288E+04  0.50400001928E-02 0. -1.
       -1   -1    0    0    0  501  0.00000000000E+00  0.00000000000E+00 -0.39445181866E+03  0.39445181869E+03  0.50400001928E-02 0.  1.
    10030    2    1    2    0    0  0.00000000000E+00  0.00000000000E+00  0.23253800102E+04  0.31142836475E+04  0.20715623200E+04 0.  0.
        5    1    3    3  502    0  0.53254849955E+02 -0.28748530959E+03 -0.33111114408E+03  0.44174716978E+03  0.46999998093E+01 0.  1.
       -5    1    3    3    0  502 -0.53254849955E+02  0.28748530959E+03  0.26564911543E+04  0.26725364777E+04  0.46999998093E+01 0. -1.
</event>
<event>
 5   0  0.2540506E-04  0.2039053E+04  0.7818609E-02  0.8588577E-01
        2   -1    0    0  501    0  0.00000000000E+00  0.00000000000E+00  0.15115663148E+04  0.15115663148E+04  0.25500000920E-02 0. -1.
       -2   -1    0    0    0  501  0.00000000000E+00  0.00000000000E+00 -0.68765386487E+03  0.68765386487E+03  0.25500000920E-02 0.  1.
    10030    2    1    2    0    0  0.00000000000E+00  0.00000000000E+00  0.82391244991E+03  0.21992201797E+04  0.20390531316E+04 0.  0.
        4    1    3    3  502    0  0.18840268396E+03 -0.18093909829E+03 -0.65094797010E+03  0.70140530457E+03  0.12699999809E+01 0.  1.
       -4    1    3    3    0  502 -0.18840268396E+03  0.18093909829E+03  0.14748604200E+04  0.14978148751E+04  0.12699999809E+01 0. -1.
</event>
<event>
 5   0  0.2463085E-04  0.1983810E+04  0.7818609E-02  0.8614228E-01
        2   -1    0    0  501    0  0.00000000000E+00  0.00000000000E+00  0.11273779675E+04  0.11273779675E+04  0.25500000920E-02 0. -1.
       -2   -1    0    0    0  501  0.00000000000E+00  0.00000000000E+00 -0.87271155507E+03  0.87271155507E+03  0.25500000920E-02 0.  1.
    10030    2    1    2    0    0  0.00000000000E+00  0.00000000000E+00  0.25466641241E+03  0.20000895226E+04  0.19838102522E+04 0.  0.
        2    1    3    3  502    0  0.10703157452E+03  0.28055463904E+03  0.10804528015E+04  0.11214031031E+04  0.25500000920E-02 0. -1.
       -2    1    3    3    0  502 -0.10703157452E+03 -0.28055463904E+03 -0.82578638904E+03  0.87868641947E+03  0.25500000920E-02 0.  1.
</event>
<event>
 5   0  0.1324930E-04  0.1962237E+04  0.7818609E-02  0.8624483E-01
        1   -1    0    0  501    0  0.00000000000E+00  0.00000000000E+00  0.13589991964E+04  0.13589991964E+04  0.50400001928E-02 0.  1.
       -1   -1    0    0    0  501  0.00000000000E+00  0.00000000000E+00 -0.70831023650E+03  0.70831023651E+03  0.50400001928E-02 0. -1.
    10030    2    1    2    0    0  0.00000000000E+00  0.00000000000E+00  0.65068895990E+03  0.20673094329E+04  0.19622365222E+04 0.  0.
        5    1    3    3  502    0 -0.20460147572E+03  0.24852681621E+03  0.13017640114E+04  0.13409843301E+04  0.46999998093E+01 0.  1.
       -5    1    3    3    0  502  0.20460147572E+03 -0.24852681621E+03 -0.65107505151E+03  0.72632510279E+03  0.46999998093E+01 0. -1.
</event>
<event>
 5   0  0.1210633E-04  0.2008519E+04  0.7818609E-02  0.8602648E-01
       -1   -1    0    0    0  501  0.00000000000E+00  0.00000000000E+00  0.75079968663E+03  0.75079968664E+03  0.50400001928E-02 0.  1.
        1   -1    0    0  501    0  0.00000000000E+00  0.00000000000E+00 -0.13432845046E+04  0.13432845046E+04  0.50400001928E-02 0. -1.
    10030    2    1    2    0    0  0.00000000000E+00  0.00000000000E+00 -0.59248481799E+03  0.20940841913E+04  0.20085194399E+04 0.  0.
        2    1    3    3  502    0 -0.25857276430E+03  0.49400607914E+03 -0.11670705369E+04  0.12934278174E+04  0.25500000920E-02 0. -1.
       -2    1    3    3    0  502  0.25857276430E+03 -0.49400607914E+03  0.57458571891E+03  0.80065637389E+03  0.25500000920E-02 0.  1.
</event>
<event>
 5   0  0.2596061E-04  0.2040593E+04  0.7818609E-02  0.8587874E-01
       -2   -1    0    0    0  501  0.00000000000E+00  0.00000000000E+00  0.57113284140E+03  0.57113284140E+03  0.25500000920E-02 0. -1.
        2   -1    0    0  501    0  0.00000000000E+00  0.00000000000E+00 -0.18227025400E+04  0.18227025400E+04  0.25500000920E-02 0.  1.
    10030    2    1    2    0    0  0.00000000000E+00  0.00000000000E+00 -0.12515696986E+04  0.23938353814E+04  0.20405933262E+04 0.  0.
        5    1    3    3  502    0  0.57378747181E+03 -0.14954732941E+03  0.34823829741E+03  0.68766886531E+03  0.46999998093E+01 0. -1.
       -5    1    3    3    0  502 -0.57378747181E+03  0.14954732941E+03 -0.15998079960E+04  0.17061665161E+04  0.46999998093E+01 0.  1.
</event>
<event>
 5   0  0.1210633E-04  0.2151188E+04  0.7818609E-02  0.8539024E-01
       -1   -1    0    0    0  501  0.00000000000E+00  0.00000000000E+00  0.48230684560E+03  0.48230684562E+03  0.50400001928E-02 0. -1.
        1   -1    0    0  501    0  0.00000000000E+00  0.00000000000E+00 -0.23986845065E+04  0.23986845065E+04  0.50400001928E-02 0.  1.
    10030    2    1    2    0    0  0.00000000000E+00  0.00000000000E+00 -0.19163776609E+04  0.28809913522E+04  0.21511875399E+04 0.  0.
        2    1    3    3  502    0  0.19233913046E+03  0.41902833851E+03  0.34325052145E+03  0.57480432328E+03  0.25500000920E-02 0. -1.
       -2    1    3    3    0  502 -0.19233913046E+03 -0.41902833851E+03 -0.22596281824E+04  0.23061870289E+04  0.25500000920E-02 0.  1.
</event>
<event>
 5   0  0.1231056E-04  0.2186818E+04  0.7818609E-02  0.8523935E-01
        1   -1    0    0  501    0  0.00000000000E+00  0.00000000000E+00  0.14044279283E+04  0.14044279283E+04  0.50400001928E-02 0.  1.
       -1   -1    0    0    0  501  0.00000000000E+00  0.00000000000E+00 -0.85126713045E+03  0.85126713047E+03  0.50400001928E-02 0. -1.
    10030    2    1    2    0    0  0.00000000000E+00  0.00000000000E+00  0.55316079786E+03  0.22556950588E+04  0.21868180834E+04 0.  0.
        3    1    3    3  502    0  0.40166373627E+03 -0.24506740974E+03  0.12946582522E+04  0.13775092713E+04  0.10100000352E+00 0.  1.
       -3    1    3    3    0  502 -0.40166373627E+03  0.24506740974E+03 -0.74149745433E+03  0.87818578748E+03  0.10100000352E+00 0. -1.
</event>
<event>
 5   0  0.1207228E-04  0.1847157E+04  0.7818609E-02  0.8681616E-01
        1   -1    0    0  501    0  0.00000000000E+00  0.00000000000E+00  0.64876636100E+03  0.64876636102E+03  0.50400001928E-02 0. -1.
       -1   -1    0    0    0  501  0.00000000000E+00  0.00000000000E+00 -0.13147988127E+04  0.13147988127E+04  0.50400001928E-02 0.  1.
    10030    2    1    2    0    0  0.00000000000E+00  0.00000000000E+00 -0.66603245169E+03  0.19635651737E+04  0.18471569952E+04 0.  0.
        1    1    3    3  502    0  0.81768173839E+03 -0.40428200960E+03 -0.48687852037E+03  0.10339719833E+04  0.50400001928E-02 0.  1.
       -1    1    3    3    0  502 -0.81768173839E+03  0.40428200960E+03 -0.17915393131E+03  0.92959319044E+03  0.50400001928E-02 0. -1.
</event>
<event>
 5   0  0.2421737E-04  0.1309090E+04  0.7818609E-02  0.9022387E-01
        2   -1    0    0  501    0  0.00000000000E+00  0.00000000000E+00  0.71415642520E+03  0.71415642520E+03  0.25500000920E-02 0. -1.
       -2   -1    0    0    0  501  0.00000000000E+00  0.00000000000E+00 -0.59990983666E+03  0.59990983667E+03  0.25500000920E-02 0.  1.
    10030    2    1    2    0    0  0.00000000000E+00  0.00000000000E+00  0.11424658854E+03  0.13140662619E+04  0.13090904696E+04 0.  0.
        1    1    3    3  502    0  0.22674157533E+03  0.18096106008E+03  0.64609944469E+03  0.70823946494E+03  0.50400001928E-02 0. -1.
       -1    1    3    3    0  502 -0.22674157533E+03 -0.18096106008E+03 -0.53185285616E+03  0.60582679693E+03  0.50400001928E-02 0.  1.
</event>
<event>
 5   0  0.2488886E-04  0.1992480E+04  0.7818609E-02  0.8610145E-01
        2   -1    0    0  501    0  0.00000000000E+00  0.00000000000E+00  0.23244256112E+04  0.23244256112E+04  0.25500000920E-02 0. -1.
       -2   -1    0    0    0  501  0.00000000000E+00  0.00000000000E+00 -0.42698474462E+03  0.42698474463E+03  0.25500000920E-02 0.  1.
    10030    2    1    2    0    0  0.00000000000E+00  0.00000000000E+00  0.18974408666E+04  0.27514103558E+04  0.19924801389E+04 0.  0.
        3    1    3    3  502    0 -0.38511319826E+03 -0.91811167698E+03  0.89983903205E+03  0.13419953505E+04  0.10100000352E+00 0.  1.
       -3    1    3    3    0  502  0.38511319826E+03  0.91811167698E+03  0.99760183453E+03  0.14094150054E+04  0.10100000352E+00 0. -1.
</event>
<event>
 5   0  0.2596061E-04  0.1832715E+04  0.7818609E-02  0.8689093E-01
       -2   -1    0    0    0  501  0.00000000000E+00  0.00000000000E+00  0.98956262188E+03  0.98956262188E+03  0.25500000920E-02 0. -1.
        2   -1    0    0  501    0  0.00000000000E+00  0.00000000000E+00 -0.84856785849E+03  0.84856785850E+03  0.25500000920E-02 0.  1.
    10030    2    1    2    0    0  0.00000000000E+00  0.00000000000E+00  0.14099476338E+03  0.18381304804E+04  0.18327149641E+04 0.  0.
        5    1    3    3  502    0 -0.80306506225E+03  0.42041678667E+03  0.20515197417E+03  0.92939399139E+03  0.46999998093E+01 0. -1.
       -5    1    3    3    0  502  0.80306506225E+03 -0.42041678667E+03 -0.64157210791E+02  0.90873648899E+03  0.46999998093E+01 0.  1.
</event>
<event>
 5   0  0.2540506E-04  0.2033306E+04  0.7818609E-02  0.8591205E-01
        2   -1    0    0  501    0  0.00000000000E+00  0.00000000000E+00  0.17686840394E+04  0.17686840394E+04  0.25500000920E-02 0.  1.
       -2   -1    0    0    0  501  0.00000000000E+00  0.00000000000E+00 -0.58438002489E+03  0.58438002490E+03  0.25500000920E-02 0. -1.
    10030    2    1    2    0    0  0.00000000000E+00  0.00000000000E+00  0.11843040145E+04  0.23530640643E+04  0.20333062956E+04 0.  0.
        4    1    3    3  502    0  0.92425664279E+03  0.17656184126E+02  0.10250665726E+03  0.93009209773E+03  0.12699999809E+01 0. -1.
       -4    1    3    3    0  502 -0.92425664279E+03 -0.17656184126E+02  0.10817973573E+04  0.14229719666E+04  0.12699999809E+01 0.  1.
</event>
<event>
 5   0  0.2421737E-04  0.2044164E+04  0.7818609E-02  0.8586246E-01
       -2   -1    0    0    0  501  0.00000000000E+00  0.00000000000E+00  0.66725106458E+03  0.66725106459E+03  0.25500000920E-02 0. -1.
        2   -1    0    0  501    0  0.00000000000E+00  0.00000000000E+00 -0.15656053519E+04  0.15656053519E+04  0.25500000920E-02 0.  1.
    10030    2    1    2    0    0  0.00000000000E+00  0.00000000000E+00 -0.89835428736E+03  0.22328564165E+04  0.20441642183E+04 0.  0.
        1    1    3    3  502    0  0.42783640729E+03  0.36786476960E+03  0.48171220500E+03  0.74189967555E+03  0.50400001928E-02 0. -1.
       -1    1    3    3    0  502 -0.42783640729E+03 -0.36786476960E+03 -0.13800664924E+04  0.14909567410E+04  0.50400001928E-02 0.  1.
</event>
<event>
 5   0  0.1210633E-04  0.1982314E+04  0.7818609E-02  0.8614934E-01
        1   -1    0    0  501    0  0.00000000000E+00  0.00000000000E+00  0.10843769255E+04  0.10843769255E+04  0.50400001928E-02 0. -1.
       -1   -1    0    0    0  501  0.00000000000E+00  0.00000000000E+00 -0.90595057284E+03  0.90595057285E+03  0.50400001928E-02 0.  1.
    10030    2    1    2    0    0  0.00000000000E+00  0.00000000000E+00  0.17842635268E+03  0.19903274984E+04  0.19823136955E+04 0.  0.
        2    1    3    3  502    0  0.74557720558E+03  0.38476334525E+03 -0.44061671114E+03  0.94766623210E+03  0.25500000920E-02 0.  1.
       -2    1    3    3    0  502 -0.74557720558E+03 -0.38476334525E+03  0.61904306382E+03  0.10426612663E+04  0.25500000920E-02 0. -1.
</event>
<event>
 5   0  0.1231056E-04  0.1691156E+04  0.7818609E-02  0.8766424E-01
       -1   -1    0    0    0  501  0.00000000000E+00  0.00000000000E+00  0.71070128310E+03  0.71070128312E+03  0.50400001928E-02 0.  1.
        1   -1    0    0  501    0  0.00000000000E+00  0.00000000000E+00 -0.10060520560E+04  0.10060520560E+04  0.50400001928E-02 0. -1.
    10030    2    1    2    0    0  0.00000000000E+00  0.00000000000E+00 -0.29535077292E+03  0.17167533392E+04  0.16911563938E+04 0.  0.
        3    1    3    3  502    0  0.43505982479E+03  0.15732475207E+03 -0.86618382538E+03  0.98198908258E+03  0.10100000352E+00 0. -1.
       -3    1    3    3    0  502 -0.43505982479E+03 -0.15732475207E+03  0.57083305246E+03  0.73476425658E+03  0.10100000352E+00 0.  1.
</event>
<event>
 5   0  0.2488886E-04  0.2016378E+04  0.7818609E-02  0.8599001E-01
       -2   -1    0    0    0  501  0.00000000000E+00  0.00000000000E+00  0.12536941053E+04  0.12536941053E+04  0.25500000920E-02 0. -1.
        2   -1    0    0  501    0  0.00000000000E+00  0.00000000000E+00 -0.81076013312E+03  0.81076013313E+03  0.25500000920E-02 0.  1.
    10030    2    1    2    0    0  0.00000000000E+00  0.00000000000E+00  0.44293397214E+03  0.20644542384E+04  0.20163781388E+04 0.  0.
        3    1    3    3  502    0 -0.11614935107E+03 -0.91399976967E+03 -0.19763245423E+03  0.94230825524E+03  0.10100000352E+00 0.  1.
       -3    1    3    3    0  502  0.11614935107E+03  0.91399976967E+03  0.64056642637E+03  0.11221459832E+04  0.10100000352E+00 0. -1.
</event>
<event>
 5   0  0.2488886E-04  0.1996630E+04  0.7818609E-02  0.8608198E-01
        2   -1    0    0  501    0  0.00000000000E+00  0.00000000000E+00  0.19518262382E+04  0.19518262382E+04  0.25500000920E-02 0.  1.
       -2   -1    0    0    0  501  0.00000000000E+00  0.00000000000E+00 -0.51061579470E+03  0.51061579470E+03  0.25500000920E-02 0. -1.
    10030    2    1    2    0    0  0.00000000000E+00  0.00000000000E+00  0.14412104435E+04  0.24624420329E+04  0.19966304673E+04 0.  0.
        3    1    3    3  502    0 -0.70862037617E+03  0.28991263119E+03  0.15107264973E+04  0.16936607486E+04  0.10100000352E+00 0.  1.
       -3    1    3    3    0  502  0.70862037617E+03 -0.28991263119E+03 -0.69516053820E+02  0.76878128436E+03  0.10100000352E+00 0. -1.
</event>
<event>
 5   0  0.1210633E-04  0.2016843E+04  0.7818609E-02  0.8598786E-01
       -1   -1    0    0    0  501  0.00000000000E+00  0.00000000000E+00  0.18117562035E+04  0.18117562035E+04  0.50400001928E-02 0.  1.
        1   -1    0    0  501    0  0.00000000000E+00  0.00000000000E+00 -0.56128615736E+03  0.56128615739E+03  0.50400001928E-02 0. -1.
    10030    2    1    2    0    0  0.00000000000E+00  0.00000000000E+00  0.12504700462E+04  0.23730423609E+04  0.20168427580E+04 0.  0.
        2    1    3    3  502    0  0.55153114432E+02  0.93836502264E+03  0.19558148531E+03  0.96011608628E+03  0.25500000920E-02 0. -1.
       -2    1    3    3    0  502 -0.55153114432E+02 -0.93836502264E+03  0.10548885608E+04  0.14129262746E+04  0.25500000920E-02 0.  1.
</event>
<event>
 5   0  0.1207228E-04  0.1826968E+04  0.7818609E-02  0.8692088E-01
        1   -1    0    0  501    0  0.00000000000E+00  0.00000000000E+00  0.71377499896E+03  0.71377499898E+03  0.50400001928E-02 0. -1.
       -1   -1    0    0    0  501  0.00000000000E+00  0.00000000000E+00 -0.11690700904E+04  0.11690700904E+04  0.50400001928E-02 0.  1.
    10030    2    1    2    0    0  0.00000000000E+00  0.00000000000E+00 -0.45529509142E+03  0.18828450894E+04  0.18269679828E+04 0.  0.
        1    1    3    3  502    0  0.46330976343E+02 -0.83639312049E+03 -0.60314397468E+03  0.10322221978E+04  0.50400001928E-02 0. -1.
       -1    1    3    3    0  502 -0.46330976343E+02  0.83639312049E+03  0.14784888326E+03  0.85062289158E+03  0.50400001928E-02 0.  1.
</event>
<event>
 5   0  0.2596061E-04  0.1988139E+04  0.7818609E-02  0.8612186E-01
        2   -1    0    0  501    0  0.00000000000E+00  0.00000000000E+00  0.18293959767E+04  0.18293959767E+04  0.25500000920E-02 0. -1.
       -2   -1    0    0    0  501  0.00000000000E+00  0.00000000000E+00 -0.54016428629E+03  0.54016428630E+03  0.25500000920E-02 0.  1.
    10030    2    1    2    0    0  0.00000000000E+00  0.00000000000E+00  0.12892316904E+04  0.23695602630E+04  0.19881392025E+04 0.  0.
        5    1    3    3  502    0  0.55533068582E+03 -0.35055550020E+03  0.15340181527E+04  0.16686866428E+04  0.46999998093E+01 0. -1.
       -5    1    3    3    0  502 -0.55533068582E+03  0.35055550020E+03 -0.24478646225E+03  0.70087362015E+03  0.46999998093E+01 0.  1.
</event>
<event>
 5   0  0.1258546E-04  0.1898826E+04  0.7818609E-02  0.8655441E-01
       -1   -1    0    0    0  501  0.00000000000E+00  0.00000000000E+00  0.11507521122E+04  0.11507521122E+04  0.50400001928E-02 0. -1.
        1   -1    0    0  501    0  0.00000000000E+00  0.00000000000E+00 -0.78330100697E+03  0.78330100699E+03  0.50400001928E-02 0.  1.
    10030    2    1    2    0    0  0.00000000000E+00  0.00000000000E+00  0.36745110522E+03  0.19340531192E+04  0.18988262567E+04 0.  0.
        4    1    3    3  502    0 -0.73393248777E+03  0.32216574968E+03  0.70202338673E+03  0.10654980597E+04  0.12699999809E+01 0. -1.
       -4    1    3    3    0  502  0.73393248777E+03 -0.32216574968E+03 -0.33457228150E+03  0.86855505946E+03  0.12699999809E+01 0.  1.
</event>
<event>
 5   0  0.1207228E-04  0.1981718E+04  0.7818609E-02  0.8615216E-01
        1   -1    0    0  501    0  0.00000000000E+00  0.00000000000E+00  0.14243618270E+04  0.14243618270E+04  0.50400001928E-02 0. -1.
       -1   -1    0    0    0  501  0.00000000000E+00  0.00000000000E+00 -0.68929190200E+03  0.68929190202E+03  0.50400001928E-02 0.  1.
    10030    2    1    2    0    0  0.00000000000E+00  0.00000000000E+00  0.73506992497E+03  0.21136537290E+04  0.19817175105E+04 0.  0.
        1    1    3    3  502    0 -0.11722544931E+03 -0.24634353660E+03  0.13835152685E+04  0.14101565311E+04  0.50400001928E-02 0. -1.
       -1    1    3    3    0  502  0.11722544931E+03  0.24634353660E+03 -0.64844534349E+03  0.70349719794E+03  0.50400001928E-02 0.  1.
</event>
<event>
 5   0  0.2540506E-04  0.2031675E+04  0.7818609E-02  0.8591953E-01
        2   -1    0    0  501    0  0.00000000000E+00  0.00000000000E+00  0.11626777768E+04  0.11626777768E+04  0.25500000920E-02 0.  1.
       -2   -1    0    0    0  501  0.00000000000E+00  0.00000000000E+00 -0.88754260454E+03  0.88754260454E+03  0.25500000920E-02 0. -1.
    10030    2    1    2    0    0  0.00000000000E+00  0.00000000000E+00  0.27513517228E+03  0.20502203814E+04  0.20316752322E+04 0.  0.
        4    1    3    3  502    0  0.29267074241E+03 -0.39243583570E+03 -0.76064840607E+03  0.90457153347E+03  0.12699999809E+01 0. -1.
       -4    1    3    3    0  502 -0.29267074241E+03  0.39243583570E+03  0.10357835783E+04  0.11456488479E+04  0.12699999809E+01 0.  1.
</event>
<event>
 5   0  0.1207228E-04  0.2037360E+04  0.7818609E-02  0.8589350E-01
       -1   -1    0    0    0  501  0.00000000000E+00  0.00000000000E+00  0.45777921078E+03  0.45777921080E+03  0.50400001928E-02 0. -1.
        1   -1    0    0  501    0  0.00000000000E+00  0.00000000000E+00 -0.22668318541E+04  0.22668318541E+04  0.50400001928E-02 0.  1.
    10030    2    1    2    0    0  0.00000000000E+00  0.00000000000E+00 -0.18090526433E+04  0.27246110649E+04  0.20373595629E+04 0.  0.
        1    1    3    3  502    0 -0.73171513701E+03 -0.70756565786E+03 -0.85016617006E+03  0.13262121695E+04  0.50400001928E-02 0. -1.
       -1    1    3    3    0  502  0.73171513701E+03  0.70756565786E+03 -0.95888647326E+03  0.13983988954E+04  0.50400001928E-02 0.  1.
</event>
<event>
 5   0  0.1207228E-04  0.1995280E+04  0.7818609E-02  0.8608831E-01
       -1   -1    0    0    0  501  0.00000000000E+00  0.00000000000E+00  0.54463360659E+03  0.54463360661E+03  0.50400001928E-02 0.  1.
        1   -1    0    0  501    0  0.00000000000E+00  0.00000000000E+00 -0.18274401415E+04  0.18274401415E+04  0.50400001928E-02 0. -1.
    10030    2    1    2    0    0  0.00000000000E+00  0.00000000000E+00 -0.12828065349E+04  0.23720737481E+04  0.19952797449E+04 0.  0.
        1    1    3    3  502    0  0.81756199202E+03 -0.54338800726E+03 -0.43004596696E+03  0.10717358214E+04  0.50400001928E-02 0. -1.
       -1    1    3    3    0  502 -0.81756199202E+03  0.54338800726E+03 -0.85276056793E+03  0.13003379266E+04  0.50400001928E-02 0.  1.
</event>
<event>
 5   0  0.1207228E-04  0.2061256E+04  0.7818609E-02  0.8578505E-01
        1   -1    0    0  501    0  0.00000000000E+00  0.00000000000E+00  0.63207542775E+03  0.63207542777E+03  0.50400001928E-02 0. -1.
       -1   -1    0    0    0  501  0.00000000000E+00  0.00000000000E+00 -0.16804864171E+04  0.16804864171E+04  0.50400001928E-02 0.  1.
    10030    2    1    2    0    0  0.00000000000E+00  0.00000000000E+00 -0.10484109893E+04  0.23125618449E+04  0.20612560937E+04 0.  0.
        1    1    3    3  502    0 -0.35923801228E+02  0.36476900311E+03 -0.16048917803E+04  0.16462152264E+04  0.50400001928E-02 0.  1.
       -1    1    3    3    0  502  0.35923801228E+02 -0.36476900311E+03  0.55648079100E+03  0.66634661843E+03  0.50400001928E-02 0. -1.
</event>
<event>
 5   0  0.1324930E-04  0.1992008E+04  0.7818609E-02  0.8610367E-01
       -1   -1    0    0    0  501  0.00000000000E+00  0.00000000000E+00  0.92794745908E+03  0.92794745909E+03  0.50400001928E-02 0. -1.
        1   -1    0    0  501    0  0.00000000000E+00  0.00000000000E+00 -0.10690513377E+04  0.10690513377E+04  0.50400001928E-02 0.  1.
    10030    2    1    2    0    0  0.00000000000E+00  0.00000000000E+00 -0.14110387866E+03  0.19969987968E+04  0.19920075025E+04 0.  0.
        5    1    3    3  502    0 -0.12920156654E+03 -0.54491438350E+03 -0.89625192993E+03  0.10568416826E+04  0.46999998093E+01 0.  1.
       -5    1    3    3    0  502  0.12920156654E+03  0.54491438350E+03  0.75514805127E+03  0.94015711425E+03  0.46999998093E+01 0. -1.
</event>
<event>
 5   0  0.1324930E-04  0.1993520E+04  0.7818609E-02  0.8609656E-01
        1   -1    0    0  501    0  0.00000000000E+00  0.00000000000E+00  0.14013779161E+04  0.14013779161E+04  0.50400001928E-02 0.  1.
       -1   -1    0    0    0  501  0.00000000000E+00  0.00000000000E+00 -0.70896677379E+03  0.70896677381E+03  0.50400001928E-02 0. -1.
    10030    2    1    2    0    0  0.00000000000E+00  0.00000000000E+00  0.69241114231E+03  0.21103446899E+04  0.19935198821E+04 0.  0.
        5    1    3    3  502    0 -0.24629765651E+03 -0.82681838027E+03 -0.18226616037E+03  0.88177900450E+03  0.46999998093E+01 0. -1.
       -5    1    3    3    0  502  0.24629765651E+03  0.82681838027E+03  0.87467730268E+03  0.12285656854E+04  0.46999998093E+01 0.  1.
</event>
<event>
 5   0  0.1210633E-04  0.1908358E+04  0.7818609E-02  0.8650707E-01
       -1   -1    0    0    0  501  0.00000000000E+00  0.00000000000E+00  0.68225130691E+03  0.68225130693E+03  0.50400001928E-02 0. -1.
        1   -1    0    0  501    0  0.00000000000E+00  0.00000000000E+00 -0.13344897245E+04  0.13344897245E+04  0.50400001928E-02 0.  1.
    10030    2    1    2    0    0  0.00000000000E+00  0.00000000000E+00 -0.65223841756E+03  0.20167410314E+04  0.19083577847E+04 0.  0.
        2    1    3    3  502    0  0.44173748823E+03 -0.70241939319E+03  0.17173322621E+03  0.84735902274E+03  0.25500000920E-02 0.  1.
       -2    1    3    3    0  502 -0.44173748823E+03  0.70241939319E+03 -0.82397164378E+03  0.11693820087E+04  0.25500000920E-02 0. -1.
</event>
<event>
 5   0  0.1210633E-04  0.2000649E+04  0.7818609E-02  0.8606317E-01
       -1   -1    0    0    0  501  0.00000000000E+00  0.00000000000E+00  0.17351821915E+04  0.17351821915E+04  0.50400001928E-02 0. -1.
        1   -1    0    0  501    0  0.00000000000E+00  0.00000000000E+00 -0.57668271208E+03  0.57668271210E+03  0.50400001928E-02 0.  1.
    10030    2    1    2    0    0  0.00000000000E+00  0.00000000000E+00  0.11584994794E+04  0.23118649036E+04  0.20006494667E+04 0.  0.
        2    1    3    3  502    0 -0.22583859528E+03  0.53513266732E+03 -0.36185886950E+03  0.68433316754E+03  0.25500000920E-02 0.  1.
       -2    1    3    3    0  502  0.22583859528E+03 -0.53513266732E+03  0.15203583489E+04  0.16275317361E+04  0.25500000920E-02 0. -1.
</event>
<event>
 5   0  0.1210633E-04  0.2024072E+04  0.7818609E-02  0.8595448E-01
       -1   -1    0    0    0  501  0.00000000000E+00  0.00000000000E+00  0.82557119487E+03  0.82557119489E+03  0.50400001928E-02 0. -1.
        1   -1    0    0  501    0  0.00000000000E+00  0.00000000000E+00 -0.12406155840E+04  0.12406155841E+04  0.50400001928E-02 0.  1.
    10030    2    1    2    0    0  0.00000000000E+00  0.00000000000E+00 -0.41504438917E+03  0.20661867789E+04  0.20240716293E+04 0.  0.
        2    1    3    3  502    0  0.80826665368E+03  0.23344569439E+03 -0.78174287638E+03  0.11484397243E+04  0.25500000920E-02 0.  1.
       -2    1    3    3    0  502 -0.80826665368E+03 -0.23344569439E+03  0.36669848721E+03  0.91774705459E+03  0.25500000920E-02 0. -1.
</event>
<event>
 5   0  0.2488886E-04  0.2153916E+04  0.7818609E-02  0.8537858E-01
        2   -1    0    0  501    0  0.00000000000E+00  0.00000000000E+00  0.87023756118E+03  0.87023756118E+03  0.25500000920E-02 0.  1.
       -2   -1    0    0    0  501  0.00000000000E+00  0.00000000000E+00 -0.13327833665E+04  0.13327833665E+04  0.25500000920E-02 0. -1.
    10030    2    1    2    0    0  0.00000000000E+00  0.00000000000E+00 -0.46254580529E+03  0.22030209277E+04  0.21539156403E+04 0.  0.
        3    1    3    3  502    0  0.78294398744E+03  0.59150231016E+03 -0.68519466832E+03  0.11968157812E+04  0.10100000352E+00 0. -1.
       -3    1    3    3    0  502 -0.78294398744E+03 -0.59150231016E+03  0.22264886303E+03  0.10062051465E+04  0.10100000352E+00 0.  1.
</event>
<event>
 5   0  0.1207228E-04  0.1586941E+04  0.7818609E-02  0.8828611E-01
       -1   -1    0    0    0  501  0.00000000000E+00  0.00000000000E+00  0.12784417502E+04  0.12784417503E+04  0.50400001928E-02 0.  1.
        1   -1    0    0  501    0  0.00000000000E+00  0.00000000000E+00 -0.49247111140E+03  0.49247111143E+03  0.50400001928E-02 0. -1.
    10030    2    1    2    0    0  0.00000000000E+00  0.00000000000E+00  0.78597063884E+03  0.17709128617E+04  0.15869412461E+04 0.  0.
        1    1    3    3  502    0  0.47222828857E+03  0.52141752250E+03  0.80257794021E+03  0.10672427744E+04  0.50400001928E-02 0.  1.
       -1    1    3    3    0  502 -0.47222828857E+03 -0.52141752250E+03 -0.16607301367E+02  0.70367008731E+03  0.50400001928E-02 0. -1.
</event>
<event>
 5   0  0.9099125E-05  0.1754147E+04  0.7818609E-02  0.8731071E-01
       -3   -1    0    0    0  501  0.00000000000E+00  0.00000000000E+00  0.37653546061E+03  0.37653547415E+03  0.10100000352E+00 0.  1.
        3   -1    0    0  501    0  0.00000000000E+00  0.00000000000E+00 -0.20429883840E+04  0.20429883865E+04  0.10100000352E+00 0. -1.
    10030    2    1    2    0    0  0.00000000000E+00  0.00000000000E+00 -0.16664529234E+04  0.24195238606E+04  0.17541466205E+04 0.  0.
        1    1    3    3  502    0 -0.65092489522E+03  0.17070939027E+03 -0.16091000271E+04  0.17441467290E+04  0.50400001928E-02 0. -1.
       -1    1    3    3    0  502  0.65092489522E+03 -0.17070939027E+03 -0.57352896273E+02  0.67537713160E+03  0.50400001928E-02 0.  1.
</event>
<event>
 5   0  0.2488886E-04  0.1982123E+04  0.7818609E-02  0.8615025E-01
       -2   -1    0    0    0  501  0.00000000000E+00  0.00000000000E+00  0.88555463039E+03  0.88555463039E+03  0.25500000920E-02 0. -1.
        2   -1    0    0  501    0  0.00000000000E+00  0.00000000000E+00 -0.11091389206E+04  0.11091389206E+04  0.25500000920E-02 0.  1.
    10030    2    1    2    0    0  0.00000000000E+00  0.00000000000E+00 -0.22358429023E+03  0.19946935510E+04  0.19821232120E+04 0.  0.
        3    1    3    3  502    0  0.18909354538E+03 -0.68314431951E+03  0.58524803052E+03  0.91921586018E+03  0.10100000352E+00 0. -1.
       -3    1    3    3    0  502 -0.18909354538E+03  0.68314431951E+03 -0.80883232075E+03  0.10754776908E+04  0.10100000352E+00 0.  1.
</event>
<event>
 5   0  0.1258546E-04  0.2035872E+04  0.7818609E-02  0.8590031E-01
       -1   -1    0    0    0  501  0.00000000000E+00  0.00000000000E+00  0.10467814618E+04  0.10467814618E+04  0.50400001928E-02 0. -1.
        1   -1    0    0  501    0  0.00000000000E+00  0.00000000000E+00 -0.98988531462E+03  0.98988531463E+03  0.50400001928E-02 0.  1.
    10030    2    1    2    0    0  0.00000000000E+00  0.00000000000E+00  0.56896147152E+02  0.20366667764E+04  0.20358718984E+04 0.  0.
        4    1    3    3  502    0  0.84771253529E+03 -0.49728043547E+03 -0.23677354342E+03  0.10109241800E+04  0.12699999809E+01 0. -1.
       -4    1    3    3    0  502 -0.84771253529E+03  0.49728043547E+03  0.29366969057E+03  0.10257425964E+04  0.12699999809E+01 0.  1.
</event>
<event>
 5   0  0.2540506E-04  0.2000771E+04  0.7818609E-02  0.8606260E-01
       -2   -1    0    0    0  501  0.00000000000E+00  0.00000000000E+00  0.81270020581E+03  0.81270020581E+03  0.25500000920E-02 0.  1.
        2   -1    0    0  501    0  0.00000000000E+00  0.00000000000E+00 -0.12314150764E+04  0.12314150764E+04  0.25500000920E-02 0. -1.
    10030    2    1    2    0    0  0.00000000000E+00  0.00000000000E+00 -0.41871487058E+03  0.20441152822E+04  0.20007711374E+04 0.  0.
        4    1    3    3  502    0  0.94645538726E+03 -0.30484094574E+03 -0.97142332697E+02  0.99907159302E+03  0.12699999809E+01 0.  1.
       -4    1    3    3    0  502 -0.94645538726E+03  0.30484094574E+03 -0.32157253788E+03  0.10450436892E+04  0.12699999809E+01 0. -1.
</event>
<event>
 5   0  0.2421737E-04  0.1910133E+04  0.7818609E-02  0.8649829E-01
       -2   -1    0    0    0  501  0.00000000000E+00  0.00000000000E+00  0.50613440406E+03  0.50613440407E+03  0.25500000920E-02 0. -1.
        2   -1    0    0  501    0  0.00000000000E+00  0.00000000000E+00 -0.18021940973E+04  0.18021940973E+04  0.25500000920E-02 0.  1.
    10030    2    1    2    0    0  0.00000000000E+00  0.00000000000E+00 -0.12960596932E+04  0.23083285013E+04  0.19101334356E+04 0.  0.
        1    1    3    3  502    0  0.83011415182E+03  0.46636692571E+03 -0.55788113896E+03  0.11035483586E+04  0.50400001928E-02 0. -1.
       -1    1    3    3    0  502 -0.83011415182E+03 -0.46636692571E+03 -0.73817855424E+03  0.12047801428E+04  0.50400001928E-02 0.  1.
</event>
<event>
 5   0  0.1231056E-04  0.2047202E+04  0.7818609E-02  0.8584865E-01
       -1   -1    0    0    0  501  0.00000000000E+00  0.00000000000E+00  0.63877975533E+03  0.63877975535E+03  0.50400001928E-02 0.  1.
        1   -1    0    0  501    0  0.00000000000E+00  0.00000000000E+00 -0.16402507965E+04  0.16402507965E+04  0.50400001928E-02 0. -1.
    10030    2    1    2    0    0  0.00000000000E+00  0.00000000000E+00 -0.10014710411E+04  0.22790305518E+04  0.20472019954E+04 0.  0.
        3    1    3    3  502    0 -0.65912730591E+03 -0.75043581685E+03 -0.25141841629E+03  0.10299582277E+04  0.10100000352E+00 0. -1.
       -3    1    3    3    0  502  0.65912730591E+03  0.75043581685E+03 -0.75005262485E+03  0.12490723241E+04  0.10100000352E+00 0.  1.
</event>
<event>
 5   0  0.2488886E-04  0.1811989E+04  0.7818609E-02  0.8699950E-01
       -2   -1    0    0    0  501  0.00000000000E+00  0.00000000000E+00  0.56419559467E+03  0.56419559468E+03  0.25500000920E-02 0.  1.
        2   -1    0    0  501    0  0.00000000000E+00  0.00000000000E+00 -0.14548602447E+04  0.14548602447E+04  0.25500000920E-02 0. -1.
    10030    2    1    2    0    0  0.00000000000E+00  0.00000000000E+00 -0.89066465001E+03  0.20190558394E+04  0.18119886765E+04 0.  0.
        3    1    3    3  502    0 -0.68342473858E+03  0.40445505272E+03 -0.93125444769E+03  0.12238823961E+04  0.10100000352E+00 0. -1.
       -3    1    3    3    0  502  0.68342473858E+03 -0.40445505272E+03  0.40589797675E+02  0.79517344325E+03  0.10100000352E+00 0.  1.
</event>
<event>
 5   0  0.1258546E-04  0.2114857E+04  0.7818609E-02  0.8554727E-01
       -1   -1    0    0    0  501  0.00000000000E+00  0.00000000000E+00  0.56813113995E+03  0.56813113998E+03  0.50400001928E-02 0.  1.
        1   -1    0    0  501    0  0.00000000000E+00  0.00000000000E+00 -0.19681290171E+04  0.19681290171E+04  0.50400001928E-02 0. -1.
    10030    2    1    2    0    0  0.00000000000E+00  0.00000000000E+00 -0.13999978771E+04  0.25362601571E+04  0.21148573305E+04 0.  0.
        4    1    3    3  502    0  0.61498744126E+03  0.10985025666E+03  0.32315684507E+03  0.70335523827E+03  0.12699999809E+01 0.  1.
       -4    1    3    3    0  502 -0.61498744126E+03 -0.10985025666E+03 -0.17231547222E+04  0.18329049188E+04  0.12699999809E+01 0. -1.
</event>
<event>
 5   0  0.2463085E-04  0.1974741E+04  0.7818609E-02  0.8618522E-01
        2   -1    0    0  501    0  0.00000000000E+00  0.00000000000E+00  0.18606894228E+04  0.18606894228E+04  0.25500000920E-02 0.  1.
       -2   -1    0    0    0  501  0.00000000000E+00  0.00000000000E+00 -0.52394577257E+03  0.52394577257E+03  0.25500000920E-02 0. -1.
    10030    2    1    2    0    0  0.00000000000E+00  0.00000000000E+00  0.13367436502E+04  0.23846351954E+04  0.19747408510E+04 0.  0.
        2    1    3    3  502    0  0.36588416971E+03  0.86537804875E+03  0.30179971068E+03  0.98683000475E+03  0.25500000920E-02 0.  1.
       -2    1    3    3    0  502 -0.36588416971E+03 -0.86537804875E+03  0.10349439395E+04  0.13978051906E+04  0.25500000920E-02 0. -1.
</event>
<event>
 5   0  0.1258546E-04  0.1999233E+04  0.7818609E-02  0.8606979E-01
       -1   -1    0    0    0  501  0.00000000000E+00  0.00000000000E+00  0.15627724809E+04  0.15627724809E+04  0.50400001928E-02 0.  1.
        1   -1    0    0  501    0  0.00000000000E+00  0.00000000000E+00 -0.63939763108E+03  0.63939763110E+03  0.50400001928E-02 0. -1.
    10030    2    1    2    0    0  0.00000000000E+00  0.00000000000E+00  0.92337484981E+03  0.22021701120E+04  0.19992328751E+04 0.  0.
        4    1    3    3  502    0  0.87520035605E+03  0.35932849511E+03  0.81714986635E+03  0.12501312522E+04  0.12699999809E+01 0.  1.
       -4    1    3    3    0  502 -0.87520035605E+03 -0.35932849511E+03  0.10622498345E+03  0.95203885984E+03  0.12699999809E+01 0. -1.
</event>
<event>
 5   0  0.1258546E-04  0.2000964E+04  0.7818609E-02  0.8606170E-01
        1   -1    0    0  501    0  0.00000000000E+00  0.00000000000E+00  0.18163654387E+04  0.18163654387E+04  0.50400001928E-02 0. -1.
       -1   -1    0    0    0  501  0.00000000000E+00  0.00000000000E+00 -0.55108089095E+03  0.55108089097E+03  0.50400001928E-02 0.  1.
    10030    2    1    2    0    0  0.00000000000E+00  0.00000000000E+00  0.12652845477E+04  0.23674463297E+04  0.20009640519E+04 0.  0.
        4    1    3    3  502    0  0.77111783209E+03 -0.53484738919E+03  0.22231123355E+03  0.96442124518E+03  0.12699999809E+01 0.  1.
       -4    1    3    3    0  502 -0.77111783209E+03  0.53484738919E+03  0.10429733142E+04  0.14030250845E+04  0.12699999809E+01 0. -1.
</event>
<event>
 5   0  0.1210633E-04  0.2008696E+04  0.7818609E-02  0.8602566E-01
        1   -1    0    0  501    0  0.00000000000E+00  0.00000000000E+00  0.12958146715E+04  0.12958146715E+04  0.50400001928E-02 0.  1.
       -1   -1    0    0    0  501  0.00000000000E+00  0.00000000000E+00 -0.77844049511E+03  0.77844049513E+03  0.50400001928E-02 0. -1.
    10030    2    1    2    0    0  0.00000000000E+00  0.00000000000E+00  0.51737417641E+03  0.20742551667E+04  0.20086957107E+04 0.  0.
        2    1    3    3  502    0 -0.74003501398E+03 -0.31819476359E+03 -0.36073628810E+03  0.88262698749E+03  0.25500000920E-02 0. -1.
       -2    1    3    3    0  502  0.74003501398E+03  0.31819476359E+03  0.87811046451E+03  0.11916281792E+04  0.25500000920E-02 0.  1.
</event>
<event>
 5   0  0.2463085E-04  0.1966527E+04  0.7818609E-02  0.8622432E-01
       -2   -1    0    0    0  501  0.00000000000E+00  0.00000000000E+00  0.73066590837E+03  0.73066590837E+03  0.25500000920E-02 0.  1.
        2   -1    0    0  501    0  0.00000000000E+00  0.00000000000E+00 -0.13231869487E+04  0.13231869487E+04  0.25500000920E-02 0. -1.
    10030    2    1    2    0    0  0.00000000000E+00  0.00000000000E+00 -0.59252104031E+03  0.20538528571E+04  0.19665274916E+04 0.  0.
        2    1    3    3  502    0  0.44880768627E+03  0.78631141712E+03  0.10429821539E+03  0.91136825800E+03  0.25500000920E-02 0.  1.
       -2    1    3    3    0  502 -0.44880768627E+03 -0.78631141712E+03 -0.69681925571E+03  0.11424845991E+04  0.25500000920E-02 0. -1.
</event>
<event>
 5   0  0.2421737E-04  0.2003275E+04  0.7818609E-02  0.8605091E-01
       -2   -1    0    0    0  501  0.00000000000E+00  0.00000000000E+00  0.41697150295E+03  0.41697150296E+03  0.25500000920E-02 0. -1.
        2   -1    0    0  501    0  0.00000000000E+00  0.00000000000E+00 -0.24061054637E+04  0.24061054637E+04  0.25500000920E-02 0.  1.
    10030    2    1    2    0    0  0.00000000000E+00  0.00000000000E+00 -0.19891339607E+04  0.28230769666E+04  0.20032747305E+04 0.  0.
        1    1    3    3  502    0  0.98568159974E+03  0.13088274028E+03 -0.82441201030E+03  0.12916476573E+04  0.50400001928E-02 0. -1.
       -1    1    3    3    0  502 -0.98568159974E+03 -0.13088274028E+03 -0.11647219504E+04  0.15314293094E+04  0.50400001928E-02 0.  1.
</event>
<event>
 5   0  0.2596061E-04  0.1957210E+04  0.7818609E-02  0.8626892E-01
       -2   -1    0    0    0  501  0.00000000000E+00  0.00000000000E+00  0.66050658028E+03  0.66050658028E+03  0.25500000920E-02 0. -1.
        2   -1    0    0  501    0  0.00000000000E+00  0.00000000000E+00 -0.14498986584E+04  0.14498986584E+04  0.25500000920E-02 0.  1.
    10030    2    1    2    0    0  0.00000000000E+00  0.00000000000E+00 -0.78939207807E+03  0.21104052386E+04  0.19572098555E+04 0.  0.
        5    1    3    3  502    0 -0.20171043458E+03  0.46975879872E+03  0.50505427896E+03  0.71865314519E+03  0.46999998093E+01 0. -1.
       -5    1    3    3    0  502  0.20171043458E+03 -0.46975879872E+03 -0.12944463570E+04  0.13917520935E+04  0.46999998093E+01 0.  1.
</event>
<event>
 5   0  0.2421737E-04  0.2008868E+04  0.7818609E-02  0.8602486E-01
        2   -1    0    0  501    0  0.00000000000E+00  0.00000000000E+00  0.13730538880E+04  0.13730538881E+04  0.25500000920E-02 0. -1.
       -2   -1    0    0    0  501  0.00000000000E+00  0.00000000000E+00 -0.73477678023E+03  0.73477678024E+03  0.25500000920E-02 0.  1.
    10030    2    1    2    0    0  0.00000000000E+00  0.00000000000E+00  0.63827710782E+03  0.21078306683E+04  0.20088684526E+04 0.  0.
        1    1    3    3  502    0 -0.16145828223E+02  0.60391638524E+03  0.11611105046E+04  0.13088748191E+04  0.50400001928E-02 0. -1.
       -1    1    3    3    0  502  0.16145828223E+02 -0.60391638524E+03 -0.52283339679E+03  0.79895584919E+03  0.50400001928E-02 0.  1.
</event>
<event>
 5   0  0.1207228E-04  0.2065376E+04  0.7818609E-02  0.8576651E-01
       -1   -1    0    0    0  501  0.00000000000E+00  0.00000000000E+00  0.84716586147E+03  0.84716586149E+03  0.50400001928E-02 0. -1.
        1   -1    0    0  501    0  0.00000000000E+00  0.00000000000E+00 -0.12588382037E+04  0.12588382037E+04  0.50400001928E-02 0.  1.
    10030    2    1    2    0    0  0.00000000000E+00  0.00000000000E+00 -0.41167234220E+03  0.21060040652E+04  0.20653762382E+04 0.  0.
        1    1    3    3  502    0 -0.53809075422E+03 -0.57919628305E+03  0.47163885681E+03  0.92057221626E+03  0.50400001928E-02 0. -1.
       -1    1    3    3    0  502  0.53809075422E+03  0.57919628305E+03 -0.88331119901E+03  0.11854318489E+04  0.50400001928E-02 0.  1.
</event>
<event>
 5   0  0.2596061E-04  0.2000014E+04  0.7818609E-02  0.8606614E-01
       -2   -1    0    0    0  501  0.00000000000E+00  0.00000000000E+00  0.98713116019E+03  0.98713116019E+03  0.25500000920E-02 0.  1.
        2   -1    0    0  501    0  0.00000000000E+00  0.00000000000E+00 -0.10130512010E+04  0.10130512010E+04  0.25500000920E-02 0. -1.
    10030    2    1    2    0    0  0.00000000000E+00  0.00000000000E+00 -0.25920040847E+02  0.20001823612E+04  0.20000144074E+04 0.  0.
        5    1    3    3  502    0  0.41891637301E+03 -0.82245125686E+02 -0.91732414843E+03  0.10118106896E+04  0.46999998093E+01 0. -1.
       -5    1    3    3    0  502 -0.41891637301E+03  0.82245125686E+02  0.89140410759E+03  0.98837167164E+03  0.46999998093E+01 0.  1.
</event>
<event>
 5   0  0.9099125E-05  0.2282609E+04  0.7818609E-02  0.8484810E-01
       -3   -1    0    0    0  501  0.00000000000E+00  0.00000000000E+00  0.22416256089E+04  0.22416256112E+04  0.10100000352E+00 0.  1.
        3   -1    0    0  501    0  0.00000000000E+00  0.00000000000E+00 -0.58108516635E+03  0.58108517512E+03  0.10100000352E+00 0. -1.
    10030    2    1    2    0    0  0.00000000000E+00  0.00000000000E+00  0.16605404426E+04  0.28227107863E+04  0.22826085126E+04 0.  0.
        5    1    3    3  502    0  0.99600260100E+03 -0.90918195685E+02  0.15039437700E+03  0.10113989609E+04  0.46999998093E+01 0.  1.
       -5    1    3    3    0  502 -0.99600260100E+03  0.90918195685E+02  0.15101460656E+04  0.18113118254E+04  0.46999998093E+01 0. -1.
</event>
<event>
 5   0  0.2540506E-04  0.2041870E+04  0.7818609E-02  0.8587291E-01
        2   -1    0    0  501    0  0.00000000000E+00  0.00000000000E+00  0.10476370121E+04  0.10476370121E+04  0.25500000920E-02 0. -1.
       -2   -1    0    0    0  501  0.00000000000E+00  0.00000000000E+00 -0.99491400686E+03  0.99491400686E+03  0.25500000920E-02 0.  1.
    10030    2    1    2    0    0  0.00000000000E+00  0.00000000000E+00  0.52723005225E+02  0.20425510189E+04  0.20418704537E+04 0.  0.
        4    1    3    3  502    0  0.57749060163E+03 -0.46072190563E+03  0.73125732004E+03  0.10394705144E+04  0.12699999809E+01 0. -1.
       -4    1    3    3    0  502 -0.57749060163E+03  0.46072190563E+03 -0.67853431482E+03  0.10030805045E+04  0.12699999809E+01 0.  1.
</event>
<event>
 5   0  0.2540506E-04  0.1909257E+04  0.7818609E-02  0.8650262E-01
        2   -1    0    0  501    0  0.00000000000E+00  0.00000000000E+00  0.10229623886E+04  0.10229623886E+04  0.25500000920E-02 0.  1.
       -2   -1    0    0    0  501  0.00000000000E+00  0.00000000000E+00 -0.89085911536E+03  0.89085911536E+03  0.25500000920E-02 0. -1.
    10030    2    1    2    0    0  0.00000000000E+00  0.00000000000E+00  0.13210327329E+03  0.19138215040E+04  0.19092567859E+04 0.  0.
        4    1    3    3  502    0 -0.53163708527E+03  0.37736096857E+02 -0.72783415407E+03  0.90211206187E+03  0.12699999809E+01 0. -1.
       -4    1    3    3    0  502  0.53163708527E+03 -0.37736096857E+02  0.85993742736E+03  0.10117094421E+04  0.12699999809E+01 0.  1.
</event>
<event>
 5   0  0.1210633E-04  0.1991190E+04  0.7818609E-02  0.8610751E-01
       -1   -1    0    0    0  501  0.00000000000E+00  0.00000000000E+00  0.40224683579E+03  0.40224683582E+03  0.50400001928E-02 0.  1.
        1   -1    0    0  501    0  0.00000000000E+00  0.00000000000E+00 -0.24641819944E+04  0.24641819944E+04  0.50400001928E-02 0. -1.
    10030    2    1    2    0    0  0.00000000000E+00  0.00000000000E+00 -0.20619351586E+04  0.28664288302E+04  0.19911900061E+04 0.  0.
        2    1    3    3  502    0 -0.71375447084E+02  0.75537364462E+03 -0.10301163384E+03  0.76569915381E+03  0.25500000920E-02 0.  1.
       -2    1    3    3    0  502  0.71375447084E+02 -0.75537364462E+03 -0.19589235247E+04  0.21007296764E+04  0.25500000920E-02 0. -1.
</event>
<event>
 5   0  0.1207228E-04  0.1966459E+04  0.7818609E-02  0.8622465E-01
        1   -1    0    0  501    0  0.00000000000E+00  0.00000000000E+00  0.22428673284E+04  0.22428673284E+04  0.50400001928E-02 0. -1.
       -1   -1    0    0    0  501  0.00000000000E+00  0.00000000000E+00 -0.43102879210E+03  0.43102879213E+03  0.50400001928E-02 0.  1.
    10030    2    1    2    0    0  0.00000000000E+00  0.00000000000E+00  0.18118385363E+04  0.26738961205E+04  0.19664591483E+04 0.  0.
        1    1    3    3  502    0  0.19109160285E+03 -0.59375295312E+03 -0.12756520105E+03  0.63665646196E+03  0.50400001928E-02 0.  1.
       -1    1    3    3    0  502 -0.19109160285E+03  0.59375295312E+03  0.19394037373E+04  0.20372396586E+04  0.50400001928E-02 0. -1.
</event>
<event>
 5   0  0.1324930E-04  0.2074236E+04  0.7818609E-02  0.8572678E-01
       -1   -1    0    0    0  501  0.00000000000E+00  0.00000000000E+00  0.89811529996E+03  0.89811529998E+03  0.50400001928E-02 0. -1.
        1   -1    0    0  501    0  0.00000000000E+00  0.00000000000E+00 -0.11976347721E+04  0.11976347721E+04  0.50400001928E-02 0.  1.
    10030    2    1    2    0    0  0.00000000000E+00  0.00000000000E+00 -0.29951947214E+03  0.20957500721E+04  0.20742363536E+04 0.  0.
        5    1    3    3  502    0  0.19168260035E+03  0.12106802692E+03  0.87276072956E+03  0.90173891314E+03  0.46999998093E+01 0. -1.
       -5    1    3    3    0  502 -0.19168260035E+03 -0.12106802692E+03 -0.11722802017E+04  0.11940111589E+04  0.46999998093E+01 0.  1.
</event>
<event>
 5   0  0.2540506E-04  0.2002480E+04  0.7818609E-02  0.8605462E-01
       -2   -1    0    0    0  501  0.00000000000E+00  0.00000000000E+00  0.40381788614E+03  0.40381788615E+03  0.25500000920E-02 0. -1.
        2   -1    0    0  501    0  0.00000000000E+00  0.00000000000E+00 -0.24825081516E+04  0.24825081516E+04  0.25500000920E-02 0.  1.
    10030    2    1    2    0    0  0.00000000000E+00  0.00000000000E+00 -0.20786902655E+04  0.28863260378E+04  0.20024796570E+04 0.  0.
        4    1    3    3  502    0  0.27760673257E+02 -0.91887375118E+03 -0.16111554454E+04  0.18549725356E+04  0.12699999809E+01 0.  1.
       -4    1    3    3    0  502 -0.27760673257E+02  0.91887375118E+03 -0.46753482005E+03  0.10313535022E+04  0.12699999809E+01 0. -1.
</event>
<event>
 5   0  0.2596061E-04  0.1532725E+04  0.7818609E-02  0.8862978E-01
        2   -1    0    0  501    0  0.00000000000E+00  0.00000000000E+00  0.14667373291E+04  0.14667373291E+04  0.25500000920E-02 0. -1.
       -2   -1    0    0    0  501  0.00000000000E+00  0.00000000000E+00 -0.40042050206E+03  0.40042050206E+03  0.25500000920E-02 0.  1.
    10030    2    1    2    0    0  0.00000000000E+00  0.00000000000E+00  0.10663168271E+04  0.18671578312E+04  0.15327252823E+04 0.  0.
        5    1    3    3  502    0  0.11690285541E+02  0.90341279137E+02  0.14601008502E+04  0.14629472965E+04  0.46999998093E+01 0. -1.
       -5    1    3    3    0  502 -0.11690285541E+02 -0.90341279137E+02 -0.39378402314E+03  0.40421053471E+03  0.46999998093E+01 0.  1.
</event>
<event>
 5   0  0.2421737E-04  0.1935967E+04  0.7818609E-02  0.8637158E-01
       -2   -1    0    0    0  501  0.00000000000E+00  0.00000000000E+00  0.61693506007E+03  0.61693506008E+03  0.25500000920E-02 0. -1.
        2   -1    0    0  501    0  0.00000000000E+00  0.00000000000E+00 -0.15187851318E+04  0.15187851318E+04  0.25500000920E-02 0.  1.
    10030    2    1    2    0    0  0.00000000000E+00  0.00000000000E+00 -0.90185007175E+03  0.21357201919E+04  0.19359667317E+04 0.  0.
        1    1    3    3  502    0  0.26413217105E+03 -0.11868299176E+03 -0.14698840194E+04  0.14981356704E+04  0.50400001928E-02 0.  1.
       -1    1    3    3    0  502 -0.26413217105E+03  0.11868299176E+03  0.56803394768E+03  0.63758452150E+03  0.50400001928E-02 0. -1.
</event>
<event>
 5   0  0.2421737E-04  0.1444120E+04  0.7818609E-02  0.8922487E-01
        2   -1    0    0  501    0  0.00000000000E+00  0.00000000000E+00  0.65239669016E+03  0.65239669017E+03  0.25500000920E-02 0. -1.
       -2   -1    0    0    0  501  0.00000000000E+00  0.00000000000E+00 -0.79916242557E+03  0.79916242558E+03  0.25500000920E-02 0.  1.
    10030    2    1    2    0    0  0.00000000000E+00  0.00000000000E+00 -0.14676573541E+03  0.14515591157E+04  0.14441203847E+04 0.  0.
        1    1    3    3  502    0 -0.65818385575E+03 -0.10456398497E+03  0.20595384612E+03  0.69753609346E+03  0.50400001928E-02 0. -1.
       -1    1    3    3    0  502  0.65818385575E+03  0.10456398497E+03 -0.35271958153E+03  0.75402302229E+03  0.50400001928E-02 0.  1.
</event>
<event>
 5   0  0.9099125E-05  0.1763785E+04  0.7818609E-02  0.8725799E-01
       -3   -1    0    0    0  501  0.00000000000E+00  0.00000000000E+00  0.99711248339E+03  0.99711248851E+03  0.10100000352E+00 0.  1.
        3   -1    0    0  501    0  0.00000000000E+00  0.00000000000E+00 -0.77998628403E+03  0.77998629057E+03  0.10100000352E+00 0. -1.
    10030    2    1    2    0    0  0.00000000000E+00  0.00000000000E+00  0.21712619936E+03  0.17770987791E+04  0.17637846479E+04 0.  0.
        2    1    3    3  502    0  0.35995731560E+03  0.78540673755E+03  0.28681966042E+03  0.91032880326E+03  0.25500000920E-02 0.  1.
       -2    1    3    3    0  502 -0.35995731560E+03 -0.78540673755E+03 -0.69693461053E+02  0.86676997581E+03  0.25500000920E-02 0. -1.
</event>
<event>
 5   0  0.9099125E-05  0.1975917E+04  0.7818609E-02  0.8617964E-01
       -3   -1    0    0    0  501  0.00000000000E+00  0.00000000000E+00  0.10445149757E+04  0.10445149806E+04  0.10100000352E+00 0. -1.
        3   -1    0    0  501    0  0.00000000000E+00  0.00000000000E+00 -0.93446435534E+03  0.93446436080E+03  0.10100000352E+00 0.  1.
    10030    2    1    2    0    0  0.00000000000E+00  0.00000000000E+00  0.11005062033E+03  0.19789793414E+04  0.19759170262E+04 0.  0.
        2    1    3    3  502    0  0.86359502333E+03 -0.19508740585E+03 -0.38406784178E+03  0.96507179387E+03  0.25500000920E-02 0.  1.
       -2    1    3    3    0  502 -0.86359502333E+03  0.19508740585E+03  0.49411846211E+03  0.10139075475E+04  0.25500000920E-02 0. -1.
</event>
<event>
 5   0  0.2540506E-04  0.1958564E+04  0.7818609E-02  0.8626242E-01
        2   -1    0    0  501    0  0.00000000000E+00  0.00000000000E+00  0.15098339876E+04  0.15098339876E+04  0.25500000920E-02 0. -1.
       -2   -1    0    0    0  501  0.00000000000E+00  0.00000000000E+00 -0.63516456124E+03  0.63516456124E+03  0.25500000920E-02 0.  1.
    10030    2    1    2    0    0  0.00000000000E+00  0.00000000000E+00  0.87466942641E+03  0.21449985489E+04  0.19585638027E+04 0.  0.
        4    1    3    3  502    0 -0.47026056109E+03  0.66744747001E+03  0.10295075536E+04  0.13139705234E+04  0.12699999809E+01 0.  1.
       -4    1    3    3    0  502  0.47026056109E+03 -0.66744747001E+03 -0.15483812723E+03  0.83102802546E+03  0.12699999809E+01 0. -1.
</event>
<event>
 5   0  0.1258546E-04  0.1519997E+04  0.7818609E-02  0.8871263E-01
        1   -1    0    0  501    0  0.00000000000E+00  0.00000000000E+00  0.42571800152E+03  0.42571800155E+03  0.50400001928E-02 0.  1.
       -1   -1    0    0    0  501  0.00000000000E+00  0.00000000000E+00 -0.13567620542E+04  0.13567620542E+04  0.50400001928E-02 0. -1.
    10030    2    1    2    0    0  0.00000000000E+00  0.00000000000E+00 -0.93104405272E+03  0.17824800558E+04  0.15199974083E+04 0.  0.
        4    1    3    3  502    0 -0.44575793653E+03  0.59262506581E+03 -0.66066706292E+03  0.99317027117E+03  0.12699999809E+01 0.  1.
       -4    1    3    3    0  502  0.44575793653E+03 -0.59262506581E+03 -0.27037698979E+03  0.78930978463E+03  0.12699999809E+01 0. -1.
</event>
<event>
 5   0  0.2540506E-04  0.1914954E+04  0.7818609E-02  0.8647448E-01
       -2   -1    0    0    0  501  0.00000000000E+00  0.00000000000E+00  0.47177417262E+03  0.47177417263E+03  0.25500000920E-02 0.  1.
        2   -1    0    0  501    0  0.00000000000E+00  0.00000000000E+00 -0.19432231405E+04  0.19432231405E+04  0.25500000920E-02 0. -1.
    10030    2    1    2    0    0  0.00000000000E+00  0.00000000000E+00 -0.14714489679E+04  0.24149973131E+04  0.19149542964E+04 0.  0.
        4    1    3    3  502    0  0.59987878562E+03 -0.26082486561E+03  0.14605078081E+03  0.67023623554E+03  0.12699999809E+01 0.  1.
       -4    1    3    3    0  502 -0.59987878562E+03  0.26082486561E+03 -0.16174997487E+04  0.17447610776E+04  0.12699999809E+01 0. -1.
</event>
<event>
 5   0  0.1231056E-04  0.2032572E+04  0.7818609E-02  0.8591542E-01
       -1   -1    0    0    0  501  0.00000000000E+00  0.00000000000E+00  0.10191188696E+04  0.10191188696E+04  0.50400001928E-02 0. -1.
        1   -1    0    0  501    0  0.00000000000E+00  0.00000000000E+00 -0.10134613985E+04  0.10134613985E+04  0.50400001928E-02 0.  1.
    10030    2    1    2    0    0  0.00000000000E+00  0.00000000000E+00  0.56574711076E+01  0.20325802682E+04  0.20325723947E+04 0.  0.
        3    1    3    3  502    0 -0.26383359680E+03 -0.75895176579E+03 -0.61944505871E+03  0.10145581011E+04  0.10100000352E+00 0.  1.
       -3    1    3    3    0  502  0.26383359680E+03  0.75895176579E+03  0.62510252981E+03  0.10180221670E+04  0.10100000352E+00 0. -1.
</event>
<event>
 5   0  0.1258546E-04  0.2019445E+04  0.7818609E-02  0.8597583E-01
        1   -1    0    0  501    0  0.00000000000E+00  0.00000000000E+00  0.17078281535E+04  0.17078281535E+04  0.50400001928E-02 0. -1.
       -1   -1    0    0    0  501  0.00000000000E+00  0.00000000000E+00 -0.59698016314E+03  0.59698016316E+03  0.50400001928E-02 0.  1.
    10030    2    1    2    0    0  0.00000000000E+00  0.00000000000E+00  0.11108479904E+04  0.23048083167E+04  0.20194450027E+04 0.  0.
        4    1    3    3  502    0  0.23254745492E+03 -0.57960115346E+03 -0.35011732701E+03  0.71596059351E+03  0.12699999809E+01 0.  1.
       -4    1    3    3    0  502 -0.23254745492E+03  0.57960115346E+03  0.14609653174E+04  0.15888477231E+04  0.12699999809E+01 0. -1.
</event>
<event>
 5   0  0.1210633E-04  0.1945451E+04  0.7818609E-02  0.8632558E-01
       -1   -1    0    0    0  501  0.00000000000E+00  0.00000000000E+00  0.10698732960E+04  0.10698732960E+04  0.50400001928E-02 0. -1.
        1   -1    0    0  501    0  0.00000000000E+00  0.00000000000E+00 -0.88439897338E+03  0.88439897339E+03  0.50400001928E-02 0.  1.
    10030    2    1    2    0    0  0.00000000000E+00  0.00000000000E+00  0.18547432260E+03  0.19542722694E+04  0.19454509448E+04 0.  0.
        2    1    3    3  502    0  0.62398186486E+03  0.68043248400E+03 -0.21500650483E+03  0.94792907439E+03  0.25500000920E-02 0.  1.
       -2    1    3    3    0  502 -0.62398186486E+03 -0.68043248400E+03  0.40048082743E+03  0.10063431950E+04  0.25500000920E-02 0. -1.
</event>
<event>
 5   0  0.2421737E-04  0.2030220E+04  0.7818609E-02  0.8592621E-01
       -2   -1    0    0    0  501  0.00000000000E+00  0.00000000000E+00  0.15787535301E+04  0.15787535301E+04  0.25500000920E-02 0.  1.
        2   -1    0    0  501    0  0.00000000000E+00  0.00000000000E+00 -0.65269758008E+03  0.65269758009E+03  0.25500000920E-02 0. -1.
    10030    2    1    2    0    0  0.00000000000E+00  0.00000000000E+00  0.92605595004E+03  0.22314511102E+04  0.20302202922E+04 0.  0.
        1    1    3    3  502    0  0.35297918101E+03  0.22419533384E+03  0.14796915277E+04  0.15376426331E+04  0.50400001928E-02 0.  1.
       -1    1    3    3    0  502 -0.35297918101E+03 -0.22419533384E+03 -0.55363557770E+03  0.69380847708E+03  0.50400001928E-02 0. -1.
</event>
<event>
 5   0  0.1207228E-04  0.1967834E+04  0.7818609E-02  0.8621809E-01
        1   -1    0    0  501    0  0.00000000000E+00  0.00000000000E+00  0.21702958307E+04  0.21702958307E+04  0.50400001928E-02 0.  1.
       -1   -1    0    0    0  501  0.00000000000E+00  0.00000000000E+00 -0.44606470166E+03  0.44606470169E+03  0.50400001928E-02 0. -1.
    10030    2    1    2    0    0  0.00000000000E+00  0.00000000000E+00  0.17242311290E+04  0.26163605324E+04  0.19678336945E+04 0.  0.
        1    1    3    3  502    0  0.69908109136E+03 -0.32551165773E+03  0.49644184468E+02  0.77274624340E+03  0.50400001928E-02 0. -1.
       -1    1    3    3    0  502 -0.69908109136E+03  0.32551165773E+03  0.16745869446E+04  0.18436142890E+04  0.50400001928E-02 0.  1.
</event>
<event>
 5   0  0.2421737E-04  0.1276510E+04  0.7818609E-02  0.9048403E-01
       -2   -1    0    0    0  501  0.00000000000E+00  0.00000000000E+00  0.37579708722E+03  0.37579708723E+03  0.25500000920E-02 0.  1.
        2   -1    0    0  501    0  0.00000000000E+00  0.00000000000E+00 -0.10840142375E+04  0.10840142375E+04  0.25500000920E-02 0. -1.
    10030    2    1    2    0    0  0.00000000000E+00  0.00000000000E+00 -0.70821715025E+03  0.14598113247E+04  0.12765099184E+04 0.  0.
        1    1    3    3  502    0 -0.22796764021E+03  0.22657451485E+03  0.27649312167E+03  0.42397370451E+03  0.50400001928E-02 0.  1.
       -1    1    3    3    0  502  0.22796764021E+03 -0.22657451485E+03 -0.98471027191E+03  0.10358376202E+04  0.50400001928E-02 0. -1.
</event>
<event>
 5   0  0.2463085E-04  0.1975575E+04  0.7818609E-02  0.8618126E-01
        2   -1    0    0  501    0  0.00000000000E+00  0.00000000000E+00  0.10925018742E+04  0.10925018742E+04  0.25500000920E-02 0.  1.
       -2   -1    0    0    0  501  0.00000000000E+00  0.00000000000E+00 -0.89310959520E+03  0.89310959521E+03  0.25500000920E-02 0. -1.
    10030    2    1    2    0    0  0.00000000000E+00  0.00000000000E+00  0.19939227901E+03  0.19856114694E+04  0.19755747585E+04 0.  0.
        2    1    3    3  502    0 -0.66217486603E+03 -0.36192998073E+03  0.74031568706E+03  0.10571358383E+04  0.25500000920E-02 0.  1.
       -2    1    3    3    0  502  0.66217486603E+03  0.36192998073E+03 -0.54092340805E+03  0.92847563110E+03  0.25500000920E-02 0. -1.
</event>
<event>
 5   0  0.2540506E-04  0.1988999E+04  0.7818609E-02  0.8611781E-01
       -2   -1    0    0    0  501  0.00000000000E+00  0.00000000000E+00  0.52256134115E+03  0.52256134116E+03  0.25500000920E-02 0.  1.
        2   -1    0    0  501    0  0.00000000000E+00  0.00000000000E+00 -0.18926564210E+04  0.18926564211E+04  0.25500000920E-02 0. -1.
    10030    2    1    2    0    0  0.00000000000E+00  0.00000000000E+00 -0.13700950799E+04  0.24152177622E+04  0.19889988213E+04 0.  0.
        4    1    3    3  502    0 -0.33424254077E+03  0.82749195540E+03 -0.15218881268E+03  0.90533091183E+03  0.12699999809E+01 0.  1.
       -4    1    3    3    0  502  0.33424254077E+03 -0.82749195540E+03 -0.12179062672E+04  0.15098868504E+04  0.12699999809E+01 0. -1.
</event>
<event>
 5   0  0.1210633E-04  0.1982368E+04  0.7818609E-02  0.8614909E-01
        1   -1    0    0  501    0  0.00000000000E+00  0.00000000000E+00  0.26681574073E+04  0.26681574074E+04  0.50400001928E-02 0.  1.
       -1   -1    0    0    0  501  0.00000000000E+00  0.00000000000E+00 -0.36821116505E+03  0.36821116508E+03  0.50400001928E-02 0. -1.
    10030    2    1    2    0    0  0.00000000000E+00  0.00000000000E+00  0.22999462423E+04  0.30363685724E+04  0.19823676224E+04 0.  0.
        2    1    3    3  502    0  0.19908279906E+03 -0.15385157077E+03  0.26184306169E+04  0.26304910496E+04  0.25500000920E-02 0.  1.
       -2    1    3    3    0  502 -0.19908279906E+03  0.15385157077E+03 -0.31848437455E+03  0.40587752284E+03  0.25500000920E-02 0. -1.
</event>
<event>
 5   0  0.1207228E-04  0.1991547E+04  0.7818609E-02  0.8610583E-01
       -1   -1    0    0    0  501  0.00000000000E+00  0.00000000000E+00  0.69165935320E+03  0.69165935321E+03  0.50400001928E-02 0. -1.
        1   -1    0    0  501    0  0.00000000000E+00  0.00000000000E+00 -0.14336025874E+04  0.14336025874E+04  0.50400001928E-02 0.  1.
    10030    2    1    2    0    0  0.00000000000E+00  0.00000000000E+00 -0.74194323424E+03  0.21252619407E+04  0.19915467741E+04 0.  0.
        1    1    3    3  502    0 -0.82638412851E+03 -0.33822088753E+03  0.99370913876E+02  0.89843123007E+03  0.50400001928E-02 0.  1.
       -1    1    3    3    0  502  0.82638412851E+03  0.33822088753E+03 -0.84131414812E+03  0.12268307106E+04  0.50400001928E-02 0. -1.
</event>
<event>
 5   0  0.2540506E-04  0.1982575E+04  0.7818609E-02  0.8614811E-01
        2   -1    0    0  501    0  0.00000000000E+00  0.00000000000E+00  0.79670618641E+03  0.79670618641E+03  0.25500000920E-02 0. -1.
       -2   -1    0    0    0  501  0.00000000000E+00  0.00000000000E+00 -0.12333915588E+04  0.12333915588E+04  0.25500000920E-02 0.  1.
    10030    2    1    2    0    0  0.00000000000E+00  0.00000000000E+00 -0.43668537240E+03  0.20300977452E+04  0.19825747756E+04 0.  0.
        4    1    3    3  502    0  0.51589961487E+03 -0.35484943221E+03 -0.10052547503E+04  0.11843180561E+04  0.12699999809E+01 0.  1.
       -4    1    3    3    0  502 -0.51589961487E+03  0.35484943221E+03  0.56856937788E+03  0.84577968911E+03  0.12699999809E+01 0. -1.
</event>
<event>
 5   0  0.2488886E-04  0.2022864E+04  0.7818609E-02  0.8596005E-01
        2   -1    0    0  501    0  0.00000000000E+00  0.00000000000E+00  0.16717431738E+04  0.16717431738E+04  0.25500000920E-02 0. -1.
       -2   -1    0    0    0  501  0.00000000000E+00  0.00000000000E+00 -0.61193304808E+03  0.61193304808E+03  0.25500000920E-02 0.  1.
    10030    2    1    2    0    0  0.00000000000E+00  0.00000000000E+00  0.10598101257E+04  0.22836762219E+04  0.20228642030E+04 0.  0.
        3    1    3    3  502    0 -0.56028403256E+03 -0.81609126068E+03  0.29560952176E+03  0.10331060654E+04  0.10100000352E+00 0.  1.
       -3    1    3    3    0  502  0.56028403256E+03  0.81609126068E+03  0.76420060397E+03  0.12505701564E+04  0.10100000352E+00 0. -1.
</event>
<event>
 5   0  0.1210633E-04  0.2104067E+04  0.7818609E-02  0.8559454E-01
        1   -1    0    0  501    0  0.00000000000E+00  0.00000000000E+00  0.13609094927E+04  0.13609094927E+04  0.50400001928E-02 0. -1.
       -1   -1    0    0    0  501  0.00000000000E+00  0.00000000000E+00 -0.81326069911E+03  0.81326069913E+03  0.50400001928E-02 0.  1.
    10030    2    1    2    0    0  0.00000000000E+00  0.00000000000E+00  0.54764879356E+03  0.21741701918E+04  0.21040667342E+04 0.  0.
        2    1    3    3  502    0 -0.84587959562E+03  0.49604457477E+03 -0.11992497163E+03  0.98790409923E+03  0.25500000920E-02 0.  1.
       -2    1    3    3    0  502  0.84587959562E+03 -0.49604457477E+03  0.66757376519E+03  0.11862660926E+04  0.25500000920E-02 0. -1.
</event>
<event>
 5   0  0.1231056E-04  0.1974414E+04  0.7818609E-02  0.8618677E-01
       -1   -1    0    0    0  501  0.00000000000E+00  0.00000000000E+00  0.60358522272E+03  0.60358522274E+03  0.50400001928E-02 0.  1.
        1   -1    0    0  501    0  0.00000000000E+00  0.00000000000E+00 -0.16146477005E+04  0.16146477006E+04  0.50400001928E-02 0. -1.
    10030    2    1    2    0    0  0.00000000000E+00  0.00000000000E+00 -0.10110624778E+04  0.22182329233E+04  0.19744138289E+04 0.  0.
        3    1    3    3  502    0  0.75411634660E+03  0.12903113635E+03 -0.12064634394E+04  0.14285988027E+04  0.10100000352E+00 0. -1.
       -3    1    3    3    0  502 -0.75411634660E+03 -0.12903113635E+03  0.19540096158E+03  0.78963412056E+03  0.10100000352E+00 0.  1.
</event>
<event>
 5   0  0.2463085E-04  0.1677098E+04  0.7818609E-02  0.8774535E-01
       -2   -1    0    0    0  501  0.00000000000E+00  0.00000000000E+00  0.37300542199E+03  0.37300542200E+03  0.25500000920E-02 0.  1.
        2   -1    0    0  501    0  0.00000000000E+00  0.00000000000E+00 -0.18851314030E+04  0.18851314030E+04  0.25500000920E-02 0. -1.
    10030    2    1    2    0    0  0.00000000000E+00  0.00000000000E+00 -0.15121259810E+04  0.22581368250E+04  0.16770977723E+04 0.  0.
        2    1    3    3  502    0 -0.64698766958E+03 -0.18254409216E+03 -0.81156029535E+02  0.67712752957E+03  0.25500000920E-02 0.  1.
       -2    1    3    3    0  502  0.64698766958E+03  0.18254409216E+03 -0.14309699514E+04  0.15810092954E+04  0.25500000920E-02 0. -1.
</event>
<event>
 5   0  0.2540506E-04  0.1754152E+04  0.7818609E-02  0.8731068E-01
       -2   -1    0    0    0  501  0.00000000000E+00  0.00000000000E+00  0.94557320552E+03  0.94557320552E+03  0.25500000920E-02 0. -1.
        2   -1    0    0  501    0  0.00000000000E+00  0.00000000000E+00 -0.81354060580E+03  0.81354060580E+03  0.25500000920E-02 0.  1.
    10030    2    1    2    0    0  0.00000000000E+00  0.00000000000E+00  0.13203259972E+03  0.17591138113E+04  0.17541518731E+04 0.  0.
        4    1    3    3  502    0  0.81193635011E+03  0.65996632563E+02  0.39199639260E+03  0.90402377007E+03  0.12699999809E+01 0. -1.
       -4    1    3    3    0  502 -0.81193635011E+03 -0.65996632563E+02 -0.25996379288E+03  0.85509004125E+03  0.12699999809E+01 0.  1.
</event>
<event>
 5   0  0.1207228E-04  0.2007688E+04  0.7818609E-02  0.8603034E-01
       -1   -1    0    0    0  501  0.00000000000E+00  0.00000000000E+00  0.11021344226E+04  0.11021344226E+04  0.50400001928E-02 0.  1.
        1   -1    0    0  501    0  0.00000000000E+00  0.00000000000E+00 -0.91431971336E+03  0.91431971337E+03  0.50400001928E-02 0. -1.
    10030    2    1    2    0    0  0.00000000000E+00  0.00000000000E+00  0.18781470927E+03  0.20164541360E+04  0.20076884513E+04 0.  0.
        1    1    3    3  502    0  0.14854400763E+03  0.16081844730E+03  0.10778659411E+04  0.10998740301E+04  0.50400001928E-02 0.  1.
       -1    1    3    3    0  502 -0.14854400763E+03 -0.16081844730E+03 -0.89005123182E+03  0.91658010587E+03  0.50400001928E-02 0. -1.
</event>
<event>
 5   0  0.1207228E-04  0.1993262E+04  0.7818609E-02  0.8609778E-01
       -1   -1    0    0    0  501  0.00000000000E+00  0.00000000000E+00  0.71320403675E+03  0.71320403676E+03  0.50400001928E-02 0.  1.
        1   -1    0    0  501    0  0.00000000000E+00  0.00000000000E+00 -0.13926912546E+04  0.13926912546E+04  0.50400001928E-02 0. -1.
    10030    2    1    2    0    0  0.00000000000E+00  0.00000000000E+00 -0.67948721782E+03  0.21058952913E+04  0.19932616735E+04 0.  0.
        1    1    3    3  502    0  0.29409460105E+03  0.49414750882E+03  0.52025560011E+03  0.77546069166E+03  0.50400001928E-02 0.  1.
       -1    1    3    3    0  502 -0.29409460105E+03 -0.49414750882E+03 -0.11997428179E+04  0.13304345997E+04  0.50400001928E-02 0. -1.
</event>
<event>
 5   0  0.2488886E-04  0.2260678E+04  0.7818609E-02  0.8493589E-01
       -2   -1    0    0    0  501  0.00000000000E+00  0.00000000000E+00  0.62416154351E+03  0.62416154352E+03  0.25500000920E-02 0.  1.
        2   -1    0    0  501    0  0.00000000000E+00  0.00000000000E+00 -0.20470118445E+04  0.20470118445E+04  0.25500000920E-02 0. -1.
    10030    2    1    2    0    0  0.00000000000E+00  0.00000000000E+00 -0.14228503010E+04  0.26711733880E+04  0.22606778386E+04 0.  0.
        3    1    3    3  502    0  0.71692869152E+03 -0.51451447183E+03  0.12320435082E+03  0.89100573102E+03  0.10100000352E+00 0.  1.
       -3    1    3    3    0  502 -0.71692869152E+03  0.51451447183E+03 -0.15460546518E+04  0.17801676570E+04  0.10100000352E+00 0. -1.
</event>
<event>
 5   0  0.1258546E-04  0.2027278E+04  0.7818609E-02  0.8593972E-01
       -1   -1    0    0    0  501  0.00000000000E+00  0.00000000000E+00  0.24949733032E+04  0.24949733032E+04  0.50400001928E-02 0.  1.
        1   -1    0    0  501    0  0.00000000000E+00  0.00000000000E+00 -0.41181363968E+03  0.41181363971E+03  0.50400001928E-02 0. -1.
    10030    2    1    2    0    0  0.00000000000E+00  0.00000000000E+00  0.20831596635E+04  0.29067869429E+04  0.20272780144E+04 0.  0.
        4    1    3    3  502    0  0.26959751481E+03  0.93048623520E+03  0.14692744797E+04  0.17599024301E+04  0.12699999809E+01 0.  1.
       -4    1    3    3    0  502 -0.26959751481E+03 -0.93048623520E+03  0.61388518384E+03  0.11468845128E+04  0.12699999809E+01 0. -1.
</event>
<event>
 5   0  0.1207228E-04  0.1933563E+04  0.7818609E-02  0.8638328E-01
       -1   -1    0    0    0  501  0.00000000000E+00  0.00000000000E+00  0.77695637218E+03  0.77695637220E+03  0.50400001928E-02 0.  1.
        1   -1    0    0  501    0  0.00000000000E+00  0.00000000000E+00 -0.12029848318E+04  0.12029848318E+04  0.50400001928E-02 0. -1.
    10030    2    1    2    0    0  0.00000000000E+00  0.00000000000E+00 -0.42602845962E+03  0.19799412040E+04  0.19335632710E+04 0.  0.
        1    1    3    3  502    0  0.36701609043E+03  0.83218293115E+03  0.12262431617E+03  0.91775049141E+03  0.50400001928E-02 0.  1.
       -1    1    3    3    0  502 -0.36701609043E+03 -0.83218293115E+03 -0.54865277579E+03  0.10621907126E+04  0.50400001928E-02 0. -1.
</event>
<event>
 5   0  0.1207228E-04  0.2219173E+04  0.7818609E-02  0.8510490E-01
       -1   -1    0    0    0  501  0.00000000000E+00  0.00000000000E+00  0.15801082637E+04  0.15801082637E+04  0.50400001928E-02 0.  1.
        1   -1    0    0  501    0  0.00000000000E+00  0.00000000000E+00 -0.77917564698E+03  0.77917564700E+03  0.50400001928E-02 0. -1.
    10030    2    1    2    0    0  0.00000000000E+00  0.00000000000E+00  0.80093261668E+03  0.23592839107E+04  0.22191727095E+04 0.  0.
        1    1    3    3  502    0  0.63277341712E+03 -0.53962178314E+03 -0.38047833327E+03  0.91452590361E+03  0.50400001928E-02 0. -1.
       -1    1    3    3    0  502 -0.63277341712E+03  0.53962178314E+03  0.11814109499E+04  0.14447580071E+04  0.50400001928E-02 0.  1.
</event>
<event>
 5   0  0.1231056E-04  0.2002086E+04  0.7818609E-02  0.8605646E-01
        1   -1    0    0  501    0  0.00000000000E+00  0.00000000000E+00  0.30848351908E+03  0.30848351912E+03  0.50400001928E-02 0.  1.
       -1   -1    0    0    0  501  0.00000000000E+00  0.00000000000E+00 -0.32484314513E+04  0.32484314513E+04  0.50400001928E-02 0. -1.
    10030    2    1    2    0    0  0.00000000000E+00  0.00000000000E+00 -0.29399479322E+04  0.35569149704E+04  0.20020864773E+04 0.  0.
        3    1    3    3  502    0  0.19449749928E+03 -0.49836250387E+03  0.33219007881E+02  0.53600184251E+03  0.10100000352E+00 0.  1.
       -3    1    3    3    0  502 -0.19449749928E+03  0.49836250387E+03 -0.29731669401E+04  0.30209131279E+04  0.10100000352E+00 0. -1.
</event>
<event>
 5   0  0.2596061E-04  0.1974303E+04  0.7818609E-02  0.8618730E-01
        2   -1    0    0  501    0  0.00000000000E+00  0.00000000000E+00  0.92000328602E+03  0.92000328602E+03  0.25500000920E-02 0. -1.
       -2   -1    0    0    0  501  0.00000000000E+00  0.00000000000E+00 -0.10592011897E+04  0.10592011897E+04  0.25500000920E-02 0.  1.
    10030    2    1    2    0    0  0.00000000000E+00  0.00000000000E+00 -0.13919790367E+03  0.19792044757E+04  0.19743034975E+04 0.  0.
        5    1    3    3  502    0 -0.75858455614E+02  0.36076492878E+03 -0.98759076660E+03  0.10541648123E+04  0.46999998093E+01 0.  1.
       -5    1    3    3    0  502  0.75858455614E+02 -0.36076492878E+03  0.84839286293E+03  0.92503966347E+03  0.46999998093E+01 0. -1.
</event>
<event>
 5   0  0.1258546E-04  0.2094219E+04  0.7818609E-02  0.8563794E-01
       -1   -1    0    0    0  501  0.00000000000E+00  0.00000000000E+00  0.73307590473E+03  0.73307590475E+03  0.50400001928E-02 0. -1.
        1   -1    0    0  501    0  0.00000000000E+00  0.00000000000E+00 -0.14956683385E+04  0.14956683385E+04  0.50400001928E-02 0.  1.
    10030    2    1    2    0    0  0.00000000000E+00  0.00000000000E+00 -0.76259243377E+03  0.22287442433E+04  0.20942191103E+04 0.  0.
        4    1    3    3  502    0  0.58450770957E+03  0.53489227410E+03  0.34728053204E+03  0.86508056750E+03  0.12699999809E+01 0.  1.
       -4    1    3    3    0  502 -0.58450770957E+03 -0.53489227410E+03 -0.11098729658E+04  0.13636636758E+04  0.12699999809E+01 0. -1.
</event>
<event>
 5   0  0.1207228E-04  0.2179977E+04  0.7818609E-02  0.8526808E-01
       -1   -1    0    0    0  501  0.00000000000E+00  0.00000000000E+00  0.14874516590E+04  0.14874516590E+04  0.50400001928E-02 0.  1.
        1   -1    0    0  501    0  0.00000000000E+00  0.00000000000E+00 -0.79873200689E+03  0.79873200690E+03  0.50400001928E-02 0. -1.
    10030    2    1    2    0    0  0.00000000000E+00  0.00000000000E+00  0.68871965210E+03  0.22861836659E+04  0.21799772923E+04 0.  0.
        1    1    3    3  502    0 -0.86693780087E+03 -0.16730810867E+03 -0.32592022143E+03  0.94116796830E+03  0.50400001928E-02 0. -1.
       -1    1    3    3    0  502  0.86693780087E+03  0.16730810867E+03  0.10146398735E+04  0.13450156976E+04  0.50400001928E-02 0.  1.
</event>
<event>
 5   0  0.1207228E-04  0.1953598E+04  0.7818609E-02  0.8628628E-01
       -1   -1    0    0    0  501  0.00000000000E+00  0.00000000000E+00  0.55568561055E+03  0.55568561057E+03  0.50400001928E-02 0. -1.
        1   -1    0    0  501    0  0.00000000000E+00  0.00000000000E+00 -0.17170435292E+04  0.17170435292E+04  0.50400001928E-02 0.  1.
    10030    2    1    2    0    0  0.00000000000E+00  0.00000000000E+00 -0.11613579186E+04  0.22727291397E+04  0.19535980977E+04 0.  0.
        1    1    3    3  502    0 -0.34046788716E+03  0.52732791041E+03  0.29000795921E+03  0.69144611049E+03  0.50400001928E-02 0. -1.
       -1    1    3    3    0  502  0.34046788716E+03 -0.52732791041E+03 -0.14513658778E+04  0.15812830292E+04  0.50400001928E-02 0.  1.
</event>
<event>
 5   0  0.2596061E-04  0.1960349E+04  0.7818609E-02  0.8625387E-01
        2   -1    0    0  501    0  0.00000000000E+00  0.00000000000E+00  0.16934978522E+04  0.16934978522E+04  0.25500000920E-02 0. -1.
       -2   -1    0    0    0  501  0.00000000000E+00  0.00000000000E+00 -0.56731209920E+03  0.56731209920E+03  0.25500000920E-02 0.  1.
    10030    2    1    2    0    0  0.00000000000E+00  0.00000000000E+00  0.11261857530E+04  0.22608099514E+04  0.19603487665E+04 0.  0.
        5    1    3    3  502    0 -0.19774662885E+03  0.72656538978E+03  0.12867348576E+04  0.14908754738E+04  0.46999998093E+01 0. -1.
       -5    1    3    3    0  502  0.19774662885E+03 -0.72656538978E+03 -0.16054910451E+03  0.76993447761E+03  0.46999998093E+01 0.  1.
</event>
<event>
 5   0  0.2540506E-04  0.1638381E+04  0.7818609E-02  0.8797310E-01
        2   -1    0    0  501    0  0.00000000000E+00  0.00000000000E+00  0.61210240529E+03  0.61210240530E+03  0.25500000920E-02 0.  1.
       -2   -1    0    0    0  501  0.00000000000E+00  0.00000000000E+00 -0.10963412094E+04  0.10963412094E+04  0.25500000920E-02 0. -1.
    10030    2    1    2    0    0  0.00000000000E+00  0.00000000000E+00 -0.48423880413E+03  0.17084436147E+04  0.16383810196E+04 0.  0.
        4    1    3    3  502    0 -0.21937564808E+03  0.71056340165E+03  0.11615054403E+03  0.75267428846E+03  0.12699999809E+01 0.  1.
       -4    1    3    3    0  502  0.21937564808E+03 -0.71056340165E+03 -0.60038934815E+03  0.95576932625E+03  0.12699999809E+01 0. -1.
</event>
<event>
 5   0  0.1324930E-04  0.2011242E+04  0.7818609E-02  0.8601383E-01
       -1   -1    0    0    0  501  0.00000000000E+00  0.00000000000E+00  0.11270586996E+04  0.11270586997E+04  0.50400001928E-02 0.  1.
        1   -1    0    0  501    0  0.00000000000E+00  0.00000000000E+00 -0.89726785670E+03  0.89726785671E+03  0.50400001928E-02 0. -1.
    10030    2    1    2    0    0  0.00000000000E+00  0.00000000000E+00  0.22979084294E+03  0.20243265564E+04  0.20112419485E+04 0.  0.
        5    1    3    3  502    0  0.96827730619E+03 -0.27109834160E+03  0.10079710587E+03  0.10105629120E+04  0.46999998093E+01 0. -1.
       -5    1    3    3    0  502 -0.96827730619E+03  0.27109834160E+03  0.12899373707E+03  0.10137636444E+04  0.46999998093E+01 0.  1.
</event>
<event>
 5   0  0.2540506E-04  0.2021579E+04  0.7818609E-02  0.8596598E-01
       -2   -1    0    0    0  501  0.00000000000E+00  0.00000000000E+00  0.72296789449E+03  0.72296789450E+03  0.25500000920E-02 0.  1.
        2   -1    0    0  501    0  0.00000000000E+00  0.00000000000E+00 -0.14131954688E+04  0.14131954688E+04  0.25500000920E-02 0. -1.
    10030    2    1    2    0    0  0.00000000000E+00  0.00000000000E+00 -0.69022757432E+03  0.21361633633E+04  0.20215785442E+04 0.  0.
        4    1    3    3  502    0 -0.62136885316E+03  0.62761187747E+03 -0.86460696589E+03  0.12359379996E+04  0.12699999809E+01 0. -1.
       -4    1    3    3    0  502  0.62136885316E+03 -0.62761187747E+03  0.17437939157E+03  0.90022536374E+03  0.12699999809E+01 0.  1.
</event>
<event>
 5   0  0.1231056E-04  0.1987386E+04  0.7818609E-02  0.8612541E-01
       -1   -1    0    0    0  501  0.00000000000E+00  0.00000000000E+00  0.14195299223E+04  0.14195299223E+04  0.50400001928E-02 0. -1.
        1   -1    0    0  501    0  0.00000000000E+00  0.00000000000E+00 -0.69560081378E+03  0.69560081379E+03  0.50400001928E-02 0.  1.
    10030    2    1    2    0    0  0.00000000000E+00  0.00000000000E+00  0.72392910849E+03  0.21151307361E+04  0.19873863934E+04 0.  0.
        3    1    3    3  502    0  0.36494041500E+03 -0.91186421652E+03  0.20144445969E+03  0.10026254218E+04  0.10100000352E+00 0.  1.
       -3    1    3    3    0  502 -0.36494041500E+03  0.91186421652E+03  0.52248464880E+03  0.11125053143E+04  0.10100000352E+00 0. -1.
</event>
<event>
 5   0  0.2463085E-04  0.2014402E+04  0.7818609E-02  0.8599917E-01
        2   -1    0    0  501    0  0.00000000000E+00  0.00000000000E+00  0.12378933057E+04  0.12378933057E+04  0.25500000920E-02 0. -1.
       -2   -1    0    0    0  501  0.00000000000E+00  0.00000000000E+00 -0.81949982840E+03  0.81949982840E+03  0.25500000920E-02 0.  1.
    10030    2    1    2    0    0  0.00000000000E+00  0.00000000000E+00  0.41839347729E+03  0.20573931341E+04  0.20144015008E+04 0.  0.
        2    1    3    3  502    0  0.98703679100E+03 -0.18987659678E+03  0.27506026366E+03  0.10420906378E+04  0.25500000920E-02 0. -1.
       -2    1    3    3    0  502 -0.98703679100E+03  0.18987659678E+03  0.14333321363E+03  0.10153024963E+04  0.25500000920E-02 0.  1.
</event>
<event>
 5   0  0.2421737E-04  0.1934022E+04  0.7818609E-02  0.8638104E-01
        2   -1    0    0  501    0  0.00000000000E+00  0.00000000000E+00  0.21053456079E+04  0.21053456079E+04  0.25500000920E-02 0.  1.
       -2   -1    0    0    0  501  0.00000000000E+00  0.00000000000E+00 -0.44416011087E+03  0.44416011088E+03  0.25500000920E-02 0. -1.
    10030    2    1    2    0    0  0.00000000000E+00  0.00000000000E+00  0.16611854970E+04  0.25495057188E+04  0.19340222736E+04 0.  0.
        1    1    3    3  502    0  0.37135278052E+03 -0.20572984192E+03  0.19759324312E+04  0.20210236585E+04  0.50400001928E-02 0.  1.
       -1    1    3    3    0  502 -0.37135278052E+03  0.20572984192E+03 -0.31474693418E+03  0.52848206030E+03  0.50400001928E-02 0. -1.
</event>
<event>
 5   0  0.1258546E-04  0.2020174E+04  0.7818609E-02  0.8597246E-01
       -1   -1    0    0    0  501  0.00000000000E+00  0.00000000000E+00  0.82970240980E+03  0.82970240981E+03  0.50400001928E-02 0.  1.
        1   -1    0    0  501    0  0.00000000000E+00  0.00000000000E+00 -0.12296887526E+04  0.12296887527E+04  0.50400001928E-02 0. -1.
    10030    2    1    2    0    0  0.00000000000E+00  0.00000000000E+00 -0.39998634285E+03  0.20593911625E+04  0.20201739741E+04 0.  0.
        4    1    3    3  502    0 -0.86486791756E+03  0.12117955613E+03 -0.71738217391E+03  0.11301857352E+04  0.12699999809E+01 0. -1.
       -4    1    3    3    0  502  0.86486791756E+03 -0.12117955613E+03  0.31739583106E+03  0.92920542730E+03  0.12699999809E+01 0.  1.
</event>
<event>
 5   0  0.2421737E-04  0.1983187E+04  0.7818609E-02  0.8614522E-01
        2   -1    0    0  501    0  0.00000000000E+00  0.00000000000E+00  0.11244608216E+04  0.11244608216E+04  0.25500000920E-02 0. -1.
       -2   -1    0    0    0  501  0.00000000000E+00  0.00000000000E+00 -0.87442634159E+03  0.87442634160E+03  0.25500000920E-02 0.  1.
    10030    2    1    2    0    0  0.00000000000E+00  0.00000000000E+00  0.25003448005E+03  0.19988871632E+04  0.19831874975E+04 0.  0.
        1    1    3    3  502    0 -0.75317763406E+03  0.56435373806E+03 -0.18968271501E+03  0.96007875850E+03  0.50400001928E-02 0.  1.
       -1    1    3    3    0  502  0.75317763406E+03 -0.56435373806E+03  0.43971719506E+03  0.10388084047E+04  0.50400001928E-02 0. -1.
</event>
<event>
 5   0  0.9099125E-05  0.1998906E+04  0.7818609E-02  0.8607132E-01
        4   -1    0    0  501    0  0.00000000000E+00  0.00000000000E+00  0.15373292891E+04  0.15373298136E+04  0.12699999809E+01 0.  1.
       -4   -1    0    0    0  501  0.00000000000E+00  0.00000000000E+00 -0.64976620207E+03  0.64976744320E+03  0.12699999809E+01 0. -1.
    10030    2    1    2    0    0  0.00000000000E+00  0.00000000000E+00  0.88756308699E+03  0.21870972568E+04  0.19989062453E+04 0.  0.
        3    1    3    3  502    0 -0.41165543590E+03 -0.59437385451E+03  0.11987953408E+04  0.13999466976E+04  0.10100000352E+00 0.  1.
       -3    1    3    3    0  502  0.41165543590E+03  0.59437385451E+03 -0.31123225383E+03  0.78715055920E+03  0.10100000352E+00 0. -1.
</event>
<event>
 5   0  0.2540506E-04  0.2059792E+04  0.7818609E-02  0.8579165E-01
       -2   -1    0    0    0  501  0.00000000000E+00  0.00000000000E+00  0.17615531765E+04  0.17615531765E+04  0.25500000920E-02 0.  1.
        2   -1    0    0  501    0  0.00000000000E+00  0.00000000000E+00 -0.60213102443E+03  0.60213102444E+03  0.25500000920E-02 0. -1.
    10030    2    1    2    0    0  0.00000000000E+00  0.00000000000E+00  0.11594221520E+04  0.23636842009E+04  0.20597920466E+04 0.  0.
        4    1    3    3  502    0  0.86852548446E+03  0.42699217080E+03  0.17558083536E+03  0.98361022450E+03  0.12699999809E+01 0. -1.
       -4    1    3    3    0  502 -0.86852548446E+03 -0.42699217080E+03  0.98384131669E+03  0.13800739764E+04  0.12699999809E+01 0.  1.
</event>
<event>
 5   0  0.2488886E-04  0.1818679E+04  0.7818609E-02  0.8696429E-01
       -2   -1    0    0    0  501  0.00000000000E+00  0.00000000000E+00  0.60975814168E+03  0.60975814168E+03  0.25500000920E-02 0. -1.
        2   -1    0    0  501    0  0.00000000000E+00  0.00000000000E+00 -0.13561083862E+04  0.13561083862E+04  0.25500000920E-02 0.  1.
    10030    2    1    2    0    0  0.00000000000E+00  0.00000000000E+00 -0.74635024453E+03  0.19658665279E+04  0.18186787836E+04 0.  0.
        3    1    3    3  502    0 -0.12982236489E+03  0.77959732200E+03 -0.85932056809E+03  0.11675006124E+04  0.10100000352E+00 0.  1.
       -3    1    3    3    0  502  0.12982236489E+03 -0.77959732200E+03  0.11297032356E+03  0.79836591554E+03  0.10100000352E+00 0. -1.
</event>
<event>
 5   0  0.1210633E-04  0.1879221E+04  0.7818609E-02  0.8665269E-01
        1   -1    0    0  501    0  0.00000000000E+00  0.00000000000E+00  0.11335424172E+04  0.11335424172E+04  0.50400001928E-02 0. -1.
       -1   -1    0    0    0  501  0.00000000000E+00  0.00000000000E+00 -0.77885736098E+03  0.77885736100E+03  0.50400001928E-02 0.  1.
    10030    2    1    2    0    0  0.00000000000E+00  0.00000000000E+00  0.35468505624E+03  0.19123997782E+04  0.18792209616E+04 0.  0.
        2    1    3    3  502    0 -0.41177553202E+02 -0.55853032360E+03  0.94512720505E+03  0.10985978095E+04  0.25500000920E-02 0. -1.
       -2    1    3    3    0  502  0.41177553202E+02  0.55853032360E+03 -0.59044214880E+03  0.81380196876E+03  0.25500000920E-02 0.  1.
</event>
<event>
 5   0  0.1258546E-04  0.1912541E+04  0.7818609E-02  0.8648639E-01
       -1   -1    0    0    0  501  0.00000000000E+00  0.00000000000E+00  0.53182550268E+03  0.53182550270E+03  0.50400001928E-02 0. -1.
        1   -1    0    0  501    0  0.00000000000E+00  0.00000000000E+00 -0.17194616813E+04  0.17194616814E+04  0.50400001928E-02 0.  1.
    10030    2    1    2    0    0  0.00000000000E+00  0.00000000000E+00 -0.11876361787E+04  0.22512871841E+04  0.19125413178E+04 0.  0.
        4    1    3    3  502    0  0.16382359230E+03  0.63334910913E+03 -0.14148381556E+04  0.15587616505E+04  0.12699999809E+01 0.  1.
       -4    1    3    3    0  502 -0.16382359230E+03 -0.63334910913E+03  0.22720197696E+03  0.69252553359E+03  0.12699999809E+01 0. -1.
</event>
<event>
 5   0  0.1231056E-04  0.1905080E+04  0.7818609E-02  0.8652332E-01
       -1   -1    0    0    0  501  0.00000000000E+00  0.00000000000E+00  0.27903838894E+04  0.27903838894E+04  0.50400001928E-02 0.  1.
        1   -1    0    0  501    0  0.00000000000E+00  0.00000000000E+00 -0.32516409787E+03  0.32516409791E+03  0.50400001928E-02 0. -1.
    10030    2    1    2    0    0  0.00000000000E+00  0.00000000000E+00  0.24652197915E+04  0.31155479873E+04  0.19050802190E+04 0.  0.
        3    1    3    3  502    0 -0.31745900310E+03  0.46331244770E+03 -0.25571179841E+02  0.56222107598E+03  0.10100000352E+00 0. -1.
       -3    1    3    3    0  502  0.31745900310E+03 -0.46331244770E+03  0.24907909713E+04  0.25533269113E+04  0.10100000352E+00 0.  1.
</event>
<event>
 5   0  0.1231056E-04  0.2041010E+04  0.7818609E-02  0.8587684E-01
       -1   -1    0    0    0  501  0.00000000000E+00  0.00000000000E+00  0.77527850655E+03  0.77527850657E+03  0.50400001928E-02 0. -1.
        1   -1    0    0  501    0  0.00000000000E+00  0.00000000000E+00 -0.13432983539E+04  0.13432983539E+04  0.50400001928E-02 0.  1.
    10030    2    1    2    0    0  0.00000000000E+00  0.00000000000E+00 -0.56801984731E+03  0.21185768604E+04  0.20410098889E+04 0.  0.
        3    1    3    3  502    0 -0.65799915065E+03 -0.64010803691E+03  0.17872246998E+03  0.93522345600E+03  0.10100000352E+00 0. -1.
       -3    1    3    3    0  502  0.65799915065E+03  0.64010803691E+03 -0.74674231730E+03  0.11833534044E+04  0.10100000352E+00 0.  1.
</event>
<event>
 5   0  0.2421737E-04  0.1935886E+04  0.7818609E-02  0.8637197E-01
       -2   -1    0    0    0  501  0.00000000000E+00  0.00000000000E+00  0.66798398026E+03  0.66798398027E+03  0.25500000920E-02 0.  1.
        2   -1    0    0  501    0  0.00000000000E+00  0.00000000000E+00 -0.14025996484E+04  0.14025996484E+04  0.25500000920E-02 0. -1.
    10030    2    1    2    0    0  0.00000000000E+00  0.00000000000E+00 -0.73461566815E+03  0.20705836287E+04  0.19358864593E+04 0.  0.
        1    1    3    3  502    0 -0.40701271167E+03  0.28779166706E+01  0.57200333676E+03  0.70203664232E+03  0.50400001928E-02 0.  1.
       -1    1    3    3    0  502  0.40701271167E+03 -0.28779166706E+01 -0.13066190049E+04  0.13685469864E+04  0.50400001928E-02 0. -1.
</event>
<event>
 5   0  0.2488886E-04  0.2005062E+04  0.7818609E-02  0.8604258E-01
        2   -1    0    0  501    0  0.00000000000E+00  0.00000000000E+00  0.84803006085E+03  0.84803006085E+03  0.25500000920E-02 0.  1.
       -2   -1    0    0    0  501  0.00000000000E+00  0.00000000000E+00 -0.11851796758E+04  0.11851796758E+04  0.25500000920E-02 0. -1.
    10030    2    1    2    0    0  0.00000000000E+00  0.00000000000E+00 -0.33714961497E+03  0.20332097367E+04  0.20050615877E+04 0.  0.
        3    1    3    3  502    0  0.25557278090E+03 -0.68142271351E+03 -0.86775686409E+03  0.11325441917E+04  0.10100000352E+00 0.  1.
       -3    1    3    3    0  502 -0.25557278090E+03  0.68142271351E+03  0.53060724912E+03  0.90066554494E+03  0.10100000352E+00 0. -1.
</event>
<event>
 5   0  0.2463085E-04  0.1996796E+04  0.7818609E-02  0.8608120E-01
        2   -1    0    0  501    0  0.00000000000E+00  0.00000000000E+00  0.10494805079E+04  0.10494805079E+04  0.25500000920E-02 0.  1.
       -2   -1    0    0    0  501  0.00000000000E+00  0.00000000000E+00 -0.94980195794E+03  0.94980195795E+03  0.25500000920E-02 0. -1.
    10030    2    1    2    0    0  0.00000000000E+00  0.00000000000E+00  0.99678549982E+02  0.19992824659E+04  0.19967960750E+04 0.  0.
        2    1    3    3  502    0 -0.68962724925E+03 -0.80634346770E+02 -0.66848768727E+03  0.96382748914E+03  0.25500000920E-02 0. -1.
       -2    1    3    3    0  502  0.68962724925E+03  0.80634346770E+02  0.76816623725E+03  0.10354549767E+04  0.25500000920E-02 0.  1.
</event>
<event>
 5   0  0.1207228E-04  0.1983226E+04  0.7818609E-02  0.8614504E-01
        1   -1    0    0  501    0  0.00000000000E+00  0.00000000000E+00  0.13059703539E+04  0.13059703539E+04  0.50400001928E-02 0. -1.
       -1   -1    0    0    0  501  0.00000000000E+00  0.00000000000E+00 -0.75292367592E+03  0.75292367594E+03  0.50400001928E-02 0.  1.
    10030    2    1    2    0    0  0.00000000000E+00  0.00000000000E+00  0.55304667799E+03  0.20588940299E+04  0.19832256549E+04 0.  0.
        1    1    3    3  502    0  0.55311680377E+03 -0.75685296627E+03 -0.59125556031E+02  0.93928719919E+03  0.50400001928E-02 0.  1.
       -1    1    3    3    0  502 -0.55311680377E+03  0.75685296627E+03  0.61217223402E+03  0.11196068307E+04  0.50400001928E-02 0. -1.
</event>
<event>
 5   0  0.2463085E-04  0.1997025E+04  0.7818609E-02  0.8608013E-01
       -2   -1    0    0    0  501  0.00000000000E+00  0.00000000000E+00  0.11350494928E+04  0.11350494928E+04  0.25500000920E-02 0. -1.
        2   -1    0    0  501    0  0.00000000000E+00  0.00000000000E+00 -0.87839988991E+03  0.87839988992E+03  0.25500000920E-02 0.  1.
    10030    2    1    2    0    0  0.00000000000E+00  0.00000000000E+00  0.25664960285E+03  0.20134493827E+04  0.19970251370E+04 0.  0.
        2    1    3    3  502    0 -0.29071278753E+03 -0.28541905433E+03  0.10474413840E+04  0.11238822956E+04  0.25500000920E-02 0. -1.
       -2    1    3    3    0  502  0.29071278753E+03  0.28541905433E+03 -0.79079178112E+03  0.88956708713E+03  0.25500000920E-02 0.  1.
</event>
<event>
 5   0  0.1207228E-04  0.1991882E+04  0.7818609E-02  0.8610425E-01
       -1   -1    0    0    0  501  0.00000000000E+00  0.00000000000E+00  0.14080783968E+04  0.14080783968E+04  0.50400001928E-02 0.  1.
        1   -1    0    0  501    0  0.00000000000E+00  0.00000000000E+00 -0.70443444820E+03  0.70443444822E+03  0.50400001928E-02 0. -1.
    10030    2    1    2    0    0  0.00000000000E+00  0.00000000000E+00  0.70364394863E+03  0.21125128450E+04  0.19918824549E+04 0.  0.
        1    1    3    3  502    0  0.89880897093E+01 -0.37762997612E+03 -0.62551461760E+03  0.73072137062E+03  0.50400001928E-02 0. -1.
       -1    1    3    3    0  502 -0.89880897093E+01  0.37762997612E+03  0.13291585662E+04  0.13817914744E+04  0.50400001928E-02 0.  1.
</event>
<event>
 5   0  0.1324930E-04  0.1964366E+04  0.7818609E-02  0.8623464E-01
       -1   -1    0    0    0  501  0.00000000000E+00  0.00000000000E+00  0.10212617299E+04  0.10212617299E+04  0.50400001928E-02 0. -1.
        1   -1    0    0  501    0  0.00000000000E+00  0.00000000000E+00 -0.94460005070E+03  0.94460005071E+03  0.50400001928E-02 0.  1.
    10030    2    1    2    0    0  0.00000000000E+00  0.00000000000E+00  0.76661679193E+02  0.19658617806E+04  0.19643664443E+04 0.  0.
        5    1    3    3  502    0  0.60099044994E+03 -0.76139940397E+03  0.19253648307E+03  0.98894436678E+03  0.46999998093E+01 0.  1.
       -5    1    3    3    0  502 -0.60099044994E+03  0.76139940397E+03 -0.11587480388E+03  0.97691741383E+03  0.46999998093E+01 0. -1.
</event>
<event>
 5   0  0.2540506E-04  0.1973775E+04  0.7818609E-02  0.8618981E-01
        2   -1    0    0  501    0  0.00000000000E+00  0.00000000000E+00  0.95318179584E+03  0.95318179584E+03  0.25500000920E-02 0.  1.
       -2   -1    0    0    0  501  0.00000000000E+00  0.00000000000E+00 -0.10217847778E+04  0.10217847778E+04  0.25500000920E-02 0. -1.
    10030    2    1    2    0    0  0.00000000000E+00  0.00000000000E+00 -0.68602981943E+02  0.19749665736E+04  0.19737747080E+04 0.  0.
        4    1    3    3  502    0 -0.13234444584E+03 -0.75188879718E+03 -0.66005358844E+03  0.10092195837E+04  0.12699999809E+01 0. -1.
       -4    1    3    3    0  502  0.13234444584E+03  0.75188879718E+03  0.59145060650E+03  0.96574698990E+03  0.12699999809E+01 0.  1.
</event>
<event>
 5   0  0.1207228E-04  0.1511106E+04  0.7818609E-02  0.8877101E-01
        1   -1    0    0  501    0  0.00000000000E+00  0.00000000000E+00  0.71474257686E+03  0.71474257688E+03  0.50400001928E-02 0.  1.
       -1   -1    0    0    0  501  0.00000000000E+00  0.00000000000E+00 -0.79869351625E+03  0.79869351627E+03  0.50400001928E-02 0. -1.
    10030    2    1    2    0    0  0.00000000000E+00  0.00000000000E+00 -0.83950939394E+02  0.15134360931E+04  0.15111059023E+04 0.  0.
        1    1    3    3  502    0 -0.55014340182E+02  0.68458645299E+03  0.27343089209E+03  0.73922232245E+03  0.50400001928E-02 0.  1.
       -1    1    3    3    0  502  0.55014340182E+02 -0.68458645299E+03 -0.35738183148E+03  0.77421377070E+03  0.50400001928E-02 0. -1.
</event>
<event>
 5   0  0.9099125E-05  0.2095513E+04  0.7818609E-02  0.8563223E-01
       -3   -1    0    0    0  501  0.00000000000E+00  0.00000000000E+00  0.13209526417E+04  0.13209526455E+04  0.10100000352E+00 0. -1.
        3   -1    0    0  501    0  0.00000000000E+00  0.00000000000E+00 -0.83106182754E+03  0.83106183367E+03  0.10100000352E+00 0.  1.
    10030    2    1    2    0    0  0.00000000000E+00  0.00000000000E+00  0.48989081412E+03  0.21520144792E+04  0.20955126602E+04 0.  0.
        3    1    3    3  502    0  0.25144560322E+03  0.92211937448E+03 -0.19588899922E+03  0.97565441750E+03  0.10100000352E+00 0.  1.
       -3    1    3    3    0  502 -0.25144560322E+03 -0.92211937448E+03  0.68577981335E+03  0.11763600617E+04  0.10100000352E+00 0. -1.
</event>
<event>
 5   0  0.1207228E-04  0.2005182E+04  0.7818609E-02  0.8604202E-01
       -1   -1    0    0    0  501  0.00000000000E+00  0.00000000000E+00  0.17642814020E+04  0.17642814020E+04  0.50400001928E-02 0.  1.
        1   -1    0    0  501    0  0.00000000000E+00  0.00000000000E+00 -0.56974385921E+03  0.56974385923E+03  0.50400001928E-02 0. -1.
    10030    2    1    2    0    0  0.00000000000E+00  0.00000000000E+00  0.11945375428E+04  0.23340252613E+04  0.20051817820E+04 0.  0.
        1    1    3    3  502    0 -0.90839691502E+03  0.26115036282E+03  0.98647566703E+03  0.13662059540E+04  0.50400001928E-02 0.  1.
       -1    1    3    3    0  502  0.90839691502E+03 -0.26115036282E+03  0.20806187577E+03  0.96781930720E+03  0.50400001928E-02 0. -1.
</event>
<event>
 5   0  0.1210633E-04  0.1989206E+04  0.7818609E-02  0.8611684E-01
        1   -1    0    0  501    0  0.00000000000E+00  0.00000000000E+00  0.93014096505E+03  0.93014096506E+03  0.50400001928E-02 0.  1.
       -1   -1    0    0    0  501  0.00000000000E+00  0.00000000000E+00 -0.10635329982E+04  0.10635329982E+04  0.50400001928E-02 0. -1.
    10030    2    1    2    0    0  0.00000000000E+00  0.00000000000E+00 -0.13339203311E+03  0.19936739632E+04  0.19892064843E+04 0.  0.
        2    1    3    3  502    0  0.51285790832E+03  0.72928476250E+03 -0.50854450169E+03  0.10264000239E+04  0.25500000920E-02 0.  1.
       -2    1    3    3    0  502 -0.51285790832E+03 -0.72928476250E+03  0.37515246858E+03  0.96727393929E+03  0.25500000920E-02 0. -1.
</event>
<event>
 5   0  0.1258546E-04  0.2020008E+04  0.7818609E-02  0.8597323E-01
        1   -1    0    0  501    0  0.00000000000E+00  0.00000000000E+00  0.15696944711E+04  0.15696944711E+04  0.50400001928E-02 0. -1.
       -1   -1    0    0    0  501  0.00000000000E+00  0.00000000000E+00 -0.64987671425E+03  0.64987671427E+03  0.50400001928E-02 0.  1.
    10030    2    1    2    0    0  0.00000000000E+00  0.00000000000E+00  0.91981775682E+03  0.22195711853E+04  0.20200078072E+04 0.  0.
        4    1    3    3  502    0  0.14832383825E+03  0.43747037811E+03 -0.52700453520E+03  0.70079646527E+03  0.12699999809E+01 0.  1.
       -4    1    3    3    0  502 -0.14832383825E+03 -0.43747037811E+03  0.14468222920E+04  0.15187747201E+04  0.12699999809E+01 0. -1.
</event>
<event>
 5   0  0.9099125E-05  0.2059049E+04  0.7818609E-02  0.8579500E-01
        3   -1    0    0  501    0  0.00000000000E+00  0.00000000000E+00  0.93232102191E+03  0.93232102738E+03  0.10100000352E+00 0.  1.
       -3   -1    0    0    0  501  0.00000000000E+00  0.00000000000E+00 -0.11368618472E+04  0.11368618517E+04  0.10100000352E+00 0. -1.
    10030    2    1    2    0    0  0.00000000000E+00  0.00000000000E+00 -0.20454082532E+03  0.20691828791E+04  0.20590485273E+04 0.  0.
        2    1    3    3  502    0  0.44001753837E+02  0.31860192053E+03  0.88053950549E+03  0.93743968278E+03  0.25500000920E-02 0.  1.
       -2    1    3    3    0  502 -0.44001753837E+02 -0.31860192053E+03 -0.10850803308E+04  0.11317431963E+04  0.25500000920E-02 0. -1.
</event>
<event>
 5   0  0.2421737E-04  0.1897935E+04  0.7818609E-02  0.8655885E-01
        2   -1    0    0  501    0  0.00000000000E+00  0.00000000000E+00  0.13017963253E+04  0.13017963253E+04  0.25500000920E-02 0. -1.
       -2   -1    0    0    0  501  0.00000000000E+00  0.00000000000E+00 -0.69176658257E+03  0.69176658257E+03  0.25500000920E-02 0.  1.
    10030    2    1    2    0    0  0.00000000000E+00  0.00000000000E+00  0.61002974272E+03  0.19935629079E+04  0.18979348726E+04 0.  0.
        1    1    3    3  502    0  0.41246466022E+03  0.77292410245E+03  0.68808224425E+03  0.11139999726E+04  0.50400001928E-02 0.  1.
       -1    1    3    3    0  502 -0.41246466022E+03 -0.77292410245E+03 -0.78052501521E+02  0.87956293527E+03  0.50400001928E-02 0. -1.
</event>
<event>
 5   0  0.1210633E-04  0.2000073E+04  0.7818609E-02  0.8606586E-01
       -1   -1    0    0    0  501  0.00000000000E+00  0.00000000000E+00  0.56313964094E+03  0.56313964096E+03  0.50400001928E-02 0.  1.
        1   -1    0    0  501    0  0.00000000000E+00  0.00000000000E+00 -0.17758887430E+04  0.17758887430E+04  0.50400001928E-02 0. -1.
    10030    2    1    2    0    0  0.00000000000E+00  0.00000000000E+00 -0.12127491021E+04  0.23390283840E+04  0.20000733478E+04 0.  0.
        2    1    3    3  502    0 -0.10367089638E+03 -0.81845905603E+03 -0.12673591396E+04  0.15122242129E+04  0.25500000920E-02 0. -1.
       -2    1    3    3    0  502  0.10367089638E+03  0.81845905603E+03  0.54610037565E+02  0.82680417111E+03  0.25500000920E-02 0.  1.
</event>
<event>
 5   0  0.2488886E-04  0.1996044E+04  0.7818609E-02  0.8608472E-01
       -2   -1    0    0    0  501  0.00000000000E+00  0.00000000000E+00  0.77237072991E+03  0.77237072992E+03  0.25500000920E-02 0. -1.
        2   -1    0    0  501    0  0.00000000000E+00  0.00000000000E+00 -0.12895981477E+04  0.12895981477E+04  0.25500000920E-02 0.  1.
    10030    2    1    2    0    0  0.00000000000E+00  0.00000000000E+00 -0.51722741775E+03  0.20619688776E+04  0.19960439500E+04 0.  0.
        3    1    3    3  502    0  0.33695837353E+03 -0.73438684537E+03  0.34655268978E+03  0.87918357647E+03  0.10100000352E+00 0. -1.
       -3    1    3    3    0  502 -0.33695837353E+03  0.73438684537E+03 -0.86378010753E+03  0.11827853011E+04  0.10100000352E+00 0.  1.
</event>
<event>
 5   0  0.1258546E-04  0.1980596E+04  0.7818609E-02  0.8615747E-01
        1   -1    0    0  501    0  0.00000000000E+00  0.00000000000E+00  0.10482259740E+04  0.10482259740E+04  0.50400001928E-02 0.  1.
       -1   -1    0    0    0  501  0.00000000000E+00  0.00000000000E+00 -0.93557134721E+03  0.93557134722E+03  0.50400001928E-02 0. -1.
    10030    2    1    2    0    0  0.00000000000E+00  0.00000000000E+00  0.11265462676E+03  0.19837973212E+04  0.19805960584E+04 0.  0.
        4    1    3    3  502    0 -0.63598212169E+03  0.68998824611E+03 -0.26061981824E+03  0.97390006748E+03  0.12699999809E+01 0. -1.
       -4    1    3    3    0  502  0.63598212169E+03 -0.68998824611E+03  0.37327444500E+03  0.10098972537E+04  0.12699999809E+01 0.  1.
</event>
<event>
 5   0  0.2421737E-04  0.2006323E+04  0.7818609E-02  0.8603670E-01
       -2   -1    0    0    0  501  0.00000000000E+00  0.00000000000E+00  0.68569562659E+03  0.68569562660E+03  0.25500000920E-02 0.  1.
        2   -1    0    0  501    0  0.00000000000E+00  0.00000000000E+00 -0.14676090107E+04  0.14676090107E+04  0.25500000920E-02 0. -1.
    10030    2    1    2    0    0  0.00000000000E+00  0.00000000000E+00 -0.78191338412E+03  0.21533046373E+04  0.20063230848E+04 0.  0.
        1    1    3    3  502    0 -0.37323408735E+02 -0.52116291424E+03 -0.13100383784E+04  0.14103915673E+04  0.50400001928E-02 0. -1.
       -1    1    3    3    0  502  0.37323408735E+02  0.52116291424E+03  0.52812499431E+03  0.74291307005E+03  0.50400001928E-02 0.  1.
</event>
<event>
 5   0  0.1231056E-04  0.1912455E+04  0.7818609E-02  0.8648681E-01
        1   -1    0    0  501    0  0.00000000000E+00  0.00000000000E+00  0.14890841329E+04  0.14890841329E+04  0.50400001928E-02 0. -1.
       -1   -1    0    0    0  501  0.00000000000E+00  0.00000000000E+00 -0.61404935316E+03  0.61404935318E+03  0.50400001928E-02 0.  1.
    10030    2    1    2    0    0  0.00000000000E+00  0.00000000000E+00  0.87503477977E+03  0.21031334861E+04  0.19124551223E+04 0.  0.
        3    1    3    3  502    0 -0.37630052980E+03 -0.60295326926E+03  0.11409979542E+04  0.13442585597E+04  0.10100000352E+00 0. -1.
       -3    1    3    3    0  502  0.37630052980E+03  0.60295326926E+03 -0.26596317440E+03  0.75887492644E+03  0.10100000352E+00 0.  1.
</event>
<event>
 5   0  0.2540506E-04  0.1456267E+04  0.7818609E-02  0.8914067E-01
       -2   -1    0    0    0  501  0.00000000000E+00  0.00000000000E+00  0.68933838839E+03  0.68933838839E+03  0.25500000920E-02 0.  1.
        2   -1    0    0  501    0  0.00000000000E+00  0.00000000000E+00 -0.76911170298E+03  0.76911170299E+03  0.25500000920E-02 0. -1.
    10030    2    1    2    0    0  0.00000000000E+00  0.00000000000E+00 -0.79773314598E+02  0.14584500914E+04  0.14562667638E+04 0.  0.
        4    1    3    3  502    0 -0.12951629153E+03 -0.71615172160E+03 -0.16855422737E+02  0.72796529883E+03  0.12699999809E+01 0.  1.
       -4    1    3    3    0  502  0.12951629153E+03  0.71615172160E+03 -0.62917891861E+02  0.73048479255E+03  0.12699999809E+01 0. -1.
</event>
<event>
 5   0  0.2463085E-04  0.1978349E+04  0.7818609E-02  0.8616810E-01
       -2   -1    0    0    0  501  0.00000000000E+00  0.00000000000E+00  0.11903308686E+04  0.11903308686E+04  0.25500000920E-02 0.  1.
        2   -1    0    0  501    0  0.00000000000E+00  0.00000000000E+00 -0.82201226584E+03  0.82201226585E+03  0.25500000920E-02 0. -1.
    10030    2    1    2    0    0  0.00000000000E+00  0.00000000000E+00  0.36831860280E+03  0.20123431345E+04  0.19783493872E+04 0.  0.
        2    1    3    3  502    0  0.46489973022E+03  0.30201527000E+03  0.10174559773E+04  0.11586896255E+04  0.25500000920E-02 0.  1.
       -2    1    3    3    0  502 -0.46489973022E+03 -0.30201527000E+03 -0.64913737449E+03  0.85365350901E+03  0.25500000920E-02 0. -1.
</event>
<event>
 5   0  0.2596061E-04  0.1985904E+04  0.7818609E-02  0.8613239E-01
        2   -1    0    0  501    0  0.00000000000E+00  0.00000000000E+00  0.25348585430E+04  0.25348585430E+04  0.25500000920E-02 0. -1.
       -2   -1    0    0    0  501  0.00000000000E+00  0.00000000000E+00 -0.38895821094E+03  0.38895821095E+03  0.25500000920E-02 0.  1.
    10030    2    1    2    0    0  0.00000000000E+00  0.00000000000E+00  0.21459003320E+04  0.29238167539E+04  0.19859043722E+04 0.  0.
        5    1    3    3  502    0 -0.35515281053E+03  0.33100095500E+03  0.23481874472E+04  0.23978535252E+04  0.46999998093E+01 0. -1.
       -5    1    3    3    0  502  0.35515281053E+03 -0.33100095500E+03 -0.20228711516E+03  0.52596322875E+03  0.46999998093E+01 0.  1.
</event>
<event>
 5   0  0.2463085E-04  0.1989065E+04  0.7818609E-02  0.8611750E-01
       -2   -1    0    0    0  501  0.00000000000E+00  0.00000000000E+00  0.79972221144E+03  0.79972221144E+03  0.25500000920E-02 0.  1.
        2   -1    0    0  501    0  0.00000000000E+00  0.00000000000E+00 -0.12367977005E+04  0.12367977005E+04  0.25500000920E-02 0. -1.
    10030    2    1    2    0    0  0.00000000000E+00  0.00000000000E+00 -0.43707548909E+03  0.20365199120E+04  0.19890646970E+04 0.  0.
        2    1    3    3  502    0 -0.88964907746E+03 -0.89021550164E+02  0.22739243262E+03  0.92255495004E+03  0.25500000920E-02 0.  1.
       -2    1    3    3    0  502  0.88964907746E+03  0.89021550164E+02 -0.66446792172E+03  0.11139649619E+04  0.25500000920E-02 0. -1.
</event>
<event>
 5   0  0.2488886E-04  0.2033347E+04  0.7818609E-02  0.8591187E-01
       -2   -1    0    0    0  501  0.00000000000E+00  0.00000000000E+00  0.65213480332E+03  0.65213480333E+03  0.25500000920E-02 0.  1.
        2   -1    0    0  501    0  0.00000000000E+00  0.00000000000E+00 -0.15849870936E+04  0.15849870936E+04  0.25500000920E-02 0. -1.
    10030    2    1    2    0    0  0.00000000000E+00  0.00000000000E+00 -0.93285229026E+03  0.22371218969E+04  0.20333472370E+04 0.  0.
        3    1    3    3  502    0  0.34743463473E+02 -0.41720345377E+03  0.55289887423E+03  0.69351496409E+03  0.10100000352E+00 0.  1.
       -3    1    3    3    0  502 -0.34743463473E+02  0.41720345377E+03 -0.14857511645E+04  0.15436069328E+04  0.10100000352E+00 0. -1.
</event>
<event>
 5   0  0.2488886E-04  0.2018547E+04  0.7818609E-02  0.8597998E-01
       -2   -1    0    0    0  501  0.00000000000E+00  0.00000000000E+00  0.11338298830E+04  0.11338298830E+04  0.25500000920E-02 0. -1.
        2   -1    0    0  501    0  0.00000000000E+00  0.00000000000E+00 -0.89840017621E+03  0.89840017622E+03  0.25500000920E-02 0.  1.
    10030    2    1    2    0    0  0.00000000000E+00  0.00000000000E+00  0.23542970674E+03  0.20322300592E+04  0.20185469691E+04 0.  0.
        3    1    3    3  502    0  0.84698961521E+03 -0.11902154921E+03 -0.42171132026E+03  0.95362360777E+03  0.10100000352E+00 0.  1.
       -3    1    3    3    0  502 -0.84698961521E+03  0.11902154921E+03  0.65714102700E+03  0.10786064514E+04  0.10100000352E+00 0. -1.
</event>
<event>
 5   0  0.2463085E-04  0.2010411E+04  0.7818609E-02  0.8601769E-01
       -2   -1    0    0    0  501  0.00000000000E+00  0.00000000000E+00  0.17352317844E+04  0.17352317844E+04  0.25500000920E-02 0. -1.
        2   -1    0    0  501    0  0.00000000000E+00  0.00000000000E+00 -0.58230707872E+03  0.58230707872E+03  0.25500000920E-02 0.  1.
    10030    2    1    2    0    0  0.00000000000E+00  0.00000000000E+00  0.11529247056E+04  0.23175388631E+04  0.20104106558E+04 0.  0.
        2    1    3    3  502    0  0.44927749826E+02  0.91965138269E+03  0.10413878993E+04  0.13900596840E+04  0.25500000920E-02 0. -1.
       -2    1    3    3    0  502 -0.44927749826E+02 -0.91965138269E+03  0.11153680636E+03  0.92747917905E+03  0.25500000920E-02 0.  1.
</event>
<event>
 5   0  0.9099125E-05  0.1973649E+04  0.7818609E-02  0.8619040E-01
        3   -1    0    0  501    0  0.00000000000E+00  0.00000000000E+00  0.56654702367E+03  0.56654703267E+03  0.10100000352E+00 0. -1.
       -3   -1    0    0    0  501  0.00000000000E+00  0.00000000000E+00 -0.17188742064E+04  0.17188742094E+04  0.10100000352E+00 0.  1.
    10030    2    1    2    0    0  0.00000000000E+00  0.00000000000E+00 -0.11523271827E+04  0.22854212420E+04  0.19736494921E+04 0.  0.
        5    1    3    3  502    0 -0.48032574979E+03  0.71254019067E+03 -0.11379562595E+04  0.14259708580E+04  0.46999998093E+01 0.  1.
       -5    1    3    3    0  502  0.48032574979E+03 -0.71254019067E+03 -0.14370923203E+02  0.85945038406E+03  0.46999998093E+01 0. -1.
</event>
<event>
 5   0  0.2596061E-04  0.2051859E+04  0.7818609E-02  0.8582751E-01
        2   -1    0    0  501    0  0.00000000000E+00  0.00000000000E+00  0.23063342635E+04  0.23063342635E+04  0.25500000920E-02 0. -1.
       -2   -1    0    0    0  501  0.00000000000E+00  0.00000000000E+00 -0.45636554524E+03  0.45636554525E+03  0.25500000920E-02 0.  1.
    10030    2    1    2    0    0  0.00000000000E+00  0.00000000000E+00  0.18499687182E+04  0.27626998087E+04  0.20518591508E+04 0.  0.
        5    1    3    3  502    0  0.41729866421E+03  0.87441904334E+03  0.13791202648E+04  0.16854499795E+04  0.46999998093E+01 0.  1.
       -5    1    3    3    0  502 -0.41729866421E+03 -0.87441904334E+03  0.47084845342E+03  0.10772498292E+04  0.46999998093E+01 0. -1.
</event>
<event>
 5   0  0.2488886E-04  0.1993035E+04  0.7818609E-02  0.8609884E-01
        2   -1    0    0  501    0  0.00000000000E+00  0.00000000000E+00  0.13780547012E+04  0.13780547012E+04  0.25500000920E-02 0.  1.
       -2   -1    0    0    0  501  0.00000000000E+00  0.00000000000E+00 -0.72061502733E+03  0.72061502733E+03  0.25500000920E-02 0. -1.
    10030    2    1    2    0    0  0.00000000000E+00  0.00000000000E+00  0.65743967391E+03  0.20986697286E+04  0.19930347977E+04 0.  0.
        3    1    3    3  502    0 -0.70244947266E+03  0.70626415994E+03  0.29888825469E+03  0.10399896751E+04  0.10100000352E+00 0.  1.
       -3    1    3    3    0  502  0.70244947266E+03 -0.70626415994E+03  0.35855141922E+03  0.10586800535E+04  0.10100000352E+00 0. -1.
</event>
<event>
 5   0  0.1258546E-04  0.1974429E+04  0.7818609E-02  0.8618670E-01
        1   -1    0    0  501    0  0.00000000000E+00  0.00000000000E+00  0.15304216536E+04  0.15304216536E+04  0.50400001928E-02 0.  1.
       -1   -1    0    0    0  501  0.00000000000E+00  0.00000000000E+00 -0.63681275405E+03  0.63681275407E+03  0.50400001928E-02 0. -1.
    10030    2    1    2    0    0  0.00000000000E+00  0.00000000000E+00  0.89360889952E+03  0.21672344076E+04  0.19744285534E+04 0.  0.
        4    1    3    3  502    0 -0.60463601648E+03  0.75302937546E+03  0.67162872025E+03  0.11763182832E+04  0.12699999809E+01 0.  1.
       -4    1    3    3    0  502  0.60463601648E+03 -0.75302937546E+03  0.22198017927E+03  0.99091612441E+03  0.12699999809E+01 0. -1.
</event>
<event>
 5   0  0.2421737E-04  0.2015301E+04  0.7818609E-02  0.8599500E-01
       -2   -1    0    0    0  501  0.00000000000E+00  0.00000000000E+00  0.74893784694E+03  0.74893784695E+03  0.25500000920E-02 0.  1.
        2   -1    0    0  501    0  0.00000000000E+00  0.00000000000E+00 -0.13557328391E+04  0.13557328392E+04  0.25500000920E-02 0. -1.
    10030    2    1    2    0    0  0.00000000000E+00  0.00000000000E+00 -0.60679499221E+03  0.21046706861E+04  0.20153011027E+04 0.  0.
        1    1    3    3  502    0 -0.91314278673E+03 -0.33994436661E+03 -0.57162908435E+03  0.11296688592E+04  0.50400001928E-02 0. -1.
       -1    1    3    3    0  502  0.91314278673E+03  0.33994436661E+03 -0.35165907857E+02  0.97500182690E+03  0.50400001928E-02 0.  1.
</event>
<event>
 5   0  0.2463085E-04  0.1940275E+04  0.7818609E-02  0.8635065E-01
       -2   -1    0    0    0  501  0.00000000000E+00  0.00000000000E+00  0.37152618321E+03  0.37152618322E+03  0.25500000920E-02 0. -1.
        2   -1    0    0  501    0  0.00000000000E+00  0.00000000000E+00 -0.25332438905E+04  0.25332438905E+04  0.25500000920E-02 0.  1.
    10030    2    1    2    0    0  0.00000000000E+00  0.00000000000E+00 -0.21617177073E+04  0.29047700737E+04  0.19402746546E+04 0.  0.
        2    1    3    3  502    0 -0.56114782223E+03  0.68745972387E+01  0.10386267750E+03  0.57072024168E+03  0.25500000920E-02 0. -1.
       -2    1    3    3    0  502  0.56114782223E+03 -0.68745972387E+01 -0.22655803848E+04  0.23340498320E+04  0.25500000920E-02 0.  1.
</event>
<event>
 5   0  0.1210633E-04  0.2049783E+04  0.7818609E-02  0.8583693E-01
        1   -1    0    0  501    0  0.00000000000E+00  0.00000000000E+00  0.11948087859E+04  0.11948087859E+04  0.50400001928E-02 0. -1.
       -1   -1    0    0    0  501  0.00000000000E+00  0.00000000000E+00 -0.87913867677E+03  0.87913867678E+03  0.50400001928E-02 0.  1.
    10030    2    1    2    0    0  0.00000000000E+00  0.00000000000E+00  0.31567010916E+03  0.20739474627E+04  0.20497830276E+04 0.  0.
        2    1    3    3  502    0  0.20927501775E+03  0.68191846975E+03  0.90244133140E+03  0.11503083017E+04  0.25500000920E-02 0. -1.
       -2    1    3    3    0  502 -0.20927501775E+03 -0.68191846975E+03 -0.58677122223E+03  0.92363916098E+03  0.25500000920E-02 0.  1.
</event>
<event>
 5   0  0.2596061E-04  0.2022340E+04  0.7818609E-02  0.8596247E-01
        2   -1    0    0  501    0  0.00000000000E+00  0.00000000000E+00  0.14258671437E+04  0.14258671437E+04  0.25500000920E-02 0.  1.
       -2   -1    0    0    0  501  0.00000000000E+00  0.00000000000E+00 -0.71708279310E+03  0.71708279310E+03  0.25500000920E-02 0. -1.
    10030    2    1    2    0    0  0.00000000000E+00  0.00000000000E+00  0.70878435056E+03  0.21429499368E+04  0.20223400248E+04 0.  0.
        5    1    3    3  502    0 -0.89089942946E+02 -0.76562825928E+02 -0.70981642411E+03  0.71948615705E+03  0.46999998093E+01 0. -1.
       -5    1    3    3    0  502  0.89089942946E+02  0.76562825928E+02  0.14186007747E+04  0.14234637797E+04  0.46999998093E+01 0.  1.
</event>
<event>
 5   0  0.1231056E-04  0.1981205E+04  0.7818609E-02  0.8615459E-01
        1   -1    0    0  501    0  0.00000000000E+00  0.00000000000E+00  0.12351195299E+04  0.12351195299E+04  0.50400001928E-02 0.  1.
       -1   -1    0    0    0  501  0.00000000000E+00  0.00000000000E+00 -0.79449233193E+03  0.79449233195E+03  0.50400001928E-02 0. -1.
    10030    2    1    2    0    0  0.00000000000E+00  0.00000000000E+00  0.44062719795E+03  0.20296118618E+04  0.19812046795E+04 0.  0.
        3    1    3    3  502    0  0.24410363795E+03 -0.88576435186E+03 -0.15904207079E+03  0.93244810235E+03  0.10100000352E+00 0. -1.
       -3    1    3    3    0  502 -0.24410363795E+03  0.88576435186E+03  0.59966926874E+03  0.10971637595E+04  0.10100000352E+00 0.  1.
</event>
<event>
 5   0  0.1231056E-04  0.1400368E+04  0.7818609E-02  0.8953552E-01
        1   -1    0    0  501    0  0.00000000000E+00  0.00000000000E+00  0.14691940893E+04  0.14691940893E+04  0.50400001928E-02 0.  1.
       -1   -1    0    0    0  501  0.00000000000E+00  0.00000000000E+00 -0.33369148797E+03  0.33369148800E+03  0.50400001928E-02 0. -1.
    10030    2    1    2    0    0  0.00000000000E+00  0.00000000000E+00  0.11355026013E+04  0.18028855773E+04  0.14003678971E+04 0.  0.
        3    1    3    3  502    0 -0.58138728336E+03 -0.30166864524E+03  0.88635597512E+03  0.11021080118E+04  0.10100000352E+00 0.  1.
       -3    1    3    3    0  502  0.58138728336E+03  0.30166864524E+03  0.24914662617E+03  0.70077756550E+03  0.10100000352E+00 0. -1.
</event>
<event>
 5   0  0.1258546E-04  0.2023947E+04  0.7818609E-02  0.8595506E-01
       -1   -1    0    0    0  501  0.00000000000E+00  0.00000000000E+00  0.10263296251E+04  0.10263296251E+04  0.50400001928E-02 0. -1.
        1   -1    0    0  501    0  0.00000000000E+00  0.00000000000E+00 -0.99781847655E+03  0.99781847656E+03  0.50400001928E-02 0.  1.
    10030    2    1    2    0    0  0.00000000000E+00  0.00000000000E+00  0.28511148550E+02  0.20241481017E+04  0.20239472947E+04 0.  0.
        4    1    3    3  502    0 -0.23061251772E+03  0.51511652688E+03 -0.82580507399E+03  0.10002413722E+04  0.12699999809E+01 0.  1.
       -4    1    3    3    0  502  0.23061251772E+03 -0.51511652688E+03  0.85431622254E+03  0.10239067294E+04  0.12699999809E+01 0. -1.
</event>
<event>
 5   0  0.2540506E-04  0.1983710E+04  0.7818609E-02  0.8614275E-01
       -2   -1    0    0    0  501  0.00000000000E+00  0.00000000000E+00  0.64931672723E+03  0.64931672723E+03  0.25500000920E-02 0. -1.
        2   -1    0    0  501    0  0.00000000000E+00  0.00000000000E+00 -0.15150948590E+04  0.15150948590E+04  0.25500000920E-02 0.  1.
    10030    2    1    2    0    0  0.00000000000E+00  0.00000000000E+00 -0.86577813175E+03  0.21644115862E+04  0.19837100950E+04 0.  0.
        4    1    3    3  502    0 -0.42741959029E+03 -0.35317787721E+03 -0.13302109544E+04  0.14411401442E+04  0.12699999809E+01 0.  1.
       -4    1    3    3    0  502  0.42741959029E+03  0.35317787721E+03  0.46443282268E+03  0.72327144199E+03  0.12699999809E+01 0. -1.
</event>
<event>
 5   0  0.2463085E-04  0.2020615E+04  0.7818609E-02  0.8597043E-01
       -2   -1    0    0    0  501  0.00000000000E+00  0.00000000000E+00  0.11799547956E+04  0.11799547957E+04  0.25500000920E-02 0. -1.
        2   -1    0    0  501    0  0.00000000000E+00  0.00000000000E+00 -0.86505074482E+03  0.86505074482E+03  0.25500000920E-02 0.  1.
    10030    2    1    2    0    0  0.00000000000E+00  0.00000000000E+00  0.31490405083E+03  0.20450055405E+04  0.20206145351E+04 0.  0.
        2    1    3    3  502    0  0.43453121962E+03  0.34461242729E+03 -0.69722128236E+03  0.89089428242E+03  0.25500000920E-02 0.  1.
       -2    1    3    3    0  502 -0.43453121962E+03 -0.34461242729E+03  0.10121253332E+04  0.11541112581E+04  0.25500000920E-02 0. -1.
</event>
<event>
 5   0  0.2540506E-04  0.2045051E+04  0.7818609E-02  0.8585843E-01
       -2   -1    0    0    0  501  0.00000000000E+00  0.00000000000E+00  0.45029241102E+03  0.45029241103E+03  0.25500000920E-02 0. -1.
        2   -1    0    0  501    0  0.00000000000E+00  0.00000000000E+00 -0.23219550665E+04  0.23219550665E+04  0.25500000920E-02 0.  1.
    10030    2    1    2    0    0  0.00000000000E+00  0.00000000000E+00 -0.18716626555E+04  0.27722474776E+04  0.20450513394E+04 0.  0.
        4    1    3    3  502    0 -0.22053345711E+02 -0.46955589521E+03 -0.21667980105E+04  0.22172019123E+04  0.12699999809E+01 0.  1.
       -4    1    3    3    0  502  0.22053345711E+02  0.46955589521E+03  0.29513535502E+03  0.55504556522E+03  0.12699999809E+01 0. -1.
</event>
<event>
 5   0  0.2421737E-04  0.1933815E+04  0.7818609E-02  0.8638205E-01
       -2   -1    0    0    0  501  0.00000000000E+00  0.00000000000E+00  0.67422757519E+03  0.67422757520E+03  0.25500000920E-02 0. -1.
        2   -1    0    0  501    0  0.00000000000E+00  0.00000000000E+00 -0.13866393423E+04  0.13866393423E+04  0.25500000920E-02 0.  1.
    10030    2    1    2    0    0  0.00000000000E+00  0.00000000000E+00 -0.71241176712E+03  0.20608669175E+04  0.19338153805E+04 0.  0.
        1    1    3    3  502    0 -0.21688607287E+03  0.69240018790E+03  0.32488634620E+03  0.79498976521E+03  0.50400001928E-02 0. -1.
       -1    1    3    3    0  502  0.21688607287E+03 -0.69240018790E+03 -0.10372981133E+04  0.12658771523E+04  0.50400001928E-02 0.  1.
</event>
<event>
 5   0  0.2488886E-04  0.1997637E+04  0.7818609E-02  0.8607726E-01
       -2   -1    0    0    0  501  0.00000000000E+00  0.00000000000E+00  0.15956666329E+04  0.15956666329E+04  0.25500000920E-02 0.  1.
        2   -1    0    0  501    0  0.00000000000E+00  0.00000000000E+00 -0.62521717896E+03  0.62521717896E+03  0.25500000920E-02 0. -1.
    10030    2    1    2    0    0  0.00000000000E+00  0.00000000000E+00  0.97044945390E+03  0.22208838118E+04  0.19976367946E+04 0.  0.
        3    1    3    3  502    0 -0.36011896136E+03  0.40734444696E+02 -0.54954036039E+03  0.65828533267E+03  0.10100000352E+00 0. -1.
       -3    1    3    3    0  502  0.36011896136E+03 -0.40734444696E+02  0.15199898143E+04  0.15625984792E+04  0.10100000352E+00 0.  1.
</event>
<event>
 5   0  0.1207228E-04  0.2064732E+04  0.7818609E-02  0.8576941E-01
        1   -1    0    0  501    0  0.00000000000E+00  0.00000000000E+00  0.13541842892E+04  0.13541842892E+04  0.50400001928E-02 0.  1.
       -1   -1    0    0    0  501  0.00000000000E+00  0.00000000000E+00 -0.78702663071E+03  0.78702663073E+03  0.50400001928E-02 0. -1.
    10030    2    1    2    0    0  0.00000000000E+00  0.00000000000E+00  0.56715765845E+03  0.21412109199E+04  0.20647315549E+04 0.  0.
        1    1    3    3  502    0 -0.21363539755E+03  0.94565945476E+03  0.65149778083E+03  0.11680587511E+04  0.50400001928E-02 0. -1.
       -1    1    3    3    0  502  0.21363539755E+03 -0.94565945476E+03 -0.84340122378E+02  0.97315216885E+03  0.50400001928E-02 0.  1.
</event>
<event>
 5   0  0.2463085E-04  0.2035866E+04  0.7818609E-02  0.8590033E-01
       -2   -1    0    0    0  501  0.00000000000E+00  0.00000000000E+00  0.10830588945E+04  0.10830588945E+04  0.25500000920E-02 0. -1.
        2   -1    0    0  501    0  0.00000000000E+00  0.00000000000E+00 -0.95672297332E+03  0.95672297332E+03  0.25500000920E-02 0.  1.
    10030    2    1    2    0    0  0.00000000000E+00  0.00000000000E+00  0.12633592116E+03  0.20397818678E+04  0.20358657380E+04 0.  0.
        2    1    3    3  502    0  0.85932638026E+03  0.54180743277E+03  0.12802426013E+03  0.10239078734E+04  0.25500000920E-02 0. -1.
       -2    1    3    3    0  502 -0.85932638026E+03 -0.54180743277E+03 -0.16883389699E+01  0.10158739944E+04  0.25500000920E-02 0.  1.
</event>
<event>
 5   0  0.1210633E-04  0.1972481E+04  0.7818609E-02  0.8619596E-01
        1   -1    0    0  501    0  0.00000000000E+00  0.00000000000E+00  0.12291878360E+04  0.12291878361E+04  0.50400001928E-02 0. -1.
       -1   -1    0    0    0  501  0.00000000000E+00  0.00000000000E+00 -0.79131154749E+03  0.79131154750E+03  0.50400001928E-02 0.  1.
    10030    2    1    2    0    0  0.00000000000E+00  0.00000000000E+00  0.43787628855E+03  0.20204993836E+04  0.19724812077E+04 0.  0.
        2    1    3    3  502    0  0.48172691633E+03 -0.61150228196E+03  0.83921603373E+03  0.11446743703E+04  0.25500000920E-02 0. -1.
       -2    1    3    3    0  502 -0.48172691633E+03  0.61150228196E+03 -0.40133974518E+03  0.87582501325E+03  0.25500000920E-02 0.  1.
</event>
<event>
 5   0  0.2463085E-04  0.2004646E+04  0.7818609E-02  0.8604452E-01
        2   -1    0    0  501    0  0.00000000000E+00  0.00000000000E+00  0.16715698216E+04  0.16715698216E+04  0.25500000920E-02 0.  1.
       -2   -1    0    0    0  501  0.00000000000E+00  0.00000000000E+00 -0.60102258369E+03  0.60102258370E+03  0.25500000920E-02 0. -1.
    10030    2    1    2    0    0  0.00000000000E+00  0.00000000000E+00  0.10705472379E+04  0.22725924053E+04  0.20046458171E+04 0.  0.
        2    1    3    3  502    0  0.69756892470E+03 -0.23151891500E+03 -0.23732220083E+03  0.77235046431E+03  0.25500000920E-02 0. -1.
       -2    1    3    3    0  502 -0.69756892470E+03  0.23151891500E+03  0.13078694388E+04  0.15002419410E+04  0.25500000920E-02 0.  1.
</event>
<event>
 5   0  0.2540506E-04  0.2099390E+04  0.7818609E-02  0.8561512E-01
       -2   -1    0    0    0  501  0.00000000000E+00  0.00000000000E+00  0.87014552153E+03  0.87014552153E+03  0.25500000920E-02 0.  1.
        2   -1    0    0  501    0  0.00000000000E+00  0.00000000000E+00 -0.12662929526E+04  0.12662929526E+04  0.25500000920E-02 0. -1.
    10030    2    1    2    0    0  0.00000000000E+00  0.00000000000E+00 -0.39614743106E+03  0.21364384741E+04  0.20993895700E+04 0.  0.
        4    1    3    3  502    0  0.32957083444E+03  0.10584775578E+03  0.81039225169E+03  0.88122522480E+03  0.12699999809E+01 0.  1.
       -4    1    3    3    0  502 -0.32957083444E+03 -0.10584775578E+03 -0.12065396828E+04  0.12552132493E+04  0.12699999809E+01 0. -1.
</event>
<event>
 5   0  0.1207228E-04  0.1750211E+04  0.7818609E-02  0.8733234E-01
        1   -1    0    0  501    0  0.00000000000E+00  0.00000000000E+00  0.89565356140E+03  0.89565356141E+03  0.50400001928E-02 0.  1.
       -1   -1    0    0    0  501  0.00000000000E+00  0.00000000000E+00 -0.85502867842E+03  0.85502867844E+03  0.50400001928E-02 0. -1.
    10030    2    1    2    0    0  0.00000000000E+00  0.00000000000E+00  0.40624882974E+02  0.17506822398E+04  0.17502108227E+04 0.  0.
        1    1    3    3  502    0  0.22644317688E+03 -0.84514542518E+03  0.41161416119E+01  0.87496528200E+03  0.50400001928E-02 0.  1.
       -1    1    3    3    0  502 -0.22644317688E+03  0.84514542518E+03  0.36508741363E+02  0.87571695785E+03  0.50400001928E-02 0. -1.
</event>
<event>
 5   0  0.1231056E-04  0.1981248E+04  0.7818609E-02  0.8615438E-01
       -1   -1    0    0    0  501  0.00000000000E+00  0.00000000000E+00  0.73175718794E+03  0.73175718796E+03  0.50400001928E-02 0. -1.
        1   -1    0    0  501    0  0.00000000000E+00  0.00000000000E+00 -0.13410681249E+04  0.13410681249E+04  0.50400001928E-02 0.  1.
    10030    2    1    2    0    0  0.00000000000E+00  0.00000000000E+00 -0.60931093695E+03  0.20728253129E+04  0.19812483337E+04 0.  0.
        3    1    3    3  502    0  0.19929934004E+02  0.99007920078E+03 -0.33198176679E+03  0.10444452737E+04  0.10100000352E+00 0. -1.
       -3    1    3    3    0  502 -0.19929934004E+02 -0.99007920078E+03 -0.27732917016E+03  0.10283800391E+04  0.10100000352E+00 0.  1.
</event>
<event>
 5   0  0.2488886E-04  0.2033693E+04  0.7818609E-02  0.8591028E-01
        2   -1    0    0  501    0  0.00000000000E+00  0.00000000000E+00  0.23202492857E+04  0.23202492857E+04  0.25500000920E-02 0. -1.
       -2   -1    0    0    0  501  0.00000000000E+00  0.00000000000E+00 -0.44563159545E+03  0.44563159545E+03  0.25500000920E-02 0.  1.
    10030    2    1    2    0    0  0.00000000000E+00  0.00000000000E+00  0.18746176902E+04  0.27658808811E+04  0.20336925933E+04 0.  0.
        3    1    3    3  502    0  0.55475066102E+03  0.25586486233E+03 -0.16822094753E+03  0.63365086685E+03  0.10100000352E+00 0.  1.
       -3    1    3    3    0  502 -0.55475066102E+03 -0.25586486233E+03  0.20428386378E+04  0.21322300143E+04  0.10100000352E+00 0. -1.
</event>
<event>
 5   0  0.1324930E-04  0.1670008E+04  0.7818609E-02  0.8778657E-01
        1   -1    0    0  501    0  0.00000000000E+00  0.00000000000E+00  0.14270176637E+04  0.14270176637E+04  0.50400001928E-02 0. -1.
       -1   -1    0    0    0  501  0.00000000000E+00  0.00000000000E+00 -0.48859368012E+03  0.48859368014E+03  0.50400001928E-02 0.  1.
    10030    2    1    2    0    0  0.00000000000E+00  0.00000000000E+00  0.93842398353E+03  0.19156113438E+04  0.16700081580E+04 0.  0.
        5    1    3    3  502    0  0.32602241803E+03 -0.67334296760E+02 -0.40916369628E+03  0.52750501886E+03  0.46999998093E+01 0.  1.
       -5    1    3    3    0  502 -0.32602241803E+03  0.67334296760E+02  0.13475876798E+04  0.13881063249E+04  0.46999998093E+01 0. -1.
</event>
<event>
 5   0  0.1258546E-04  0.2035739E+04  0.7818609E-02  0.8590091E-01
        1   -1    0    0  501    0  0.00000000000E+00  0.00000000000E+00  0.11290104583E+04  0.11290104583E+04  0.50400001928E-02 0. -1.
       -1   -1    0    0    0  501  0.00000000000E+00  0.00000000000E+00 -0.91766958895E+03  0.91766958896E+03  0.50400001928E-02 0.  1.
    10030    2    1    2    0    0  0.00000000000E+00  0.00000000000E+00  0.21134086935E+03  0.20466800473E+04  0.20357392399E+04 0.  0.
        4    1    3    3  502    0  0.10125855506E+04  0.54150027562E+02  0.16905342962E+02  0.10141741104E+04  0.12699999809E+01 0.  1.
       -4    1    3    3    0  502 -0.10125855506E+04 -0.54150027562E+02  0.19443552639E+03  0.10325059368E+04  0.12699999809E+01 0. -1.
</event>
<event>
 5   0  0.2540506E-04  0.1998889E+04  0.7818609E-02  0.8607140E-01
        2   -1    0    0  501    0  0.00000000000E+00  0.00000000000E+00  0.15448229441E+04  0.15448229441E+04  0.25500000920E-02 0. -1.
       -2   -1    0    0    0  501  0.00000000000E+00  0.00000000000E+00 -0.64660436652E+03  0.64660436652E+03  0.25500000920E-02 0.  1.
    10030    2    1    2    0    0  0.00000000000E+00  0.00000000000E+00  0.89821857758E+03  0.21914273106E+04  0.19988889525E+04 0.  0.
        4    1    3    3  502    0 -0.19496830265E+03 -0.49357869251E+03  0.13775949890E+04  0.14762798283E+04  0.12699999809E+01 0. -1.
       -4    1    3    3    0  502  0.19496830265E+03  0.49357869251E+03 -0.47937641144E+03  0.71514748233E+03  0.12699999809E+01 0.  1.
</event>
<event>
 5   0  0.2421737E-04  0.2002453E+04  0.7818609E-02  0.8605475E-01
        2   -1    0    0  501    0  0.00000000000E+00  0.00000000000E+00  0.23212657163E+04  0.23212657163E+04  0.25500000920E-02 0.  1.
       -2   -1    0    0    0  501  0.00000000000E+00  0.00000000000E+00 -0.43185679569E+03  0.43185679570E+03  0.25500000920E-02 0. -1.
    10030    2    1    2    0    0  0.00000000000E+00  0.00000000000E+00  0.18894089206E+04  0.27531225120E+04  0.20024528700E+04 0.  0.
        1    1    3    3  502    0  0.42232838250E+03  0.86008952990E+02  0.21871956980E+04  0.22292563387E+04  0.50400001928E-02 0.  1.
       -1    1    3    3    0  502 -0.42232838250E+03 -0.86008952990E+02 -0.29778677736E+03  0.52386617323E+03  0.50400001928E-02 0. -1.
</event>
<event>
 5   0  0.1210633E-04  0.2021935E+04  0.7818609E-02  0.8596434E-01
       -1   -1    0    0    0  501  0.00000000000E+00  0.00000000000E+00  0.85180734681E+03  0.85180734683E+03  0.50400001928E-02 0.  1.
        1   -1    0    0  501    0  0.00000000000E+00  0.00000000000E+00 -0.11998666108E+04  0.11998666108E+04  0.50400001928E-02 0. -1.
    10030    2    1    2    0    0  0.00000000000E+00  0.00000000000E+00 -0.34805926396E+03  0.20516739576E+04  0.20219349092E+04 0.  0.
        2    1    3    3  502    0  0.37850389201E+03 -0.31646289574E+03 -0.10694147557E+04  0.11777359128E+04  0.25500000920E-02 0. -1.
       -2    1    3    3    0  502 -0.37850389201E+03  0.31646289574E+03  0.72135549174E+03  0.87393804478E+03  0.25500000920E-02 0.  1.
</event>
<event>
 5   0  0.2463085E-04  0.2005568E+04  0.7818609E-02  0.8604022E-01
       -2   -1    0    0    0  501  0.00000000000E+00  0.00000000000E+00  0.66063036358E+03  0.66063036358E+03  0.25500000920E-02 0.  1.
        2   -1    0    0  501    0  0.00000000000E+00  0.00000000000E+00 -0.15221457546E+04  0.15221457546E+04  0.25500000920E-02 0. -1.
    10030    2    1    2    0    0  0.00000000000E+00  0.00000000000E+00 -0.86151539100E+03  0.21827761182E+04  0.20055679527E+04 0.  0.
        2    1    3    3  502    0  0.18349708758E+03  0.98519050687E+03 -0.47006215193E+03  0.11069010537E+04  0.25500000920E-02 0. -1.
       -2    1    3    3    0  502 -0.18349708758E+03 -0.98519050687E+03 -0.39145323907E+03  0.10758750645E+04  0.25500000920E-02 0.  1.
</event>
<event>
 5   0  0.2421737E-04  0.1921076E+04  0.7818609E-02  0.8644436E-01
        2   -1    0    0  501    0  0.00000000000E+00  0.00000000000E+00  0.15244686167E+04  0.15244686167E+04  0.25500000920E-02 0.  1.
       -2   -1    0    0    0  501  0.00000000000E+00  0.00000000000E+00 -0.60521616372E+03  0.60521616373E+03  0.25500000920E-02 0. -1.
    10030    2    1    2    0    0  0.00000000000E+00  0.00000000000E+00  0.91925245300E+03  0.21296847805E+04  0.19210757902E+04 0.  0.
        1    1    3    3  502    0  0.13143456684E+02 -0.41328428223E+03  0.14207526297E+04  0.14797008763E+04  0.50400001928E-02 0.  1.
       -1    1    3    3    0  502 -0.13143456684E+02  0.41328428223E+03 -0.50150017672E+03  0.64998390416E+03  0.50400001928E-02 0. -1.
</event>
<event>
 5   0  0.2488886E-04  0.2038964E+04  0.7818609E-02  0.8588617E-01
       -2   -1    0    0    0  501  0.00000000000E+00  0.00000000000E+00  0.48154556835E+03  0.48154556835E+03  0.25500000920E-02 0.  1.
        2   -1    0    0  501    0  0.00000000000E+00  0.00000000000E+00 -0.21583494723E+04  0.21583494723E+04  0.25500000920E-02 0. -1.
    10030    2    1    2    0    0  0.00000000000E+00  0.00000000000E+00 -0.16768039040E+04  0.26398950407E+04  0.20389640736E+04 0.  0.
        3    1    3    3  502    0 -0.38954037205E+03 -0.70493909705E+03 -0.16476433754E+04  0.18339600690E+04  0.10100000352E+00 0. -1.
       -3    1    3    3    0  502  0.38954037205E+03  0.70493909705E+03 -0.29160528629E+02  0.80593497172E+03  0.10100000352E+00 0.  1.
</event>
<event>
 5   0  0.2463085E-04  0.2006229E+04  0.7818609E-02  0.8603714E-01
       -2   -1    0    0    0  501  0.00000000000E+00  0.00000000000E+00  0.69264810349E+03  0.69264810349E+03  0.25500000920E-02 0.  1.
        2   -1    0    0  501    0  0.00000000000E+00  0.00000000000E+00 -0.14527419120E+04  0.14527419120E+04  0.25500000920E-02 0. -1.
    10030    2    1    2    0    0  0.00000000000E+00  0.00000000000E+00 -0.76009380854E+03  0.21453900155E+04  0.20062292294E+04 0.  0.
        2    1    3    3  502    0  0.49764366320E+03 -0.40556009273E+03 -0.12042977438E+04  0.13647202131E+04  0.25500000920E-02 0. -1.
       -2    1    3    3    0  502 -0.49764366320E+03  0.40556009273E+03  0.44420393524E+03  0.78066980243E+03  0.25500000920E-02 0.  1.
</event>
<event>
 5   0  0.1324930E-04  0.2015535E+04  0.7818609E-02  0.8599392E-01
        1   -1    0    0  501    0  0.00000000000E+00  0.00000000000E+00  0.12044356193E+04  0.12044356193E+04  0.50400001928E-02 0.  1.
       -1   -1    0    0    0  501  0.00000000000E+00  0.00000000000E+00 -0.84321301502E+03  0.84321301504E+03  0.50400001928E-02 0. -1.
    10030    2    1    2    0    0  0.00000000000E+00  0.00000000000E+00  0.36122260427E+03  0.20476486343E+04  0.20155354524E+04 0.  0.
        5    1    3    3  502    0 -0.24161130351E+02  0.88242423358E+03  0.67448154014E+03  0.11109472203E+04  0.46999998093E+01 0.  1.
       -5    1    3    3    0  502  0.24161130351E+02 -0.88242423358E+03 -0.31325893587E+03  0.93670141407E+03  0.46999998093E+01 0. -1.
</event>
<event>
 5   0  0.2540506E-04  0.1884610E+04  0.7818609E-02  0.8662555E-01
       -2   -1    0    0    0  501  0.00000000000E+00  0.00000000000E+00  0.83840139530E+03  0.83840139530E+03  0.25500000920E-02 0.  1.
        2   -1    0    0  501    0  0.00000000000E+00  0.00000000000E+00 -0.10590852568E+04  0.10590852568E+04  0.25500000920E-02 0. -1.
    10030    2    1    2    0    0  0.00000000000E+00  0.00000000000E+00 -0.22068386149E+03  0.18974866521E+04  0.18846098345E+04 0.  0.
        4    1    3    3  502    0  0.46842500488E+02 -0.72148960694E+03  0.49810116612E+03  0.87797941740E+03  0.12699999809E+01 0.  1.
       -4    1    3    3    0  502 -0.46842500488E+02  0.72148960694E+03 -0.71878502761E+03  0.10195072347E+04  0.12699999809E+01 0. -1.
</event>
<event>
 5   0  0.1231056E-04  0.2006469E+04  0.7818609E-02  0.8603602E-01
       -1   -1    0    0    0  501  0.00000000000E+00  0.00000000000E+00  0.82286936096E+03  0.82286936098E+03  0.50400001928E-02 0. -1.
        1   -1    0    0  501    0  0.00000000000E+00  0.00000000000E+00 -0.12231340904E+04  0.12231340904E+04  0.50400001928E-02 0.  1.
    10030    2    1    2    0    0  0.00000000000E+00  0.00000000000E+00 -0.40026472944E+03  0.20460034514E+04  0.20064691050E+04 0.  0.
        3    1    3    3  502    0  0.74643100818E+03 -0.56246913488E+03 -0.57193808088E+03  0.10957390001E+04  0.10100000352E+00 0. -1.
       -3    1    3    3    0  502 -0.74643100818E+03  0.56246913488E+03  0.17167335145E+03  0.95026445133E+03  0.10100000352E+00 0.  1.
</event>
<event>
 5   0  0.1207228E-04  0.2006416E+04  0.7818609E-02  0.8603627E-01
       -1   -1    0    0    0  501  0.00000000000E+00  0.00000000000E+00  0.18919088491E+04  0.18919088491E+04  0.50400001928E-02 0. -1.
        1   -1    0    0  501    0  0.00000000000E+00  0.00000000000E+00 -0.53196346464E+03  0.53196346466E+03  0.50400001928E-02 0.  1.
    10030    2    1    2    0    0  0.00000000000E+00  0.00000000000E+00  0.13599453845E+04  0.24238723138E+04  0.20064160946E+04 0.  0.
        1    1    3    3  502    0 -0.73664194367E+03 -0.51895381558E+03  0.12127150670E+04  0.15108382606E+04  0.50400001928E-02 0. -1.
       -1    1    3    3    0  502  0.73664194367E+03  0.51895381558E+03  0.14723031748E+03  0.91303405319E+03  0.50400001928E-02 0.  1.
</event>
<event>
 5   0  0.2488886E-04  0.2006516E+04  0.7818609E-02  0.8603580E-01
        2   -1    0    0  501    0  0.00000000000E+00  0.00000000000E+00  0.12507746441E+04  0.12507746441E+04  0.25500000920E-02 0. -1.
       -2   -1    0    0    0  501  0.00000000000E+00  0.00000000000E+00 -0.80472278240E+03  0.80472278240E+03  0.25500000920E-02 0.  1.
    10030    2    1    2    0    0  0.00000000000E+00  0.00000000000E+00  0.44605186171E+03  0.20554974265E+04  0.20065162364E+04 0.  0.
        3    1    3    3  502    0 -0.35650711930E+03 -0.17455555391E+03 -0.72085636665E+03  0.82292215857E+03  0.10100000352E+00 0.  1.
       -3    1    3    3    0  502  0.35650711930E+03  0.17455555391E+03  0.11669082284E+04  0.12325752679E+04  0.10100000352E+00 0. -1.
</event>
<event>
 5   0  0.9099125E-05  0.1984548E+04  0.7818609E-02  0.8613879E-01
        3   -1    0    0  501    0  0.00000000000E+00  0.00000000000E+00  0.17085679814E+04  0.17085679843E+04  0.10100000352E+00 0. -1.
       -3   -1    0    0    0  501  0.00000000000E+00  0.00000000000E+00 -0.57627634687E+03  0.57627635572E+03  0.10100000352E+00 0.  1.
    10030    2    1    2    0    0  0.00000000000E+00  0.00000000000E+00  0.11322916345E+04  0.22848443401E+04  0.19845476343E+04 0.  0.
        1    1    3    3  502    0 -0.27836287013E+03 -0.55564902712E+03  0.14567444588E+04  0.15837727574E+04  0.50400001928E-02 0. -1.
       -1    1    3    3    0  502  0.27836287013E+03  0.55564902712E+03 -0.32445282431E+03  0.70107158267E+03  0.50400001928E-02 0.  1.
</event>
<event>
 5   0  0.1231056E-04  0.1995549E+04  0.7818609E-02  0.8608704E-01
       -1   -1    0    0    0  501  0.00000000000E+00  0.00000000000E+00  0.12001051596E+04  0.12001051596E+04  0.50400001928E-02 0. -1.
        1   -1    0    0  501    0  0.00000000000E+00  0.00000000000E+00 -0.82955586338E+03  0.82955586339E+03  0.50400001928E-02 0.  1.
    10030    2    1    2    0    0  0.00000000000E+00  0.00000000000E+00  0.37054929620E+03  0.20296610230E+04  0.19955493197E+04 0.  0.
        3    1    3    3  502    0 -0.82514457954E+01 -0.77802751093E+03 -0.45003004745E+03  0.89884478523E+03  0.10100000352E+00 0.  1.
       -3    1    3    3    0  502  0.82514457954E+01  0.77802751093E+03  0.82057934365E+03  0.11308162377E+04  0.10100000352E+00 0. -1.
</event>
<event>
 5   0  0.1258546E-04  0.2015947E+04  0.7818609E-02  0.8599201E-01
       -1   -1    0    0    0  501  0.00000000000E+00  0.00000000000E+00  0.70703974572E+03  0.70703974574E+03  0.50400001928E-02 0. -1.
        1   -1    0    0  501    0  0.00000000000E+00  0.00000000000E+00 -0.14369924892E+04  0.14369924892E+04  0.50400001928E-02 0.  1.
    10030    2    1    2    0    0  0.00000000000E+00  0.00000000000E+00 -0.72995274347E+03  0.21440322349E+04  0.20159472257E+04 0.  0.
        4    1    3    3  502    0  0.77240812690E+03 -0.94181004541E+02  0.31645458447E+03  0.84001755520E+03  0.12699999809E+01 0. -1.
       -4    1    3    3    0  502 -0.77240812690E+03  0.94181004541E+02 -0.10464073279E+04  0.13040146797E+04  0.12699999809E+01 0.  1.
</event>
<event>
 5   0  0.1324930E-04  0.1890267E+04  0.7818609E-02  0.8659716E-01
        1   -1    0    0  501    0  0.00000000000E+00  0.00000000000E+00  0.43112496059E+03  0.43112496062E+03  0.50400001928E-02 0.  1.
       -1   -1    0    0    0  501  0.00000000000E+00  0.00000000000E+00 -0.20719690347E+04  0.20719690348E+04  0.50400001928E-02 0. -1.
    10030    2    1    2    0    0  0.00000000000E+00  0.00000000000E+00 -0.16408440742E+04  0.25030939954E+04  0.18902672494E+04 0.  0.
        5    1    3    3  502    0 -0.33187812706E+03  0.87187651499E+03 -0.61984280740E+03  0.11200620271E+04  0.46999998093E+01 0.  1.
       -5    1    3    3    0  502  0.33187812706E+03 -0.87187651499E+03 -0.10210012668E+04  0.13830319683E+04  0.46999998093E+01 0. -1.
</event>
<event>
 5   0  0.1258546E-04  0.2014028E+04  0.7818609E-02  0.8600090E-01
        1   -1    0    0  501    0  0.00000000000E+00  0.00000000000E+00  0.62482583701E+03  0.62482583703E+03  0.50400001928E-02 0. -1.
       -1   -1    0    0    0  501  0.00000000000E+00  0.00000000000E+00 -0.16229749717E+04  0.16229749717E+04  0.50400001928E-02 0.  1.
    10030    2    1    2    0    0  0.00000000000E+00  0.00000000000E+00 -0.99814913468E+03  0.22478008087E+04  0.20140275025E+04 0.  0.
        4    1    3    3  502    0  0.87107666153E+03  0.10355923064E+02  0.64728000048E+02  0.87354056705E+03  0.12699999809E+01 0. -1.
       -4    1    3    3    0  502 -0.87107666153E+03 -0.10355923064E+02 -0.10628771347E+04  0.13742602417E+04  0.12699999809E+01 0.  1.
</event>
<event>
 5   0  0.2421737E-04  0.1977989E+04  0.7818609E-02  0.8616981E-01
        2   -1    0    0  501    0  0.00000000000E+00  0.00000000000E+00  0.66906215137E+03  0.66906215138E+03  0.25500000920E-02 0.  1.
       -2   -1    0    0    0  501  0.00000000000E+00  0.00000000000E+00 -0.14619125083E+04  0.14619125083E+04  0.25500000920E-02 0. -1.
    10030    2    1    2    0    0  0.00000000000E+00  0.00000000000E+00 -0.79285035690E+03  0.21309746597E+04  0.19779892092E+04 0.  0.
        1    1    3    3  502    0 -0.62175789796E+03 -0.35351763905E+03 -0.11323013355E+04  0.13392773869E+04  0.50400001928E-02 0. -1.
       -1    1    3    3    0  502  0.62175789796E+03  0.35351763905E+03  0.33945097856E+03  0.79169727274E+03  0.50400001928E-02 0.  1.
</event>
<event>
 5   0  0.1258546E-04  0.2018976E+04  0.7818609E-02  0.8597800E-01
       -1   -1    0    0    0  501  0.00000000000E+00  0.00000000000E+00  0.11724691741E+04  0.11724691741E+04  0.50400001928E-02 0. -1.
        1   -1    0    0  501    0  0.00000000000E+00  0.00000000000E+00 -0.86916271882E+03  0.86916271884E+03  0.50400001928E-02 0.  1.
    10030    2    1    2    0    0  0.00000000000E+00  0.00000000000E+00  0.30330645529E+03  0.20416318930E+04  0.20189764685E+04 0.  0.
        4    1    3    3  502    0  0.11445878840E+03 -0.97234546829E+03  0.40039794656E+03  0.10577696595E+04  0.12699999809E+01 0.  1.
       -4    1    3    3    0  502 -0.11445878840E+03  0.97234546829E+03 -0.97091491268E+02  0.98386223351E+03  0.12699999809E+01 0. -1.
</event>
<event>
 5   0  0.2488886E-04  0.1987024E+04  0.7818609E-02  0.8612712E-01
        2   -1    0    0  501    0  0.00000000000E+00  0.00000000000E+00  0.96998799547E+03  0.96998799547E+03  0.25500000920E-02 0. -1.
       -2   -1    0    0    0  501  0.00000000000E+00  0.00000000000E+00 -0.10176061526E+04  0.10176061526E+04  0.25500000920E-02 0.  1.
    10030    2    1    2    0    0  0.00000000000E+00  0.00000000000E+00 -0.47618157136E+02  0.19875941481E+04  0.19870236558E+04 0.  0.
        3    1    3    3  502    0  0.78716499033E+03  0.54638857915E+03  0.23874778731E+03  0.98750681900E+03  0.10100000352E+00 0.  1.
       -3    1    3    3    0  502 -0.78716499033E+03 -0.54638857915E+03 -0.28636594444E+03  0.10000873291E+04  0.10100000352E+00 0. -1.
</event>
<event>
 5   0  0.2540506E-04  0.2021369E+04  0.7818609E-02  0.8596695E-01
       -2   -1    0    0    0  501  0.00000000000E+00  0.00000000000E+00  0.10749433643E+04  0.10749433643E+04  0.25500000920E-02 0. -1.
        2   -1    0    0  501    0  0.00000000000E+00  0.00000000000E+00 -0.95026706795E+03  0.95026706795E+03  0.25500000920E-02 0.  1.
    10030    2    1    2    0    0  0.00000000000E+00  0.00000000000E+00  0.12467629635E+03  0.20252104323E+04  0.20213691192E+04 0.  0.
        4    1    3    3  502    0 -0.76716775369E+03  0.61125088127E+03 -0.18165629650E+03  0.99758439498E+03  0.12699999809E+01 0.  1.
       -4    1    3    3    0  502  0.76716775369E+03 -0.61125088127E+03  0.30633259285E+03  0.10276260373E+04  0.12699999809E+01 0. -1.
</event>
<event>
 5   0  0.1258546E-04  0.2013538E+04  0.7818609E-02  0.8600317E-01
        1   -1    0    0  501    0  0.00000000000E+00  0.00000000000E+00  0.16203547547E+04  0.16203547547E+04  0.50400001928E-02 0.  1.
       -1   -1    0    0    0  501  0.00000000000E+00  0.00000000000E+00 -0.62553184178E+03  0.62553184180E+03  0.50400001928E-02 0. -1.
    10030    2    1    2    0    0  0.00000000000E+00  0.00000000000E+00  0.99482291295E+03  0.22458865965E+04  0.20135376769E+04 0.  0.
        4    1    3    3  502    0  0.42796659820E+03 -0.54509139352E+03  0.13119555631E+04  0.14837483105E+04  0.12699999809E+01 0.  1.
       -4    1    3    3    0  502 -0.42796659820E+03  0.54509139352E+03 -0.31713265010E+03  0.76213828609E+03  0.12699999809E+01 0. -1.
</event>
<event>
 5   0  0.1207228E-04  0.1739151E+04  0.7818609E-02  0.8739345E-01
        1   -1    0    0  501    0  0.00000000000E+00  0.00000000000E+00  0.14337657116E+04  0.14337657116E+04  0.50400001928E-02 0. -1.
       -1   -1    0    0    0  501  0.00000000000E+00  0.00000000000E+00 -0.52739548343E+03  0.52739548346E+03  0.50400001928E-02 0.  1.
    10030    2    1    2    0    0  0.00000000000E+00  0.00000000000E+00  0.90637022816E+03  0.19611611951E+04  0.17391510120E+04 0.  0.
        1    1    3    3  502    0  0.46414997526E+03 -0.42565821294E+02  0.12810051563E+04  0.13631658957E+04  0.50400001928E-02 0. -1.
       -1    1    3    3    0  502 -0.46414997526E+03  0.42565821294E+02 -0.37463492813E+03  0.59799529938E+03  0.50400001928E-02 0.  1.
</event>
<event>
 5   0  0.2463085E-04  0.1957813E+04  0.7818609E-02  0.8626602E-01
       -2   -1    0    0    0  501  0.00000000000E+00  0.00000000000E+00  0.63757307258E+03  0.63757307258E+03  0.25500000920E-02 0.  1.
        2   -1    0    0  501    0  0.00000000000E+00  0.00000000000E+00 -0.15029779495E+04  0.15029779495E+04  0.25500000920E-02 0. -1.
    10030    2    1    2    0    0  0.00000000000E+00  0.00000000000E+00 -0.86540487696E+03  0.21405510221E+04  0.19578133408E+04 0.  0.
        2    1    3    3  502    0  0.77110069806E+03  0.27701733431E+03  0.15294637692E+03  0.83350313993E+03  0.25500000920E-02 0.  1.
       -2    1    3    3    0  502 -0.77110069806E+03 -0.27701733431E+03 -0.10183512539E+04  0.13070478822E+04  0.25500000920E-02 0. -1.
</event>
<event>
 5   0  0.2488886E-04  0.1997098E+04  0.7818609E-02  0.8607978E-01
       -2   -1    0    0    0  501  0.00000000000E+00  0.00000000000E+00  0.17522004671E+04  0.17522004671E+04  0.25500000920E-02 0.  1.
        2   -1    0    0  501    0  0.00000000000E+00  0.00000000000E+00 -0.56905614523E+03  0.56905614524E+03  0.25500000920E-02 0. -1.
    10030    2    1    2    0    0  0.00000000000E+00  0.00000000000E+00  0.11831443219E+04  0.23212566124E+04  0.19970983386E+04 0.  0.
        3    1    3    3  502    0 -0.48583538337E+02 -0.16663196039E+03  0.17345322648E+04  0.17431949857E+04  0.10100000352E+00 0.  1.
       -3    1    3    3    0  502  0.48583538337E+02  0.16663196039E+03 -0.55138794290E+03  0.57806162665E+03  0.10100000352E+00 0. -1.
</event>
<event>
 5   0  0.1258546E-04  0.2007609E+04  0.7818609E-02  0.8603071E-01
        1   -1    0    0  501    0  0.00000000000E+00  0.00000000000E+00  0.12380016817E+04  0.12380016817E+04  0.50400001928E-02 0. -1.
       -1   -1    0    0    0  501  0.00000000000E+00  0.00000000000E+00 -0.81391142393E+03  0.81391142394E+03  0.50400001928E-02 0.  1.
    10030    2    1    2    0    0  0.00000000000E+00  0.00000000000E+00  0.42409025778E+03  0.20519131057E+04  0.20076092365E+04 0.  0.
        4    1    3    3  502    0 -0.20639340290E+03 -0.64504980979E+03 -0.54520627130E+03  0.86944751713E+03  0.12699999809E+01 0.  1.
       -4    1    3    3    0  502  0.20639340290E+03  0.64504980979E+03  0.96929652908E+03  0.11824655885E+04  0.12699999809E+01 0. -1.
</event>
<event>
 5   0  0.1210633E-04  0.2065651E+04  0.7818609E-02  0.8576527E-01
       -1   -1    0    0    0  501  0.00000000000E+00  0.00000000000E+00  0.12930651874E+04  0.12930651874E+04  0.50400001928E-02 0. -1.
        1   -1    0    0  501    0  0.00000000000E+00  0.00000000000E+00 -0.82496152425E+03  0.82496152427E+03  0.50400001928E-02 0.  1.
    10030    2    1    2    0    0  0.00000000000E+00  0.00000000000E+00  0.46810366311E+03  0.21180267116E+04  0.20656514982E+04 0.  0.
        2    1    3    3  502    0 -0.35828115669E+03  0.57424099702E+03  0.10339675856E+04  0.12358022002E+04  0.25500000920E-02 0. -1.
       -2    1    3    3    0  502  0.35828115669E+03 -0.57424099702E+03 -0.56586392247E+03  0.88222451148E+03  0.25500000920E-02 0.  1.
</event>
<event>
 5   0  0.1207228E-04  0.2011646E+04  0.7818609E-02  0.8601195E-01
        1   -1    0    0  501    0  0.00000000000E+00  0.00000000000E+00  0.11769050657E+04  0.11769050657E+04  0.50400001928E-02 0.  1.
       -1   -1    0    0    0  501  0.00000000000E+00  0.00000000000E+00 -0.85961078664E+03  0.85961078665E+03  0.50400001928E-02 0. -1.
    10030    2    1    2    0    0  0.00000000000E+00  0.00000000000E+00  0.31729427905E+03  0.20365158524E+04  0.20116463798E+04 0.  0.
        1    1    3    3  502    0 -0.14892312776E+03 -0.31290463791E+03  0.11145625227E+04  0.11671919411E+04  0.50400001928E-02 0.  1.
       -1    1    3    3    0  502  0.14892312776E+03  0.31290463791E+03 -0.79726824361E+03  0.86932391126E+03  0.50400001928E-02 0. -1.
</event>
<event>
 5   0  0.2463085E-04  0.1974133E+04  0.7818609E-02  0.8618811E-01
       -2   -1    0    0    0  501  0.00000000000E+00  0.00000000000E+00  0.14324024199E+04  0.14324024199E+04  0.25500000920E-02 0.  1.
        2   -1    0    0  501    0  0.00000000000E+00  0.00000000000E+00 -0.68018594317E+03  0.68018594318E+03  0.25500000920E-02 0. -1.
    10030    2    1    2    0    0  0.00000000000E+00  0.00000000000E+00  0.75221647670E+03  0.21125883631E+04  0.19741327118E+04 0.  0.
        2    1    3    3  502    0  0.26538338691E+03  0.85996492575E+03  0.80991825558E+03  0.12107582733E+04  0.25500000920E-02 0.  1.
       -2    1    3    3    0  502 -0.26538338691E+03 -0.85996492575E+03 -0.57701778879E+02  0.90183008979E+03  0.25500000920E-02 0. -1.
</event>
<event>
 5   0  0.1324930E-04  0.2041412E+04  0.7818609E-02  0.8587500E-01
       -1   -1    0    0    0  501  0.00000000000E+00  0.00000000000E+00  0.12805633131E+04  0.12805633131E+04  0.50400001928E-02 0. -1.
        1   -1    0    0  501    0  0.00000000000E+00  0.00000000000E+00 -0.81358022878E+03  0.81358022880E+03  0.50400001928E-02 0.  1.
    10030    2    1    2    0    0  0.00000000000E+00  0.00000000000E+00  0.46698308429E+03  0.20941435419E+04  0.20414122496E+04 0.  0.
        5    1    3    3  502    0  0.66732907570E+02 -0.15520358130E+03  0.12661100950E+04  0.12773403209E+04  0.46999998093E+01 0. -1.
       -5    1    3    3    0  502 -0.66732907570E+02  0.15520358130E+03 -0.79912701072E+03  0.81680322102E+03  0.46999998093E+01 0.  1.
</event>
<event>
 5   0  0.1231056E-04  0.1995651E+04  0.7818609E-02  0.8608657E-01
       -1   -1    0    0    0  501  0.00000000000E+00  0.00000000000E+00  0.63029969507E+03  0.63029969509E+03  0.50400001928E-02 0.  1.
        1   -1    0    0  501    0  0.00000000000E+00  0.00000000000E+00 -0.15796539913E+04  0.15796539914E+04  0.50400001928E-02 0. -1.
    10030    2    1    2    0    0  0.00000000000E+00  0.00000000000E+00 -0.94935429628E+03  0.22099536864E+04  0.19956507000E+04 0.  0.
        3    1    3    3  502    0 -0.49989005305E+03 -0.85350793389E+03 -0.32906734291E+03  0.10424256255E+04  0.10100000352E+00 0. -1.
       -3    1    3    3    0  502  0.49989005305E+03  0.85350793389E+03 -0.62028695337E+03  0.11675280609E+04  0.10100000352E+00 0.  1.
</event>
<event>
 5   0  0.2488886E-04  0.1980127E+04  0.7818609E-02  0.8615969E-01
        2   -1    0    0  501    0  0.00000000000E+00  0.00000000000E+00  0.20031485210E+04  0.20031485210E+04  0.25500000920E-02 0.  1.
       -2   -1    0    0    0  501  0.00000000000E+00  0.00000000000E+00 -0.48934244723E+03  0.48934244723E+03  0.25500000920E-02 0. -1.
    10030    2    1    2    0    0  0.00000000000E+00  0.00000000000E+00  0.15138060737E+04  0.24924909682E+04  0.19801268640E+04 0.  0.
        3    1    3    3  502    0 -0.31633487848E+03 -0.23444667331E+03  0.19003558243E+04  0.19407177196E+04  0.10100000352E+00 0.  1.
       -3    1    3    3    0  502  0.31633487848E+03  0.23444667331E+03 -0.38654975059E+03  0.55177324858E+03  0.10100000352E+00 0. -1.
</event>
<event>
 5   0  0.2488886E-04  0.1881872E+04  0.7818609E-02  0.8663933E-01
       -2   -1    0    0    0  501  0.00000000000E+00  0.00000000000E+00  0.50842434746E+03  0.50842434747E+03  0.25500000920E-02 0.  1.
        2   -1    0    0  501    0  0.00000000000E+00  0.00000000000E+00 -0.17413815640E+04  0.17413815640E+04  0.25500000920E-02 0. -1.
    10030    2    1    2    0    0  0.00000000000E+00  0.00000000000E+00 -0.12329572166E+04  0.22498059115E+04  0.18818722437E+04 0.  0.
        3    1    3    3  502    0  0.22161005624E+02 -0.46492655243E+03 -0.15941092132E+04  0.16606721540E+04  0.10100000352E+00 0. -1.
       -3    1    3    3    0  502 -0.22161005624E+02  0.46492655243E+03  0.36115199664E+03  0.58913375748E+03  0.10100000352E+00 0.  1.
</event>
<event>
 5   0  0.1207228E-04  0.1985325E+04  0.7818609E-02  0.8613513E-01
       -1   -1    0    0    0  501  0.00000000000E+00  0.00000000000E+00  0.66368722410E+03  0.66368722412E+03  0.50400001928E-02 0. -1.
        1   -1    0    0  501    0  0.00000000000E+00  0.00000000000E+00 -0.14847035955E+04  0.14847035955E+04  0.50400001928E-02 0.  1.
    10030    2    1    2    0    0  0.00000000000E+00  0.00000000000E+00 -0.82101637140E+03  0.21483908196E+04  0.19853249688E+04 0.  0.
        1    1    3    3  502    0  0.43446775039E+03 -0.85442327537E+03 -0.68972737146E+03  0.11809001679E+04  0.50400001928E-02 0.  1.
       -1    1    3    3    0  502 -0.43446775039E+03  0.85442327537E+03 -0.13128899993E+03  0.96749065171E+03  0.50400001928E-02 0. -1.
</event>
<event>
 5   0  0.2421737E-04  0.2032979E+04  0.7818609E-02  0.8591355E-01
        2   -1    0    0  501    0  0.00000000000E+00  0.00000000000E+00  0.10738096961E+04  0.10738096961E+04  0.25500000920E-02 0. -1.
       -2   -1    0    0    0  501  0.00000000000E+00  0.00000000000E+00 -0.96222916463E+03  0.96222916463E+03  0.25500000920E-02 0.  1.
    10030    2    1    2    0    0  0.00000000000E+00  0.00000000000E+00  0.11158053152E+03  0.20360388608E+04  0.20329791016E+04 0.  0.
        1    1    3    3  502    0 -0.84071708049E+03 -0.69069954861E+02 -0.51222747108E+03  0.98689049557E+03  0.50400001928E-02 0.  1.
       -1    1    3    3    0  502  0.84071708049E+03  0.69069954861E+02  0.62380800260E+03  0.10491483652E+04  0.50400001928E-02 0. -1.
</event>
<event>
 5   0  0.1210633E-04  0.2009723E+04  0.7818609E-02  0.8602088E-01
        1   -1    0    0  501    0  0.00000000000E+00  0.00000000000E+00  0.15256306412E+04  0.15256306412E+04  0.50400001928E-02 0.  1.
       -1   -1    0    0    0  501  0.00000000000E+00  0.00000000000E+00 -0.66185500260E+03  0.66185500262E+03  0.50400001928E-02 0. -1.
    10030    2    1    2    0    0  0.00000000000E+00  0.00000000000E+00  0.86377563857E+03  0.21874856438E+04  0.20097226396E+04 0.  0.
        2    1    3    3  502    0  0.43074372522E+03  0.35429601664E+03 -0.47791731125E+03  0.73448674639E+03  0.25500000920E-02 0. -1.
       -2    1    3    3    0  502 -0.43074372522E+03 -0.35429601664E+03  0.13416929498E+04  0.14529988974E+04  0.25500000920E-02 0.  1.
</event>
<event>
 5   0  0.1207228E-04  0.2038956E+04  0.7818609E-02  0.8588621E-01
       -1   -1    0    0    0  501  0.00000000000E+00  0.00000000000E+00  0.89595329417E+03  0.89595329418E+03  0.50400001928E-02 0. -1.
        1   -1    0    0  501    0  0.00000000000E+00  0.00000000000E+00 -0.11600330850E+04  0.11600330850E+04  0.50400001928E-02 0.  1.
    10030    2    1    2    0    0  0.00000000000E+00  0.00000000000E+00 -0.26407979085E+03  0.20559863792E+04  0.20389560700E+04 0.  0.
        1    1    3    3  502    0 -0.33269599914E+03 -0.13994357304E+03  0.82937256189E+03  0.90450521166E+03  0.50400001928E-02 0. -1.
       -1    1    3    3    0  502  0.33269599914E+03  0.13994357304E+03 -0.10934523527E+04  0.11514811676E+04  0.50400001928E-02 0.  1.
</event>
<event>
 5   0  0.2596061E-04  0.2090775E+04  0.7818609E-02  0.8565318E-01
       -2   -1    0    0    0  501  0.00000000000E+00  0.00000000000E+00  0.96495638907E+03  0.96495638907E+03  0.25500000920E-02 0.  1.
        2   -1    0    0  501    0  0.00000000000E+00  0.00000000000E+00 -0.11325229741E+04  0.11325229741E+04  0.25500000920E-02 0. -1.
    10030    2    1    2    0    0  0.00000000000E+00  0.00000000000E+00 -0.16756658502E+03  0.20974793632E+04  0.20907752434E+04 0.  0.
        5    1    3    3  502    0  0.27748155878E+03 -0.60392774234E+03  0.72570457725E+03  0.98407009754E+03  0.46999998093E+01 0.  1.
       -5    1    3    3    0  502 -0.27748155878E+03  0.60392774234E+03 -0.89327116227E+03  0.11134092656E+04  0.46999998093E+01 0. -1.
</event>
<event>
 5   0  0.2421737E-04  0.1921713E+04  0.7818609E-02  0.8644123E-01
        2   -1    0    0  501    0  0.00000000000E+00  0.00000000000E+00  0.21576145545E+04  0.21576145545E+04  0.25500000920E-02 0.  1.
       -2   -1    0    0    0  501  0.00000000000E+00  0.00000000000E+00 -0.42790073678E+03  0.42790073678E+03  0.25500000920E-02 0. -1.
    10030    2    1    2    0    0  0.00000000000E+00  0.00000000000E+00  0.17297138177E+04  0.25855152913E+04  0.19217126295E+04 0.  0.
        1    1    3    3  502    0  0.55040030672E+03  0.40435485377E+03  0.17741888215E+04  0.19011021329E+04  0.50400001928E-02 0.  1.
       -1    1    3    3    0  502 -0.55040030672E+03 -0.40435485377E+03 -0.44475003757E+02  0.68441315839E+03  0.50400001928E-02 0. -1.
</event>
<event>
 5   0  0.1210633E-04  0.2065720E+04  0.7818609E-02  0.8576496E-01
        1   -1    0    0  501    0  0.00000000000E+00  0.00000000000E+00  0.19603990207E+04  0.19603990207E+04  0.50400001928E-02 0.  1.
       -1   -1    0    0    0  501  0.00000000000E+00  0.00000000000E+00 -0.54417466935E+03  0.54417466937E+03  0.50400001928E-02 0. -1.
    10030    2    1    2    0    0  0.00000000000E+00  0.00000000000E+00  0.14162243514E+04  0.25045736901E+04  0.20657197186E+04 0.  0.
        2    1    3    3  502    0 -0.88559434141E+03  0.46819047576E+03  0.10132052073E+04  0.14248033027E+04  0.25500000920E-02 0.  1.
       -2    1    3    3    0  502  0.88559434141E+03 -0.46819047576E+03  0.40301914406E+03  0.10797703874E+04  0.25500000920E-02 0. -1.
</event>
<event>
 5   0  0.1210633E-04  0.2001515E+04  0.7818609E-02  0.8605913E-01
       -1   -1    0    0    0  501  0.00000000000E+00  0.00000000000E+00  0.12099425884E+04  0.12099425884E+04  0.50400001928E-02 0. -1.
        1   -1    0    0  501    0  0.00000000000E+00  0.00000000000E+00 -0.82773820377E+03  0.82773820378E+03  0.50400001928E-02 0.  1.
    10030    2    1    2    0    0  0.00000000000E+00  0.00000000000E+00  0.38220438464E+03  0.20376807922E+04  0.20015151309E+04 0.  0.
        2    1    3    3  502    0 -0.40722250666E+03 -0.71380989763E+03  0.77252660883E+03  0.11278972033E+04  0.25500000920E-02 0. -1.
       -2    1    3    3    0  502  0.40722250666E+03  0.71380989763E+03 -0.39032222419E+03  0.90978358888E+03  0.25500000920E-02 0.  1.
</event>
<event>
 5   0  0.2463085E-04  0.2010711E+04  0.7818609E-02  0.8601629E-01
        2   -1    0    0  501    0  0.00000000000E+00  0.00000000000E+00  0.12619515283E+04  0.12619515283E+04  0.25500000920E-02 0. -1.
       -2   -1    0    0    0  501  0.00000000000E+00  0.00000000000E+00 -0.80093345607E+03  0.80093345607E+03  0.25500000920E-02 0.  1.
    10030    2    1    2    0    0  0.00000000000E+00  0.00000000000E+00  0.46101807219E+03  0.20628849843E+04  0.20107105201E+04 0.  0.
        2    1    3    3  502    0  0.12377474211E+03  0.19706799059E+03 -0.77292041474E+03  0.80719387214E+03  0.25500000920E-02 0.  1.
       -2    1    3    3    0  502 -0.12377474211E+03 -0.19706799059E+03  0.12339384869E+04  0.12556911122E+04  0.25500000920E-02 0. -1.
</event>
<event>
 5   0  0.1231056E-04  0.1979881E+04  0.7818609E-02  0.8616085E-01
        1   -1    0    0  501    0  0.00000000000E+00  0.00000000000E+00  0.14728226462E+04  0.14728226462E+04  0.50400001928E-02 0.  1.
       -1   -1    0    0    0  501  0.00000000000E+00  0.00000000000E+00 -0.66537725403E+03  0.66537725405E+03  0.50400001928E-02 0. -1.
    10030    2    1    2    0    0  0.00000000000E+00  0.00000000000E+00  0.80744539220E+03  0.21381999003E+04  0.19798814995E+04 0.  0.
        3    1    3    3  502    0  0.54064669356E+03  0.80701986427E+03  0.19767094063E+03  0.99128891831E+03  0.10100000352E+00 0. -1.
       -3    1    3    3    0  502 -0.54064669356E+03 -0.80701986427E+03  0.60977445158E+03  0.11469109820E+04  0.10100000352E+00 0.  1.
</event>
<event>
 5   0  0.2596061E-04  0.1968325E+04  0.7818609E-02  0.8621575E-01
        2   -1    0    0  501    0  0.00000000000E+00  0.00000000000E+00  0.91913181174E+03  0.91913181175E+03  0.25500000920E-02 0.  1.
       -2   -1    0    0    0  501  0.00000000000E+00  0.00000000000E+00 -0.10537943459E+04  0.10537943459E+04  0.25500000920E-02 0. -1.
    10030    2    1    2    0    0  0.00000000000E+00  0.00000000000E+00 -0.13466253411E+03  0.19729261576E+04  0.19683250812E+04 0.  0.
        5    1    3    3  502    0 -0.42695200106E+03 -0.28146750839E+03 -0.91015462613E+03  0.10439901834E+04  0.46999998093E+01 0. -1.
       -5    1    3    3    0  502  0.42695200106E+03  0.28146750839E+03  0.77549209202E+03  0.92893597425E+03  0.46999998093E+01 0.  1.
</event>
<event>
 5   0  0.1231056E-04  0.1996162E+04  0.7818609E-02  0.8608417E-01
       -1   -1    0    0    0  501  0.00000000000E+00  0.00000000000E+00  0.71541606352E+03  0.71541606354E+03  0.50400001928E-02 0. -1.
        1   -1    0    0  501    0  0.00000000000E+00  0.00000000000E+00 -0.13924284947E+04  0.13924284947E+04  0.50400001928E-02 0.  1.
    10030    2    1    2    0    0  0.00000000000E+00  0.00000000000E+00 -0.67701243119E+03  0.21078445583E+04  0.19961620299E+04 0.  0.
        3    1    3    3  502    0  0.65349512824E+03  0.47964894667E+02  0.45648298944E+03  0.79858202059E+03  0.10100000352E+00 0. -1.
       -3    1    3    3    0  502 -0.65349512824E+03 -0.47964894667E+02 -0.11334954206E+04  0.13092625377E+04  0.10100000352E+00 0.  1.
</event>
<event>
 5   0  0.2463085E-04  0.2007691E+04  0.7818609E-02  0.8603033E-01
        2   -1    0    0  501    0  0.00000000000E+00  0.00000000000E+00  0.15121571996E+04  0.15121571996E+04  0.25500000920E-02 0.  1.
       -2   -1    0    0    0  501  0.00000000000E+00  0.00000000000E+00 -0.66640305649E+03  0.66640305649E+03  0.25500000920E-02 0. -1.
    10030    2    1    2    0    0  0.00000000000E+00  0.00000000000E+00  0.84575414312E+03  0.21785602561E+04  0.20076913903E+04 0.  0.
        2    1    3    3  502    0 -0.55540816027E+03 -0.83607707086E+03  0.40741336974E+03  0.10832768560E+04  0.25500000920E-02 0. -1.
       -2    1    3    3    0  502  0.55540816027E+03  0.83607707086E+03  0.43834077338E+03  0.10952834001E+04  0.25500000920E-02 0.  1.
</event>
<event>
 5   0  0.2463085E-04  0.2000648E+04  0.7818609E-02  0.8606318E-01
        2   -1    0    0  501    0  0.00000000000E+00  0.00000000000E+00  0.15268065650E+04  0.15268065650E+04  0.25500000920E-02 0. -1.
       -2   -1    0    0    0  501  0.00000000000E+00  0.00000000000E+00 -0.65538621659E+03  0.65538621659E+03  0.25500000920E-02 0.  1.
    10030    2    1    2    0    0  0.00000000000E+00  0.00000000000E+00  0.87142034840E+03  0.21821927816E+04  0.20006478732E+04 0.  0.
        2    1    3    3  502    0 -0.40170805467E+03 -0.33048460045E+03 -0.49625847366E+03  0.71893108502E+03  0.25500000920E-02 0.  1.
       -2    1    3    3    0  502  0.40170805467E+03  0.33048460045E+03  0.13676788221E+04  0.14632616966E+04  0.25500000920E-02 0. -1.
</event>
<event>
 5   0  0.1207228E-04  0.1960026E+04  0.7818609E-02  0.8625541E-01
       -1   -1    0    0    0  501  0.00000000000E+00  0.00000000000E+00  0.40417282138E+03  0.40417282141E+03  0.50400001928E-02 0.  1.
        1   -1    0    0  501    0  0.00000000000E+00  0.00000000000E+00 -0.23762748321E+04  0.23762748321E+04  0.50400001928E-02 0. -1.
    10030    2    1    2    0    0  0.00000000000E+00  0.00000000000E+00 -0.19721020107E+04  0.27804476535E+04  0.19600262277E+04 0.  0.
        1    1    3    3  502    0 -0.79680228753E+03 -0.31789182080E+03 -0.31394405563E+03  0.91351516968E+03  0.50400001928E-02 0.  1.
       -1    1    3    3    0  502  0.79680228753E+03  0.31789182080E+03 -0.16581579551E+04  0.18669324838E+04  0.50400001928E-02 0. -1.
</event>
<event>
 5   0  0.2488886E-04  0.2010846E+04  0.7818609E-02  0.8601566E-01
       -2   -1    0    0    0  501  0.00000000000E+00  0.00000000000E+00  0.10048321923E+04  0.10048321923E+04  0.25500000920E-02 0. -1.
        2   -1    0    0  501    0  0.00000000000E+00  0.00000000000E+00 -0.10060145697E+04  0.10060145697E+04  0.25500000920E-02 0.  1.
    10030    2    1    2    0    0  0.00000000000E+00  0.00000000000E+00 -0.11823773261E+01  0.20108467620E+04  0.20108464144E+04 0.  0.
        3    1    3    3  502    0 -0.80651632657E+03  0.49834251152E+03 -0.33534783202E+03  0.10056202178E+04  0.10100000352E+00 0. -1.
       -3    1    3    3    0  502  0.80651632657E+03 -0.49834251152E+03  0.33416545470E+03  0.10052265442E+04  0.10100000352E+00 0.  1.
</event>
<event>
 5   0  0.2463085E-04  0.1934042E+04  0.7818609E-02  0.8638095E-01
        2   -1    0    0  501    0  0.00000000000E+00  0.00000000000E+00  0.97613480366E+03  0.97613480367E+03  0.25500000920E-02 0. -1.
       -2   -1    0    0    0  501  0.00000000000E+00  0.00000000000E+00 -0.95799250403E+03  0.95799250403E+03  0.25500000920E-02 0.  1.
    10030    2    1    2    0    0  0.00000000000E+00  0.00000000000E+00  0.18142299635E+02  0.19341273077E+04  0.19340422176E+04 0.  0.
        2    1    3    3  502    0  0.44525541586E+02 -0.42741834425E+03 -0.85725840410E+03  0.95893739955E+03  0.25500000920E-02 0.  1.
       -2    1    3    3    0  502 -0.44525541586E+02  0.42741834425E+03  0.87540070373E+03  0.97518990815E+03  0.25500000920E-02 0. -1.
</event>
<event>
 5   0  0.1231056E-04  0.2079481E+04  0.7818609E-02  0.8570336E-01
       -1   -1    0    0    0  501  0.00000000000E+00  0.00000000000E+00  0.74950971318E+03  0.74950971320E+03  0.50400001928E-02 0.  1.
        1   -1    0    0  501    0  0.00000000000E+00  0.00000000000E+00 -0.14423565990E+04  0.14423565990E+04  0.50400001928E-02 0. -1.
    10030    2    1    2    0    0  0.00000000000E+00  0.00000000000E+00 -0.69284688578E+03  0.21918663122E+04  0.20794809745E+04 0.  0.
        3    1    3    3  502    0 -0.17210069936E+03  0.38515621500E+03 -0.13480968508E+04  0.14125611810E+04  0.10100000352E+00 0. -1.
       -3    1    3    3    0  502  0.17210069936E+03 -0.38515621500E+03  0.65524996500E+03  0.77930513120E+03  0.10100000352E+00 0.  1.
</event>
<event>
 5   0  0.1231056E-04  0.1961218E+04  0.7818609E-02  0.8624970E-01
       -1   -1    0    0    0  501  0.00000000000E+00  0.00000000000E+00  0.73313124953E+03  0.73313124954E+03  0.50400001928E-02 0. -1.
        1   -1    0    0  501    0  0.00000000000E+00  0.00000000000E+00 -0.13116253741E+04  0.13116253741E+04  0.50400001928E-02 0.  1.
    10030    2    1    2    0    0  0.00000000000E+00  0.00000000000E+00 -0.57849412458E+03  0.20447566237E+04  0.19612175294E+04 0.  0.
        3    1    3    3  502    0  0.34571798143E+02 -0.83350960749E+03 -0.82662396275E+03  0.11744107718E+04  0.10100000352E+00 0.  1.
       -3    1    3    3    0  502 -0.34571798143E+02  0.83350960749E+03  0.24812983817E+03  0.87034585183E+03  0.10100000352E+00 0. -1.
</event>
<event>
 5   0  0.1258546E-04  0.1992961E+04  0.7818609E-02  0.8609919E-01
       -1   -1    0    0    0  501  0.00000000000E+00  0.00000000000E+00  0.11585304441E+04  0.11585304441E+04  0.50400001928E-02 0. -1.
        1   -1    0    0  501    0  0.00000000000E+00  0.00000000000E+00 -0.85709695094E+03  0.85709695096E+03  0.50400001928E-02 0.  1.
    10030    2    1    2    0    0  0.00000000000E+00  0.00000000000E+00  0.30143349317E+03  0.20156273951E+04  0.19929605227E+04 0.  0.
        4    1    3    3  502    0 -0.85554054345E+03  0.51065603707E+03  0.16677462692E+03  0.10102151250E+04  0.12699999809E+01 0.  1.
       -4    1    3    3    0  502  0.85554054345E+03 -0.51065603707E+03  0.13465886625E+03  0.10054122701E+04  0.12699999809E+01 0. -1.
</event>
<event>
 5   0  0.2488886E-04  0.1947293E+04  0.7818609E-02  0.8631667E-01
        2   -1    0    0  501    0  0.00000000000E+00  0.00000000000E+00  0.22876247415E+04  0.22876247415E+04  0.25500000920E-02 0. -1.
       -2   -1    0    0    0  501  0.00000000000E+00  0.00000000000E+00 -0.41439806935E+03  0.41439806936E+03  0.25500000920E-02 0.  1.
    10030    2    1    2    0    0  0.00000000000E+00  0.00000000000E+00  0.18732266721E+04  0.27020228108E+04  0.19472927631E+04 0.  0.
        3    1    3    3  502    0 -0.55493854257E+03 -0.41829511156E+03 -0.96502006117E+01  0.69499692299E+03  0.10100000352E+00 0.  1.
       -3    1    3    3    0  502  0.55493854257E+03  0.41829511156E+03  0.18828768728E+04  0.20070258879E+04  0.10100000352E+00 0. -1.
</event>
<event>
 5   0  0.2463085E-04  0.1996218E+04  0.7818609E-02  0.8608391E-01
        2   -1    0    0  501    0  0.00000000000E+00  0.00000000000E+00  0.15403035626E+04  0.15403035626E+04  0.25500000920E-02 0. -1.
       -2   -1    0    0    0  501  0.00000000000E+00  0.00000000000E+00 -0.64676939020E+03  0.64676939021E+03  0.25500000920E-02 0.  1.
    10030    2    1    2    0    0  0.00000000000E+00  0.00000000000E+00  0.89353417238E+03  0.21870729528E+04  0.19962176193E+04 0.  0.
        2    1    3    3  502    0  0.31295383097E+03 -0.40387463854E+03  0.13861619945E+04  0.14773286361E+04  0.25500000920E-02 0. -1.
       -2    1    3    3    0  502 -0.31295383097E+03  0.40387463854E+03 -0.49262782212E+03  0.70974431672E+03  0.25500000920E-02 0.  1.
</event>
<event>
 5   0  0.2540506E-04  0.1981665E+04  0.7818609E-02  0.8615241E-01
       -2   -1    0    0    0  501  0.00000000000E+00  0.00000000000E+00  0.67973893394E+03  0.67973893394E+03  0.25500000920E-02 0.  1.
        2   -1    0    0  501    0  0.00000000000E+00  0.00000000000E+00 -0.14443028016E+04  0.14443028016E+04  0.25500000920E-02 0. -1.
    10030    2    1    2    0    0  0.00000000000E+00  0.00000000000E+00 -0.76456386767E+03  0.21240417356E+04  0.19816648018E+04 0.  0.
        4    1    3    3  502    0 -0.98605658461E+03 -0.57761275031E+02 -0.29854548742E+03  0.10318793408E+04  0.12699999809E+01 0. -1.
       -4    1    3    3    0  502  0.98605658461E+03  0.57761275031E+02 -0.46601838024E+03  0.10921623948E+04  0.12699999809E+01 0.  1.
</event>
<event>
 5   0  0.1210633E-04  0.2006922E+04  0.7818609E-02  0.8603391E-01
        1   -1    0    0  501    0  0.00000000000E+00  0.00000000000E+00  0.22448610439E+04  0.22448610439E+04  0.50400001928E-02 0. -1.
       -1   -1    0    0    0  501  0.00000000000E+00  0.00000000000E+00 -0.44855058757E+03  0.44855058760E+03  0.50400001928E-02 0.  1.
    10030    2    1    2    0    0  0.00000000000E+00  0.00000000000E+00  0.17963104564E+04  0.26934116316E+04  0.20069217626E+04 0.  0.
        2    1    3    3  502    0  0.56071873607E+03 -0.72106373756E+03  0.14557090587E+04  0.17185538333E+04  0.25500000920E-02 0. -1.
       -2    1    3    3    0  502 -0.56071873607E+03  0.72106373756E+03  0.34060139771E+03  0.97485779821E+03  0.25500000920E-02 0.  1.
</event>
<event>
 5   0  0.9099125E-05  0.1956701E+04  0.7818609E-02  0.8627136E-01
       -3   -1    0    0    0  501  0.00000000000E+00  0.00000000000E+00  0.10337075496E+04  0.10337075546E+04  0.10100000352E+00 0.  1.
        3   -1    0    0  501    0  0.00000000000E+00  0.00000000000E+00 -0.92595779323E+03  0.92595779874E+03  0.10100000352E+00 0. -1.
    10030    2    1    2    0    0  0.00000000000E+00  0.00000000000E+00  0.10774975638E+03  0.19596653533E+04  0.19567008680E+04 0.  0.
        5    1    3    3  502    0 -0.55939302377E+03  0.77335232008E+03 -0.16128336477E+03  0.96800246889E+03  0.46999998093E+01 0.  1.
       -5    1    3    3    0  502  0.55939302377E+03 -0.77335232008E+03  0.26903312116E+03  0.99166288440E+03  0.46999998093E+01 0. -1.
</event>
<event>
 5   0  0.2421737E-04  0.1980590E+04  0.7818609E-02  0.8615750E-01
        2   -1    0    0  501    0  0.00000000000E+00  0.00000000000E+00  0.16687051859E+04  0.16687051859E+04  0.25500000920E-02 0.  1.
       -2   -1    0    0    0  501  0.00000000000E+00  0.00000000000E+00 -0.58769145519E+03  0.58769145520E+03  0.25500000920E-02 0. -1.
    10030    2    1    2    0    0  0.00000000000E+00  0.00000000000E+00  0.10810137307E+04  0.22563966411E+04  0.19805895880E+04 0.  0.
        1    1    3    3  502    0  0.93897187814E+03 -0.70353141065E+02  0.88991849256E+03  0.12955974204E+04  0.50400001928E-02 0.  1.
       -1    1    3    3    0  502 -0.93897187814E+03  0.70353141065E+02  0.19109523818E+03  0.96079922069E+03  0.50400001928E-02 0. -1.
</event>
<event>
 5   0  0.2463085E-04  0.1976455E+04  0.7818609E-02  0.8617709E-01
       -2   -1    0    0    0  501  0.00000000000E+00  0.00000000000E+00  0.82017401030E+03  0.82017401031E+03  0.25500000920E-02 0.  1.
        2   -1    0    0  501    0  0.00000000000E+00  0.00000000000E+00 -0.11907146312E+04  0.11907146312E+04  0.25500000920E-02 0. -1.
    10030    2    1    2    0    0  0.00000000000E+00  0.00000000000E+00 -0.37054062086E+03  0.20108886415E+04  0.19764545977E+04 0.  0.
        2    1    3    3  502    0  0.46530916598E+03  0.13061953699E+03 -0.10622734957E+04  0.11670471555E+04  0.25500000920E-02 0. -1.
       -2    1    3    3    0  502 -0.46530916598E+03 -0.13061953699E+03  0.69173287484E+03  0.84384148602E+03  0.25500000920E-02 0.  1.
</event>
<event>
 5   0  0.1207228E-04  0.1959403E+04  0.7818609E-02  0.8625840E-01
        1   -1    0    0  501    0  0.00000000000E+00  0.00000000000E+00  0.96021148568E+03  0.96021148569E+03  0.50400001928E-02 0.  1.
       -1   -1    0    0    0  501  0.00000000000E+00  0.00000000000E+00 -0.99958718782E+03  0.99958718784E+03  0.50400001928E-02 0. -1.
    10030    2    1    2    0    0  0.00000000000E+00  0.00000000000E+00 -0.39375702148E+02  0.19597986735E+04  0.19594030710E+04 0.  0.
        1    1    3    3  502    0  0.91695910249E+03  0.32231319495E+03  0.10328129779E+03  0.97742867656E+03  0.50400001928E-02 0.  1.
       -1    1    3    3    0  502 -0.91695910249E+03 -0.32231319495E+03 -0.14265699994E+03  0.98236999696E+03  0.50400001928E-02 0. -1.
</event>
<event>
 5   0  0.1231056E-04  0.1300161E+04  0.7818609E-02  0.9029437E-01
        1   -1    0    0  501    0  0.00000000000E+00  0.00000000000E+00  0.73362758739E+03  0.73362758740E+03  0.50400001928E-02 0. -1.
       -1   -1    0    0    0  501  0.00000000000E+00  0.00000000000E+00 -0.57604824601E+03  0.57604824603E+03  0.50400001928E-02 0.  1.
    10030    2    1    2    0    0  0.00000000000E+00  0.00000000000E+00  0.15757934138E+03  0.13096758334E+04  0.13001613515E+04 0.  0.
        3    1    3    3  502    0  0.10578296340E+03 -0.60507513371E+03  0.29318261826E+03  0.68063353622E+03  0.10100000352E+00 0. -1.
       -3    1    3    3    0  502 -0.10578296340E+03  0.60507513371E+03 -0.13560327688E+03  0.62904229721E+03  0.10100000352E+00 0.  1.
</event>
<event>
 5   0  0.1258546E-04  0.1976526E+04  0.7818609E-02  0.8617675E-01
        1   -1    0    0  501    0  0.00000000000E+00  0.00000000000E+00  0.13547214848E+04  0.13547214848E+04  0.50400001928E-02 0.  1.
       -1   -1    0    0    0  501  0.00000000000E+00  0.00000000000E+00 -0.72093302516E+03  0.72093302518E+03  0.50400001928E-02 0. -1.
    10030    2    1    2    0    0  0.00000000000E+00  0.00000000000E+00  0.63378845963E+03  0.20756545100E+04  0.19765256976E+04 0.  0.
        4    1    3    3  502    0  0.22167428530E+03  0.46477190519E+03  0.12027090323E+04  0.13083054085E+04  0.12699999809E+01 0.  1.
       -4    1    3    3    0  502 -0.22167428530E+03 -0.46477190519E+03 -0.56892057268E+03  0.76734910148E+03  0.12699999809E+01 0. -1.
</event>
<event>
 5   0  0.1207228E-04  0.2003777E+04  0.7818609E-02  0.8604857E-01
        1   -1    0    0  501    0  0.00000000000E+00  0.00000000000E+00  0.18249609028E+04  0.18249609028E+04  0.50400001928E-02 0. -1.
       -1   -1    0    0    0  501  0.00000000000E+00  0.00000000000E+00 -0.55002831946E+03  0.55002831948E+03  0.50400001928E-02 0.  1.
    10030    2    1    2    0    0  0.00000000000E+00  0.00000000000E+00  0.12749325834E+04  0.23749892223E+04  0.20037766128E+04 0.  0.
        1    1    3    3  502    0  0.52795141257E+02 -0.94669039991E+03  0.25381991736E+03  0.98154703947E+03  0.50400001928E-02 0.  1.
       -1    1    3    3    0  502 -0.52795141257E+02  0.94669039991E+03  0.10211126660E+04  0.13934421829E+04  0.50400001928E-02 0. -1.
</event>
<event>
 5   0  0.2488886E-04  0.1978673E+04  0.7818609E-02  0.8616657E-01
       -2   -1    0    0    0  501  0.00000000000E+00  0.00000000000E+00  0.16088717940E+04  0.16088717940E+04  0.25500000920E-02 0. -1.
        2   -1    0    0  501    0  0.00000000000E+00  0.00000000000E+00 -0.60836867125E+03  0.60836867125E+03  0.25500000920E-02 0.  1.
    10030    2    1    2    0    0  0.00000000000E+00  0.00000000000E+00  0.10005031227E+04  0.22172404652E+04  0.19786734905E+04 0.  0.
        3    1    3    3  502    0 -0.60508691869E+03 -0.58340787513E+03 -0.84479691674E+02  0.84476727946E+03  0.10100000352E+00 0.  1.
       -3    1    3    3    0  502  0.60508691869E+03  0.58340787513E+03  0.10849828144E+04  0.13724731858E+04  0.10100000352E+00 0. -1.
</event>
<event>
 5   0  0.1210633E-04  0.1587755E+04  0.7818609E-02  0.8828106E-01
        1   -1    0    0  501    0  0.00000000000E+00  0.00000000000E+00  0.16099528159E+04  0.16099528159E+04  0.50400001928E-02 0. -1.
       -1   -1    0    0    0  501  0.00000000000E+00  0.00000000000E+00 -0.39146600504E+03  0.39146600508E+03  0.50400001928E-02 0.  1.
    10030    2    1    2    0    0  0.00000000000E+00  0.00000000000E+00  0.12184868108E+04  0.20014188210E+04  0.15877553932E+04 0.  0.
        2    1    3    3  502    0  0.59945789671E+03 -0.52037155881E+03  0.59629802566E+03  0.99282811431E+03  0.25500000920E-02 0.  1.
       -2    1    3    3    0  502 -0.59945789671E+03  0.52037155881E+03  0.62218878517E+03  0.10085907066E+04  0.25500000920E-02 0. -1.
</event>
<event>
 5   0  0.2421737E-04  0.2012118E+04  0.7818609E-02  0.8600976E-01
       -2   -1    0    0    0  501  0.00000000000E+00  0.00000000000E+00  0.45649487351E+03  0.45649487352E+03  0.25500000920E-02 0. -1.
        2   -1    0    0  501    0  0.00000000000E+00  0.00000000000E+00 -0.22172310998E+04  0.22172310998E+04  0.25500000920E-02 0.  1.
    10030    2    1    2    0    0  0.00000000000E+00  0.00000000000E+00 -0.17607362262E+04  0.26737259733E+04  0.20121179195E+04 0.  0.
        1    1    3    3  502    0 -0.96852962660E+03 -0.27151827220E+03 -0.90636738360E+03  0.13539843588E+04  0.50400001928E-02 0. -1.
       -1    1    3    3    0  502  0.96852962660E+03  0.27151827220E+03 -0.85436884264E+03  0.13197416145E+04  0.50400001928E-02 0.  1.
</event>
<event>
 5   0  0.1210633E-04  0.1284912E+04  0.7818609E-02  0.9041617E-01
       -1   -1    0    0    0  501  0.00000000000E+00  0.00000000000E+00  0.47654598871E+03  0.47654598874E+03  0.50400001928E-02 0. -1.
        1   -1    0    0  501    0  0.00000000000E+00  0.00000000000E+00 -0.86612752430E+03  0.86612752431E+03  0.50400001928E-02 0.  1.
    10030    2    1    2    0    0  0.00000000000E+00  0.00000000000E+00 -0.38958153559E+03  0.13426735131E+04  0.12849118218E+04 0.  0.
        2    1    3    3  502    0  0.28959742635E+03  0.56869424365E+03 -0.11750807641E+03  0.64891290643E+03  0.25500000920E-02 0. -1.
       -2    1    3    3    0  502 -0.28959742635E+03 -0.56869424365E+03 -0.27207345918E+03  0.69376060662E+03  0.25500000920E-02 0.  1.
</event>
<event>
 5   0  0.1231056E-04  0.2008325E+04  0.7818609E-02  0.8602738E-01
        1   -1    0    0  501    0  0.00000000000E+00  0.00000000000E+00  0.93592381206E+03  0.93592381208E+03  0.50400001928E-02 0.  1.
       -1   -1    0    0    0  501  0.00000000000E+00  0.00000000000E+00 -0.10773769547E+04  0.10773769547E+04  0.50400001928E-02 0. -1.
    10030    2    1    2    0    0  0.00000000000E+00  0.00000000000E+00 -0.14145314264E+03  0.20133007668E+04  0.20083254184E+04 0.  0.
        3    1    3    3  502    0  0.82222428551E+03 -0.21251131433E+03  0.46644501056E+03  0.96890907338E+03  0.10100000352E+00 0.  1.
       -3    1    3    3    0  502 -0.82222428551E+03  0.21251131433E+03 -0.60789815320E+03  0.10443916934E+04  0.10100000352E+00 0. -1.
</event>
<event>
 5   0  0.2540506E-04  0.2069064E+04  0.7818609E-02  0.8574995E-01
        2   -1    0    0  501    0  0.00000000000E+00  0.00000000000E+00  0.14509208302E+04  0.14509208302E+04  0.25500000920E-02 0. -1.
       -2   -1    0    0    0  501  0.00000000000E+00  0.00000000000E+00 -0.73763932744E+03  0.73763932744E+03  0.25500000920E-02 0.  1.
    10030    2    1    2    0    0  0.00000000000E+00  0.00000000000E+00  0.71328150277E+03  0.21885601577E+04  0.20690638128E+04 0.  0.
        4    1    3    3  502    0  0.51634270270E+01 -0.36791580643E+03 -0.66608519676E+03  0.76095979121E+03  0.12699999809E+01 0.  1.
       -4    1    3    3    0  502 -0.51634270270E+01  0.36791580643E+03  0.13793666995E+04  0.14276003664E+04  0.12699999809E+01 0. -1.
</event>
<event>
 5   0  0.1258546E-04  0.1421520E+04  0.7818609E-02  0.8938387E-01
        1   -1    0    0  501    0  0.00000000000E+00  0.00000000000E+00  0.18945771294E+04  0.18945771295E+04  0.50400001928E-02 0. -1.
       -1   -1    0    0    0  501  0.00000000000E+00  0.00000000000E+00 -0.26664505054E+03  0.26664505059E+03  0.50400001928E-02 0.  1.
    10030    2    1    2    0    0  0.00000000000E+00  0.00000000000E+00  0.16279320789E+04  0.21612221800E+04  0.14215197705E+04 0.  0.
        4    1    3    3  502    0  0.56744018559E+03  0.30884335755E+03  0.36345320415E+03  0.74126407456E+03  0.12699999809E+01 0.  1.
       -4    1    3    3    0  502 -0.56744018559E+03 -0.30884335755E+03  0.12644788748E+04  0.14199581055E+04  0.12699999809E+01 0. -1.
</event>
<event>
 5   0  0.2463085E-04  0.2018793E+04  0.7818609E-02  0.8597885E-01
       -2   -1    0    0    0  501  0.00000000000E+00  0.00000000000E+00  0.14478133191E+04  0.14478133191E+04  0.25500000920E-02 0. -1.
        2   -1    0    0  501    0  0.00000000000E+00  0.00000000000E+00 -0.70373769779E+03  0.70373769779E+03  0.25500000920E-02 0.  1.
    10030    2    1    2    0    0  0.00000000000E+00  0.00000000000E+00  0.74407562130E+03  0.21515510169E+04  0.20187925223E+04 0.  0.
        2    1    3    3  502    0 -0.39612318629E+03  0.21119782050E+03  0.13355725385E+04  0.14089968430E+04  0.25500000920E-02 0. -1.
       -2    1    3    3    0  502  0.39612318629E+03 -0.21119782050E+03 -0.59149691717E+03  0.74255417387E+03  0.25500000920E-02 0.  1.
</event>
<event>
 5   0  0.1324930E-04  0.2173510E+04  0.7818609E-02  0.8529536E-01
        1   -1    0    0  501    0  0.00000000000E+00  0.00000000000E+00  0.87098900593E+03  0.87098900595E+03  0.50400001928E-02 0. -1.
       -1   -1    0    0    0  501  0.00000000000E+00  0.00000000000E+00 -0.13559710641E+04  0.13559710641E+04  0.50400001928E-02 0.  1.
    10030    2    1    2    0    0  0.00000000000E+00  0.00000000000E+00 -0.48498205819E+03  0.22269600701E+04  0.21735095024E+04 0.  0.
        5    1    3    3  502    0  0.92949509892E+03  0.53252443666E+03 -0.55042844474E+02  0.10726580160E+04  0.46999998093E+01 0. -1.
       -5    1    3    3    0  502 -0.92949509892E+03 -0.53252443666E+03 -0.42993921372E+03  0.11543020541E+04  0.46999998093E+01 0.  1.
</event>
<event>
 5   0  0.2488886E-04  0.1979748E+04  0.7818609E-02  0.8616148E-01
       -2   -1    0    0    0  501  0.00000000000E+00  0.00000000000E+00  0.48338590522E+03  0.48338590522E+03  0.25500000920E-02 0.  1.
        2   -1    0    0  501    0  0.00000000000E+00  0.00000000000E+00 -0.20270569101E+04  0.20270569101E+04  0.25500000920E-02 0. -1.
    10030    2    1    2    0    0  0.00000000000E+00  0.00000000000E+00 -0.15436710049E+04  0.25104428153E+04  0.19797482056E+04 0.  0.
        3    1    3    3  502    0 -0.59200843514E+03  0.45859412068E+03  0.49050244799E+02  0.75045885398E+03  0.10100000352E+00 0.  1.
       -3    1    3    3    0  502  0.59200843514E+03 -0.45859412068E+03 -0.15927212496E+04  0.17599839613E+04  0.10100000352E+00 0. -1.
</event>
<event>
 5   0  0.1210633E-04  0.1289276E+04  0.7818609E-02  0.9038113E-01
        1   -1    0    0  501    0  0.00000000000E+00  0.00000000000E+00  0.98328783111E+03  0.98328783112E+03  0.50400001928E-02 0. -1.
       -1   -1    0    0    0  501  0.00000000000E+00  0.00000000000E+00 -0.42262106434E+03  0.42262106437E+03  0.50400001928E-02 0.  1.
    10030    2    1    2    0    0  0.00000000000E+00  0.00000000000E+00  0.56066676677E+03  0.14059088955E+04  0.12892759980E+04 0.  0.
        2    1    3    3  502    0 -0.49430197723E+03 -0.27383145084E+03 -0.57956633877E+02  0.56804672306E+03  0.25500000920E-02 0.  1.
       -2    1    3    3    0  502  0.49430197723E+03  0.27383145084E+03  0.61862340065E+03  0.83786217243E+03  0.25500000920E-02 0. -1.
</event>
<event>
 5   0  0.2463085E-04  0.2033513E+04  0.7818609E-02  0.8591111E-01
        2   -1    0    0  501    0  0.00000000000E+00  0.00000000000E+00  0.15445555178E+04  0.15445555178E+04  0.25500000920E-02 0.  1.
       -2   -1    0    0    0  501  0.00000000000E+00  0.00000000000E+00 -0.66931442363E+03  0.66931442363E+03  0.25500000920E-02 0. -1.
    10030    2    1    2    0    0  0.00000000000E+00  0.00000000000E+00  0.87524109416E+03  0.22138699414E+04  0.20335125140E+04 0.  0.
        2    1    3    3  502    0 -0.22985357213E+03 -0.10173902109E+03  0.15101953465E+04  0.15309714163E+04  0.25500000920E-02 0.  1.
       -2    1    3    3    0  502  0.22985357213E+03  0.10173902109E+03 -0.63495425233E+03  0.68289852510E+03  0.25500000920E-02 0. -1.
</event>
<event>
 5   0  0.2421737E-04  0.1953696E+04  0.7818609E-02  0.8628580E-01
        2   -1    0    0  501    0  0.00000000000E+00  0.00000000000E+00  0.21113469766E+04  0.21113469766E+04  0.25500000920E-02 0. -1.
       -2   -1    0    0    0  501  0.00000000000E+00  0.00000000000E+00 -0.45195434225E+03  0.45195434226E+03  0.25500000920E-02 0.  1.
    10030    2    1    2    0    0  0.00000000000E+00  0.00000000000E+00  0.16593926344E+04  0.25633013189E+04  0.19536964289E+04 0.  0.
        1    1    3    3  502    0 -0.31178994269E+03 -0.25283641407E+03  0.19981316871E+04  0.20380553132E+04  0.50400001928E-02 0. -1.
       -1    1    3    3    0  502  0.31178994269E+03  0.25283641407E+03 -0.33873905272E+03  0.52524600570E+03  0.50400001928E-02 0.  1.
</event>
<event>
 5   0  0.1231056E-04  0.1986115E+04  0.7818609E-02  0.8613140E-01
       -1   -1    0    0    0  501  0.00000000000E+00  0.00000000000E+00  0.88319482427E+03  0.88319482428E+03  0.50400001928E-02 0. -1.
        1   -1    0    0  501    0  0.00000000000E+00  0.00000000000E+00 -0.11165861457E+04  0.11165861457E+04  0.50400001928E-02 0.  1.
    10030    2    1    2    0    0  0.00000000000E+00  0.00000000000E+00 -0.23339132143E+03  0.19997809700E+04  0.19861149058E+04 0.  0.
        3    1    3    3  502    0 -0.63347208980E+03 -0.57245673554E+03  0.39391253805E+03  0.94029819762E+03  0.10100000352E+00 0. -1.
       -3    1    3    3    0  502  0.63347208980E+03  0.57245673554E+03 -0.62730385948E+03  0.10594827724E+04  0.10100000352E+00 0.  1.
</event>
<event>
 5   0  0.1210633E-04  0.2035543E+04  0.7818609E-02  0.8590181E-01
       -1   -1    0    0    0  501  0.00000000000E+00  0.00000000000E+00  0.11556218315E+04  0.11556218315E+04  0.50400001928E-02 0. -1.
        1   -1    0    0  501    0  0.00000000000E+00  0.00000000000E+00 -0.89636513196E+03  0.89636513198E+03  0.50400001928E-02 0.  1.
    10030    2    1    2    0    0  0.00000000000E+00  0.00000000000E+00  0.25925669949E+03  0.20519869634E+04  0.20355432842E+04 0.  0.
        2    1    3    3  502    0  0.74641879656E+03 -0.53999566212E+03  0.56569973217E+03  0.10810885819E+04  0.25500000920E-02 0. -1.
       -2    1    3    3    0  502 -0.74641879656E+03  0.53999566212E+03 -0.30644303268E+03  0.97089838153E+03  0.25500000920E-02 0.  1.
</event>
<event>
 5   0  0.2463085E-04  0.2002074E+04  0.7818609E-02  0.8605651E-01
       -2   -1    0    0    0  501  0.00000000000E+00  0.00000000000E+00  0.84805413722E+03  0.84805413722E+03  0.25500000920E-02 0. -1.
        2   -1    0    0  501    0  0.00000000000E+00  0.00000000000E+00 -0.11816172562E+04  0.11816172562E+04  0.25500000920E-02 0.  1.
    10030    2    1    2    0    0  0.00000000000E+00  0.00000000000E+00 -0.33356311899E+03  0.20296713934E+04  0.20020743270E+04 0.  0.
        2    1    3    3  502    0  0.49235959887E+03 -0.68010570297E+03  0.38581330487E+03  0.92402037209E+03  0.25500000920E-02 0. -1.
       -2    1    3    3    0  502 -0.49235959887E+03  0.68010570297E+03 -0.71937642386E+03  0.11056510214E+04  0.25500000920E-02 0.  1.
</event>
<event>
 5   0  0.2540506E-04  0.1975734E+04  0.7818609E-02  0.8618051E-01
        2   -1    0    0  501    0  0.00000000000E+00  0.00000000000E+00  0.12410142346E+04  0.12410142346E+04  0.25500000920E-02 0. -1.
       -2   -1    0    0    0  501  0.00000000000E+00  0.00000000000E+00 -0.78635769550E+03  0.78635769550E+03  0.25500000920E-02 0.  1.
    10030    2    1    2    0    0  0.00000000000E+00  0.00000000000E+00  0.45465653913E+03  0.20273719301E+04  0.19757338825E+04 0.  0.
        4    1    3    3  502    0 -0.83525016435E+03 -0.10918349701E+03 -0.30221724178E+03  0.89493058233E+03  0.12699999809E+01 0. -1.
       -4    1    3    3    0  502  0.83525016435E+03  0.10918349701E+03  0.75687378091E+03  0.11324413478E+04  0.12699999809E+01 0.  1.
</event>
<event>
 5   0  0.2488886E-04  0.2056137E+04  0.7818609E-02  0.8580815E-01
       -2   -1    0    0    0  501  0.00000000000E+00  0.00000000000E+00  0.16734300403E+04  0.16734300403E+04  0.25500000920E-02 0. -1.
        2   -1    0    0  501    0  0.00000000000E+00  0.00000000000E+00 -0.63159192327E+03  0.63159192328E+03  0.25500000920E-02 0.  1.
    10030    2    1    2    0    0  0.00000000000E+00  0.00000000000E+00  0.10418381170E+04  0.23050219636E+04  0.20561370554E+04 0.  0.
        3    1    3    3  502    0  0.98048937009E+03  0.18478444985E+03  0.24308941314E+03  0.10269358163E+04  0.10100000352E+00 0. -1.
       -3    1    3    3    0  502 -0.98048937009E+03 -0.18478444985E+03  0.79874870389E+03  0.12780861473E+04  0.10100000352E+00 0.  1.
</event>
<event>
 5   0  0.2488886E-04  0.1811108E+04  0.7818609E-02  0.8700415E-01
       -2   -1    0    0    0  501  0.00000000000E+00  0.00000000000E+00  0.57393155144E+03  0.57393155145E+03  0.25500000920E-02 0. -1.
        2   -1    0    0  501    0  0.00000000000E+00  0.00000000000E+00 -0.14287906039E+04  0.14287906040E+04  0.25500000920E-02 0.  1.
    10030    2    1    2    0    0  0.00000000000E+00  0.00000000000E+00 -0.85485905250E+03  0.20027221554E+04  0.18111079570E+04 0.  0.
        3    1    3    3  502    0  0.54978959716E+03  0.12366755533E+03 -0.12112734354E+04  0.13359437155E+04  0.10100000352E+00 0.  1.
       -3    1    3    3    0  502 -0.54978959716E+03 -0.12366755533E+03  0.35641438292E+03  0.66677843992E+03  0.10100000352E+00 0. -1.
</event>
<event>
 5   0  0.1258546E-04  0.2044177E+04  0.7818609E-02  0.8586240E-01
       -1   -1    0    0    0  501  0.00000000000E+00  0.00000000000E+00  0.95768395229E+03  0.95768395231E+03  0.50400001928E-02 0.  1.
        1   -1    0    0  501    0  0.00000000000E+00  0.00000000000E+00 -0.10908244997E+04  0.10908244998E+04  0.50400001928E-02 0. -1.
    10030    2    1    2    0    0  0.00000000000E+00  0.00000000000E+00 -0.13314054745E+03  0.20485084521E+04  0.20441772117E+04 0.  0.
        4    1    3    3  502    0 -0.99535777183E+03  0.16605152655E+03 -0.22925123733E+03  0.10348274958E+04  0.12699999809E+01 0. -1.
       -4    1    3    3    0  502  0.99535777183E+03 -0.16605152655E+03  0.96110689881E+02  0.10136809562E+04  0.12699999809E+01 0.  1.
</event>
<event>
 5   0  0.1324930E-04  0.2021268E+04  0.7818609E-02  0.8596741E-01
        1   -1    0    0  501    0  0.00000000000E+00  0.00000000000E+00  0.12576081177E+04  0.12576081177E+04  0.50400001928E-02 0. -1.
       -1   -1    0    0    0  501  0.00000000000E+00  0.00000000000E+00 -0.81216177870E+03  0.81216177872E+03  0.50400001928E-02 0.  1.
    10030    2    1    2    0    0  0.00000000000E+00  0.00000000000E+00  0.44544633898E+03  0.20697698964E+04  0.20212681621E+04 0.  0.
        5    1    3    3  502    0  0.10646402513E+03 -0.79436770809E+03  0.85312914431E+03  0.11705580170E+04  0.46999998093E+01 0. -1.
       -5    1    3    3    0  502 -0.10646402513E+03  0.79436770809E+03 -0.40768280533E+03  0.89921187940E+03  0.46999998093E+01 0.  1.
</event>
<event>
 5   0  0.1207228E-04  0.1975365E+04  0.7818609E-02  0.8618225E-01
       -1   -1    0    0    0  501  0.00000000000E+00  0.00000000000E+00  0.58731762279E+03  0.58731762281E+03  0.50400001928E-02 0.  1.
        1   -1    0    0  501    0  0.00000000000E+00  0.00000000000E+00 -0.16609703922E+04  0.16609703922E+04  0.50400001928E-02 0. -1.
    10030    2    1    2    0    0  0.00000000000E+00  0.00000000000E+00 -0.10736527694E+04  0.22482880150E+04  0.19753654673E+04 0.  0.
        1    1    3    3  502    0 -0.53655641696E+02 -0.77685915392E+03  0.15467498907E+03  0.79392280807E+03  0.50400001928E-02 0.  1.
       -1    1    3    3    0  502  0.53655641696E+02  0.77685915392E+03 -0.12283277585E+04  0.14543652070E+04  0.50400001928E-02 0. -1.
</event>
<event>
 5   0  0.2540506E-04  0.1965244E+04  0.7818609E-02  0.8623045E-01
       -2   -1    0    0    0  501  0.00000000000E+00  0.00000000000E+00  0.11339147800E+04  0.11339147800E+04  0.25500000920E-02 0.  1.
        2   -1    0    0  501    0  0.00000000000E+00  0.00000000000E+00 -0.85151549861E+03  0.85151549861E+03  0.25500000920E-02 0. -1.
    10030    2    1    2    0    0  0.00000000000E+00  0.00000000000E+00  0.28239928137E+03  0.19854302786E+04  0.19652440146E+04 0.  0.
        4    1    3    3  502    0 -0.48968031153E+03 -0.29862889309E+03 -0.66485428690E+03  0.87806540702E+03  0.12699999809E+01 0. -1.
       -4    1    3    3    0  502  0.48968031153E+03  0.29862889309E+03  0.94725356827E+03  0.11073648716E+04  0.12699999809E+01 0.  1.
</event>
<event>
 5   0  0.2540506E-04  0.1945470E+04  0.7818609E-02  0.8632548E-01
       -2   -1    0    0    0  501  0.00000000000E+00  0.00000000000E+00  0.73663472468E+03  0.73663472468E+03  0.25500000920E-02 0.  1.
        2   -1    0    0  501    0  0.00000000000E+00  0.00000000000E+00 -0.12845078738E+04  0.12845078738E+04  0.25500000920E-02 0. -1.
    10030    2    1    2    0    0  0.00000000000E+00  0.00000000000E+00 -0.54787314914E+03  0.20211425985E+04  0.19454697160E+04 0.  0.
        4    1    3    3  502    0 -0.39500674205E+03 -0.88644797725E+03 -0.34277985240E+03  0.10292327155E+04  0.12699999809E+01 0. -1.
       -4    1    3    3    0  502  0.39500674205E+03  0.88644797725E+03 -0.20509329674E+03  0.99190988296E+03  0.12699999809E+01 0.  1.
</event>
<event>
 5   0  0.9099125E-05  0.1833361E+04  0.7818609E-02  0.8688757E-01
       -3   -1    0    0    0  501  0.00000000000E+00  0.00000000000E+00  0.13088289056E+04  0.13088289095E+04  0.10100000352E+00 0. -1.
        3   -1    0    0  501    0  0.00000000000E+00  0.00000000000E+00 -0.64202685298E+03  0.64202686093E+03  0.10100000352E+00 0.  1.
    10030    2    1    2    0    0  0.00000000000E+00  0.00000000000E+00  0.66680205264E+03  0.19508557704E+04  0.18333611918E+04 0.  0.
        4    1    3    3  502    0 -0.72903132696E+03  0.44173017443E+03 -0.25386443330E+02  0.85279441080E+03  0.12699999809E+01 0.  1.
       -4    1    3    3    0  502  0.72903132696E+03 -0.44173017443E+03  0.69218849596E+03  0.10980613596E+04  0.12699999809E+01 0. -1.
</event>
<event>
 5   0  0.2463085E-04  0.1819658E+04  0.7818609E-02  0.8695915E-01
       -2   -1    0    0    0  501  0.00000000000E+00  0.00000000000E+00  0.36429880651E+03  0.36429880652E+03  0.25500000920E-02 0.  1.
        2   -1    0    0  501    0  0.00000000000E+00  0.00000000000E+00 -0.22722807634E+04  0.22722807634E+04  0.25500000920E-02 0. -1.
    10030    2    1    2    0    0  0.00000000000E+00  0.00000000000E+00 -0.19079819568E+04  0.26365795699E+04  0.18196583967E+04 0.  0.
        2    1    3    3  502    0 -0.50870326313E+02  0.68349590547E+03 -0.87001967034E+02  0.69088623171E+03  0.25500000920E-02 0.  1.
       -2    1    3    3    0  502  0.50870326313E+02 -0.68349590547E+03 -0.18209799898E+04  0.19456933382E+04  0.25500000920E-02 0. -1.
</event>
<event>
 5   0  0.1210633E-04  0.1984540E+04  0.7818609E-02  0.8613883E-01
        1   -1    0    0  501    0  0.00000000000E+00  0.00000000000E+00  0.13417438985E+04  0.13417438985E+04  0.50400001928E-02 0. -1.
       -1   -1    0    0    0  501  0.00000000000E+00  0.00000000000E+00 -0.73382085116E+03  0.73382085118E+03  0.50400001928E-02 0.  1.
    10030    2    1    2    0    0  0.00000000000E+00  0.00000000000E+00  0.60792304729E+03  0.20755647496E+04  0.19845398959E+04 0.  0.
        2    1    3    3  502    0 -0.91910944699E+03  0.30888440051E+03  0.83514443572E+02  0.97321447314E+03  0.25500000920E-02 0.  1.
       -2    1    3    3    0  502  0.91910944699E+03 -0.30888440051E+03  0.52440860372E+03  0.11023502765E+04  0.25500000920E-02 0. -1.
</event>
<event>
 5   0  0.1231056E-04  0.1988417E+04  0.7818609E-02  0.8612055E-01
       -1   -1    0    0    0  501  0.00000000000E+00  0.00000000000E+00  0.63663165390E+03  0.63663165392E+03  0.50400001928E-02 0.  1.
        1   -1    0    0  501    0  0.00000000000E+00  0.00000000000E+00 -0.15526259277E+04  0.15526259277E+04  0.50400001928E-02 0. -1.
    10030    2    1    2    0    0  0.00000000000E+00  0.00000000000E+00 -0.91599427378E+03  0.21892575816E+04  0.19884172724E+04 0.  0.
        3    1    3    3  502    0  0.52824684815E+03 -0.28972905367E+03 -0.13287405493E+04  0.14589513751E+04  0.10100000352E+00 0. -1.
       -3    1    3    3    0  502 -0.52824684815E+03  0.28972905367E+03  0.41274627557E+03  0.73030620654E+03  0.10100000352E+00 0.  1.
</event>
<event>
 5   0  0.2488886E-04  0.1812579E+04  0.7818609E-02  0.8699638E-01
       -2   -1    0    0    0  501  0.00000000000E+00  0.00000000000E+00  0.10892639781E+04  0.10892639781E+04  0.25500000920E-02 0. -1.
        2   -1    0    0  501    0  0.00000000000E+00  0.00000000000E+00 -0.75405147536E+03  0.75405147537E+03  0.25500000920E-02 0.  1.
    10030    2    1    2    0    0  0.00000000000E+00  0.00000000000E+00  0.33521250274E+03  0.18433154535E+04  0.18125794987E+04 0.  0.
        3    1    3    3  502    0 -0.56780995713E+03  0.55610776613E+03 -0.27532156113E+03  0.84110996141E+03  0.10100000352E+00 0.  1.
       -3    1    3    3    0  502  0.56780995713E+03 -0.55610776613E+03  0.61053406387E+03  0.10022054921E+04  0.10100000352E+00 0. -1.
</event>
<event>
 5   0  0.2421737E-04  0.2029923E+04  0.7818609E-02  0.8592757E-01
       -2   -1    0    0    0  501  0.00000000000E+00  0.00000000000E+00  0.53925015478E+03  0.53925015479E+03  0.25500000920E-02 0. -1.
        2   -1    0    0  501    0  0.00000000000E+00  0.00000000000E+00 -0.19103325544E+04  0.19103325544E+04  0.25500000920E-02 0.  1.
    10030    2    1    2    0    0  0.00000000000E+00  0.00000000000E+00 -0.13710823996E+04  0.24495827092E+04  0.20299232750E+04 0.  0.
        1    1    3    3  502    0 -0.74389620612E+03 -0.63458377745E+03 -0.35712036959E+03  0.10409673840E+04  0.50400001928E-02 0. -1.
       -1    1    3    3    0  502  0.74389620612E+03  0.63458377745E+03 -0.10139620300E+04  0.14086153252E+04  0.50400001928E-02 0.  1.
</event>
<event>
 5   0  0.1258546E-04  0.1996226E+04  0.7818609E-02  0.8608387E-01
        1   -1    0    0  501    0  0.00000000000E+00  0.00000000000E+00  0.20561342893E+04  0.20561342893E+04  0.50400001928E-02 0. -1.
       -1   -1    0    0    0  501  0.00000000000E+00  0.00000000000E+00 -0.48451567611E+03  0.48451567614E+03  0.50400001928E-02 0.  1.
    10030    2    1    2    0    0  0.00000000000E+00  0.00000000000E+00  0.15716186132E+04  0.25406499655E+04  0.19962257342E+04 0.  0.
        4    1    3    3  502    0 -0.68906047568E+03 -0.11891177487E+03 -0.12067540067E+03  0.70958333871E+03  0.12699999809E+01 0.  1.
       -4    1    3    3    0  502  0.68906047568E+03  0.11891177487E+03  0.16922940139E+04  0.18310666268E+04  0.12699999809E+01 0. -1.
</event>
<event>
 5   0  0.1258546E-04  0.2006561E+04  0.7818609E-02  0.8603559E-01
        1   -1    0    0  501    0  0.00000000000E+00  0.00000000000E+00  0.21739326900E+04  0.21739326900E+04  0.50400001928E-02 0. -1.
       -1   -1    0    0    0  501  0.00000000000E+00  0.00000000000E+00 -0.46301866718E+03  0.46301866720E+03  0.50400001928E-02 0.  1.
    10030    2    1    2    0    0  0.00000000000E+00  0.00000000000E+00  0.17109140228E+04  0.26369513572E+04  0.20065606561E+04 0.  0.
        4    1    3    3  502    0 -0.72486982626E+03 -0.66019078934E+03  0.57580947488E+03  0.11370339958E+04  0.12699999809E+01 0. -1.
       -4    1    3    3    0  502  0.72486982626E+03  0.66019078934E+03  0.11351045479E+04  0.14999173614E+04  0.12699999809E+01 0.  1.
</event>
<event>
 5   0  0.1324930E-04  0.1959561E+04  0.7818609E-02  0.8625764E-01
       -1   -1    0    0    0  501  0.00000000000E+00  0.00000000000E+00  0.83916693635E+03  0.83916693637E+03  0.50400001928E-02 0.  1.
        1   -1    0    0  501    0  0.00000000000E+00  0.00000000000E+00 -0.11439562542E+04  0.11439562542E+04  0.50400001928E-02 0. -1.
    10030    2    1    2    0    0  0.00000000000E+00  0.00000000000E+00 -0.30478931783E+03  0.19831231906E+04  0.19595614460E+04 0.  0.
        5    1    3    3  502    0 -0.52811335835E+03 -0.81990568638E+03 -0.24732618456E+03  0.10061517706E+04  0.46999998093E+01 0. -1.
       -5    1    3    3    0  502  0.52811335835E+03  0.81990568638E+03 -0.57463133271E+02  0.97697142001E+03  0.46999998093E+01 0.  1.
</event>
<event>
 5   0  0.2540506E-04  0.2027922E+04  0.7818609E-02  0.8593676E-01
        2   -1    0    0  501    0  0.00000000000E+00  0.00000000000E+00  0.12201380074E+04  0.12201380074E+04  0.25500000920E-02 0. -1.
       -2   -1    0    0    0  501  0.00000000000E+00  0.00000000000E+00 -0.84262338799E+03  0.84262338799E+03  0.25500000920E-02 0.  1.
    10030    2    1    2    0    0  0.00000000000E+00  0.00000000000E+00  0.37751461941E+03  0.20627613954E+04  0.20279219133E+04 0.  0.
        4    1    3    3  502    0 -0.26367699029E+02  0.71748066676E+03 -0.53953315580E+03  0.89809320331E+03  0.12699999809E+01 0.  1.
       -4    1    3    3    0  502  0.26367699029E+02 -0.71748066676E+03  0.91704777521E+03  0.11646681921E+04  0.12699999809E+01 0. -1.
</event>
<event>
 5   0  0.1324930E-04  0.2006823E+04  0.7818609E-02  0.8603437E-01
        1   -1    0    0  501    0  0.00000000000E+00  0.00000000000E+00  0.88073172794E+03  0.88073172795E+03  0.50400001928E-02 0. -1.
       -1   -1    0    0    0  501  0.00000000000E+00  0.00000000000E+00 -0.11431795764E+04  0.11431795764E+04  0.50400001928E-02 0.  1.
    10030    2    1    2    0    0  0.00000000000E+00  0.00000000000E+00 -0.26244784847E+03  0.20239113044E+04  0.20068228858E+04 0.  0.
        5    1    3    3  502    0 -0.63582294120E+03 -0.72391383287E+03  0.15132304763E+03  0.97531677147E+03  0.46999998093E+01 0. -1.
       -5    1    3    3    0  502  0.63582294120E+03  0.72391383287E+03 -0.41377089610E+03  0.10485945329E+04  0.46999998093E+01 0.  1.
</event>
<event>
 5   0  0.2488886E-04  0.1240102E+04  0.7818609E-02  0.9078462E-01
        2   -1    0    0  501    0  0.00000000000E+00  0.00000000000E+00  0.89111603275E+03  0.89111603275E+03  0.25500000920E-02 0.  1.
       -2   -1    0    0    0  501  0.00000000000E+00  0.00000000000E+00 -0.43144006598E+03  0.43144006599E+03  0.25500000920E-02 0. -1.
    10030    2    1    2    0    0  0.00000000000E+00  0.00000000000E+00  0.45967596677E+03  0.13225560987E+04  0.12401018667E+04 0.  0.
        3    1    3    3  502    0  0.21472981196E+03 -0.50190560260E+03  0.54340237631E+03  0.77026247400E+03  0.10100000352E+00 0.  1.
       -3    1    3    3    0  502 -0.21472981196E+03  0.50190560260E+03 -0.83726409541E+02  0.55229362474E+03  0.10100000352E+00 0. -1.
</event>
<event>
 5   0  0.2488886E-04  0.1658183E+04  0.7818609E-02  0.8785580E-01
        2   -1    0    0  501    0  0.00000000000E+00  0.00000000000E+00  0.14503857853E+04  0.14503857853E+04  0.25500000920E-02 0. -1.
       -2   -1    0    0    0  501  0.00000000000E+00  0.00000000000E+00 -0.47393798083E+03  0.47393798083E+03  0.25500000920E-02 0.  1.
    10030    2    1    2    0    0  0.00000000000E+00  0.00000000000E+00  0.97644780449E+03  0.19243237662E+04  0.16581832354E+04 0.  0.
        3    1    3    3  502    0  0.35821331552E+03 -0.74714470803E+03  0.45437173638E+03  0.94498448621E+03  0.10100000352E+00 0. -1.
       -3    1    3    3    0  502 -0.35821331552E+03  0.74714470803E+03  0.52207606811E+03  0.97933927994E+03  0.10100000352E+00 0.  1.
</event>
<event>
 5   0  0.9099125E-05  0.1987502E+04  0.7818609E-02  0.8612486E-01
       -3   -1    0    0    0  501  0.00000000000E+00  0.00000000000E+00  0.16072859692E+04  0.16072859724E+04  0.10100000352E+00 0.  1.
        3   -1    0    0  501    0  0.00000000000E+00  0.00000000000E+00 -0.61441550947E+03  0.61441551777E+03  0.10100000352E+00 0. -1.
    10030    2    1    2    0    0  0.00000000000E+00  0.00000000000E+00  0.99287045973E+03  0.22217014901E+04  0.19875023928E+04 0.  0.
        3    1    3    3  502    0 -0.91403405738E+03 -0.36575569290E+03  0.34519263309E+03  0.10432609688E+04  0.10100000352E+00 0. -1.
       -3    1    3    3    0  502  0.91403405738E+03  0.36575569290E+03  0.64767782665E+03  0.11784405213E+04  0.10100000352E+00 0.  1.
</event>
<event>
 5   0  0.1324930E-04  0.1982766E+04  0.7818609E-02  0.8614721E-01
        1   -1    0    0  501    0  0.00000000000E+00  0.00000000000E+00  0.17193964673E+04  0.17193964674E+04  0.50400001928E-02 0. -1.
       -1   -1    0    0    0  501  0.00000000000E+00  0.00000000000E+00 -0.57161943379E+03  0.57161943381E+03  0.50400001928E-02 0.  1.
    10030    2    1    2    0    0  0.00000000000E+00  0.00000000000E+00  0.11477770336E+04  0.22910159012E+04  0.19827661841E+04 0.  0.
        5    1    3    3  502    0  0.16975206405E+03  0.46148616147E+02 -0.55342854076E+03  0.58073289707E+03  0.46999998093E+01 0.  1.
       -5    1    3    3    0  502 -0.16975206405E+03 -0.46148616147E+02  0.17012055743E+04  0.17102830041E+04  0.46999998093E+01 0. -1.
</event>
<event>
 5   0  0.2488886E-04  0.1850392E+04  0.7818609E-02  0.8679951E-01
       -2   -1    0    0    0  501  0.00000000000E+00  0.00000000000E+00  0.38706286321E+03  0.38706286321E+03  0.25500000920E-02 0. -1.
        2   -1    0    0  501    0  0.00000000000E+00  0.00000000000E+00 -0.22114954151E+04  0.22114954151E+04  0.25500000920E-02 0.  1.
    10030    2    1    2    0    0  0.00000000000E+00  0.00000000000E+00 -0.18244325519E+04  0.25985582783E+04  0.18503921177E+04 0.  0.
        3    1    3    3  502    0  0.48763500415E+03  0.44930648869E+03 -0.18183330381E+04  0.19354584123E+04  0.10100000352E+00 0.  1.
       -3    1    3    3    0  502 -0.48763500415E+03 -0.44930648869E+03 -0.60995137873E+01  0.66309986602E+03  0.10100000352E+00 0. -1.
</event>
<event>
 5   0  0.9099125E-05  0.1995540E+04  0.7818609E-02  0.8608709E-01
       -3   -1    0    0    0  501  0.00000000000E+00  0.00000000000E+00  0.14034210482E+04  0.14034210518E+04  0.10100000352E+00 0. -1.
        3   -1    0    0  501    0  0.00000000000E+00  0.00000000000E+00 -0.70937007481E+03  0.70937008200E+03  0.10100000352E+00 0.  1.
    10030    2    1    2    0    0  0.00000000000E+00  0.00000000000E+00  0.69405097336E+03  0.21127911338E+04  0.19955399323E+04 0.  0.
        5    1    3    3  502    0 -0.27963015826E+02 -0.95169029780E+03  0.66292990537E+03  0.11601700318E+04  0.46999998093E+01 0. -1.
       -5    1    3    3    0  502  0.27963015826E+02  0.95169029780E+03  0.31121067987E+02  0.95262110204E+03  0.46999998093E+01 0.  1.
</event>
<event>
 5   0  0.2463085E-04  0.1639827E+04  0.7818609E-02  0.8796447E-01
        2   -1    0    0  501    0  0.00000000000E+00  0.00000000000E+00  0.70103715216E+03  0.70103715216E+03  0.25500000920E-02 0. -1.
       -2   -1    0    0    0  501  0.00000000000E+00  0.00000000000E+00 -0.95894854384E+03  0.95894854384E+03  0.25500000920E-02 0.  1.
    10030    2    1    2    0    0  0.00000000000E+00  0.00000000000E+00 -0.25791139168E+03  0.16599856960E+04  0.16398274985E+04 0.  0.
        2    1    3    3  502    0 -0.54049619075E+03  0.54946823710E+03  0.15413736079E+03  0.78600877971E+03  0.25500000920E-02 0. -1.
       -2    1    3    3    0  502  0.54049619075E+03 -0.54946823710E+03 -0.41204875247E+03  0.87397691629E+03  0.25500000920E-02 0.  1.
</event>
<event>
 5   0  0.2421737E-04  0.2025956E+04  0.7818609E-02  0.8594581E-01
       -2   -1    0    0    0  501  0.00000000000E+00  0.00000000000E+00  0.56979097578E+03  0.56979097578E+03  0.25500000920E-02 0.  1.
        2   -1    0    0  501    0  0.00000000000E+00  0.00000000000E+00 -0.18008786263E+04  0.18008786263E+04  0.25500000920E-02 0. -1.
    10030    2    1    2    0    0  0.00000000000E+00  0.00000000000E+00 -0.12310876505E+04  0.23706696021E+04  0.20259559617E+04 0.  0.
        1    1    3    3  502    0 -0.75018530291E+03  0.35115760821E+03 -0.12978867172E+04  0.15396751557E+04  0.50400001928E-02 0. -1.
       -1    1    3    3    0  502  0.75018530291E+03 -0.35115760821E+03  0.66799066678E+02  0.83099444634E+03  0.50400001928E-02 0.  1.
</event>
<event>
 5   0  0.1207228E-04  0.2020708E+04  0.7818609E-02  0.8597000E-01
        1   -1    0    0  501    0  0.00000000000E+00  0.00000000000E+00  0.12177563148E+04  0.12177563148E+04  0.50400001928E-02 0. -1.
       -1   -1    0    0    0  501  0.00000000000E+00  0.00000000000E+00 -0.83827564152E+03  0.83827564154E+03  0.50400001928E-02 0.  1.
    10030    2    1    2    0    0  0.00000000000E+00  0.00000000000E+00  0.37948067326E+03  0.20560319563E+04  0.20207082481E+04 0.  0.
        1    1    3    3  502    0  0.37573127864E+03 -0.40733538729E+03 -0.66984694343E+03  0.86936243256E+03  0.50400001928E-02 0.  1.
       -1    1    3    3    0  502 -0.37573127864E+03  0.40733538729E+03  0.10493276167E+04  0.11866695238E+04  0.50400001928E-02 0. -1.
</event>
<event>
 5   0  0.2540506E-04  0.2021509E+04  0.7818609E-02  0.8596630E-01
       -2   -1    0    0    0  501  0.00000000000E+00  0.00000000000E+00  0.45555945629E+03  0.45555945630E+03  0.25500000920E-02 0. -1.
        2   -1    0    0  501    0  0.00000000000E+00  0.00000000000E+00 -0.22425708163E+04  0.22425708163E+04  0.25500000920E-02 0.  1.
    10030    2    1    2    0    0  0.00000000000E+00  0.00000000000E+00 -0.17870113600E+04  0.26981302726E+04  0.20215086859E+04 0.  0.
        4    1    3    3  502    0 -0.28709144820E+03  0.31527875207E+03 -0.21166434498E+04  0.21591672695E+04  0.12699999809E+01 0.  1.
       -4    1    3    3    0  502  0.28709144820E+03 -0.31527875207E+03  0.32963208984E+03  0.53896300308E+03  0.12699999809E+01 0. -1.
</event>
<event>
 5   0  0.2540506E-04  0.1969738E+04  0.7818609E-02  0.8620901E-01
       -2   -1    0    0    0  501  0.00000000000E+00  0.00000000000E+00  0.96667367147E+03  0.96667367148E+03  0.25500000920E-02 0.  1.
        2   -1    0    0  501    0  0.00000000000E+00  0.00000000000E+00 -0.10034065875E+04  0.10034065875E+04  0.25500000920E-02 0. -1.
    10030    2    1    2    0    0  0.00000000000E+00  0.00000000000E+00 -0.36732916021E+02  0.19700802590E+04  0.19697377794E+04 0.  0.
        4    1    3    3  502    0  0.11528764898E+03  0.48945555219E+03 -0.86533548157E+03  0.10008321978E+04  0.12699999809E+01 0. -1.
       -4    1    3    3    0  502 -0.11528764898E+03 -0.48945555219E+03  0.82860256555E+03  0.96924806118E+03  0.12699999809E+01 0.  1.
</event>
<event>
 5   0  0.2488886E-04  0.2014932E+04  0.7818609E-02  0.8599671E-01
       -2   -1    0    0    0  501  0.00000000000E+00  0.00000000000E+00  0.12229297956E+04  0.12229297956E+04  0.25500000920E-02 0. -1.
        2   -1    0    0  501    0  0.00000000000E+00  0.00000000000E+00 -0.82996394291E+03  0.82996394292E+03  0.25500000920E-02 0.  1.
    10030    2    1    2    0    0  0.00000000000E+00  0.00000000000E+00  0.39296585265E+03  0.20528937385E+04  0.20149318947E+04 0.  0.
        3    1    3    3  502    0  0.44106357074E+02  0.81555009951E+03  0.79744349405E+03  0.11414830143E+04  0.10100000352E+00 0. -1.
       -3    1    3    3    0  502 -0.44106357074E+02 -0.81555009951E+03 -0.40447764139E+03  0.91141072417E+03  0.10100000352E+00 0.  1.
</event>
<event>
 5   0  0.1258546E-04  0.2125475E+04  0.7818609E-02  0.8550104E-01
       -1   -1    0    0    0  501  0.00000000000E+00  0.00000000000E+00  0.14449671950E+04  0.14449671950E+04  0.50400001928E-02 0. -1.
        1   -1    0    0  501    0  0.00000000000E+00  0.00000000000E+00 -0.78161716206E+03  0.78161716207E+03  0.50400001928E-02 0.  1.
    10030    2    1    2    0    0  0.00000000000E+00  0.00000000000E+00  0.66335003297E+03  0.22265843571E+04  0.21254751547E+04 0.  0.
        4    1    3    3  502    0 -0.10268775075E+04  0.17757684645E+02  0.45519966094E+02  0.10280400921E+04  0.12699999809E+01 0.  1.
       -4    1    3    3    0  502  0.10268775075E+04 -0.17757684645E+02  0.61783006687E+03  0.11985442650E+04  0.12699999809E+01 0. -1.
</event>
<event>
 5   0  0.1210633E-04  0.1990890E+04  0.7818609E-02  0.8610892E-01
        1   -1    0    0  501    0  0.00000000000E+00  0.00000000000E+00  0.14771630412E+04  0.14771630412E+04  0.50400001928E-02 0.  1.
       -1   -1    0    0    0  501  0.00000000000E+00  0.00000000000E+00 -0.67082007696E+03  0.67082007697E+03  0.50400001928E-02 0. -1.
    10030    2    1    2    0    0  0.00000000000E+00  0.00000000000E+00  0.80634296423E+03  0.21479831182E+04  0.19908898764E+04 0.  0.
        2    1    3    3  502    0 -0.71861164050E+03  0.18520095645E+03  0.11190063647E+04  0.13427126753E+04  0.25500000920E-02 0.  1.
       -2    1    3    3    0  502  0.71861164050E+03 -0.18520095645E+03 -0.31266340049E+03  0.80527044286E+03  0.25500000920E-02 0. -1.
</event>
<event>
 5   0  0.2488886E-04  0.2083897E+04  0.7818609E-02  0.8568370E-01
       -2   -1    0    0    0  501  0.00000000000E+00  0.00000000000E+00  0.10161242690E+04  0.10161242690E+04  0.25500000920E-02 0. -1.
        2   -1    0    0  501    0  0.00000000000E+00  0.00000000000E+00 -0.10684293046E+04  0.10684293046E+04  0.25500000920E-02 0.  1.
    10030    2    1    2    0    0  0.00000000000E+00  0.00000000000E+00 -0.52305035525E+02  0.20845535736E+04  0.20838972586E+04 0.  0.
        3    1    3    3  502    0 -0.86551042893E+03 -0.51796783876E+03 -0.28749702845E+03  0.10488343702E+04  0.10100000352E+00 0. -1.
       -3    1    3    3    0  502  0.86551042893E+03  0.51796783876E+03  0.23519199292E+03  0.10357192034E+04  0.10100000352E+00 0.  1.
</event>
<event>
 5   0  0.2540506E-04  0.1976940E+04  0.7818609E-02  0.8617479E-01
        2   -1    0    0  501    0  0.00000000000E+00  0.00000000000E+00  0.15015263649E+04  0.15015263649E+04  0.25500000920E-02 0.  1.
       -2   -1    0    0    0  501  0.00000000000E+00  0.00000000000E+00 -0.65071958555E+03  0.65071958556E+03  0.25500000920E-02 0. -1.
    10030    2    1    2    0    0  0.00000000000E+00  0.00000000000E+00  0.85080677939E+03  0.21522459505E+04  0.19769396692E+04 0.  0.
        4    1    3    3  502    0  0.72157583982E+03  0.70080118704E+02 -0.30610890577E+03  0.78694802290E+03  0.12699999809E+01 0. -1.
       -4    1    3    3    0  502 -0.72157583982E+03 -0.70080118704E+02  0.11569156852E+04  0.13652979276E+04  0.12699999809E+01 0.  1.
</event>
<event>
 5   0  0.2540506E-04  0.2093298E+04  0.7818609E-02  0.8564201E-01
        2   -1    0    0  501    0  0.00000000000E+00  0.00000000000E+00  0.17214899334E+04  0.17214899334E+04  0.25500000920E-02 0.  1.
       -2   -1    0    0    0  501  0.00000000000E+00  0.00000000000E+00 -0.63635250648E+03  0.63635250649E+03  0.25500000920E-02 0. -1.
    10030    2    1    2    0    0  0.00000000000E+00  0.00000000000E+00  0.10851374269E+04  0.23578424399E+04  0.20932982912E+04 0.  0.
        4    1    3    3  502    0 -0.64516512319E+03  0.80199546255E+03  0.32874080813E+03  0.10805123275E+04  0.12699999809E+01 0. -1.
       -4    1    3    3    0  502  0.64516512319E+03 -0.80199546255E+03  0.75639661881E+03  0.12773301124E+04  0.12699999809E+01 0.  1.
</event>
<event>
 5   0  0.1231056E-04  0.2050051E+04  0.7818609E-02  0.8583571E-01
        1   -1    0    0  501    0  0.00000000000E+00  0.00000000000E+00  0.11870252158E+04  0.11870252158E+04  0.50400001928E-02 0.  1.
       -1   -1    0    0    0  501  0.00000000000E+00  0.00000000000E+00 -0.88513513033E+03  0.88513513034E+03  0.50400001928E-02 0. -1.
    10030    2    1    2    0    0  0.00000000000E+00  0.00000000000E+00  0.30189008544E+03  0.20721603461E+04  0.20500514326E+04 0.  0.
        3    1    3    3  502    0 -0.94703950092E+03 -0.38109705172E+03  0.24445725522E+03  0.10497038339E+04  0.10100000352E+00 0. -1.
       -3    1    3    3    0  502  0.94703950092E+03  0.38109705172E+03  0.57432830213E+02  0.10224565122E+04  0.10100000352E+00 0.  1.
</event>
<event>
 5   0  0.1207228E-04  0.1959440E+04  0.7818609E-02  0.8625822E-01
       -1   -1    0    0    0  501  0.00000000000E+00  0.00000000000E+00  0.14304663237E+04  0.14304663237E+04  0.50400001928E-02 0. -1.
        1   -1    0    0  501    0  0.00000000000E+00  0.00000000000E+00 -0.67100587952E+03  0.67100587954E+03  0.50400001928E-02 0.  1.
    10030    2    1    2    0    0  0.00000000000E+00  0.00000000000E+00  0.75946044421E+03  0.21014722033E+04  0.19594400360E+04 0.  0.
        1    1    3    3  502    0 -0.71663452229E+03  0.65651359879E+03  0.24717436861E+03  0.10028311485E+04  0.50400001928E-02 0. -1.
       -1    1    3    3    0  502  0.71663452229E+03 -0.65651359879E+03  0.51228607560E+03  0.10986410548E+04  0.50400001928E-02 0.  1.
</event>
<event>
 5   0  0.1210633E-04  0.1835064E+04  0.7818609E-02  0.8687872E-01
       -1   -1    0    0    0  501  0.00000000000E+00  0.00000000000E+00  0.49328482675E+03  0.49328482678E+03  0.50400001928E-02 0.  1.
        1   -1    0    0  501    0  0.00000000000E+00  0.00000000000E+00 -0.17066504859E+04  0.17066504859E+04  0.50400001928E-02 0. -1.
    10030    2    1    2    0    0  0.00000000000E+00  0.00000000000E+00 -0.12133656592E+04  0.21999353127E+04  0.18350638019E+04 0.  0.
        2    1    3    3  502    0 -0.79152800135E+03  0.19910872923E+03 -0.11091983453E+04  0.13771281103E+04  0.25500000920E-02 0. -1.
       -2    1    3    3    0  502  0.79152800135E+03 -0.19910872923E+03 -0.10416731382E+03  0.82280720236E+03  0.25500000920E-02 0.  1.
</event>
<event>
 5   0  0.2421737E-04  0.2004786E+04  0.7818609E-02  0.8604386E-01
       -2   -1    0    0    0  501  0.00000000000E+00  0.00000000000E+00  0.76516352347E+03  0.76516352347E+03  0.25500000920E-02 0.  1.
        2   -1    0    0  501    0  0.00000000000E+00  0.00000000000E+00 -0.13131722203E+04  0.13131722203E+04  0.25500000920E-02 0. -1.
    10030    2    1    2    0    0  0.00000000000E+00  0.00000000000E+00 -0.54800869684E+03  0.20783357438E+04  0.20047857572E+04 0.  0.
        1    1    3    3  502    0 -0.68081725645E+03 -0.26076226065E+03 -0.98719872659E+03  0.12272206073E+04  0.50400001928E-02 0. -1.
       -1    1    3    3    0  502  0.68081725645E+03  0.26076226065E+03  0.43919002974E+03  0.85111513646E+03  0.50400001928E-02 0.  1.
</event>
<event>
 5   0  0.2540506E-04  0.1977155E+04  0.7818609E-02  0.8617377E-01
        2   -1    0    0  501    0  0.00000000000E+00  0.00000000000E+00  0.13026393147E+04  0.13026393147E+04  0.25500000920E-02 0.  1.
       -2   -1    0    0    0  501  0.00000000000E+00  0.00000000000E+00 -0.75023461338E+03  0.75023461338E+03  0.25500000920E-02 0. -1.
    10030    2    1    2    0    0  0.00000000000E+00  0.00000000000E+00  0.55240470133E+03  0.20528739281E+04  0.19771546249E+04 0.  0.
        4    1    3    3  502    0  0.11500118741E+02  0.78765517211E+02 -0.74690088406E+03  0.75113168150E+03  0.12699999809E+01 0. -1.
       -4    1    3    3    0  502 -0.11500118741E+02 -0.78765517211E+02  0.12993055854E+04  0.13017422466E+04  0.12699999809E+01 0.  1.
</event>
<event>
 5   0  0.1324930E-04  0.1915885E+04  0.7818609E-02  0.8646990E-01
        1   -1    0    0  501    0  0.00000000000E+00  0.00000000000E+00  0.22340943735E+04  0.22340943735E+04  0.50400001928E-02 0. -1.
       -1   -1    0    0    0  501  0.00000000000E+00  0.00000000000E+00 -0.41074961763E+03  0.41074961766E+03  0.50400001928E-02 0.  1.
    10030    2    1    2    0    0  0.00000000000E+00  0.00000000000E+00  0.18233447559E+04  0.26448439912E+04  0.19158845578E+04 0.  0.
        5    1    3    3  502    0  0.28015362072E+03 -0.82540635476E+03  0.14601418889E+04  0.17005346593E+04  0.46999998093E+01 0. -1.
       -5    1    3    3    0  502 -0.28015362072E+03  0.82540635476E+03  0.36320286695E+03  0.94430933187E+03  0.46999998093E+01 0.  1.
</event>
<event>
 5   0  0.2421737E-04  0.1954198E+04  0.7818609E-02  0.8628339E-01
        2   -1    0    0  501    0  0.00000000000E+00  0.00000000000E+00  0.68117467776E+03  0.68117467776E+03  0.25500000920E-02 0.  1.
       -2   -1    0    0    0  501  0.00000000000E+00  0.00000000000E+00 -0.14015829602E+04  0.14015829602E+04  0.25500000920E-02 0. -1.
    10030    2    1    2    0    0  0.00000000000E+00  0.00000000000E+00 -0.72040828239E+03  0.20827576379E+04  0.19541983740E+04 0.  0.
        1    1    3    3  502    0 -0.47996611390E+03  0.63671034222E+03 -0.96211890175E+03  0.12495760527E+04  0.50400001928E-02 0. -1.
       -1    1    3    3    0  502  0.47996611390E+03 -0.63671034222E+03  0.24171061936E+03  0.83318158520E+03  0.50400001928E-02 0.  1.
</event>
<event>
 5   0  0.1231056E-04  0.2030500E+04  0.7818609E-02  0.8592492E-01
        1   -1    0    0  501    0  0.00000000000E+00  0.00000000000E+00  0.19708849357E+04  0.19708849357E+04  0.50400001928E-02 0.  1.
       -1   -1    0    0    0  501  0.00000000000E+00  0.00000000000E+00 -0.52297965324E+03  0.52297965327E+03  0.50400001928E-02 0. -1.
    10030    2    1    2    0    0  0.00000000000E+00  0.00000000000E+00  0.14479052825E+04  0.24938645890E+04  0.20305001554E+04 0.  0.
        3    1    3    3  502    0 -0.12186790083E+01 -0.49074585223E+03 -0.36762800038E+03  0.61317479851E+03  0.10100000352E+00 0. -1.
       -3    1    3    3    0  502  0.12186790083E+01  0.49074585223E+03  0.18155332829E+04  0.18806897905E+04  0.10100000352E+00 0.  1.
</event>
<event>
 5   0  0.9099125E-05  0.2035957E+04  0.7818609E-02  0.8589992E-01
       -3   -1    0    0    0  501  0.00000000000E+00  0.00000000000E+00  0.12735319576E+04  0.12735319616E+04  0.10100000352E+00 0.  1.
        3   -1    0    0  501    0  0.00000000000E+00  0.00000000000E+00 -0.81370583282E+03  0.81370583908E+03  0.10100000352E+00 0. -1.
    10030    2    1    2    0    0  0.00000000000E+00  0.00000000000E+00  0.45982612478E+03  0.20872378007E+04  0.20359571635E+04 0.  0.
        2    1    3    3  502    0 -0.67850431430E+03 -0.49086695272E+03 -0.36342336982E+03  0.91290471328E+03  0.25500000920E-02 0. -1.
       -2    1    3    3    0  502  0.67850431430E+03  0.49086695272E+03  0.82324949460E+03  0.11743330874E+04  0.25500000920E-02 0.  1.
</event>
<event>
 5   0  0.1324930E-04  0.1628383E+04  0.7818609E-02  0.8803298E-01
       -1   -1    0    0    0  501  0.00000000000E+00  0.00000000000E+00  0.92095482031E+03  0.92095482032E+03  0.50400001928E-02 0.  1.
        1   -1    0    0  501    0  0.00000000000E+00  0.00000000000E+00 -0.71980518399E+03  0.71980518401E+03  0.50400001928E-02 0. -1.
    10030    2    1    2    0    0  0.00000000000E+00  0.00000000000E+00  0.20114963632E+03  0.16407600043E+04  0.16283833135E+04 0.  0.
        5    1    3    3  502    0  0.61783727777E+03  0.52901126852E+03  0.64103853298E+02  0.81590882948E+03  0.46999998093E+01 0.  1.
       -5    1    3    3    0  502 -0.61783727777E+03 -0.52901126852E+03  0.13704578302E+03  0.82485117485E+03  0.46999998093E+01 0. -1.
</event>
<event>
 5   0  0.2596061E-04  0.1924072E+04  0.7818609E-02  0.8642966E-01
       -2   -1    0    0    0  501  0.00000000000E+00  0.00000000000E+00  0.41433779251E+03  0.41433779252E+03  0.25500000920E-02 0. -1.
        2   -1    0    0  501    0  0.00000000000E+00  0.00000000000E+00 -0.22337170669E+04  0.22337170669E+04  0.25500000920E-02 0.  1.
    10030    2    1    2    0    0  0.00000000000E+00  0.00000000000E+00 -0.18193792744E+04  0.26480548594E+04  0.19240721386E+04 0.  0.
        5    1    3    3  502    0  0.90252490453E+03 -0.24386200317E+03 -0.59744949294E+03  0.11094989259E+04  0.46999998093E+01 0. -1.
       -5    1    3    3    0  502 -0.90252490453E+03  0.24386200317E+03 -0.12219297815E+04  0.15385559336E+04  0.46999998093E+01 0.  1.
</event>
<event>
 5   0  0.2596061E-04  0.2003991E+04  0.7818609E-02  0.8604757E-01
       -2   -1    0    0    0  501  0.00000000000E+00  0.00000000000E+00  0.20517472392E+04  0.20517472393E+04  0.25500000920E-02 0.  1.
        2   -1    0    0  501    0  0.00000000000E+00  0.00000000000E+00 -0.48933682484E+03  0.48933682485E+03  0.25500000920E-02 0. -1.
    10030    2    1    2    0    0  0.00000000000E+00  0.00000000000E+00  0.15624104144E+04  0.25410840641E+04  0.20039914964E+04 0.  0.
        5    1    3    3  502    0  0.10142888852E+02  0.88872761178E+03  0.19457518971E+03  0.90984682260E+03  0.46999998093E+01 0. -1.
       -5    1    3    3    0  502 -0.10142888852E+02 -0.88872761178E+03  0.13678352247E+04  0.16312372415E+04  0.46999998093E+01 0.  1.
</event>
<event>
 5   0  0.2463085E-04  0.1997194E+04  0.7818609E-02  0.8607934E-01
        2   -1    0    0  501    0  0.00000000000E+00  0.00000000000E+00  0.89665210112E+03  0.89665210113E+03  0.25500000920E-02 0.  1.
       -2   -1    0    0    0  501  0.00000000000E+00  0.00000000000E+00 -0.11121323782E+04  0.11121323782E+04  0.25500000920E-02 0. -1.
    10030    2    1    2    0    0  0.00000000000E+00  0.00000000000E+00 -0.21548027708E+03  0.20087844793E+04  0.19971938651E+04 0.  0.
        2    1    3    3  502    0  0.93780702505E+03 -0.32864398351E+03 -0.86445077949E+01  0.99376235170E+03  0.25500000920E-02 0.  1.
       -2    1    3    3    0  502 -0.93780702505E+03  0.32864398351E+03 -0.20683576929E+03  0.10150221276E+04  0.25500000920E-02 0. -1.
</event>
<event>
 5   0  0.1207228E-04  0.2013003E+04  0.7818609E-02  0.8600565E-01
        1   -1    0    0  501    0  0.00000000000E+00  0.00000000000E+00  0.23236388161E+04  0.23236388161E+04  0.50400001928E-02 0. -1.
       -1   -1    0    0    0  501  0.00000000000E+00  0.00000000000E+00 -0.43597364183E+03  0.43597364186E+03  0.50400001928E-02 0.  1.
    10030    2    1    2    0    0  0.00000000000E+00  0.00000000000E+00  0.18876651743E+04  0.27596124580E+04  0.20130030075E+04 0.  0.
        1    1    3    3  502    0  0.42753587452E+03 -0.90533521787E+03  0.80251418434E+03  0.12831398197E+04  0.50400001928E-02 0.  1.
       -1    1    3    3    0  502 -0.42753587452E+03  0.90533521787E+03  0.10851509900E+04  0.14764726383E+04  0.50400001928E-02 0. -1.
</event>
<event>
 5   0  0.2596061E-04  0.2202793E+04  0.7818609E-02  0.8517266E-01
       -2   -1    0    0    0  501  0.00000000000E+00  0.00000000000E+00  0.53142099875E+03  0.53142099875E+03  0.25500000920E-02 0.  1.
        2   -1    0    0  501    0  0.00000000000E+00  0.00000000000E+00 -0.22826996480E+04  0.22826996480E+04  0.25500000920E-02 0. -1.
    10030    2    1    2    0    0  0.00000000000E+00  0.00000000000E+00 -0.17512786493E+04  0.28141206468E+04  0.22027932511E+04 0.  0.
        5    1    3    3  502    0 -0.54577773027E+03  0.59000074987E+03 -0.18376734097E+04  0.20057516962E+04  0.46999998093E+01 0. -1.
       -5    1    3    3    0  502  0.54577773027E+03 -0.59000074987E+03  0.86394760469E+02  0.80836895063E+03  0.46999998093E+01 0.  1.
</event>
<event>
 5   0  0.1324930E-04  0.1379842E+04  0.7818609E-02  0.8968541E-01
        1   -1    0    0  501    0  0.00000000000E+00  0.00000000000E+00  0.45484711053E+03  0.45484711056E+03  0.50400001928E-02 0.  1.
       -1   -1    0    0    0  501  0.00000000000E+00  0.00000000000E+00 -0.10464856651E+04  0.10464856651E+04  0.50400001928E-02 0. -1.
    10030    2    1    2    0    0  0.00000000000E+00  0.00000000000E+00 -0.59163855459E+03  0.15013327757E+04  0.13798419924E+04 0.  0.
        5    1    3    3  502    0 -0.34522295941E+03 -0.77966767261E+02  0.34853158650E+03  0.49674346024E+03  0.46999998093E+01 0. -1.
       -5    1    3    3    0  502  0.34522295941E+03  0.77966767261E+02 -0.94017014110E+03  0.10045893154E+04  0.46999998093E+01 0.  1.
</event>
<event>
 5   0  0.2488886E-04  0.1812788E+04  0.7818609E-02  0.8699529E-01
       -2   -1    0    0    0  501  0.00000000000E+00  0.00000000000E+00  0.84416060577E+03  0.84416060577E+03  0.25500000920E-02 0. -1.
        2   -1    0    0  501    0  0.00000000000E+00  0.00000000000E+00 -0.97321497880E+03  0.97321497880E+03  0.25500000920E-02 0.  1.
    10030    2    1    2    0    0  0.00000000000E+00  0.00000000000E+00 -0.12905437303E+03  0.18173755846E+04  0.18127876280E+04 0.  0.
        3    1    3    3  502    0  0.66478974297E+03 -0.39373493418E+03 -0.53962226258E+03  0.94242495575E+03  0.10100000352E+00 0.  1.
       -3    1    3    3    0  502 -0.66478974297E+03  0.39373493418E+03  0.41056788954E+03  0.87495062882E+03  0.10100000352E+00 0. -1.
</event>
<event>
 5   0  0.2596061E-04  0.2005333E+04  0.7818609E-02  0.8604131E-01
       -2   -1    0    0    0  501  0.00000000000E+00  0.00000000000E+00  0.49708836724E+03  0.49708836724E+03  0.25500000920E-02 0. -1.
        2   -1    0    0  501    0  0.00000000000E+00  0.00000000000E+00 -0.20224584631E+04  0.20224584631E+04  0.25500000920E-02 0.  1.
    10030    2    1    2    0    0  0.00000000000E+00  0.00000000000E+00 -0.15253700959E+04  0.25195468304E+04  0.20053334638E+04 0.  0.
        5    1    3    3  502    0  0.81519979927E+03 -0.56482680527E+03 -0.94793160584E+03  0.13719243609E+04  0.46999998093E+01 0.  1.
       -5    1    3    3    0  502 -0.81519979927E+03  0.56482680527E+03 -0.57743849007E+03  0.11476224695E+04  0.46999998093E+01 0. -1.
</event>
<event>
 5   0  0.1258546E-04  0.2009453E+04  0.7818609E-02  0.8602214E-01
        1   -1    0    0  501    0  0.00000000000E+00  0.00000000000E+00  0.26162215858E+04  0.26162215858E+04  0.50400001928E-02 0. -1.
       -1   -1    0    0    0  501  0.00000000000E+00  0.00000000000E+00 -0.38585255026E+03  0.38585255029E+03  0.50400001928E-02 0.  1.
    10030    2    1    2    0    0  0.00000000000E+00  0.00000000000E+00  0.22303690356E+04  0.30020741361E+04  0.20094534292E+04 0.  0.
        4    1    3    3  502    0 -0.47626071320E+03 -0.13063966585E+02  0.24367231857E+04  0.24828645615E+04  0.12699999809E+01 0. -1.
       -4    1    3    3    0  502  0.47626071320E+03  0.13063966585E+02 -0.20635415016E+03  0.51920957459E+03  0.12699999809E+01 0.  1.
</event>
<event>
 5   0  0.2488886E-04  0.2002188E+04  0.7818609E-02  0.8605598E-01
        2   -1    0    0  501    0  0.00000000000E+00  0.00000000000E+00  0.15894107677E+04  0.15894107677E+04  0.25500000920E-02 0. -1.
       -2   -1    0    0    0  501  0.00000000000E+00  0.00000000000E+00 -0.63054139450E+03  0.63054139451E+03  0.25500000920E-02 0.  1.
    10030    2    1    2    0    0  0.00000000000E+00  0.00000000000E+00  0.95886937317E+03  0.22199521622E+04  0.20021880850E+04 0.  0.
        3    1    3    3  502    0  0.25853521275E+03  0.85071773831E+02  0.15476009218E+04  0.15713517386E+04  0.10100000352E+00 0. -1.
       -3    1    3    3    0  502 -0.25853521275E+03 -0.85071773831E+02 -0.58873154864E+03  0.64860042361E+03  0.10100000352E+00 0.  1.
</event>
<event>
 5   0  0.2463085E-04  0.2065887E+04  0.7818609E-02  0.8576421E-01
        2   -1    0    0  501    0  0.00000000000E+00  0.00000000000E+00  0.22582932987E+04  0.22582932987E+04  0.25500000920E-02 0.  1.
       -2   -1    0    0    0  501  0.00000000000E+00  0.00000000000E+00 -0.47246824845E+03  0.47246824846E+03  0.25500000920E-02 0. -1.
    10030    2    1    2    0    0  0.00000000000E+00  0.00000000000E+00  0.17858250502E+04  0.27307615472E+04  0.20658866177E+04 0.  0.
        2    1    3    3  502    0  0.21217640182E+03 -0.41013492341E+02 -0.44225283508E+03  0.49222809976E+03  0.25500000920E-02 0. -1.
       -2    1    3    3    0  502 -0.21217640182E+03  0.41013492341E+02  0.22280778853E+04  0.22385334474E+04  0.25500000920E-02 0.  1.
</event>
<event>
 5   0  0.2540506E-04  0.1938791E+04  0.7818609E-02  0.8635785E-01
       -2   -1    0    0    0  501  0.00000000000E+00  0.00000000000E+00  0.10225269522E+04  0.10225269522E+04  0.25500000920E-02 0.  1.
        2   -1    0    0  501    0  0.00000000000E+00  0.00000000000E+00 -0.91902505204E+03  0.91902505205E+03  0.25500000920E-02 0. -1.
    10030    2    1    2    0    0  0.00000000000E+00  0.00000000000E+00  0.10350190012E+03  0.19415520042E+04  0.19387912579E+04 0.  0.
        4    1    3    3  502    0  0.36004001909E+03 -0.40818987855E+02 -0.84865742495E+03  0.92277626916E+03  0.12699999809E+01 0. -1.
       -4    1    3    3    0  502 -0.36004001909E+03  0.40818987855E+02  0.95215932507E+03  0.10187757351E+04  0.12699999809E+01 0.  1.
</event>
<event>
 5   0  0.2488886E-04  0.1319495E+04  0.7818609E-02  0.9014246E-01
        2   -1    0    0  501    0  0.00000000000E+00  0.00000000000E+00  0.54147211882E+03  0.54147211883E+03  0.25500000920E-02 0.  1.
       -2   -1    0    0    0  501  0.00000000000E+00  0.00000000000E+00 -0.80385855222E+03  0.80385855222E+03  0.25500000920E-02 0. -1.
    10030    2    1    2    0    0  0.00000000000E+00  0.00000000000E+00 -0.26238643339E+03  0.13453306711E+04  0.13194953482E+04 0.  0.
        3    1    3    3  502    0 -0.34304186336E+03 -0.42595144992E+03  0.24502288592E+03  0.59929006543E+03  0.10100000352E+00 0.  1.
       -3    1    3    3    0  502  0.34304186336E+03  0.42595144992E+03 -0.50740931931E+03  0.74604060562E+03  0.10100000352E+00 0. -1.
</event>
<event>
 5   0  0.2421737E-04  0.2000301E+04  0.7818609E-02  0.8606480E-01
        2   -1    0    0  501    0  0.00000000000E+00  0.00000000000E+00  0.10774407586E+04  0.10774407586E+04  0.25500000920E-02 0.  1.
       -2   -1    0    0    0  501  0.00000000000E+00  0.00000000000E+00 -0.92840440550E+03  0.92840440551E+03  0.25500000920E-02 0. -1.
    10030    2    1    2    0    0  0.00000000000E+00  0.00000000000E+00  0.14903635305E+03  0.20058451641E+04  0.20003007243E+04 0.  0.
        1    1    3    3  502    0 -0.56709620299E+03  0.67867949276E+03  0.54282097162E+03  0.10377179600E+04  0.50400001928E-02 0.  1.
       -1    1    3    3    0  502  0.56709620299E+03 -0.67867949276E+03 -0.39378461857E+03  0.96812720403E+03  0.50400001928E-02 0. -1.
</event>
<event>
 5   0  0.2421737E-04  0.1919852E+04  0.7818609E-02  0.8645037E-01
       -2   -1    0    0    0  501  0.00000000000E+00  0.00000000000E+00  0.52256366235E+03  0.52256366236E+03  0.25500000920E-02 0. -1.
        2   -1    0    0  501    0  0.00000000000E+00  0.00000000000E+00 -0.17633412463E+04  0.17633412463E+04  0.25500000920E-02 0.  1.
    10030    2    1    2    0    0  0.00000000000E+00  0.00000000000E+00 -0.12407775839E+04  0.22859049086E+04  0.19198521398E+04 0.  0.
        1    1    3    3  502    0 -0.64559828563E+03  0.22757701045E+03  0.18087768028E+03  0.70802907945E+03  0.50400001928E-02 0.  1.
       -1    1    3    3    0  502  0.64559828563E+03 -0.22757701045E+03 -0.14216552642E+04  0.15778758292E+04  0.50400001928E-02 0. -1.
</event>
<event>
 5   0  0.1207228E-04  0.2015711E+04  0.7818609E-02  0.8599310E-01
       -1   -1    0    0    0  501  0.00000000000E+00  0.00000000000E+00  0.13225814371E+04  0.13225814371E+04  0.50400001928E-02 0.  1.
        1   -1    0    0  501    0  0.00000000000E+00  0.00000000000E+00 -0.76802261488E+03  0.76802261489E+03  0.50400001928E-02 0. -1.
    10030    2    1    2    0    0  0.00000000000E+00  0.00000000000E+00  0.55455882219E+03  0.20906040520E+04  0.20157107468E+04 0.  0.
        1    1    3    3  502    0 -0.59497226946E+03  0.74149972226E+03  0.62431365680E+03  0.11373571918E+04  0.50400001928E-02 0.  1.
       -1    1    3    3    0  502  0.59497226946E+03 -0.74149972226E+03 -0.69754834613E+02  0.95324686022E+03  0.50400001928E-02 0. -1.
</event>
<event>
 5   0  0.1210633E-04  0.2007873E+04  0.7818609E-02  0.8602949E-01
        1   -1    0    0  501    0  0.00000000000E+00  0.00000000000E+00  0.10858328360E+04  0.10858328361E+04  0.50400001928E-02 0.  1.
       -1   -1    0    0    0  501  0.00000000000E+00  0.00000000000E+00 -0.92821677609E+03  0.92821677610E+03  0.50400001928E-02 0. -1.
    10030    2    1    2    0    0  0.00000000000E+00  0.00000000000E+00  0.15761605995E+03  0.20140496122E+04  0.20078727594E+04 0.  0.
        2    1    3    3  502    0  0.19870016262E+03  0.58273425632E+03  0.87423381617E+03  0.10692734606E+04  0.25500000920E-02 0.  1.
       -2    1    3    3    0  502 -0.19870016262E+03 -0.58273425632E+03 -0.71661775621E+03  0.94477615160E+03  0.25500000920E-02 0. -1.
</event>
<event>
 5   0  0.2421737E-04  0.1929034E+04  0.7818609E-02  0.8640538E-01
        2   -1    0    0  501    0  0.00000000000E+00  0.00000000000E+00  0.12963453435E+04  0.12963453435E+04  0.25500000920E-02 0.  1.
       -2   -1    0    0    0  501  0.00000000000E+00  0.00000000000E+00 -0.71762719370E+03  0.71762719370E+03  0.25500000920E-02 0. -1.
    10030    2    1    2    0    0  0.00000000000E+00  0.00000000000E+00  0.57871814982E+03  0.20139725372E+04  0.19290336139E+04 0.  0.
        1    1    3    3  502    0 -0.52932229342E+03 -0.58757554262E+03  0.86581742358E+03  0.11726324742E+04  0.50400001928E-02 0.  1.
       -1    1    3    3    0  502  0.52932229342E+03  0.58757554262E+03 -0.28709927376E+03  0.84134006300E+03  0.50400001928E-02 0. -1.
</event>
<event>
 5   0  0.1231056E-04  0.1875371E+04  0.7818609E-02  0.8667214E-01
        1   -1    0    0  501    0  0.00000000000E+00  0.00000000000E+00  0.13807928377E+04  0.13807928378E+04  0.50400001928E-02 0. -1.
       -1   -1    0    0    0  501  0.00000000000E+00  0.00000000000E+00 -0.63677494381E+03  0.63677494383E+03  0.50400001928E-02 0.  1.
    10030    2    1    2    0    0  0.00000000000E+00  0.00000000000E+00  0.74401789394E+03  0.20175677816E+04  0.18753711971E+04 0.  0.
        3    1    3    3  502    0 -0.51125664613E+03  0.28312735654E+03  0.11608960819E+04  0.12997015740E+04  0.10100000352E+00 0. -1.
       -3    1    3    3    0  502  0.51125664613E+03 -0.28312735654E+03 -0.41687818795E+03  0.71786620761E+03  0.10100000352E+00 0.  1.
</event>
<event>
 5   0  0.2596061E-04  0.1797426E+04  0.7818609E-02  0.8707670E-01
        2   -1    0    0  501    0  0.00000000000E+00  0.00000000000E+00  0.10238266309E+04  0.10238266309E+04  0.25500000920E-02 0. -1.
       -2   -1    0    0    0  501  0.00000000000E+00  0.00000000000E+00 -0.78888808238E+03  0.78888808239E+03  0.25500000920E-02 0.  1.
    10030    2    1    2    0    0  0.00000000000E+00  0.00000000000E+00  0.23493854850E+03  0.18127147133E+04  0.17974255228E+04 0.  0.
        5    1    3    3  502    0  0.80655514213E+03 -0.53935006061E+02  0.51352128394E+03  0.95768803962E+03  0.46999998093E+01 0. -1.
       -5    1    3    3    0  502 -0.80655514213E+03  0.53935006061E+02 -0.27858273544E+03  0.85502667365E+03  0.46999998093E+01 0.  1.
</event>
<event>
 5   0  0.1231056E-04  0.1988307E+04  0.7818609E-02  0.8612107E-01
       -1   -1    0    0    0  501  0.00000000000E+00  0.00000000000E+00  0.10894695287E+04  0.10894695288E+04  0.50400001928E-02 0. -1.
        1   -1    0    0  501    0  0.00000000000E+00  0.00000000000E+00 -0.90717610040E+03  0.90717610041E+03  0.50400001928E-02 0.  1.
    10030    2    1    2    0    0  0.00000000000E+00  0.00000000000E+00  0.18229342835E+03  0.19966456292E+04  0.19883065343E+04 0.  0.
        3    1    3    3  502    0  0.91731416114E+03 -0.35015645325E+03 -0.65281764584E+02  0.98404091936E+03  0.10100000352E+00 0.  1.
       -3    1    3    3    0  502 -0.91731416114E+03  0.35015645325E+03  0.24757519293E+03  0.10126047098E+04  0.10100000352E+00 0. -1.
</event>
<event>
 5   0  0.2463085E-04  0.1980179E+04  0.7818609E-02  0.8615944E-01
       -2   -1    0    0    0  501  0.00000000000E+00  0.00000000000E+00  0.44619300796E+03  0.44619300797E+03  0.25500000920E-02 0.  1.
        2   -1    0    0  501    0  0.00000000000E+00  0.00000000000E+00 -0.21969793610E+04  0.21969793610E+04  0.25500000920E-02 0. -1.
    10030    2    1    2    0    0  0.00000000000E+00  0.00000000000E+00 -0.17507863530E+04  0.26431723690E+04  0.19801786076E+04 0.  0.
        2    1    3    3  502    0  0.83882180409E+03 -0.52595742701E+03 -0.88187706653E+03  0.13258809881E+04  0.25500000920E-02 0.  1.
       -2    1    3    3    0  502 -0.83882180409E+03  0.52595742701E+03 -0.86890928652E+03  0.13172913809E+04  0.25500000920E-02 0. -1.
</event>
<event>
 5   0  0.1258546E-04  0.2013085E+04  0.7818609E-02  0.8600527E-01
       -1   -1    0    0    0  501  0.00000000000E+00  0.00000000000E+00  0.13361621870E+04  0.13361621870E+04  0.50400001928E-02 0.  1.
        1   -1    0    0  501    0  0.00000000000E+00  0.00000000000E+00 -0.75823701379E+03  0.75823701381E+03  0.50400001928E-02 0. -1.
    10030    2    1    2    0    0  0.00000000000E+00  0.00000000000E+00  0.57792517322E+03  0.20943992008E+04  0.20130848235E+04 0.  0.
        4    1    3    3  502    0  0.57916520604E+03  0.16180340543E+03  0.11287300493E+04  0.12789236940E+04  0.12699999809E+01 0.  1.
       -4    1    3    3    0  502 -0.57916520604E+03 -0.16180340543E+03 -0.55080487607E+03  0.81547550687E+03  0.12699999809E+01 0. -1.
</event>
<event>
 5   0  0.1324930E-04  0.1947922E+04  0.7818609E-02  0.8631363E-01
        1   -1    0    0  501    0  0.00000000000E+00  0.00000000000E+00  0.10424975626E+04  0.10424975626E+04  0.50400001928E-02 0. -1.
       -1   -1    0    0    0  501  0.00000000000E+00  0.00000000000E+00 -0.90993022895E+03  0.90993022896E+03  0.50400001928E-02 0.  1.
    10030    2    1    2    0    0  0.00000000000E+00  0.00000000000E+00  0.13256733363E+03  0.19524277916E+04  0.19479220167E+04 0.  0.
        5    1    3    3  502    0 -0.43823620535E+02 -0.95988049727E+03  0.22566997572E+03  0.98703602097E+03  0.46999998093E+01 0. -1.
       -5    1    3    3    0  502  0.43823620535E+02  0.95988049727E+03 -0.93102642090E+02  0.96539177058E+03  0.46999998093E+01 0.  1.
</event>
<event>
 5   0  0.1207228E-04  0.2044937E+04  0.7818609E-02  0.8585895E-01
        1   -1    0    0  501    0  0.00000000000E+00  0.00000000000E+00  0.13083345427E+04  0.13083345427E+04  0.50400001928E-02 0. -1.
       -1   -1    0    0    0  501  0.00000000000E+00  0.00000000000E+00 -0.79906273549E+03  0.79906273550E+03  0.50400001928E-02 0.  1.
    10030    2    1    2    0    0  0.00000000000E+00  0.00000000000E+00  0.50927180718E+03  0.21073972782E+04  0.20449365551E+04 0.  0.
        1    1    3    3  502    0 -0.13964540315E+03  0.95107595099E+03  0.61369597346E+03  0.11404687856E+04  0.50400001928E-02 0. -1.
       -1    1    3    3    0  502  0.13964540315E+03 -0.95107595099E+03 -0.10442416627E+03  0.96692849254E+03  0.50400001928E-02 0.  1.
</event>
<event>
 5   0  0.1210633E-04  0.2018827E+04  0.7818609E-02  0.8597869E-01
       -1   -1    0    0    0  501  0.00000000000E+00  0.00000000000E+00  0.67089344424E+03  0.67089344426E+03  0.50400001928E-02 0. -1.
        1   -1    0    0  501    0  0.00000000000E+00  0.00000000000E+00 -0.15187438641E+04  0.15187438641E+04  0.50400001928E-02 0.  1.
    10030    2    1    2    0    0  0.00000000000E+00  0.00000000000E+00 -0.84785041989E+03  0.21896373084E+04  0.20188266909E+04 0.  0.
        2    1    3    3  502    0  0.53031586356E+03  0.85845968683E+03 -0.39467387238E+03  0.10834922310E+04  0.25500000920E-02 0. -1.
       -2    1    3    3    0  502 -0.53031586356E+03 -0.85845968683E+03 -0.45317654751E+03  0.11061450774E+04  0.25500000920E-02 0.  1.
</event>
<event>
 5   0  0.2488886E-04  0.1448931E+04  0.7818609E-02  0.8919142E-01
       -2   -1    0    0    0  501  0.00000000000E+00  0.00000000000E+00  0.33459476077E+03  0.33459476078E+03  0.25500000920E-02 0.  1.
        2   -1    0    0  501    0  0.00000000000E+00  0.00000000000E+00 -0.15686140475E+04  0.15686140475E+04  0.25500000920E-02 0. -1.
    10030    2    1    2    0    0  0.00000000000E+00  0.00000000000E+00 -0.12340192867E+04  0.19032088083E+04  0.14489306981E+04 0.  0.
        3    1    3    3  502    0  0.37497099358E+03 -0.32506926306E+03  0.76274499118E+02  0.50208672680E+03  0.10100000352E+00 0.  1.
       -3    1    3    3    0  502 -0.37497099358E+03  0.32506926306E+03 -0.13102937858E+04  0.14011220815E+04  0.10100000352E+00 0. -1.
</event>
<event>
 5   0  0.2421737E-04  0.1962893E+04  0.7818609E-02  0.8624168E-01
       -2   -1    0    0    0  501  0.00000000000E+00  0.00000000000E+00  0.14486271764E+04  0.14486271764E+04  0.25500000920E-02 0.  1.
        2   -1    0    0  501    0  0.00000000000E+00  0.00000000000E+00 -0.66493125792E+03  0.66493125793E+03  0.25500000920E-02 0. -1.
    10030    2    1    2    0    0  0.00000000000E+00  0.00000000000E+00  0.78369591848E+03  0.21135584343E+04  0.19628932632E+04 0.  0.
        1    1    3    3  502    0 -0.91332211169E+03  0.11310436427E+03  0.75903242905E+03  0.11929292122E+04  0.50400001928E-02 0.  1.
       -1    1    3    3    0  502  0.91332211169E+03 -0.11310436427E+03  0.24663489431E+02  0.92062922214E+03  0.50400001928E-02 0. -1.
</event>
<event>
 5   0  0.1210633E-04  0.2005298E+04  0.7818609E-02  0.8604148E-01
       -1   -1    0    0    0  501  0.00000000000E+00  0.00000000000E+00  0.17719626003E+04  0.17719626003E+04  0.50400001928E-02 0. -1.
        1   -1    0    0  501    0  0.00000000000E+00  0.00000000000E+00 -0.56734004495E+03  0.56734004497E+03  0.50400001928E-02 0.  1.
    10030    2    1    2    0    0  0.00000000000E+00  0.00000000000E+00  0.12046225553E+04  0.23393026452E+04  0.20052983233E+04 0.  0.
        2    1    3    3  502    0 -0.74091959167E+03  0.53630994342E+01  0.13903356845E+04  0.15754440389E+04  0.25500000920E-02 0. -1.
       -2    1    3    3    0  502  0.74091959167E+03 -0.53630994342E+01 -0.18571312915E+03  0.76385860635E+03  0.25500000920E-02 0.  1.
</event>
<event>
 5   0  0.1258546E-04  0.1988966E+04  0.7818609E-02  0.8611797E-01
       -1   -1    0    0    0  501  0.00000000000E+00  0.00000000000E+00  0.13626219823E+04  0.13626219823E+04  0.50400001928E-02 0. -1.
        1   -1    0    0  501    0  0.00000000000E+00  0.00000000000E+00 -0.72580395065E+03  0.72580395066E+03  0.50400001928E-02 0.  1.
    10030    2    1    2    0    0  0.00000000000E+00  0.00000000000E+00  0.63681803168E+03  0.20884259330E+04  0.19889659806E+04 0.  0.
        4    1    3    3  502    0 -0.52298140044E+03 -0.50030144510E+03 -0.39774095396E+03  0.82583930673E+03  0.12699999809E+01 0.  1.
       -4    1    3    3    0  502  0.52298140044E+03  0.50030144510E+03  0.10345589856E+04  0.12625866263E+04  0.12699999809E+01 0. -1.
</event>
<event>
 5   0  0.1231056E-04  0.2027820E+04  0.7818609E-02  0.8593723E-01
       -1   -1    0    0    0  501  0.00000000000E+00  0.00000000000E+00  0.10897309168E+04  0.10897309168E+04  0.50400001928E-02 0. -1.
        1   -1    0    0  501    0  0.00000000000E+00  0.00000000000E+00 -0.94336424238E+03  0.94336424239E+03  0.50400001928E-02 0.  1.
    10030    2    1    2    0    0  0.00000000000E+00  0.00000000000E+00  0.14636667441E+03  0.20330951592E+04  0.20278196969E+04 0.  0.
        3    1    3    3  502    0 -0.13118024152E+03  0.15640454283E+03 -0.92254817104E+03  0.94486283390E+03  0.10100000352E+00 0.  1.
       -3    1    3    3    0  502  0.13118024152E+03 -0.15640454283E+03  0.10689148455E+04  0.10882323253E+04  0.10100000352E+00 0. -1.
</event>
<event>
 5   0  0.1258546E-04  0.2031719E+04  0.7818609E-02  0.8591933E-01
       -1   -1    0    0    0  501  0.00000000000E+00  0.00000000000E+00  0.69410308313E+03  0.69410308314E+03  0.50400001928E-02 0.  1.
        1   -1    0    0  501    0  0.00000000000E+00  0.00000000000E+00 -0.14867689014E+04  0.14867689014E+04  0.50400001928E-02 0. -1.
    10030    2    1    2    0    0  0.00000000000E+00  0.00000000000E+00 -0.79266581826E+03  0.21808719845E+04  0.20317193491E+04 0.  0.
        4    1    3    3  502    0  0.58553968755E+03  0.74002165740E+02 -0.12838546263E+04  0.14130171126E+04  0.12699999809E+01 0. -1.
       -4    1    3    3    0  502 -0.58553968755E+03 -0.74002165740E+02  0.49118880805E+03  0.76785487189E+03  0.12699999809E+01 0.  1.
</event>
<event>
 5   0  0.2463085E-04  0.1306777E+04  0.7818609E-02  0.9024208E-01
       -2   -1    0    0    0  501  0.00000000000E+00  0.00000000000E+00  0.22261500652E+03  0.22261500654E+03  0.25500000920E-02 0. -1.
        2   -1    0    0  501    0  0.00000000000E+00  0.00000000000E+00 -0.19177361138E+04  0.19177361138E+04  0.25500000920E-02 0.  1.
    10030    2    1    2    0    0  0.00000000000E+00  0.00000000000E+00 -0.16951211073E+04  0.21403511203E+04  0.13067774676E+04 0.  0.
        2    1    3    3  502    0 -0.36606943441E+03  0.35913775334E+03 -0.15107119880E+04  0.15953800386E+04  0.25500000920E-02 0.  1.
       -2    1    3    3    0  502  0.36606943441E+03 -0.35913775334E+03 -0.18440911924E+03  0.54497108175E+03  0.25500000920E-02 0. -1.
</event>
<event>
 5   0  0.2421737E-04  0.1971095E+04  0.7818609E-02  0.8620255E-01
        2   -1    0    0  501    0  0.00000000000E+00  0.00000000000E+00  0.13937004219E+04  0.13937004219E+04  0.25500000920E-02 0. -1.
       -2   -1    0    0    0  501  0.00000000000E+00  0.00000000000E+00 -0.69692475145E+03  0.69692475145E+03  0.25500000920E-02 0.  1.
    10030    2    1    2    0    0  0.00000000000E+00  0.00000000000E+00  0.69677567048E+03  0.20906251734E+04  0.19710954519E+04 0.  0.
        1    1    3    3  502    0  0.91891664391E+03  0.29373424049E+03  0.56214512360E+03  0.11165548542E+04  0.50400001928E-02 0. -1.
       -1    1    3    3    0  502 -0.91891664391E+03 -0.29373424049E+03  0.13463054688E+03  0.97407031916E+03  0.50400001928E-02 0.  1.
</event>
<event>
 5   0  0.1207228E-04  0.2020666E+04  0.7818609E-02  0.8597019E-01
       -1   -1    0    0    0  501  0.00000000000E+00  0.00000000000E+00  0.35122961051E+03  0.35122961054E+03  0.50400001928E-02 0.  1.
        1   -1    0    0  501    0  0.00000000000E+00  0.00000000000E+00 -0.29062830725E+04  0.29062830725E+04  0.50400001928E-02 0. -1.
    10030    2    1    2    0    0  0.00000000000E+00  0.00000000000E+00 -0.25550534620E+04  0.32575126830E+04  0.20206659018E+04 0.  0.
        1    1    3    3  502    0  0.43986544890E+03 -0.40291098392E+03  0.37054228664E+02  0.59765532708E+03  0.50400001928E-02 0.  1.
       -1    1    3    3    0  502 -0.43986544890E+03  0.40291098392E+03 -0.25921076907E+04  0.26598573560E+04  0.50400001928E-02 0. -1.
</event>
<event>
 5   0  0.2463085E-04  0.1697275E+04  0.7818609E-02  0.8762920E-01
        2   -1    0    0  501    0  0.00000000000E+00  0.00000000000E+00  0.10434009971E+04  0.10434009971E+04  0.25500000920E-02 0. -1.
       -2   -1    0    0    0  501  0.00000000000E+00  0.00000000000E+00 -0.69022907421E+03  0.69022907421E+03  0.25500000920E-02 0.  1.
    10030    2    1    2    0    0  0.00000000000E+00  0.00000000000E+00  0.35317192292E+03  0.17336300713E+04  0.16972751153E+04 0.  0.
        2    1    3    3  502    0 -0.27949269486E+03 -0.75335347499E+03  0.45543179057E+03  0.92362099404E+03  0.25500000920E-02 0. -1.
       -2    1    3    3    0  502  0.27949269486E+03  0.75335347499E+03 -0.10225986765E+03  0.81000907730E+03  0.25500000920E-02 0.  1.
</event>
<event>
 5   0  0.1231056E-04  0.2006818E+04  0.7818609E-02  0.8603440E-01
        1   -1    0    0  501    0  0.00000000000E+00  0.00000000000E+00  0.80155828797E+03  0.80155828799E+03  0.50400001928E-02 0.  1.
       -1   -1    0    0    0  501  0.00000000000E+00  0.00000000000E+00 -0.12560898279E+04  0.12560898279E+04  0.50400001928E-02 0. -1.
    10030    2    1    2    0    0  0.00000000000E+00  0.00000000000E+00 -0.45453153993E+03  0.20576481159E+04  0.20068175921E+04 0.  0.
        3    1    3    3  502    0  0.21774384444E+03 -0.70343928507E+03 -0.92613856105E+03  0.11832040627E+04  0.10100000352E+00 0. -1.
       -3    1    3    3    0  502 -0.21774384444E+03  0.70343928507E+03  0.47160702112E+03  0.87444405318E+03  0.10100000352E+00 0.  1.
</event>
<event>
 5   0  0.2421737E-04  0.1971800E+04  0.7818609E-02  0.8619920E-01
       -2   -1    0    0    0  501  0.00000000000E+00  0.00000000000E+00  0.56331991158E+03  0.56331991159E+03  0.25500000920E-02 0.  1.
        2   -1    0    0  501    0  0.00000000000E+00  0.00000000000E+00 -0.17254829037E+04  0.17254829037E+04  0.25500000920E-02 0. -1.
    10030    2    1    2    0    0  0.00000000000E+00  0.00000000000E+00 -0.11621629921E+04  0.22888028153E+04  0.19718000677E+04 0.  0.
        1    1    3    3  502    0 -0.83054542873E+03 -0.14169419497E+03  0.13199994041E+02  0.84264891500E+03  0.50400001928E-02 0.  1.
       -1    1    3    3    0  502  0.83054542873E+03  0.14169419497E+03 -0.11753629862E+04  0.14461539003E+04  0.50400001928E-02 0. -1.
</event>
<event>
 5   0  0.1231056E-04  0.1963129E+04  0.7818609E-02  0.8624056E-01
        1   -1    0    0  501    0  0.00000000000E+00  0.00000000000E+00  0.12898610853E+04  0.12898610853E+04  0.50400001928E-02 0. -1.
       -1   -1    0    0    0  501  0.00000000000E+00  0.00000000000E+00 -0.74695561837E+03  0.74695561839E+03  0.50400001928E-02 0.  1.
    10030    2    1    2    0    0  0.00000000000E+00  0.00000000000E+00  0.54290546688E+03  0.20368167036E+04  0.19631291191E+04 0.  0.
        3    1    3    3  502    0 -0.60299708831E+03  0.56094284058E+03 -0.28264054307E+03  0.87071697221E+03  0.10100000352E+00 0.  1.
       -3    1    3    3    0  502  0.60299708831E+03 -0.56094284058E+03  0.82554600996E+03  0.11660997314E+04  0.10100000352E+00 0. -1.
</event>
<event>
 5   0  0.2596061E-04  0.2001121E+04  0.7818609E-02  0.8606097E-01
        2   -1    0    0  501    0  0.00000000000E+00  0.00000000000E+00  0.74816713643E+03  0.74816713644E+03  0.25500000920E-02 0.  1.
       -2   -1    0    0    0  501  0.00000000000E+00  0.00000000000E+00 -0.13380989451E+04  0.13380989451E+04  0.25500000920E-02 0. -1.
    10030    2    1    2    0    0  0.00000000000E+00  0.00000000000E+00 -0.58993180865E+03  0.20862660815E+04  0.20011213417E+04 0.  0.
        5    1    3    3  502    0 -0.91767306313E+03 -0.34843832150E+03 -0.49703335372E+03  0.11002714935E+04  0.46999998093E+01 0. -1.
       -5    1    3    3    0  502  0.91767306313E+03  0.34843832150E+03 -0.92898454938E+02  0.98599458803E+03  0.46999998093E+01 0.  1.
</event>
<event>
 5   0  0.2421737E-04  0.2264970E+04  0.7818609E-02  0.8491862E-01
       -2   -1    0    0    0  501  0.00000000000E+00  0.00000000000E+00  0.12036692616E+04  0.12036692616E+04  0.25500000920E-02 0.  1.
        2   -1    0    0  501    0  0.00000000000E+00  0.00000000000E+00 -0.10655105742E+04  0.10655105742E+04  0.25500000920E-02 0. -1.
    10030    2    1    2    0    0  0.00000000000E+00  0.00000000000E+00  0.13815868744E+03  0.22691798358E+04  0.22649700449E+04 0.  0.
        1    1    3    3  502    0 -0.11039206479E+04 -0.80243852861E+02  0.30919636258E+03  0.11492094080E+04  0.50400001928E-02 0.  1.
       -1    1    3    3    0  502  0.11039206479E+04  0.80243852861E+02 -0.17103767515E+03  0.11199704278E+04  0.50400001928E-02 0. -1.
</event>
<event>
 5   0  0.1210633E-04  0.1937757E+04  0.7818609E-02  0.8636287E-01
        1   -1    0    0  501    0  0.00000000000E+00  0.00000000000E+00  0.17742931478E+04  0.17742931478E+04  0.50400001928E-02 0. -1.
       -1   -1    0    0    0  501  0.00000000000E+00  0.00000000000E+00 -0.52907019540E+03  0.52907019543E+03  0.50400001928E-02 0.  1.
    10030    2    1    2    0    0  0.00000000000E+00  0.00000000000E+00  0.12452229524E+04  0.23033633432E+04  0.19377570771E+04 0.  0.
        2    1    3    3  502    0 -0.15783120145E+03  0.69713348426E+03  0.14000992699E+04  0.15719999200E+04  0.25500000920E-02 0. -1.
       -2    1    3    3    0  502  0.15783120145E+03 -0.69713348426E+03 -0.15487631752E+03  0.73136342318E+03  0.25500000920E-02 0.  1.
</event>
<event>
 5   0  0.2463085E-04  0.1979877E+04  0.7818609E-02  0.8616087E-01
        2   -1    0    0  501    0  0.00000000000E+00  0.00000000000E+00  0.61339571758E+03  0.61339571759E+03  0.25500000920E-02 0. -1.
       -2   -1    0    0    0  501  0.00000000000E+00  0.00000000000E+00 -0.15976287432E+04  0.15976287432E+04  0.25500000920E-02 0.  1.
    10030    2    1    2    0    0  0.00000000000E+00  0.00000000000E+00 -0.98423302558E+03  0.22110244608E+04  0.19798773996E+04 0.  0.
        2    1    3    3  502    0 -0.24830253831E+03  0.78991916516E+03  0.11376665264E+03  0.83580457601E+03  0.25500000920E-02 0. -1.
       -2    1    3    3    0  502  0.24830253831E+03 -0.78991916516E+03 -0.10979996782E+04  0.13752198847E+04  0.25500000920E-02 0.  1.
</event>
<event>
 5   0  0.2421737E-04  0.1993320E+04  0.7818609E-02  0.8609750E-01
        2   -1    0    0  501    0  0.00000000000E+00  0.00000000000E+00  0.87849913455E+03  0.87849913456E+03  0.25500000920E-02 0.  1.
       -2   -1    0    0    0  501  0.00000000000E+00  0.00000000000E+00 -0.11307137615E+04  0.11307137615E+04  0.25500000920E-02 0. -1.
    10030    2    1    2    0    0  0.00000000000E+00  0.00000000000E+00 -0.25221462694E+03  0.20092128961E+04  0.19933199050E+04 0.  0.
        1    1    3    3  502    0  0.51053625217E+03 -0.23565774893E+03 -0.95555909668E+03  0.11087267593E+04  0.50400001928E-02 0. -1.
       -1    1    3    3    0  502 -0.51053625217E+03  0.23565774893E+03  0.70334446975E+03  0.90048613680E+03  0.50400001928E-02 0.  1.
</event>
<event>
 5   0  0.1210633E-04  0.1845914E+04  0.7818609E-02  0.8682257E-01
       -1   -1    0    0    0  501  0.00000000000E+00  0.00000000000E+00  0.13103779343E+04  0.13103779343E+04  0.50400001928E-02 0. -1.
        1   -1    0    0  501    0  0.00000000000E+00  0.00000000000E+00 -0.65007903933E+03  0.65007903935E+03  0.50400001928E-02 0.  1.
    10030    2    1    2    0    0  0.00000000000E+00  0.00000000000E+00  0.66029889499E+03  0.19604569737E+04  0.18459135719E+04 0.  0.
        2    1    3    3  502    0  0.39295672714E+03 -0.71325738930E+02 -0.55355658874E+03  0.68258863702E+03  0.25500000920E-02 0.  1.
       -2    1    3    3    0  502 -0.39295672714E+03  0.71325738930E+02  0.12138554837E+04  0.12778683367E+04  0.25500000920E-02 0. -1.
</event>
<event>
 5   0  0.1258546E-04  0.2020517E+04  0.7818609E-02  0.8597088E-01
        1   -1    0    0  501    0  0.00000000000E+00  0.00000000000E+00  0.15119089338E+04  0.15119089339E+04  0.50400001928E-02 0. -1.
       -1   -1    0    0    0  501  0.00000000000E+00  0.00000000000E+00 -0.67505545661E+03  0.67505545662E+03  0.50400001928E-02 0.  1.
    10030    2    1    2    0    0  0.00000000000E+00  0.00000000000E+00  0.83685347724E+03  0.21869643905E+04  0.20205171375E+04 0.  0.
        4    1    3    3  502    0  0.82419651399E+03  0.14400672803E+03  0.10312699380E+04  0.13279898830E+04  0.12699999809E+01 0. -1.
       -4    1    3    3    0  502 -0.82419651399E+03 -0.14400672803E+03 -0.19441646076E+03  0.85897450749E+03  0.12699999809E+01 0.  1.
</event>
<event>
 5   0  0.2596061E-04  0.2008110E+04  0.7818609E-02  0.8602838E-01
        2   -1    0    0  501    0  0.00000000000E+00  0.00000000000E+00  0.16543850828E+04  0.16543850828E+04  0.25500000920E-02 0. -1.
       -2   -1    0    0    0  501  0.00000000000E+00  0.00000000000E+00 -0.60936610981E+03  0.60936610981E+03  0.25500000920E-02 0.  1.
    10030    2    1    2    0    0  0.00000000000E+00  0.00000000000E+00  0.10450189730E+04  0.22637511926E+04  0.20081097600E+04 0.  0.
        5    1    3    3  502    0 -0.43423873524E+02  0.90114386573E+03  0.10192380427E+04  0.13611811699E+04  0.46999998093E+01 0. -1.
       -5    1    3    3    0  502  0.43423873524E+02 -0.90114386573E+03  0.25780930264E+02  0.90257002271E+03  0.46999998093E+01 0.  1.
</event>
<event>
 5   0  0.1231056E-04  0.2016965E+04  0.7818609E-02  0.8598730E-01
       -1   -1    0    0    0  501  0.00000000000E+00  0.00000000000E+00  0.10839316310E+04  0.10839316310E+04  0.50400001928E-02 0. -1.
        1   -1    0    0  501    0  0.00000000000E+00  0.00000000000E+00 -0.93828556055E+03  0.93828556057E+03  0.50400001928E-02 0.  1.
    10030    2    1    2    0    0  0.00000000000E+00  0.00000000000E+00  0.14564607046E+03  0.20222171916E+04  0.20169654415E+04 0.  0.
        3    1    3    3  502    0 -0.27853101908E+02  0.91897892331E+03 -0.34267045565E+03  0.98118352420E+03  0.10100000352E+00 0.  1.
       -3    1    3    3    0  502  0.27853101908E+02 -0.91897892331E+03  0.48831652612E+03  0.10410336674E+04  0.10100000352E+00 0. -1.
</event>
<event>
 5   0  0.1231056E-04  0.2022910E+04  0.7818609E-02  0.8595984E-01
        1   -1    0    0  501    0  0.00000000000E+00  0.00000000000E+00  0.11939137637E+04  0.11939137638E+04  0.50400001928E-02 0.  1.
       -1   -1    0    0    0  501  0.00000000000E+00  0.00000000000E+00 -0.85688060250E+03  0.85688060252E+03  0.50400001928E-02 0. -1.
    10030    2    1    2    0    0  0.00000000000E+00  0.00000000000E+00  0.33703316125E+03  0.20507943663E+04  0.20229103245E+04 0.  0.
        3    1    3    3  502    0 -0.79433272565E+02 -0.65900428202E+03 -0.60518420420E+03  0.89824507776E+03  0.10100000352E+00 0. -1.
       -3    1    3    3    0  502  0.79433272565E+02  0.65900428202E+03  0.94221736544E+03  0.11525492885E+04  0.10100000352E+00 0.  1.
</event>
<event>
 5   0  0.2488886E-04  0.2014798E+04  0.7818609E-02  0.8599733E-01
        2   -1    0    0  501    0  0.00000000000E+00  0.00000000000E+00  0.13410275744E+04  0.13410275744E+04  0.25500000920E-02 0.  1.
       -2   -1    0    0    0  501  0.00000000000E+00  0.00000000000E+00 -0.75677284104E+03  0.75677284104E+03  0.25500000920E-02 0. -1.
    10030    2    1    2    0    0  0.00000000000E+00  0.00000000000E+00  0.58425473332E+03  0.20978004154E+04  0.20147984985E+04 0.  0.
        3    1    3    3  502    0 -0.49069813687E+02 -0.47523635818E+02 -0.75435861134E+03  0.75744522394E+03  0.10100000352E+00 0. -1.
       -3    1    3    3    0  502  0.49069813687E+02  0.47523635818E+02  0.13386133447E+04  0.13403551915E+04  0.10100000352E+00 0.  1.
</event>
<event>
 5   0  0.2596061E-04  0.2024949E+04  0.7818609E-02  0.8595044E-01
        2   -1    0    0  501    0  0.00000000000E+00  0.00000000000E+00  0.16052593125E+04  0.16052593125E+04  0.25500000920E-02 0.  1.
       -2   -1    0    0    0  501  0.00000000000E+00  0.00000000000E+00 -0.63859116617E+03  0.63859116618E+03  0.25500000920E-02 0. -1.
    10030    2    1    2    0    0  0.00000000000E+00  0.00000000000E+00  0.96666814633E+03  0.22438504787E+04  0.20249488057E+04 0.  0.
        5    1    3    3  502    0  0.20060400814E+03 -0.98886222449E+03  0.39067750604E+03  0.10820080734E+04  0.46999998093E+01 0. -1.
       -5    1    3    3    0  502 -0.20060400814E+03  0.98886222449E+03  0.57599064029E+03  0.11618424053E+04  0.46999998093E+01 0.  1.
</event>
<event>
 5   0  0.1324930E-04  0.1602112E+04  0.7818609E-02  0.8819251E-01
        1   -1    0    0  501    0  0.00000000000E+00  0.00000000000E+00  0.55505970956E+03  0.55505970958E+03  0.50400001928E-02 0. -1.
       -1   -1    0    0    0  501  0.00000000000E+00  0.00000000000E+00 -0.11560755782E+04  0.11560755783E+04  0.50400001928E-02 0.  1.
    10030    2    1    2    0    0  0.00000000000E+00  0.00000000000E+00 -0.60101586868E+03  0.17111352878E+04  0.16021123241E+04 0.  0.
        5    1    3    3  502    0  0.56119246341E+03  0.37779906490E+03 -0.75864984937E+03  0.10164845293E+04  0.46999998093E+01 0.  1.
       -5    1    3    3    0  502 -0.56119246341E+03 -0.37779906490E+03  0.15763398068E+03  0.69465075851E+03  0.46999998093E+01 0. -1.
</event>
<event>
 5   0  0.1210633E-04  0.1789094E+04  0.7818609E-02  0.8712121E-01
       -1   -1    0    0    0  501  0.00000000000E+00  0.00000000000E+00  0.89144141822E+03  0.89144141823E+03  0.50400001928E-02 0.  1.
        1   -1    0    0  501    0  0.00000000000E+00  0.00000000000E+00 -0.89766379947E+03  0.89766379948E+03  0.50400001928E-02 0. -1.
    10030    2    1    2    0    0  0.00000000000E+00  0.00000000000E+00 -0.62223812493E+01  0.17891052177E+04  0.17890943972E+04 0.  0.
        2    1    3    3  502    0  0.84147816562E+03  0.14942018796E+03 -0.26731497382E+03  0.89547149091E+03  0.25500000920E-02 0. -1.
       -2    1    3    3    0  502 -0.84147816562E+03 -0.14942018796E+03  0.26109259257E+03  0.89363372681E+03  0.25500000920E-02 0.  1.
</event>
<event>
 5   0  0.2540506E-04  0.2018800E+04  0.7818609E-02  0.8597881E-01
       -2   -1    0    0    0  501  0.00000000000E+00  0.00000000000E+00  0.14916203891E+04  0.14916203891E+04  0.25500000920E-02 0.  1.
        2   -1    0    0  501    0  0.00000000000E+00  0.00000000000E+00 -0.68307468240E+03  0.68307468240E+03  0.25500000920E-02 0. -1.
    10030    2    1    2    0    0  0.00000000000E+00  0.00000000000E+00  0.80854570673E+03  0.21746950715E+04  0.20187997658E+04 0.  0.
        4    1    3    3  502    0 -0.15768867093E+02 -0.10075001127E+04  0.33980694476E+03  0.10633792865E+04  0.12699999809E+01 0.  1.
       -4    1    3    3    0  502  0.15768867093E+02  0.10075001127E+04  0.46873876197E+03  0.11113157851E+04  0.12699999809E+01 0. -1.
</event>
<event>
 5   0  0.2596061E-04  0.1761425E+04  0.7818609E-02  0.8727086E-01
       -2   -1    0    0    0  501  0.00000000000E+00  0.00000000000E+00  0.63501908836E+03  0.63501908837E+03  0.25500000920E-02 0.  1.
        2   -1    0    0  501    0  0.00000000000E+00  0.00000000000E+00 -0.12214666909E+04  0.12214666909E+04  0.25500000920E-02 0. -1.
    10030    2    1    2    0    0  0.00000000000E+00  0.00000000000E+00 -0.58644760252E+03  0.18564857792E+04  0.17614251781E+04 0.  0.
        5    1    3    3  502    0  0.62819409631E+03 -0.11795884326E+03  0.34535423630E+03  0.72652167887E+03  0.46999998093E+01 0.  1.
       -5    1    3    3    0  502 -0.62819409631E+03  0.11795884326E+03 -0.93180183881E+03  0.11299641004E+04  0.46999998093E+01 0. -1.
</event>
<event>
 5   0  0.1207228E-04  0.2001125E+04  0.7818609E-02  0.8606095E-01
        1   -1    0    0  501    0  0.00000000000E+00  0.00000000000E+00  0.88269086341E+03  0.88269086343E+03  0.50400001928E-02 0. -1.
       -1   -1    0    0    0  501  0.00000000000E+00  0.00000000000E+00 -0.11341738149E+04  0.11341738149E+04  0.50400001928E-02 0.  1.
    10030    2    1    2    0    0  0.00000000000E+00  0.00000000000E+00 -0.25148295146E+03  0.20168646783E+04  0.20011245478E+04 0.  0.
        1    1    3    3  502    0  0.54659705162E+02  0.27550589715E+01  0.88118116484E+03  0.88287910781E+03  0.50400001928E-02 0. -1.
       -1    1    3    3    0  502 -0.54659705162E+02 -0.27550589715E+01 -0.11326641163E+04  0.11339855705E+04  0.50400001928E-02 0.  1.
</event>
<event>
 5   0  0.2463085E-04  0.1912153E+04  0.7818609E-02  0.8648831E-01
       -2   -1    0    0    0  501  0.00000000000E+00  0.00000000000E+00  0.10561216788E+04  0.10561216788E+04  0.25500000920E-02 0.  1.
        2   -1    0    0  501    0  0.00000000000E+00  0.00000000000E+00 -0.86550815380E+03  0.86550815380E+03  0.25500000920E-02 0. -1.
    10030    2    1    2    0    0  0.00000000000E+00  0.00000000000E+00  0.19061352499E+03  0.19216298326E+04  0.19121526345E+04 0.  0.
        2    1    3    3  502    0  0.67227682468E+03  0.47745437113E+03  0.58160917399E+03  0.10090530396E+04  0.25500000920E-02 0.  1.
       -2    1    3    3    0  502 -0.67227682468E+03 -0.47745437113E+03 -0.39099564900E+03  0.91257679296E+03  0.25500000920E-02 0. -1.
</event>
<event>
 5   0  0.1210633E-04  0.1997751E+04  0.7818609E-02  0.8607673E-01
        1   -1    0    0  501    0  0.00000000000E+00  0.00000000000E+00  0.67995869907E+03  0.67995869909E+03  0.50400001928E-02 0.  1.
       -1   -1    0    0    0  501  0.00000000000E+00  0.00000000000E+00 -0.14673717408E+04  0.14673717408E+04  0.50400001928E-02 0. -1.
    10030    2    1    2    0    0  0.00000000000E+00  0.00000000000E+00 -0.78741304174E+03  0.21473304399E+04  0.19977509154E+04 0.  0.
        2    1    3    3  502    0 -0.59659122459E+03 -0.15068536291E+03 -0.12394656942E+04  0.13837999765E+04  0.25500000920E-02 0. -1.
       -2    1    3    3    0  502  0.59659122459E+03  0.15068536291E+03  0.45205265250E+03  0.76353046337E+03  0.25500000920E-02 0.  1.
</event>
<event>
 5   0  0.2421737E-04  0.1971480E+04  0.7818609E-02  0.8620072E-01
        2   -1    0    0  501    0  0.00000000000E+00  0.00000000000E+00  0.19606209469E+04  0.19606209469E+04  0.25500000920E-02 0. -1.
       -2   -1    0    0    0  501  0.00000000000E+00  0.00000000000E+00 -0.49559973202E+03  0.49559973202E+03  0.25500000920E-02 0.  1.
    10030    2    1    2    0    0  0.00000000000E+00  0.00000000000E+00  0.14650212149E+04  0.24562206789E+04  0.19714798664E+04 0.  0.
        1    1    3    3  502    0 -0.74672597064E+03  0.16040738522E+02  0.15339746585E+04  0.17061463107E+04  0.50400001928E-02 0.  1.
       -1    1    3    3    0  502  0.74672597064E+03 -0.16040738522E+02 -0.68953443587E+02  0.75007436827E+03  0.50400001928E-02 0. -1.
</event>
<event>
 5   0  0.1231056E-04  0.2001529E+04  0.7818609E-02  0.8605906E-01
       -1   -1    0    0    0  501  0.00000000000E+00  0.00000000000E+00  0.64915386831E+03  0.64915386833E+03  0.50400001928E-02 0. -1.
        1   -1    0    0  501    0  0.00000000000E+00  0.00000000000E+00 -0.15428228478E+04  0.15428228478E+04  0.50400001928E-02 0.  1.
    10030    2    1    2    0    0  0.00000000000E+00  0.00000000000E+00 -0.89366897952E+03  0.21919767162E+04  0.20015288355E+04 0.  0.
        3    1    3    3  502    0 -0.82902113653E+02  0.95139057084E+03 -0.11917990727E+03  0.96240357399E+03  0.10100000352E+00 0. -1.
       -3    1    3    3    0  502  0.82902113653E+02 -0.95139057084E+03 -0.77448907225E+03  0.12295731422E+04  0.10100000352E+00 0.  1.
</event>
<event>
 5   0  0.1231056E-04  0.2000586E+04  0.7818609E-02  0.8606347E-01
        1   -1    0    0  501    0  0.00000000000E+00  0.00000000000E+00  0.12389621345E+04  0.12389621346E+04  0.50400001928E-02 0.  1.
       -1   -1    0    0    0  501  0.00000000000E+00  0.00000000000E+00 -0.80759991842E+03  0.80759991844E+03  0.50400001928E-02 0. -1.
    10030    2    1    2    0    0  0.00000000000E+00  0.00000000000E+00  0.43136221612E+03  0.20465620530E+04  0.20005856331E+04 0.  0.
        3    1    3    3  502    0  0.43906217706E+03  0.80186126419E+03  0.63100229945E+03  0.11108199649E+04  0.10100000352E+00 0.  1.
       -3    1    3    3    0  502 -0.43906217706E+03 -0.80186126419E+03 -0.19964008333E+03  0.93574208808E+03  0.10100000352E+00 0. -1.
</event>
<event>
 5   0  0.2540506E-04  0.1969515E+04  0.7818609E-02  0.8621007E-01
       -2   -1    0    0    0  501  0.00000000000E+00  0.00000000000E+00  0.14569719736E+04  0.14569719736E+04  0.25500000920E-02 0. -1.
        2   -1    0    0  501    0  0.00000000000E+00  0.00000000000E+00 -0.66559099182E+03  0.66559099182E+03  0.25500000920E-02 0.  1.
    10030    2    1    2    0    0  0.00000000000E+00  0.00000000000E+00  0.79138098179E+03  0.21225629654E+04  0.19695150885E+04 0.  0.
        4    1    3    3  502    0  0.51736243712E+03 -0.42822671383E+03  0.11718678747E+04  0.13506731427E+04  0.12699999809E+01 0. -1.
       -4    1    3    3    0  502 -0.51736243712E+03  0.42822671383E+03 -0.38048689294E+03  0.77188982270E+03  0.12699999809E+01 0.  1.
</event>
<event>
 5   0  0.2421737E-04  0.2125714E+04  0.7818609E-02  0.8550000E-01
       -2   -1    0    0    0  501  0.00000000000E+00  0.00000000000E+00  0.87772566648E+03  0.87772566649E+03  0.25500000920E-02 0.  1.
        2   -1    0    0  501    0  0.00000000000E+00  0.00000000000E+00 -0.12870367603E+04  0.12870367603E+04  0.25500000920E-02 0. -1.
    10030    2    1    2    0    0  0.00000000000E+00  0.00000000000E+00 -0.40931109385E+03  0.21647624268E+04  0.21257141842E+04 0.  0.
        1    1    3    3  502    0 -0.54889417970E+03 -0.43073288860E+03  0.61185170288E+03  0.92799684707E+03  0.50400001928E-02 0.  1.
       -1    1    3    3    0  502  0.54889417970E+03  0.43073288860E+03 -0.10211627967E+04  0.12367655798E+04  0.50400001928E-02 0. -1.
</event>
<event>
 5   0  0.2596061E-04  0.1521755E+04  0.7818609E-02  0.8870114E-01
        2   -1    0    0  501    0  0.00000000000E+00  0.00000000000E+00  0.80035973267E+03  0.80035973267E+03  0.25500000920E-02 0. -1.
       -2   -1    0    0    0  501  0.00000000000E+00  0.00000000000E+00 -0.72334257927E+03  0.72334257928E+03  0.25500000920E-02 0.  1.
    10030    2    1    2    0    0  0.00000000000E+00  0.00000000000E+00  0.77017153395E+02  0.15237023119E+04  0.15217546102E+04 0.  0.
        5    1    3    3  502    0 -0.41994831744E+03 -0.98290170346E+02 -0.58910676406E+03  0.73012767128E+03  0.46999998093E+01 0.  1.
       -5    1    3    3    0  502  0.41994831744E+03  0.98290170346E+02  0.66612391746E+03  0.79357464067E+03  0.46999998093E+01 0. -1.
</event>
<event>
 5   0  0.1258546E-04  0.2037609E+04  0.7818609E-02  0.8589236E-01
       -1   -1    0    0    0  501  0.00000000000E+00  0.00000000000E+00  0.66723612723E+03  0.66723612725E+03  0.50400001928E-02 0.  1.
        1   -1    0    0  501    0  0.00000000000E+00  0.00000000000E+00 -0.15556157601E+04  0.15556157601E+04  0.50400001928E-02 0. -1.
    10030    2    1    2    0    0  0.00000000000E+00  0.00000000000E+00 -0.88837963288E+03  0.22228518874E+04  0.20376094182E+04 0.  0.
        4    1    3    3  502    0  0.50090962777E+02  0.89573219850E+03  0.82525277623E+02  0.90092025747E+03  0.12699999809E+01 0.  1.
       -4    1    3    3    0  502 -0.50090962777E+02 -0.89573219850E+03 -0.97090491050E+03  0.13219316299E+04  0.12699999809E+01 0. -1.
</event>
<event>
 5   0  0.1324930E-04  0.1960814E+04  0.7818609E-02  0.8625164E-01
       -1   -1    0    0    0  501  0.00000000000E+00  0.00000000000E+00  0.66450274845E+03  0.66450274847E+03  0.50400001928E-02 0. -1.
        1   -1    0    0  501    0  0.00000000000E+00  0.00000000000E+00 -0.14464921047E+04  0.14464921047E+04  0.50400001928E-02 0.  1.
    10030    2    1    2    0    0  0.00000000000E+00  0.00000000000E+00 -0.78198935624E+03  0.21109948532E+04  0.19608140954E+04 0.  0.
        5    1    3    3  502    0  0.18170352930E+03 -0.70743140670E+03  0.31308311080E+03  0.79468137766E+03  0.46999998093E+01 0. -1.
       -5    1    3    3    0  502 -0.18170352930E+03  0.70743140670E+03 -0.10950724670E+04  0.13163134755E+04  0.46999998093E+01 0.  1.
</event>
<event>
 5   0  0.2463085E-04  0.1989065E+04  0.7818609E-02  0.8611750E-01
       -2   -1    0    0    0  501  0.00000000000E+00  0.00000000000E+00  0.77454373690E+03  0.77454373690E+03  0.25500000920E-02 0. -1.
        2   -1    0    0  501    0  0.00000000000E+00  0.00000000000E+00 -0.12770031427E+04  0.12770031427E+04  0.25500000920E-02 0.  1.
    10030    2    1    2    0    0  0.00000000000E+00  0.00000000000E+00 -0.50245940579E+03  0.20515468796E+04  0.19890648920E+04 0.  0.
        2    1    3    3  502    0 -0.77039408838E+03 -0.27530316743E+03  0.33203935739E+03  0.88292073272E+03  0.25500000920E-02 0. -1.
       -2    1    3    3    0  502  0.77039408838E+03  0.27530316743E+03 -0.83449876318E+03  0.11686261469E+04  0.25500000920E-02 0.  1.
</event>
<event>
 5   0  0.1258546E-04  0.2059615E+04  0.7818609E-02  0.8579245E-01
       -1   -1    0    0    0  501  0.00000000000E+00  0.00000000000E+00  0.15229205754E+04  0.15229205754E+04  0.50400001928E-02 0.  1.
        1   -1    0    0  501    0  0.00000000000E+00  0.00000000000E+00 -0.69636188081E+03  0.69636188083E+03  0.50400001928E-02 0. -1.
    10030    2    1    2    0    0  0.00000000000E+00  0.00000000000E+00  0.82655869460E+03  0.22192824563E+04  0.20596153391E+04 0.  0.
        4    1    3    3  502    0  0.83252504113E+03  0.27643736508E+03 -0.16797070375E+03  0.89315806615E+03  0.12699999809E+01 0. -1.
       -4    1    3    3    0  502 -0.83252504113E+03 -0.27643736508E+03  0.99452939835E+03  0.13261243901E+04  0.12699999809E+01 0.  1.
</event>
<event>
 5   0  0.2596061E-04  0.2026973E+04  0.7818609E-02  0.8594113E-01
        2   -1    0    0  501    0  0.00000000000E+00  0.00000000000E+00  0.13113274911E+04  0.13113274911E+04  0.25500000920E-02 0. -1.
       -2   -1    0    0    0  501  0.00000000000E+00  0.00000000000E+00 -0.78329375482E+03  0.78329375483E+03  0.25500000920E-02 0.  1.
    10030    2    1    2    0    0  0.00000000000E+00  0.00000000000E+00  0.52803373624E+03  0.20946212459E+04  0.20269727519E+04 0.  0.
        5    1    3    3  502    0  0.33855602728E+03  0.65454384582E+03 -0.45496556346E+03  0.86606211304E+03  0.46999998093E+01 0. -1.
       -5    1    3    3    0  502 -0.33855602728E+03 -0.65454384582E+03  0.98299929970E+03  0.12285591328E+04  0.46999998093E+01 0.  1.
</event>
<event>
 5   0  0.1324930E-04  0.1982576E+04  0.7818609E-02  0.8614811E-01
       -1   -1    0    0    0  501  0.00000000000E+00  0.00000000000E+00  0.58398857938E+03  0.58398857940E+03  0.50400001928E-02 0. -1.
        1   -1    0    0  501    0  0.00000000000E+00  0.00000000000E+00 -0.16826555537E+04  0.16826555537E+04  0.50400001928E-02 0.  1.
    10030    2    1    2    0    0  0.00000000000E+00  0.00000000000E+00 -0.10986669743E+04  0.22666441331E+04  0.19825757251E+04 0.  0.
        5    1    3    3  502    0  0.83072106992E+03  0.48430419606E+03 -0.27403854815E+03  0.99988362633E+03  0.46999998093E+01 0. -1.
       -5    1    3    3    0  502 -0.83072106992E+03 -0.48430419606E+03 -0.82462842619E+03  0.12667605068E+04  0.46999998093E+01 0.  1.
</event>
<event>
 5   0  0.1207228E-04  0.2003786E+04  0.7818609E-02  0.8604853E-01
        1   -1    0    0  501    0  0.00000000000E+00  0.00000000000E+00  0.18295147659E+04  0.18295147659E+04  0.50400001928E-02 0.  1.
       -1   -1    0    0    0  501  0.00000000000E+00  0.00000000000E+00 -0.54866449880E+03  0.54866449883E+03  0.50400001928E-02 0. -1.
    10030    2    1    2    0    0  0.00000000000E+00  0.00000000000E+00  0.12808502671E+04  0.23781792647E+04  0.20037862182E+04 0.  0.
        1    1    3    3  502    0  0.19065895996E+03  0.94522413211E+03  0.96326012892E+03  0.13629635266E+04  0.50400001928E-02 0.  1.
       -1    1    3    3    0  502 -0.19065895996E+03 -0.94522413211E+03  0.31759013814E+03  0.10152157381E+04  0.50400001928E-02 0. -1.
</event>
<event>
 5   0  0.2463085E-04  0.2053311E+04  0.7818609E-02  0.8582094E-01
       -2   -1    0    0    0  501  0.00000000000E+00  0.00000000000E+00  0.10257643667E+04  0.10257643667E+04  0.25500000920E-02 0. -1.
        2   -1    0    0  501    0  0.00000000000E+00  0.00000000000E+00 -0.10275470992E+04  0.10275470992E+04  0.25500000920E-02 0.  1.
    10030    2    1    2    0    0  0.00000000000E+00  0.00000000000E+00 -0.17827325141E+01  0.20533114660E+04  0.20533106921E+04 0.  0.
        2    1    3    3  502    0  0.23003191618E+03  0.86629422967E+03 -0.50153196954E+03  0.10270904007E+04  0.25500000920E-02 0. -1.
       -2    1    3    3    0  502 -0.23003191618E+03 -0.86629422967E+03  0.49974923702E+03  0.10262210652E+04  0.25500000920E-02 0.  1.
</event>
<event>
 5   0  0.1324930E-04  0.1977165E+04  0.7818609E-02  0.8617372E-01
       -1   -1    0    0    0  501  0.00000000000E+00  0.00000000000E+00  0.80239751057E+03  0.80239751059E+03  0.50400001928E-02 0.  1.
        1   -1    0    0  501    0  0.00000000000E+00  0.00000000000E+00 -0.12179685368E+04  0.12179685368E+04  0.50400001928E-02 0. -1.
    10030    2    1    2    0    0  0.00000000000E+00  0.00000000000E+00 -0.41557102624E+03  0.20203660474E+04  0.19771645576E+04 0.  0.
        5    1    3    3  502    0  0.82632554527E+03 -0.18554061447E+03  0.31329158234E+03  0.90300217715E+03  0.46999998093E+01 0.  1.
       -5    1    3    3    0  502 -0.82632554527E+03  0.18554061447E+03 -0.72886260858E+03  0.11173638703E+04  0.46999998093E+01 0. -1.
</event>
<event>
 5   0  0.2421737E-04  0.1980156E+04  0.7818609E-02  0.8615955E-01
       -2   -1    0    0    0  501  0.00000000000E+00  0.00000000000E+00  0.91154410282E+03  0.91154410283E+03  0.25500000920E-02 0. -1.
        2   -1    0    0  501    0  0.00000000000E+00  0.00000000000E+00 -0.10753784138E+04  0.10753784138E+04  0.25500000920E-02 0.  1.
    10030    2    1    2    0    0  0.00000000000E+00  0.00000000000E+00 -0.16383431099E+03  0.19869225166E+04  0.19801564094E+04 0.  0.
        1    1    3    3  502    0 -0.11745591214E+03 -0.85230227348E+03  0.40969550519E+03  0.95292468940E+03  0.50400001928E-02 0. -1.
       -1    1    3    3    0  502  0.11745591214E+03  0.85230227348E+03 -0.57352981618E+03  0.10339978272E+04  0.50400001928E-02 0.  1.
</event>
<event>
 5   0  0.1207228E-04  0.1985023E+04  0.7818609E-02  0.8613655E-01
       -1   -1    0    0    0  501  0.00000000000E+00  0.00000000000E+00  0.85497872940E+03  0.85497872941E+03  0.50400001928E-02 0. -1.
        1   -1    0    0  501    0  0.00000000000E+00  0.00000000000E+00 -0.11521684791E+04  0.11521684791E+04  0.50400001928E-02 0.  1.
    10030    2    1    2    0    0  0.00000000000E+00  0.00000000000E+00 -0.29718974973E+03  0.20071472086E+04  0.19850234682E+04 0.  0.
        1    1    3    3  502    0  0.25162644614E+03 -0.61682913677E+03  0.59532604679E+03  0.89342439769E+03  0.50400001928E-02 0. -1.
       -1    1    3    3    0  502 -0.25162644614E+03  0.61682913677E+03 -0.89251579652E+03  0.11137228109E+04  0.50400001928E-02 0.  1.
</event>
<event>
 5   0  0.1210633E-04  0.1946773E+04  0.7818609E-02  0.8631919E-01
        1   -1    0    0  501    0  0.00000000000E+00  0.00000000000E+00  0.20944405469E+04  0.20944405469E+04  0.50400001928E-02 0. -1.
       -1   -1    0    0    0  501  0.00000000000E+00  0.00000000000E+00 -0.45237901737E+03  0.45237901740E+03  0.50400001928E-02 0.  1.
    10030    2    1    2    0    0  0.00000000000E+00  0.00000000000E+00  0.16420615295E+04  0.25468195643E+04  0.19467726694E+04 0.  0.
        2    1    3    3  502    0 -0.30754126253E+03 -0.83723713546E+03  0.13309594379E+04  0.16021862171E+04  0.25500000920E-02 0.  1.
       -2    1    3    3    0  502  0.30754126253E+03  0.83723713546E+03  0.31110209169E+03  0.94463334719E+03  0.25500000920E-02 0. -1.
</event>
<event>
 5   0  0.2540506E-04  0.1993228E+04  0.7818609E-02  0.8609793E-01
        2   -1    0    0  501    0  0.00000000000E+00  0.00000000000E+00  0.18180246323E+04  0.18180246324E+04  0.25500000920E-02 0.  1.
       -2   -1    0    0    0  501  0.00000000000E+00  0.00000000000E+00 -0.54632887895E+03  0.54632887896E+03  0.25500000920E-02 0. -1.
    10030    2    1    2    0    0  0.00000000000E+00  0.00000000000E+00  0.12716957534E+04  0.23643535113E+04  0.19932278940E+04 0.  0.
        4    1    3    3  502    0 -0.69393855478E+02  0.19159444872E+03 -0.52135269658E+03  0.55976261673E+03  0.12699999809E+01 0. -1.
       -4    1    3    3    0  502  0.69393855478E+02 -0.19159444872E+03  0.17930484500E+04  0.18045908946E+04  0.12699999809E+01 0.  1.
</event>
<event>
 5   0  0.2463085E-04  0.2043233E+04  0.7818609E-02  0.8586670E-01
       -2   -1    0    0    0  501  0.00000000000E+00  0.00000000000E+00  0.39959314052E+03  0.39959314053E+03  0.25500000920E-02 0. -1.
        2   -1    0    0  501    0  0.00000000000E+00  0.00000000000E+00 -0.26119077397E+04  0.26119077397E+04  0.25500000920E-02 0.  1.
    10030    2    1    2    0    0  0.00000000000E+00  0.00000000000E+00 -0.22123145992E+04  0.30115008802E+04  0.20432331404E+04 0.  0.
        2    1    3    3  502    0  0.20482528341E+03  0.82666943023E+03 -0.27453235855E+03  0.89482051804E+03  0.25500000920E-02 0. -1.
       -2    1    3    3    0  502 -0.20482528341E+03 -0.82666943023E+03 -0.19377822406E+04  0.21166803622E+04  0.25500000920E-02 0.  1.
</event>
<event>
 5   0  0.2540506E-04  0.1991970E+04  0.7818609E-02  0.8610384E-01
       -2   -1    0    0    0  501  0.00000000000E+00  0.00000000000E+00  0.48232916767E+03  0.48232916767E+03  0.25500000920E-02 0. -1.
        2   -1    0    0  501    0  0.00000000000E+00  0.00000000000E+00 -0.20566589812E+04  0.20566589812E+04  0.25500000920E-02 0.  1.
    10030    2    1    2    0    0  0.00000000000E+00  0.00000000000E+00 -0.15743298136E+04  0.25389881489E+04  0.19919704964E+04 0.  0.
        4    1    3    3  502    0  0.53971390738E+03  0.82021219631E+03 -0.10002418494E+04  0.14016149682E+04  0.12699999809E+01 0.  1.
       -4    1    3    3    0  502 -0.53971390738E+03 -0.82021219631E+03 -0.57408796419E+03  0.11373731808E+04  0.12699999809E+01 0. -1.
</event>
<event>
 5   0  0.1210633E-04  0.2041162E+04  0.7818609E-02  0.8587614E-01
       -1   -1    0    0    0  501  0.00000000000E+00  0.00000000000E+00  0.11560952104E+04  0.11560952104E+04  0.50400001928E-02 0. -1.
        1   -1    0    0  501    0  0.00000000000E+00  0.00000000000E+00 -0.90095097271E+03  0.90095097272E+03  0.50400001928E-02 0.  1.
    10030    2    1    2    0    0  0.00000000000E+00  0.00000000000E+00  0.25514423769E+03  0.20570461831E+04  0.20411615364E+04 0.  0.
        2    1    3    3  502    0 -0.35283579144E+03 -0.93471989330E+03  0.33749759325E+03  0.10545610462E+04  0.25500000920E-02 0. -1.
       -2    1    3    3    0  502  0.35283579144E+03  0.93471989330E+03 -0.82353355561E+02  0.10024851370E+04  0.25500000920E-02 0.  1.
</event>
<event>
 5   0  0.2421737E-04  0.1968717E+04  0.7818609E-02  0.8621388E-01
       -2   -1    0    0    0  501  0.00000000000E+00  0.00000000000E+00  0.26147376481E+04  0.26147376481E+04  0.25500000920E-02 0.  1.
        2   -1    0    0  501    0  0.00000000000E+00  0.00000000000E+00 -0.37057698301E+03  0.37057698302E+03  0.25500000920E-02 0. -1.
    10030    2    1    2    0    0  0.00000000000E+00  0.00000000000E+00  0.22441606651E+04  0.29853146312E+04  0.19687169314E+04 0.  0.
        1    1    3    3  502    0  0.56614807611E+03 -0.23227003202E+03 -0.47092163225E+02  0.61375132075E+03  0.50400001928E-02 0. -1.
       -1    1    3    3    0  502 -0.56614807611E+03  0.23227003202E+03  0.22912528284E+04  0.23715633104E+04  0.50400001928E-02 0.  1.
</event>
<event>
 5   0  0.1258546E-04  0.1403961E+04  0.7818609E-02  0.8950956E-01
        1   -1    0    0  501    0  0.00000000000E+00  0.00000000000E+00  0.13995461383E+04  0.13995461383E+04  0.50400001928E-02 0. -1.
       -1   -1    0    0    0  501  0.00000000000E+00  0.00000000000E+00 -0.35209756325E+03  0.35209756328E+03  0.50400001928E-02 0.  1.
    10030    2    1    2    0    0  0.00000000000E+00  0.00000000000E+00  0.10474485750E+04  0.17516437016E+04  0.14039612316E+04 0.  0.
        4    1    3    3  502    0  0.98155229071E+02  0.32388166809E+03 -0.24359334942E+03  0.41698095484E+03  0.12699999809E+01 0.  1.
       -4    1    3    3    0  502 -0.98155229071E+02 -0.32388166809E+03  0.12910419245E+04  0.13346627467E+04  0.12699999809E+01 0. -1.
</event>
<event>
 5   0  0.1210633E-04  0.2038816E+04  0.7818609E-02  0.8588685E-01
        1   -1    0    0  501    0  0.00000000000E+00  0.00000000000E+00  0.12492728596E+04  0.12492728597E+04  0.50400001928E-02 0. -1.
       -1   -1    0    0    0  501  0.00000000000E+00  0.00000000000E+00 -0.83183784191E+03  0.83183784193E+03  0.50400001928E-02 0.  1.
    10030    2    1    2    0    0  0.00000000000E+00  0.00000000000E+00  0.41743501774E+03  0.20811107016E+04  0.20388157735E+04 0.  0.
        2    1    3    3  502    0  0.29181839769E+03 -0.55661802798E+03 -0.61056033366E+03  0.87622230476E+03  0.25500000920E-02 0.  1.
       -2    1    3    3    0  502 -0.29181839769E+03  0.55661802798E+03  0.10279953514E+04  0.12048883968E+04  0.25500000920E-02 0. -1.
</event>
<event>
 5   0  0.1207228E-04  0.1996639E+04  0.7818609E-02  0.8608194E-01
       -1   -1    0    0    0  501  0.00000000000E+00  0.00000000000E+00  0.62499090596E+03  0.62499090598E+03  0.50400001928E-02 0.  1.
        1   -1    0    0  501    0  0.00000000000E+00  0.00000000000E+00 -0.15946503505E+04  0.15946503505E+04  0.50400001928E-02 0. -1.
    10030    2    1    2    0    0  0.00000000000E+00  0.00000000000E+00 -0.96965944458E+03  0.22196412565E+04  0.19966391435E+04 0.  0.
        1    1    3    3  502    0 -0.29456972269E+03  0.43658451699E+03 -0.14276470422E+04  0.15216942660E+04  0.50400001928E-02 0. -1.
       -1    1    3    3    0  502  0.29456972269E+03 -0.43658451699E+03  0.45798759763E+03  0.69794699054E+03  0.50400001928E-02 0.  1.
</event>
<event>
 5   0  0.2421737E-04  0.1980623E+04  0.7818609E-02  0.8615734E-01
        2   -1    0    0  501    0  0.00000000000E+00  0.00000000000E+00  0.15897393909E+04  0.15897393909E+04  0.25500000920E-02 0.  1.
       -2   -1    0    0    0  501  0.00000000000E+00  0.00000000000E+00 -0.61690435786E+03  0.61690435786E+03  0.25500000920E-02 0. -1.
    10030    2    1    2    0    0  0.00000000000E+00  0.00000000000E+00  0.97283503304E+03  0.22066437488E+04  0.19806232939E+04 0.  0.
        1    1    3    3  502    0 -0.75989874478E+03  0.62293644758E+03  0.62387086712E+03  0.11639204350E+04  0.50400001928E-02 0.  1.
       -1    1    3    3    0  502  0.75989874478E+03 -0.62293644758E+03  0.34896416592E+03  0.10427233138E+04  0.50400001928E-02 0. -1.
</event>
<event>
 5   0  0.1231056E-04  0.1957882E+04  0.7818609E-02  0.8626569E-01
       -1   -1    0    0    0  501  0.00000000000E+00  0.00000000000E+00  0.10546904743E+04  0.10546904743E+04  0.50400001928E-02 0.  1.
        1   -1    0    0  501    0  0.00000000000E+00  0.00000000000E+00 -0.90863234157E+03  0.90863234158E+03  0.50400001928E-02 0. -1.
    10030    2    1    2    0    0  0.00000000000E+00  0.00000000000E+00  0.14605813272E+03  0.19633228159E+04  0.19578824023E+04 0.  0.
        3    1    3    3  502    0  0.30664466988E+02  0.97440728338E+03  0.16224820979E+03  0.98829871760E+03  0.10100000352E+00 0. -1.
       -3    1    3    3    0  502 -0.30664466988E+02 -0.97440728338E+03 -0.16190077070E+02  0.97502409828E+03  0.10100000352E+00 0.  1.
</event>
<event>
 5   0  0.1324930E-04  0.2011924E+04  0.7818609E-02  0.8601066E-01
       -1   -1    0    0    0  501  0.00000000000E+00  0.00000000000E+00  0.54831855277E+03  0.54831855280E+03  0.50400001928E-02 0.  1.
        1   -1    0    0  501    0  0.00000000000E+00  0.00000000000E+00 -0.18455685196E+04  0.18455685197E+04  0.50400001928E-02 0. -1.
    10030    2    1    2    0    0  0.00000000000E+00  0.00000000000E+00 -0.12972499669E+04  0.23938870725E+04  0.20119239148E+04 0.  0.
        5    1    3    3  502    0 -0.90032509897E+03 -0.38393381885E+03 -0.92498511336E+03  0.13467033864E+04  0.46999998093E+01 0.  1.
       -5    1    3    3    0  502  0.90032509897E+03  0.38393381885E+03 -0.37226485351E+03  0.10471836860E+04  0.46999998093E+01 0. -1.
</event>
<event>
 5   0  0.1231056E-04  0.1487887E+04  0.7818609E-02  0.8892548E-01
        1   -1    0    0  501    0  0.00000000000E+00  0.00000000000E+00  0.47503738201E+03  0.47503738204E+03  0.50400001928E-02 0.  1.
       -1   -1    0    0    0  501  0.00000000000E+00  0.00000000000E+00 -0.11650697478E+04  0.11650697478E+04  0.50400001928E-02 0. -1.
    10030    2    1    2    0    0  0.00000000000E+00  0.00000000000E+00 -0.69003236582E+03  0.16401071299E+04  0.14878866663E+04 0.  0.
        3    1    3    3  502    0 -0.37630448065E+03  0.34092679091E+02  0.36139312806E+03  0.52285024255E+03  0.10100000352E+00 0.  1.
       -3    1    3    3    0  502  0.37630448065E+03 -0.34092679091E+02 -0.10514254939E+04  0.11172568873E+04  0.10100000352E+00 0. -1.
</event>
<event>
 5   0  0.2463085E-04  0.1938700E+04  0.7818609E-02  0.8635829E-01
        2   -1    0    0  501    0  0.00000000000E+00  0.00000000000E+00  0.11281933767E+04  0.11281933767E+04  0.25500000920E-02 0.  1.
       -2   -1    0    0    0  501  0.00000000000E+00  0.00000000000E+00 -0.83287103692E+03  0.83287103693E+03  0.25500000920E-02 0. -1.
    10030    2    1    2    0    0  0.00000000000E+00  0.00000000000E+00  0.29532233973E+03  0.19610644136E+04  0.19387001702E+04 0.  0.
        2    1    3    3  502    0 -0.85879866640E+03  0.22714630733E+03 -0.24476904270E+03  0.92143501052E+03  0.25500000920E-02 0. -1.
       -2    1    3    3    0  502  0.85879866640E+03 -0.22714630733E+03  0.54009138243E+03  0.10396294031E+04  0.25500000920E-02 0.  1.
</event>
<event>
 5   0  0.2463085E-04  0.1999393E+04  0.7818609E-02  0.8606905E-01
        2   -1    0    0  501    0  0.00000000000E+00  0.00000000000E+00  0.11621146284E+04  0.11621146285E+04  0.25500000920E-02 0. -1.
       -2   -1    0    0    0  501  0.00000000000E+00  0.00000000000E+00 -0.85997801454E+03  0.85997801454E+03  0.25500000920E-02 0.  1.
    10030    2    1    2    0    0  0.00000000000E+00  0.00000000000E+00  0.30213661391E+03  0.20220926430E+04  0.19993929387E+04 0.  0.
        2    1    3    3  502    0  0.96564643824E+02 -0.76232990629E+03  0.79779803165E+03  0.11076792477E+04  0.25500000920E-02 0. -1.
       -2    1    3    3    0  502 -0.96564643824E+02  0.76232990629E+03 -0.49566141773E+03  0.91441339530E+03  0.25500000920E-02 0.  1.
</event>
<event>
 5   0  0.2540506E-04  0.1999870E+04  0.7818609E-02  0.8606681E-01
        2   -1    0    0  501    0  0.00000000000E+00  0.00000000000E+00  0.16585411109E+04  0.16585411109E+04  0.25500000920E-02 0.  1.
       -2   -1    0    0    0  501  0.00000000000E+00  0.00000000000E+00 -0.60286141604E+03  0.60286141604E+03  0.25500000920E-02 0. -1.
    10030    2    1    2    0    0  0.00000000000E+00  0.00000000000E+00  0.10556796949E+04  0.22614025270E+04  0.19998704385E+04 0.  0.
        4    1    3    3  502    0  0.86439385028E+03 -0.30412035017E+03  0.75243319458E+02  0.91941779720E+03  0.12699999809E+01 0. -1.
       -4    1    3    3    0  502 -0.86439385028E+03  0.30412035017E+03  0.98043637544E+03  0.13419847298E+04  0.12699999809E+01 0.  1.
</event>
<event>
 5   0  0.9099125E-05  0.1670309E+04  0.7818609E-02  0.8778482E-01
        3   -1    0    0  501    0  0.00000000000E+00  0.00000000000E+00  0.75332860780E+03  0.75332861457E+03  0.10100000352E+00 0.  1.
       -3   -1    0    0    0  501  0.00000000000E+00  0.00000000000E+00 -0.92586828206E+03  0.92586828757E+03  0.10100000352E+00 0. -1.
    10030    2    1    2    0    0  0.00000000000E+00  0.00000000000E+00 -0.17253967426E+03  0.16791969021E+04  0.16703090424E+04 0.  0.
        1    1    3    3  502    0  0.79384350982E+03  0.23020216212E+03 -0.20649934920E+03  0.85195219043E+03  0.50400001928E-02 0.  1.
       -1    1    3    3    0  502 -0.79384350982E+03 -0.23020216212E+03  0.33959674944E+02  0.82724471172E+03  0.50400001928E-02 0. -1.
</event>
<event>
 5   0  0.1231056E-04  0.2009089E+04  0.7818609E-02  0.8602383E-01
       -1   -1    0    0    0  501  0.00000000000E+00  0.00000000000E+00  0.65217084683E+03  0.65217084685E+03  0.50400001928E-02 0.  1.
        1   -1    0    0  501    0  0.00000000000E+00  0.00000000000E+00 -0.15473093738E+04  0.15473093738E+04  0.50400001928E-02 0. -1.
    10030    2    1    2    0    0  0.00000000000E+00  0.00000000000E+00 -0.89513852698E+03  0.21994802207E+04  0.20090894103E+04 0.  0.
        3    1    3    3  502    0 -0.30299819247E+03  0.81835300704E+03  0.97179884870E+02  0.87803957143E+03  0.10100000352E+00 0.  1.
       -3    1    3    3    0  502  0.30299819247E+03 -0.81835300704E+03 -0.99231841185E+03  0.13214406492E+04  0.10100000352E+00 0. -1.
</event>
<event>
 5   0  0.1258546E-04  0.1544694E+04  0.7818609E-02  0.8855264E-01
       -1   -1    0    0    0  501  0.00000000000E+00  0.00000000000E+00  0.96008948924E+03  0.96008948925E+03  0.50400001928E-02 0.  1.
        1   -1    0    0  501    0  0.00000000000E+00  0.00000000000E+00 -0.62131704424E+03  0.62131704426E+03  0.50400001928E-02 0. -1.
    10030    2    1    2    0    0  0.00000000000E+00  0.00000000000E+00  0.33877244500E+03  0.15814065335E+04  0.15446940975E+04 0.  0.
        4    1    3    3  502    0 -0.56626409936E+03 -0.48645465367E+03  0.37214682464E+03  0.83413909649E+03  0.12699999809E+01 0.  1.
       -4    1    3    3    0  502  0.56626409936E+03  0.48645465367E+03 -0.33374379642E+02  0.74726743702E+03  0.12699999809E+01 0. -1.
</event>
<event>
 5   0  0.2596061E-04  0.2009895E+04  0.7818609E-02  0.8602008E-01
        2   -1    0    0  501    0  0.00000000000E+00  0.00000000000E+00  0.10671977443E+04  0.10671977443E+04  0.25500000920E-02 0.  1.
       -2   -1    0    0    0  501  0.00000000000E+00  0.00000000000E+00 -0.94632842399E+03  0.94632842399E+03  0.25500000920E-02 0. -1.
    10030    2    1    2    0    0  0.00000000000E+00  0.00000000000E+00  0.12086932033E+03  0.20135261683E+04  0.20098950813E+04 0.  0.
        5    1    3    3  502    0  0.41331760657E+03  0.89504642943E+03  0.25561454788E+03  0.10184794754E+04  0.46999998093E+01 0.  1.
       -5    1    3    3    0  502 -0.41331760657E+03 -0.89504642943E+03 -0.13474522755E+03  0.99504669291E+03  0.46999998093E+01 0. -1.
</event>
<event>
 5   0  0.1231056E-04  0.1986934E+04  0.7818609E-02  0.8612754E-01
       -1   -1    0    0    0  501  0.00000000000E+00  0.00000000000E+00  0.82780281688E+03  0.82780281690E+03  0.50400001928E-02 0. -1.
        1   -1    0    0  501    0  0.00000000000E+00  0.00000000000E+00 -0.11922849042E+04  0.11922849042E+04  0.50400001928E-02 0.  1.
    10030    2    1    2    0    0  0.00000000000E+00  0.00000000000E+00 -0.36448208732E+03  0.20200877211E+04  0.19869341230E+04 0.  0.
        3    1    3    3  502    0  0.10887612724E+03 -0.24928780707E+03  0.78920124429E+03  0.83476765392E+03  0.10100000352E+00 0. -1.
       -3    1    3    3    0  502 -0.10887612724E+03  0.24928780707E+03 -0.11536833316E+04  0.11853200672E+04  0.10100000352E+00 0.  1.
</event>
<event>
 5   0  0.1210633E-04  0.1939147E+04  0.7818609E-02  0.8635612E-01
        1   -1    0    0  501    0  0.00000000000E+00  0.00000000000E+00  0.13747829339E+04  0.13747829339E+04  0.50400001928E-02 0.  1.
       -1   -1    0    0    0  501  0.00000000000E+00  0.00000000000E+00 -0.68379736310E+03  0.68379736312E+03  0.50400001928E-02 0. -1.
    10030    2    1    2    0    0  0.00000000000E+00  0.00000000000E+00  0.69098557079E+03  0.20585802970E+04  0.19391471786E+04 0.  0.
        2    1    3    3  502    0 -0.60185893581E+03  0.21458654649E+03 -0.42866179197E+03  0.76943647980E+03  0.25500000920E-02 0. -1.
       -2    1    3    3    0  502  0.60185893581E+03 -0.21458654649E+03  0.11196473628E+04  0.12891438172E+04  0.25500000920E-02 0.  1.
</event>
<event>
 5   0  0.2488886E-04  0.1957130E+04  0.7818609E-02  0.8626930E-01
        2   -1    0    0  501    0  0.00000000000E+00  0.00000000000E+00  0.24129475848E+04  0.24129475848E+04  0.25500000920E-02 0. -1.
       -2   -1    0    0    0  501  0.00000000000E+00  0.00000000000E+00 -0.39685464084E+03  0.39685464085E+03  0.25500000920E-02 0.  1.
    10030    2    1    2    0    0  0.00000000000E+00  0.00000000000E+00  0.20160929439E+04  0.28098022256E+04  0.19571299877E+04 0.  0.
        3    1    3    3  502    0 -0.30564910125E+03 -0.51433407701E+03 -0.10367814317E+03  0.60721502241E+03  0.10100000352E+00 0.  1.
       -3    1    3    3    0  502  0.30564910125E+03  0.51433407701E+03  0.21197710871E+04  0.22025872032E+04  0.10100000352E+00 0. -1.
</event>
<event>
 5   0  0.1231056E-04  0.1912222E+04  0.7818609E-02  0.8648797E-01
       -1   -1    0    0    0  501  0.00000000000E+00  0.00000000000E+00  0.11419325016E+04  0.11419325016E+04  0.50400001928E-02 0.  1.
        1   -1    0    0  501    0  0.00000000000E+00  0.00000000000E+00 -0.80052701046E+03  0.80052701047E+03  0.50400001928E-02 0. -1.
    10030    2    1    2    0    0  0.00000000000E+00  0.00000000000E+00  0.34140549110E+03  0.19424595120E+04  0.19122215475E+04 0.  0.
        3    1    3    3  502    0  0.27009210057E+03 -0.53674650098E+03  0.92617077210E+03  0.11040103525E+04  0.10100000352E+00 0.  1.
       -3    1    3    3    0  502 -0.27009210057E+03  0.53674650098E+03 -0.58476528100E+03  0.83844915956E+03  0.10100000352E+00 0. -1.
</event>
<event>
 5   0  0.1231056E-04  0.2009079E+04  0.7818609E-02  0.8602388E-01
        1   -1    0    0  501    0  0.00000000000E+00  0.00000000000E+00  0.11927996426E+04  0.11927996426E+04  0.50400001928E-02 0.  1.
       -1   -1    0    0    0  501  0.00000000000E+00  0.00000000000E+00 -0.84599252214E+03  0.84599252216E+03  0.50400001928E-02 0. -1.
    10030    2    1    2    0    0  0.00000000000E+00  0.00000000000E+00  0.34680712048E+03  0.20387921648E+04  0.20090789712E+04 0.  0.
        3    1    3    3  502    0  0.29157916859E+03 -0.92551970172E+03  0.43704273340E+03  0.10642422144E+04  0.10100000352E+00 0.  1.
       -3    1    3    3    0  502 -0.29157916859E+03  0.92551970172E+03 -0.90235612919E+02  0.97454995042E+03  0.10100000352E+00 0. -1.
</event>
<event>
 5   0  0.1231056E-04  0.2138997E+04  0.7818609E-02  0.8544257E-01
        1   -1    0    0  501    0  0.00000000000E+00  0.00000000000E+00  0.14323169850E+04  0.14323169850E+04  0.50400001928E-02 0. -1.
       -1   -1    0    0    0  501  0.00000000000E+00  0.00000000000E+00 -0.79858507167E+03  0.79858507169E+03  0.50400001928E-02 0.  1.
    10030    2    1    2    0    0  0.00000000000E+00  0.00000000000E+00  0.63373191335E+03  0.22309020567E+04  0.21389969258E+04 0.  0.
        3    1    3    3  502    0  0.69384121707E+02 -0.39235357397E+03 -0.71828625341E+03  0.82139554138E+03  0.10100000352E+00 0.  1.
       -3    1    3    3    0  502 -0.69384121707E+02  0.39235357397E+03  0.13520181668E+04  0.14095065153E+04  0.10100000352E+00 0. -1.
</event>
<event>
 5   0  0.2596061E-04  0.2022685E+04  0.7818609E-02  0.8596088E-01
       -2   -1    0    0    0  501  0.00000000000E+00  0.00000000000E+00  0.44402814023E+03  0.44402814023E+03  0.25500000920E-02 0. -1.
        2   -1    0    0  501    0  0.00000000000E+00  0.00000000000E+00 -0.23034875426E+04  0.23034875426E+04  0.25500000920E-02 0.  1.
    10030    2    1    2    0    0  0.00000000000E+00  0.00000000000E+00 -0.18594594024E+04  0.27475156828E+04  0.20226846414E+04 0.  0.
        5    1    3    3  502    0 -0.29018820485E+03  0.94272902204E+03 -0.12329920059E+04  0.15789992336E+04  0.46999998093E+01 0. -1.
       -5    1    3    3    0  502  0.29018820485E+03 -0.94272902204E+03 -0.62646739652E+03  0.11685164492E+04  0.46999998093E+01 0.  1.
</event>
<event>
 5   0  0.1258546E-04  0.1995920E+04  0.7818609E-02  0.8608531E-01
       -1   -1    0    0    0  501  0.00000000000E+00  0.00000000000E+00  0.78490737280E+03  0.78490737281E+03  0.50400001928E-02 0. -1.
        1   -1    0    0  501    0  0.00000000000E+00  0.00000000000E+00 -0.12688425976E+04  0.12688425976E+04  0.50400001928E-02 0.  1.
    10030    2    1    2    0    0  0.00000000000E+00  0.00000000000E+00 -0.48393522480E+03  0.20537499704E+04  0.19959197477E+04 0.  0.
        4    1    3    3  502    0  0.80589776813E+03  0.48171677259E+03  0.10606310295E+03  0.94486679293E+03  0.12699999809E+01 0. -1.
       -4    1    3    3    0  502 -0.80589776813E+03 -0.48171677259E+03 -0.58999832775E+03  0.11088831775E+04  0.12699999809E+01 0.  1.
</event>
<event>
 5   0  0.1258546E-04  0.2026950E+04  0.7818609E-02  0.8594123E-01
       -1   -1    0    0    0  501  0.00000000000E+00  0.00000000000E+00  0.45476230511E+03  0.45476230514E+03  0.50400001928E-02 0. -1.
        1   -1    0    0  501    0  0.00000000000E+00  0.00000000000E+00 -0.22586126848E+04  0.22586126848E+04  0.50400001928E-02 0.  1.
    10030    2    1    2    0    0  0.00000000000E+00  0.00000000000E+00 -0.18038503797E+04  0.27133749899E+04  0.20269503309E+04 0.  0.
        4    1    3    3  502    0  0.20926923535E+03  0.15545897188E+03  0.40910991809E+03  0.48511198994E+03  0.12699999809E+01 0. -1.
       -4    1    3    3    0  502 -0.20926923535E+03 -0.15545897188E+03 -0.22129602978E+04  0.22282630000E+04  0.12699999809E+01 0.  1.
</event>
<event>
 5   0  0.2488886E-04  0.2037768E+04  0.7818609E-02  0.8589164E-01
       -2   -1    0    0    0  501  0.00000000000E+00  0.00000000000E+00  0.73889523988E+03  0.73889523989E+03  0.25500000920E-02 0. -1.
        2   -1    0    0  501    0  0.00000000000E+00  0.00000000000E+00 -0.14049687406E+04  0.14049687406E+04  0.25500000920E-02 0.  1.
    10030    2    1    2    0    0  0.00000000000E+00  0.00000000000E+00 -0.66607350069E+03  0.21438639805E+04  0.20377681071E+04 0.  0.
        3    1    3    3  502    0 -0.17007237214E+03 -0.32153114558E+03 -0.13343337060E+04  0.13830232603E+04  0.10100000352E+00 0.  1.
       -3    1    3    3    0  502  0.17007237214E+03  0.32153114558E+03  0.66826020528E+03  0.76084072020E+03  0.10100000352E+00 0. -1.
</event>
<event>
 5   0  0.2540506E-04  0.1993965E+04  0.7818609E-02  0.8609447E-01
       -2   -1    0    0    0  501  0.00000000000E+00  0.00000000000E+00  0.12594327952E+04  0.12594327952E+04  0.25500000920E-02 0. -1.
        2   -1    0    0  501    0  0.00000000000E+00  0.00000000000E+00 -0.78922356518E+03  0.78922356518E+03  0.25500000920E-02 0.  1.
    10030    2    1    2    0    0  0.00000000000E+00  0.00000000000E+00  0.47020923000E+03  0.20486563604E+04  0.19939649352E+04 0.  0.
        4    1    3    3  502    0  0.24588740966E+03  0.69628850745E+03  0.92332382486E+03  0.11822887982E+04  0.12699999809E+01 0. -1.
       -4    1    3    3    0  502 -0.24588740966E+03 -0.69628850745E+03 -0.45311459486E+03  0.86636756219E+03  0.12699999809E+01 0.  1.
</event>
<event>
 5   0  0.2540506E-04  0.1999800E+04  0.7818609E-02  0.8606714E-01
        2   -1    0    0  501    0  0.00000000000E+00  0.00000000000E+00  0.14286682794E+04  0.14286682794E+04  0.25500000920E-02 0. -1.
       -2   -1    0    0    0  501  0.00000000000E+00  0.00000000000E+00 -0.69981243176E+03  0.69981243176E+03  0.25500000920E-02 0.  1.
    10030    2    1    2    0    0  0.00000000000E+00  0.00000000000E+00  0.72885584768E+03  0.21284807112E+04  0.19997998128E+04 0.  0.
        4    1    3    3  502    0 -0.45851386676E+03 -0.29875448673E+03 -0.52626509728E+03  0.75924026163E+03  0.12699999809E+01 0.  1.
       -4    1    3    3    0  502  0.45851386676E+03  0.29875448673E+03  0.12551209450E+04  0.13692404496E+04  0.12699999809E+01 0. -1.
</event>
<event>
 5   0  0.1324930E-04  0.1907404E+04  0.7818609E-02  0.8651180E-01
        1   -1    0    0  501    0  0.00000000000E+00  0.00000000000E+00  0.16476822709E+04  0.16476822709E+04  0.50400001928E-02 0.  1.
       -1   -1    0    0    0  501  0.00000000000E+00  0.00000000000E+00 -0.55201625322E+03  0.55201625325E+03  0.50400001928E-02 0. -1.
    10030    2    1    2    0    0  0.00000000000E+00  0.00000000000E+00  0.10956660177E+04  0.21996985241E+04  0.19074038835E+04 0.  0.
        5    1    3    3  502    0 -0.71810138204E+03 -0.55537323507E+03  0.21078573091E+03  0.93196659783E+03  0.46999998093E+01 0. -1.
       -5    1    3    3    0  502  0.71810138204E+03  0.55537323507E+03  0.88488028675E+03  0.12677319263E+04  0.46999998093E+01 0.  1.
</event>
<event>
 5   0  0.1231056E-04  0.1792770E+04  0.7818609E-02  0.8710154E-01
        1   -1    0    0  501    0  0.00000000000E+00  0.00000000000E+00  0.12417390134E+04  0.12417390134E+04  0.50400001928E-02 0.  1.
       -1   -1    0    0    0  501  0.00000000000E+00  0.00000000000E+00 -0.64708117535E+03  0.64708117537E+03  0.50400001928E-02 0. -1.
    10030    2    1    2    0    0  0.00000000000E+00  0.00000000000E+00  0.59465783807E+03  0.18888201888E+04  0.17927698573E+04 0.  0.
        3    1    3    3  502    0  0.63932938579E+03 -0.17689036445E+03  0.93251730676E+03  0.11443866489E+04  0.10100000352E+00 0.  1.
       -3    1    3    3    0  502 -0.63932938579E+03  0.17689036445E+03 -0.33785946868E+03  0.74443353991E+03  0.10100000352E+00 0. -1.
</event>
<event>
 5   0  0.2540506E-04  0.2024104E+04  0.7818609E-02  0.8595433E-01
       -2   -1    0    0    0  501  0.00000000000E+00  0.00000000000E+00  0.46469598067E+03  0.46469598068E+03  0.25500000920E-02 0. -1.
        2   -1    0    0  501    0  0.00000000000E+00  0.00000000000E+00 -0.22041284013E+04  0.22041284013E+04  0.25500000920E-02 0.  1.
    10030    2    1    2    0    0  0.00000000000E+00  0.00000000000E+00 -0.17394324207E+04  0.26688243820E+04  0.20241043540E+04 0.  0.
        4    1    3    3  502    0 -0.73632058736E+03  0.31706045801E+03 -0.16841660410E+04  0.18652378422E+04  0.12699999809E+01 0.  1.
       -4    1    3    3    0  502  0.73632058736E+03 -0.31706045801E+03 -0.55266379690E+02  0.80358653985E+03  0.12699999809E+01 0. -1.
</event>
<event>
 5   0  0.2596061E-04  0.1684204E+04  0.7818609E-02  0.8770425E-01
        2   -1    0    0  501    0  0.00000000000E+00  0.00000000000E+00  0.35797212724E+03  0.35797212725E+03  0.25500000920E-02 0.  1.
       -2   -1    0    0    0  501  0.00000000000E+00  0.00000000000E+00 -0.19809804540E+04  0.19809804540E+04  0.25500000920E-02 0. -1.
    10030    2    1    2    0    0  0.00000000000E+00  0.00000000000E+00 -0.16230083268E+04  0.23389525813E+04  0.16842040104E+04 0.  0.
        5    1    3    3  502    0 -0.63748819151E+03 -0.53069590115E+03 -0.10131582214E+04  0.13094048287E+04  0.46999998093E+01 0. -1.
       -5    1    3    3    0  502  0.63748819151E+03  0.53069590115E+03 -0.60985010535E+03  0.10295477526E+04  0.46999998093E+01 0.  1.
</event>
<event>
 5   0  0.1324930E-04  0.1995610E+04  0.7818609E-02  0.8608676E-01
       -1   -1    0    0    0  501  0.00000000000E+00  0.00000000000E+00  0.72041127634E+03  0.72041127636E+03  0.50400001928E-02 0. -1.
        1   -1    0    0  501    0  0.00000000000E+00  0.00000000000E+00 -0.13820087840E+04  0.13820087840E+04  0.50400001928E-02 0.  1.
    10030    2    1    2    0    0  0.00000000000E+00  0.00000000000E+00 -0.66159750767E+03  0.21024200604E+04  0.19956098938E+04 0.  0.
        5    1    3    3  502    0 -0.96891369594E+03  0.16975224826E+03 -0.50703341866E+03  0.11066682220E+04  0.46999998093E+01 0.  1.
       -5    1    3    3    0  502  0.96891369594E+03 -0.16975224826E+03 -0.15456408901E+03  0.99575183836E+03  0.46999998093E+01 0. -1.
</event>
<event>
 5   0  0.1231056E-04  0.1937145E+04  0.7818609E-02  0.8636584E-01
        1   -1    0    0  501    0  0.00000000000E+00  0.00000000000E+00  0.13079379964E+04  0.13079379964E+04  0.50400001928E-02 0. -1.
       -1   -1    0    0    0  501  0.00000000000E+00  0.00000000000E+00 -0.71726115611E+03  0.71726115612E+03  0.50400001928E-02 0.  1.
    10030    2    1    2    0    0  0.00000000000E+00  0.00000000000E+00  0.59067684027E+03  0.20251991525E+04  0.19371454457E+04 0.  0.
        3    1    3    3  502    0  0.71365980798E+03 -0.61249793745E+03  0.53142111886E+02  0.94195973330E+03  0.10100000352E+00 0.  1.
       -3    1    3    3    0  502 -0.71365980798E+03  0.61249793745E+03  0.53753472838E+03  0.10832394192E+04  0.10100000352E+00 0. -1.
</event>
<event>
 5   0  0.2463085E-04  0.1656743E+04  0.7818609E-02  0.8786428E-01
        2   -1    0    0  501    0  0.00000000000E+00  0.00000000000E+00  0.96538461024E+03  0.96538461024E+03  0.25500000920E-02 0.  1.
       -2   -1    0    0    0  501  0.00000000000E+00  0.00000000000E+00 -0.71080388441E+03  0.71080388441E+03  0.25500000920E-02 0. -1.
    10030    2    1    2    0    0  0.00000000000E+00  0.00000000000E+00  0.25458072583E+03  0.16761884947E+04  0.16567427452E+04 0.  0.
        2    1    3    3  502    0 -0.19836480755E+02  0.74379060263E+03 -0.24110039398E+03  0.78214279164E+03  0.25500000920E-02 0. -1.
       -2    1    3    3    0  502  0.19836480755E+02 -0.74379060263E+03  0.49568111981E+03  0.89404570301E+03  0.25500000920E-02 0.  1.
</event>
<event>
 5   0  0.2596061E-04  0.1531798E+04  0.7818609E-02  0.8863579E-01
       -2   -1    0    0    0  501  0.00000000000E+00  0.00000000000E+00  0.47603248534E+03  0.47603248534E+03  0.25500000920E-02 0. -1.
        2   -1    0    0  501    0  0.00000000000E+00  0.00000000000E+00 -0.12322714806E+04  0.12322714806E+04  0.25500000920E-02 0.  1.
    10030    2    1    2    0    0  0.00000000000E+00  0.00000000000E+00 -0.75623899523E+03  0.17083039659E+04  0.15317979704E+04 0.  0.
        5    1    3    3  502    0  0.30845585492E+03 -0.56807965794E+03  0.79965951219E+02  0.65136484058E+03  0.46999998093E+01 0. -1.
       -5    1    3    3    0  502 -0.30845585492E+03  0.56807965794E+03 -0.83620494645E+03  0.10569391253E+04  0.46999998093E+01 0.  1.
</event>
<event>
 5   0  0.2421737E-04  0.2040173E+04  0.7818609E-02  0.8588066E-01
       -2   -1    0    0    0  501  0.00000000000E+00  0.00000000000E+00  0.72744305114E+03  0.72744305115E+03  0.25500000920E-02 0. -1.
        2   -1    0    0  501    0  0.00000000000E+00  0.00000000000E+00 -0.14304571586E+04  0.14304571586E+04  0.25500000920E-02 0.  1.
    10030    2    1    2    0    0  0.00000000000E+00  0.00000000000E+00 -0.70301410749E+03  0.21579002098E+04  0.20401726594E+04 0.  0.
        1    1    3    3  502    0  0.49912853999E+03  0.36556878962E+03 -0.12093611747E+04  0.13584271384E+04  0.50400001928E-02 0.  1.
       -1    1    3    3    0  502 -0.49912853999E+03 -0.36556878962E+03  0.50634706722E+03  0.79947307140E+03  0.50400001928E-02 0. -1.
</event>
<event>
 5   0  0.2540506E-04  0.1947038E+04  0.7818609E-02  0.8631791E-01
       -2   -1    0    0    0  501  0.00000000000E+00  0.00000000000E+00  0.78505997525E+03  0.78505997525E+03  0.25500000920E-02 0.  1.
        2   -1    0    0  501    0  0.00000000000E+00  0.00000000000E+00 -0.12072184082E+04  0.12072184082E+04  0.25500000920E-02 0. -1.
    10030    2    1    2    0    0  0.00000000000E+00  0.00000000000E+00 -0.42215843298E+03  0.19922783835E+04  0.19470375997E+04 0.  0.
        4    1    3    3  502    0  0.95345487729E+03  0.13440604335E+03 -0.35792709873E+03  0.10272558632E+04  0.12699999809E+01 0.  1.
       -4    1    3    3    0  502 -0.95345487729E+03 -0.13440604335E+03 -0.64231334248E+02  0.96502252031E+03  0.12699999809E+01 0. -1.
</event>
<event>
 5   0  0.2596061E-04  0.1968616E+04  0.7818609E-02  0.8621436E-01
       -2   -1    0    0    0  501  0.00000000000E+00  0.00000000000E+00  0.43619182663E+03  0.43619182664E+03  0.25500000920E-02 0. -1.
        2   -1    0    0  501    0  0.00000000000E+00  0.00000000000E+00 -0.22211843471E+04  0.22211843471E+04  0.25500000920E-02 0.  1.
    10030    2    1    2    0    0  0.00000000000E+00  0.00000000000E+00 -0.17849925204E+04  0.26573761737E+04  0.19686162223E+04 0.  0.
        5    1    3    3  502    0 -0.56365916066E+03  0.46830968902E+03 -0.17795311768E+04  0.19245204372E+04  0.46999998093E+01 0.  1.
       -5    1    3    3    0  502  0.56365916066E+03 -0.46830968902E+03 -0.54613436765E+01  0.73285573649E+03  0.46999998093E+01 0. -1.
</event>
<event>
 5   0  0.2488886E-04  0.2069038E+04  0.7818609E-02  0.8575007E-01
       -2   -1    0    0    0  501  0.00000000000E+00  0.00000000000E+00  0.88209274569E+03  0.88209274569E+03  0.25500000920E-02 0. -1.
        2   -1    0    0  501    0  0.00000000000E+00  0.00000000000E+00 -0.12132840885E+04  0.12132840885E+04  0.25500000920E-02 0.  1.
    10030    2    1    2    0    0  0.00000000000E+00  0.00000000000E+00 -0.33119134280E+03  0.20953768342E+04  0.20690375472E+04 0.  0.
        3    1    3    3  502    0  0.81267292465E+03 -0.17772764088E+03 -0.78840802593E+03  0.11461289728E+04  0.10100000352E+00 0.  1.
       -3    1    3    3    0  502 -0.81267292465E+03  0.17772764088E+03  0.45721668312E+03  0.94924786137E+03  0.10100000352E+00 0. -1.
</event>
<event>
 5   0  0.1210633E-04  0.1441802E+04  0.7818609E-02  0.8924104E-01
       -1   -1    0    0    0  501  0.00000000000E+00  0.00000000000E+00  0.41766692231E+03  0.41766692234E+03  0.50400001928E-02 0. -1.
        1   -1    0    0  501    0  0.00000000000E+00  0.00000000000E+00 -0.12442887490E+04  0.12442887490E+04  0.50400001928E-02 0.  1.
    10030    2    1    2    0    0  0.00000000000E+00  0.00000000000E+00 -0.82662182665E+03  0.16619556713E+04  0.14418020006E+04 0.  0.
        2    1    3    3  502    0  0.26706733200E+03 -0.40435583157E+03 -0.10285400655E+04  0.11369798875E+04  0.25500000920E-02 0. -1.
       -2    1    3    3    0  502 -0.26706733200E+03  0.40435583157E+03  0.20191823885E+03  0.52497578376E+03  0.25500000920E-02 0.  1.
</event>
<event>
 5   0  0.2596061E-04  0.1982064E+04  0.7818609E-02  0.8615052E-01
        2   -1    0    0  501    0  0.00000000000E+00  0.00000000000E+00  0.10933876554E+04  0.10933876554E+04  0.25500000920E-02 0.  1.
       -2   -1    0    0    0  501  0.00000000000E+00  0.00000000000E+00 -0.89825859268E+03  0.89825859268E+03  0.25500000920E-02 0. -1.
    10030    2    1    2    0    0  0.00000000000E+00  0.00000000000E+00  0.19512906268E+03  0.19916462481E+04  0.19820644354E+04 0.  0.
        5    1    3    3  502    0 -0.76467892873E+03 -0.44582072823E+03  0.54540145193E+03  0.10396993890E+04  0.46999998093E+01 0.  1.
       -5    1    3    3    0  502  0.76467892873E+03  0.44582072823E+03 -0.35027238925E+03  0.95194685903E+03  0.46999998093E+01 0. -1.
</event>
<event>
 5   0  0.1324930E-04  0.1959322E+04  0.7818609E-02  0.8625878E-01
       -1   -1    0    0    0  501  0.00000000000E+00  0.00000000000E+00  0.54068699579E+03  0.54068699581E+03  0.50400001928E-02 0.  1.
        1   -1    0    0  501    0  0.00000000000E+00  0.00000000000E+00 -0.17750309674E+04  0.17750309674E+04  0.50400001928E-02 0. -1.
    10030    2    1    2    0    0  0.00000000000E+00  0.00000000000E+00 -0.12343439716E+04  0.23157179632E+04  0.19593224964E+04 0.  0.
        5    1    3    3  502    0 -0.39715336670E+03  0.89023965955E+03 -0.73210578942E+03  0.12191219894E+04  0.46999998093E+01 0. -1.
       -5    1    3    3    0  502  0.39715336670E+03 -0.89023965955E+03 -0.50223818215E+03  0.10965959738E+04  0.46999998093E+01 0.  1.
</event>
<event>
 5   0  0.1324930E-04  0.2256691E+04  0.7818609E-02  0.8495196E-01
       -1   -1    0    0    0  501  0.00000000000E+00  0.00000000000E+00  0.15970777933E+04  0.15970777933E+04  0.50400001928E-02 0. -1.
        1   -1    0    0  501    0  0.00000000000E+00  0.00000000000E+00 -0.79718343704E+03  0.79718343705E+03  0.50400001928E-02 0.  1.
    10030    2    1    2    0    0  0.00000000000E+00  0.00000000000E+00  0.79989435623E+03  0.23942612303E+04  0.22566913519E+04 0.  0.
        5    1    3    3  502    0 -0.94475995666E+03 -0.28483161743E+03 -0.18062380496E+03  0.10031687171E+04  0.46999998093E+01 0.  1.
       -5    1    3    3    0  502  0.94475995666E+03  0.28483161743E+03  0.98051816119E+03  0.13910925133E+04  0.46999998093E+01 0. -1.
</event>
<event>
 5   0  0.1324930E-04  0.1984634E+04  0.7818609E-02  0.8613839E-01
       -1   -1    0    0    0  501  0.00000000000E+00  0.00000000000E+00  0.54353289420E+03  0.54353289423E+03  0.50400001928E-02 0. -1.
        1   -1    0    0  501    0  0.00000000000E+00  0.00000000000E+00 -0.18116526164E+04  0.18116526164E+04  0.50400001928E-02 0.  1.
    10030    2    1    2    0    0  0.00000000000E+00  0.00000000000E+00 -0.12681197222E+04  0.23551855106E+04  0.19846337596E+04 0.  0.
        5    1    3    3  502    0  0.59728999027E+03 -0.58106694805E+03  0.53079044460E+01  0.83333330333E+03  0.46999998093E+01 0. -1.
       -5    1    3    3    0  502 -0.59728999027E+03  0.58106694805E+03 -0.12734276266E+04  0.15218522073E+04  0.46999998093E+01 0.  1.
</event>
<event>
 5   0  0.1207228E-04  0.2034907E+04  0.7818609E-02  0.8590472E-01
       -1   -1    0    0    0  501  0.00000000000E+00  0.00000000000E+00  0.17554259511E+04  0.17554259511E+04  0.50400001928E-02 0. -1.
        1   -1    0    0  501    0  0.00000000000E+00  0.00000000000E+00 -0.58972106116E+03  0.58972106118E+03  0.50400001928E-02 0.  1.
    10030    2    1    2    0    0  0.00000000000E+00  0.00000000000E+00  0.11657048900E+04  0.23451470123E+04  0.20349070295E+04 0.  0.
        1    1    3    3  502    0 -0.38684308886E+03 -0.12440621615E+03 -0.49214364323E+03  0.63822397919E+03  0.50400001928E-02 0.  1.
       -1    1    3    3    0  502  0.38684308886E+03  0.12440621615E+03  0.16578485332E+04  0.17069230331E+04  0.50400001928E-02 0. -1.
</event>
<event>
 5   0  0.2488886E-04  0.2024327E+04  0.7818609E-02  0.8595331E-01
       -2   -1    0    0    0  501  0.00000000000E+00  0.00000000000E+00  0.10910099031E+04  0.10910099031E+04  0.25500000920E-02 0.  1.
        2   -1    0    0  501    0  0.00000000000E+00  0.00000000000E+00 -0.93901485489E+03  0.93901485490E+03  0.25500000920E-02 0. -1.
    10030    2    1    2    0    0  0.00000000000E+00  0.00000000000E+00  0.15199504820E+03  0.20300247580E+04  0.20243265605E+04 0.  0.
        3    1    3    3  502    0 -0.22903423193E+03 -0.67595202376E+02  0.10623558957E+04  0.10888644774E+04  0.10100000352E+00 0.  1.
       -3    1    3    3    0  502  0.22903423193E+03  0.67595202376E+02 -0.91036084754E+03  0.94116028057E+03  0.10100000352E+00 0. -1.
</event>
<event>
 5   0  0.2596061E-04  0.2005217E+04  0.7818609E-02  0.8604185E-01
       -2   -1    0    0    0  501  0.00000000000E+00  0.00000000000E+00  0.87453587193E+03  0.87453587193E+03  0.25500000920E-02 0.  1.
        2   -1    0    0  501    0  0.00000000000E+00  0.00000000000E+00 -0.11494370751E+04  0.11494370751E+04  0.25500000920E-02 0. -1.
    10030    2    1    2    0    0  0.00000000000E+00  0.00000000000E+00 -0.27490120321E+03  0.20239729471E+04  0.20052171501E+04 0.  0.
        5    1    3    3  502    0 -0.38433996418E+02 -0.66246995620E+03  0.62114973484E+03  0.90895142776E+03  0.46999998093E+01 0.  1.
       -5    1    3    3    0  502  0.38433996418E+02  0.66246995620E+03 -0.89605093805E+03  0.11150215193E+04  0.46999998093E+01 0. -1.
</event>
<event>
 5   0  0.1258546E-04  0.1989921E+04  0.7818609E-02  0.8611347E-01
        1   -1    0    0  501    0  0.00000000000E+00  0.00000000000E+00  0.84910474555E+03  0.84910474556E+03  0.50400001928E-02 0. -1.
       -1   -1    0    0    0  501  0.00000000000E+00  0.00000000000E+00 -0.11658707343E+04  0.11658707343E+04  0.50400001928E-02 0.  1.
    10030    2    1    2    0    0  0.00000000000E+00  0.00000000000E+00 -0.31676598871E+03  0.20149754798E+04  0.19899209765E+04 0.  0.
        4    1    3    3  502    0 -0.68790301572E+03 -0.71130826964E+03 -0.26349140562E+03  0.10240114000E+04  0.12699999809E+01 0.  1.
       -4    1    3    3    0  502  0.68790301572E+03  0.71130826964E+03 -0.53274583093E+02  0.99096407988E+03  0.12699999809E+01 0. -1.
</event>
<event>
 5   0  0.2463085E-04  0.1908897E+04  0.7818609E-02  0.8650440E-01
       -2   -1    0    0    0  501  0.00000000000E+00  0.00000000000E+00  0.11513593401E+04  0.11513593401E+04  0.25500000920E-02 0.  1.
        2   -1    0    0  501    0  0.00000000000E+00  0.00000000000E+00 -0.79121440981E+03  0.79121440981E+03  0.25500000920E-02 0. -1.
    10030    2    1    2    0    0  0.00000000000E+00  0.00000000000E+00  0.36014493029E+03  0.19425737499E+04  0.19088971693E+04 0.  0.
        2    1    3    3  502    0  0.82039524344E+03  0.34437246841E+03 -0.17146551713E+03  0.90611322473E+03  0.25500000920E-02 0. -1.
       -2    1    3    3    0  502 -0.82039524344E+03 -0.34437246841E+03  0.53161044742E+03  0.10364605252E+04  0.25500000920E-02 0.  1.
</event>
<event>
 5   0  0.2463085E-04  0.2076958E+04  0.7818609E-02  0.8571462E-01
        2   -1    0    0  501    0  0.00000000000E+00  0.00000000000E+00  0.12655463466E+04  0.12655463467E+04  0.25500000920E-02 0. -1.
       -2   -1    0    0    0  501  0.00000000000E+00  0.00000000000E+00 -0.85215231622E+03  0.85215231622E+03  0.25500000920E-02 0.  1.
    10030    2    1    2    0    0  0.00000000000E+00  0.00000000000E+00  0.41339403043E+03  0.21176986629E+04  0.20769576313E+04 0.  0.
        2    1    3    3  502    0  0.45666570030E+03  0.11608081436E+03  0.11502795824E+04  0.12430452264E+04  0.25500000920E-02 0. -1.
       -2    1    3    3    0  502 -0.45666570030E+03 -0.11608081436E+03 -0.73688555192E+03  0.87465343647E+03  0.25500000920E-02 0.  1.
</event>
<event>
 5   0  0.1207228E-04  0.2009304E+04  0.7818609E-02  0.8602283E-01
        1   -1    0    0  501    0  0.00000000000E+00  0.00000000000E+00  0.89087619142E+03  0.89087619144E+03  0.50400001928E-02 0. -1.
       -1   -1    0    0    0  501  0.00000000000E+00  0.00000000000E+00 -0.11329587610E+04  0.11329587610E+04  0.50400001928E-02 0.  1.
    10030    2    1    2    0    0  0.00000000000E+00  0.00000000000E+00 -0.24208256957E+03  0.20238349524E+04  0.20093043434E+04 0.  0.
        1    1    3    3  502    0  0.86896989185E+03 -0.88286266456E+02 -0.62104111350E+03  0.10717253391E+04  0.50400001928E-02 0.  1.
       -1    1    3    3    0  502 -0.86896989185E+03  0.88286266456E+02  0.37895854392E+03  0.95210961335E+03  0.50400001928E-02 0. -1.
</event>
<event>
 5   0  0.2596061E-04  0.1936000E+04  0.7818609E-02  0.8637141E-01
        2   -1    0    0  501    0  0.00000000000E+00  0.00000000000E+00  0.10147096650E+04  0.10147096651E+04  0.25500000920E-02 0.  1.
       -2   -1    0    0    0  501  0.00000000000E+00  0.00000000000E+00 -0.92344066296E+03  0.92344066297E+03  0.25500000920E-02 0. -1.
    10030    2    1    2    0    0  0.00000000000E+00  0.00000000000E+00  0.91269002085E+02  0.19381503280E+04  0.19360001713E+04 0.  0.
        5    1    3    3  502    0 -0.86503326467E+02 -0.84811090437E+03 -0.41338006042E+03  0.94745981232E+03  0.46999998093E+01 0. -1.
       -5    1    3    3    0  502  0.86503326467E+02  0.84811090437E+03  0.50464906251E+03  0.99069051570E+03  0.46999998093E+01 0.  1.
</event>
<event>
 5   0  0.1231056E-04  0.2012308E+04  0.7818609E-02  0.8600888E-01
       -1   -1    0    0    0  501  0.00000000000E+00  0.00000000000E+00  0.99708092396E+03  0.99708092397E+03  0.50400001928E-02 0. -1.
        1   -1    0    0  501    0  0.00000000000E+00  0.00000000000E+00 -0.10153100516E+04  0.10153100517E+04  0.50400001928E-02 0.  1.
    10030    2    1    2    0    0  0.00000000000E+00  0.00000000000E+00 -0.18229127687E+02  0.20123909756E+04  0.20123084102E+04 0.  0.
        3    1    3    3  502    0  0.25652246932E+03  0.12461825505E+03  0.95581506486E+03  0.99745472838E+03  0.10100000352E+00 0. -1.
       -3    1    3    3    0  502 -0.25652246932E+03 -0.12461825505E+03 -0.97404419254E+03  0.10149362473E+04  0.10100000352E+00 0.  1.
</event>
<event>
 5   0  0.2540506E-04  0.1743346E+04  0.7818609E-02  0.8737022E-01
       -2   -1    0    0    0  501  0.00000000000E+00  0.00000000000E+00  0.10070930696E+04  0.10070930696E+04  0.25500000920E-02 0. -1.
        2   -1    0    0  501    0  0.00000000000E+00  0.00000000000E+00 -0.75446200267E+03  0.75446200267E+03  0.25500000920E-02 0.  1.
    10030    2    1    2    0    0  0.00000000000E+00  0.00000000000E+00  0.25263106691E+03  0.17615550723E+04  0.17433455815E+04 0.  0.
        4    1    3    3  502    0  0.49113940201E+03  0.42926332489E+03 -0.45793405897E+03  0.79698816150E+03  0.12699999809E+01 0.  1.
       -4    1    3    3    0  502 -0.49113940201E+03 -0.42926332489E+03  0.71056512589E+03  0.96456691076E+03  0.12699999809E+01 0. -1.
</event>
<event>
 5   0  0.2596061E-04  0.2039727E+04  0.7818609E-02  0.8588269E-01
        2   -1    0    0  501    0  0.00000000000E+00  0.00000000000E+00  0.17200949970E+04  0.17200949970E+04  0.25500000920E-02 0. -1.
       -2   -1    0    0    0  501  0.00000000000E+00  0.00000000000E+00 -0.60468822350E+03  0.60468822350E+03  0.25500000920E-02 0.  1.
    10030    2    1    2    0    0  0.00000000000E+00  0.00000000000E+00  0.11154067735E+04  0.23247832205E+04  0.20397266366E+04 0.  0.
        5    1    3    3  502    0 -0.46169011419E+03 -0.87001115019E+03  0.85930075603E+03  0.13070948865E+04  0.46999998093E+01 0. -1.
       -5    1    3    3    0  502  0.46169011419E+03  0.87001115019E+03  0.25610601748E+03  0.10176883340E+04  0.46999998093E+01 0.  1.
</event>
<event>
 5   0  0.1207228E-04  0.2040982E+04  0.7818609E-02  0.8587696E-01
        1   -1    0    0  501    0  0.00000000000E+00  0.00000000000E+00  0.89926580077E+03  0.89926580078E+03  0.50400001928E-02 0.  1.
       -1   -1    0    0    0  501  0.00000000000E+00  0.00000000000E+00 -0.11580578123E+04  0.11580578123E+04  0.50400001928E-02 0. -1.
    10030    2    1    2    0    0  0.00000000000E+00  0.00000000000E+00 -0.25879201155E+03  0.20573236131E+04  0.20409819068E+04 0.  0.
        1    1    3    3  502    0  0.44687979067E+03  0.68797654085E+03  0.48241389211E+03  0.95170186056E+03  0.50400001928E-02 0.  1.
       -1    1    3    3    0  502 -0.44687979067E+03 -0.68797654085E+03 -0.74120590366E+03  0.11056217526E+04  0.50400001928E-02 0. -1.
</event>
<event>
 5   0  0.1207228E-04  0.1820719E+04  0.7818609E-02  0.8695358E-01
        1   -1    0    0  501    0  0.00000000000E+00  0.00000000000E+00  0.93288821073E+03  0.93288821074E+03  0.50400001928E-02 0. -1.
       -1   -1    0    0    0  501  0.00000000000E+00  0.00000000000E+00 -0.88837491160E+03  0.88837491162E+03  0.50400001928E-02 0.  1.
    10030    2    1    2    0    0  0.00000000000E+00  0.00000000000E+00  0.44513299128E+02  0.18212631224E+04  0.18207190687E+04 0.  0.
        1    1    3    3  502    0 -0.17122584450E+03  0.16569611586E+03  0.90114368054E+03  0.93211234604E+03  0.50400001928E-02 0. -1.
       -1    1    3    3    0  502  0.17122584450E+03 -0.16569611586E+03 -0.85663038142E+03  0.88915077632E+03  0.50400001928E-02 0.  1.
</event>
<event>
 5   0  0.1231056E-04  0.1954524E+04  0.7818609E-02  0.8628182E-01
       -1   -1    0    0    0  501  0.00000000000E+00  0.00000000000E+00  0.80045127558E+03  0.80045127560E+03  0.50400001928E-02 0.  1.
        1   -1    0    0  501    0  0.00000000000E+00  0.00000000000E+00 -0.11931283257E+04  0.11931283257E+04  0.50400001928E-02 0. -1.
    10030    2    1    2    0    0  0.00000000000E+00  0.00000000000E+00 -0.39267705013E+03  0.19935796013E+04  0.19545240753E+04 0.  0.
        3    1    3    3  502    0  0.22665660160E+03 -0.13318120065E+03 -0.11563853511E+04  0.11858910311E+04  0.10100000352E+00 0. -1.
       -3    1    3    3    0  502 -0.22665660160E+03  0.13318120065E+03  0.76370830097E+03  0.80768857020E+03  0.10100000352E+00 0.  1.
</event>
<event>
 5   0  0.2540506E-04  0.2044754E+04  0.7818609E-02  0.8585978E-01
        2   -1    0    0  501    0  0.00000000000E+00  0.00000000000E+00  0.80022098819E+03  0.80022098819E+03  0.25500000920E-02 0.  1.
       -2   -1    0    0    0  501  0.00000000000E+00  0.00000000000E+00 -0.13062078103E+04  0.13062078103E+04  0.25500000920E-02 0. -1.
    10030    2    1    2    0    0  0.00000000000E+00  0.00000000000E+00 -0.50598682209E+03  0.21064287985E+04  0.20447541708E+04 0.  0.
        4    1    3    3  502    0  0.93668160710E+03 -0.40938161804E+03 -0.23552465267E+03  0.10490182158E+04  0.12699999809E+01 0. -1.
       -4    1    3    3    0  502 -0.93668160710E+03  0.40938161804E+03 -0.27046216942E+03  0.10574105826E+04  0.12699999809E+01 0.  1.
</event>
<event>
 5   0  0.2421737E-04  0.1931851E+04  0.7818609E-02  0.8639162E-01
       -2   -1    0    0    0  501  0.00000000000E+00  0.00000000000E+00  0.92094568419E+03  0.92094568419E+03  0.25500000920E-02 0. -1.
        2   -1    0    0  501    0  0.00000000000E+00  0.00000000000E+00 -0.10131022875E+04  0.10131022875E+04  0.25500000920E-02 0.  1.
    10030    2    1    2    0    0  0.00000000000E+00  0.00000000000E+00 -0.92156603333E+02  0.19340479717E+04  0.19318511116E+04 0.  0.
        1    1    3    3  502    0 -0.37070201296E+02  0.18277380932E+03  0.90275033187E+03  0.92181268537E+03  0.50400001928E-02 0. -1.
       -1    1    3    3    0  502  0.37070201296E+02 -0.18277380932E+03 -0.99490693520E+03  0.10122352863E+04  0.50400001928E-02 0.  1.
</event>
<event>
 5   0  0.2596061E-04  0.2022569E+04  0.7818609E-02  0.8596141E-01
        2   -1    0    0  501    0  0.00000000000E+00  0.00000000000E+00  0.22881943155E+04  0.22881943155E+04  0.25500000920E-02 0. -1.
       -2   -1    0    0    0  501  0.00000000000E+00  0.00000000000E+00 -0.44694475115E+03  0.44694475116E+03  0.25500000920E-02 0.  1.
    10030    2    1    2    0    0  0.00000000000E+00  0.00000000000E+00  0.18412495643E+04  0.27351390666E+04  0.20225690979E+04 0.  0.
        5    1    3    3  502    0 -0.36329837735E+03  0.37972086411E+03 -0.24777416183E+03  0.58102303818E+03  0.46999998093E+01 0.  1.
       -5    1    3    3    0  502  0.36329837735E+03 -0.37972086411E+03  0.20890237262E+04  0.21541160285E+04  0.46999998093E+01 0. -1.
</event>
<event>
 5   0  0.1210633E-04  0.1417552E+04  0.7818609E-02  0.8941211E-01
       -1   -1    0    0    0  501  0.00000000000E+00  0.00000000000E+00  0.97148950317E+03  0.97148950319E+03  0.50400001928E-02 0.  1.
        1   -1    0    0  501    0  0.00000000000E+00  0.00000000000E+00 -0.51710613946E+03  0.51710613949E+03  0.50400001928E-02 0. -1.
    10030    2    1    2    0    0  0.00000000000E+00  0.00000000000E+00  0.45438336371E+03  0.14885956427E+04  0.14175516732E+04 0.  0.
        2    1    3    3  502    0 -0.23544463384E+03  0.30799112331E+02 -0.47409524547E+03  0.53023491276E+03  0.25500000920E-02 0. -1.
       -2    1    3    3    0  502  0.23544463384E+03 -0.30799112331E+02  0.92847860918E+03  0.95836072991E+03  0.25500000920E-02 0.  1.
</event>
<event>
 5   0  0.9099125E-05  0.1985884E+04  0.7818609E-02  0.8613249E-01
        3   -1    0    0  501    0  0.00000000000E+00  0.00000000000E+00  0.45103311544E+03  0.45103312675E+03  0.10100000352E+00 0. -1.
       -3   -1    0    0    0  501  0.00000000000E+00  0.00000000000E+00 -0.21859456933E+04  0.21859456956E+04  0.10100000352E+00 0.  1.
    10030    2    1    2    0    0  0.00000000000E+00  0.00000000000E+00 -0.17349125779E+04  0.26369788224E+04  0.19858840996E+04 0.  0.
        2    1    3    3  502    0 -0.27899110451E+03 -0.69795667181E+03 -0.17289859826E+04  0.18853042408E+04  0.25500000920E-02 0.  1.
       -2    1    3    3    0  502  0.27899110451E+03  0.69795667181E+03 -0.59265952312E+01  0.75167458162E+03  0.25500000920E-02 0. -1.
</event>
<event>
 5   0  0.2540506E-04  0.2178037E+04  0.7818609E-02  0.8527625E-01
        2   -1    0    0  501    0  0.00000000000E+00  0.00000000000E+00  0.13938750131E+04  0.13938750131E+04  0.25500000920E-02 0. -1.
       -2   -1    0    0    0  501  0.00000000000E+00  0.00000000000E+00 -0.85083796373E+03  0.85083796374E+03  0.25500000920E-02 0.  1.
    10030    2    1    2    0    0  0.00000000000E+00  0.00000000000E+00  0.54303704941E+03  0.22447129769E+04  0.21780374449E+04 0.  0.
        4    1    3    3  502    0  0.65417513293E+03  0.72554273215E+03  0.76750219966E+03  0.12423439943E+04  0.12699999809E+01 0.  1.
       -4    1    3    3    0  502 -0.65417513293E+03 -0.72554273215E+03 -0.22446515025E+03  0.10023689826E+04  0.12699999809E+01 0. -1.
</event>
<event>
 5   0  0.1231056E-04  0.1994471E+04  0.7818609E-02  0.8609210E-01
        1   -1    0    0  501    0  0.00000000000E+00  0.00000000000E+00  0.10106144016E+04  0.10106144016E+04  0.50400001928E-02 0.  1.
       -1   -1    0    0    0  501  0.00000000000E+00  0.00000000000E+00 -0.98403344148E+03  0.98403344150E+03  0.50400001928E-02 0. -1.
    10030    2    1    2    0    0  0.00000000000E+00  0.00000000000E+00  0.26580960072E+02  0.19946478431E+04  0.19944707244E+04 0.  0.
        3    1    3    3  502    0  0.79006606407E+03 -0.53298263640E+03  0.30692084694E+03  0.10012368815E+04  0.10100000352E+00 0.  1.
       -3    1    3    3    0  502 -0.79006606407E+03  0.53298263640E+03 -0.28033988686E+03  0.99341096162E+03  0.10100000352E+00 0. -1.
</event>
<event>
 5   0  0.2540506E-04  0.2032061E+04  0.7818609E-02  0.8591776E-01
        2   -1    0    0  501    0  0.00000000000E+00  0.00000000000E+00  0.80661510504E+03  0.80661510504E+03  0.25500000920E-02 0. -1.
       -2   -1    0    0    0  501  0.00000000000E+00  0.00000000000E+00 -0.12798147201E+04  0.12798147201E+04  0.25500000920E-02 0.  1.
    10030    2    1    2    0    0  0.00000000000E+00  0.00000000000E+00 -0.47319961503E+03  0.20864298251E+04  0.20320609094E+04 0.  0.
        4    1    3    3  502    0  0.11117775352E+03  0.65999351640E+03 -0.10214900187E+04  0.12212270083E+04  0.12699999809E+01 0.  1.
       -4    1    3    3    0  502 -0.11117775352E+03 -0.65999351640E+03  0.54829040368E+03  0.86520281682E+03  0.12699999809E+01 0. -1.
</event>
<event>
 5   0  0.1231056E-04  0.1936969E+04  0.7818609E-02  0.8636670E-01
       -1   -1    0    0    0  501  0.00000000000E+00  0.00000000000E+00  0.47694543563E+03  0.47694543566E+03  0.50400001928E-02 0. -1.
        1   -1    0    0  501    0  0.00000000000E+00  0.00000000000E+00 -0.19666025273E+04  0.19666025273E+04  0.50400001928E-02 0.  1.
    10030    2    1    2    0    0  0.00000000000E+00  0.00000000000E+00 -0.14896570916E+04  0.24435479629E+04  0.19369688682E+04 0.  0.
        3    1    3    3  502    0 -0.22937322893E+03 -0.21482830251E+03 -0.19004900778E+04  0.19262984773E+04  0.10100000352E+00 0.  1.
       -3    1    3    3    0  502  0.22937322893E+03  0.21482830251E+03  0.41083298613E+03  0.51724948565E+03  0.10100000352E+00 0. -1.
</event>
<event>
 5   0  0.1207228E-04  0.1958730E+04  0.7818609E-02  0.8626163E-01
        1   -1    0    0  501    0  0.00000000000E+00  0.00000000000E+00  0.11881068591E+04  0.11881068591E+04  0.50400001928E-02 0.  1.
       -1   -1    0    0    0  501  0.00000000000E+00  0.00000000000E+00 -0.80729759103E+03  0.80729759105E+03  0.50400001928E-02 0. -1.
    10030    2    1    2    0    0  0.00000000000E+00  0.00000000000E+00  0.38080926807E+03  0.19954044502E+04  0.19587300021E+04 0.  0.
        1    1    3    3  502    0 -0.73069221002E+02 -0.46928196200E+03 -0.68213145320E+03  0.83118469090E+03  0.50400001928E-02 0. -1.
       -1    1    3    3    0  502  0.73069221002E+02  0.46928196200E+03  0.10629407213E+04  0.11642197593E+04  0.50400001928E-02 0.  1.
</event>
<event>
 5   0  0.2540506E-04  0.2015952E+04  0.7818609E-02  0.8599199E-01
        2   -1    0    0  501    0  0.00000000000E+00  0.00000000000E+00  0.14498062140E+04  0.14498062140E+04  0.25500000920E-02 0.  1.
       -2   -1    0    0    0  501  0.00000000000E+00  0.00000000000E+00 -0.70079411745E+03  0.70079411745E+03  0.25500000920E-02 0. -1.
    10030    2    1    2    0    0  0.00000000000E+00  0.00000000000E+00  0.74901209653E+03  0.21506003314E+04  0.20159520492E+04 0.  0.
        4    1    3    3  502    0 -0.86676944562E+03 -0.43930198159E+03  0.66023602703E+03  0.11748143373E+04  0.12699999809E+01 0.  1.
       -4    1    3    3    0  502  0.86676944562E+03  0.43930198159E+03  0.88776069505E+02  0.97578599411E+03  0.12699999809E+01 0. -1.
</event>
<event>
 5   0  0.2421737E-04  0.1928156E+04  0.7818609E-02  0.8640967E-01
       -2   -1    0    0    0  501  0.00000000000E+00  0.00000000000E+00  0.79822031343E+03  0.79822031343E+03  0.25500000920E-02 0.  1.
        2   -1    0    0  501    0  0.00000000000E+00  0.00000000000E+00 -0.11643978869E+04  0.11643978869E+04  0.25500000920E-02 0. -1.
    10030    2    1    2    0    0  0.00000000000E+00  0.00000000000E+00 -0.36617757351E+03  0.19626182004E+04  0.19281556434E+04 0.  0.
        1    1    3    3  502    0  0.17539276900E+03 -0.82659385285E+03 -0.65552460683E+03  0.10694543147E+04  0.50400001928E-02 0. -1.
       -1    1    3    3    0  502 -0.17539276900E+03  0.82659385285E+03  0.28934703333E+03  0.89316388569E+03  0.50400001928E-02 0.  1.
</event>
<event>
 5   0  0.2463085E-04  0.2039013E+04  0.7818609E-02  0.8588595E-01
        2   -1    0    0  501    0  0.00000000000E+00  0.00000000000E+00  0.15581636019E+04  0.15581636019E+04  0.25500000920E-02 0.  1.
       -2   -1    0    0    0  501  0.00000000000E+00  0.00000000000E+00 -0.66706321120E+03  0.66706321121E+03  0.25500000920E-02 0. -1.
    10030    2    1    2    0    0  0.00000000000E+00  0.00000000000E+00  0.89110039071E+03  0.22252268131E+04  0.20390131102E+04 0.  0.
        2    1    3    3  502    0  0.49907713627E+03  0.58247067285E+03 -0.28738149714E+03  0.81910817209E+03  0.25500000920E-02 0. -1.
       -2    1    3    3    0  502 -0.49907713627E+03 -0.58247067285E+03  0.11784818878E+04  0.14061186410E+04  0.25500000920E-02 0.  1.
</event>
<event>
 5   0  0.2540506E-04  0.1641276E+04  0.7818609E-02  0.8795584E-01
        2   -1    0    0  501    0  0.00000000000E+00  0.00000000000E+00  0.16354294662E+04  0.16354294662E+04  0.25500000920E-02 0.  1.
       -2   -1    0    0    0  501  0.00000000000E+00  0.00000000000E+00 -0.41178576119E+03  0.41178576120E+03  0.25500000920E-02 0. -1.
    10030    2    1    2    0    0  0.00000000000E+00  0.00000000000E+00  0.12236437050E+04  0.20472152274E+04  0.16412758057E+04 0.  0.
        4    1    3    3  502    0  0.75594861672E+02 -0.76504647235E+03  0.25369587453E+03  0.80955166457E+03  0.12699999809E+01 0. -1.
       -4    1    3    3    0  502 -0.75594861672E+02  0.76504647235E+03  0.96994783044E+03  0.12376635628E+04  0.12699999809E+01 0.  1.
</event>
<event>
 5   0  0.1207228E-04  0.1652812E+04  0.7818609E-02  0.8788744E-01
       -1   -1    0    0    0  501  0.00000000000E+00  0.00000000000E+00  0.43439042343E+03  0.43439042346E+03  0.50400001928E-02 0. -1.
        1   -1    0    0  501    0  0.00000000000E+00  0.00000000000E+00 -0.15721968405E+04  0.15721968405E+04  0.50400001928E-02 0.  1.
    10030    2    1    2    0    0  0.00000000000E+00  0.00000000000E+00 -0.11378064171E+04  0.20065872640E+04  0.16528124531E+04 0.  0.
        1    1    3    3  502    0  0.19419482831E+03  0.57172121451E+03  0.11611302924E+03  0.61486503726E+03  0.50400001928E-02 0. -1.
       -1    1    3    3    0  502 -0.19419482831E+03 -0.57172121451E+03 -0.12539194463E+04  0.13917222267E+04  0.50400001928E-02 0.  1.
</event>
<event>
 5   0  0.1231056E-04  0.1918325E+04  0.7818609E-02  0.8645788E-01
       -1   -1    0    0    0  501  0.00000000000E+00  0.00000000000E+00  0.71349686822E+03  0.71349686823E+03  0.50400001928E-02 0. -1.
        1   -1    0    0  501    0  0.00000000000E+00  0.00000000000E+00 -0.12894136763E+04  0.12894136763E+04  0.50400001928E-02 0.  1.
    10030    2    1    2    0    0  0.00000000000E+00  0.00000000000E+00 -0.57591680804E+03  0.20029105445E+04  0.19183249150E+04 0.  0.
        3    1    3    3  502    0 -0.81540901161E+03 -0.34035355790E+02 -0.81410522533E+03  0.11527435056E+04  0.10100000352E+00 0.  1.
       -3    1    3    3    0  502  0.81540901161E+03  0.34035355790E+02  0.23818841729E+03  0.85016703887E+03  0.10100000352E+00 0. -1.
</event>
<event>
 5   0  0.2463085E-04  0.2032370E+04  0.7818609E-02  0.8591634E-01
       -2   -1    0    0    0  501  0.00000000000E+00  0.00000000000E+00  0.79623699455E+03  0.79623699455E+03  0.25500000920E-02 0. -1.
        2   -1    0    0  501    0  0.00000000000E+00  0.00000000000E+00 -0.12968903561E+04  0.12968903561E+04  0.25500000920E-02 0.  1.
    10030    2    1    2    0    0  0.00000000000E+00  0.00000000000E+00 -0.50065336159E+03  0.20931273507E+04  0.20323701232E+04 0.  0.
        2    1    3    3  502    0  0.45624370819E+03 -0.38953109462E+03  0.59440006517E+03  0.84451419907E+03  0.25500000920E-02 0. -1.
       -2    1    3    3    0  502 -0.45624370819E+03  0.38953109462E+03 -0.10950534268E+04  0.12486131516E+04  0.25500000920E-02 0.  1.
</event>
<event>
 5   0  0.1210633E-04  0.1985066E+04  0.7818609E-02  0.8613635E-01
       -1   -1    0    0    0  501  0.00000000000E+00  0.00000000000E+00  0.11328580492E+04  0.11328580492E+04  0.50400001928E-02 0.  1.
        1   -1    0    0  501    0  0.00000000000E+00  0.00000000000E+00 -0.86959016000E+03  0.86959016001E+03  0.50400001928E-02 0. -1.
    10030    2    1    2    0    0  0.00000000000E+00  0.00000000000E+00  0.26326788923E+03  0.20024482093E+04  0.19850664597E+04 0.  0.
        2    1    3    3  502    0  0.66653352026E+03  0.67872167001E+03  0.41729578698E+03  0.10387809263E+04  0.25500000920E-02 0. -1.
       -2    1    3    3    0  502 -0.66653352026E+03 -0.67872167001E+03 -0.15402789775E+03  0.96366728297E+03  0.25500000920E-02 0.  1.
</event>
<event>
 5   0  0.1258546E-04  0.2205951E+04  0.7818609E-02  0.8515955E-01
        1   -1    0    0  501    0  0.00000000000E+00  0.00000000000E+00  0.83186340001E+03  0.83186340002E+03  0.50400001928E-02 0. -1.
       -1   -1    0    0    0  501  0.00000000000E+00  0.00000000000E+00 -0.14624455094E+04  0.14624455094E+04  0.50400001928E-02 0.  1.
    10030    2    1    2    0    0  0.00000000000E+00  0.00000000000E+00 -0.63058210935E+03  0.22943089094E+04  0.22059509458E+04 0.  0.
        4    1    3    3  502    0  0.19561034854E+03  0.49939263065E+03  0.68710602170E+03  0.87164941689E+03  0.12699999809E+01 0. -1.
       -4    1    3    3    0  502 -0.19561034854E+03 -0.49939263065E+03 -0.13176881310E+04  0.14226594925E+04  0.12699999809E+01 0.  1.
</event>
<event>
 5   0  0.1258546E-04  0.1967427E+04  0.7818609E-02  0.8622003E-01
        1   -1    0    0  501    0  0.00000000000E+00  0.00000000000E+00  0.17330850836E+04  0.17330850836E+04  0.50400001928E-02 0.  1.
       -1   -1    0    0    0  501  0.00000000000E+00  0.00000000000E+00 -0.55836414247E+03  0.55836414249E+03  0.50400001928E-02 0. -1.
    10030    2    1    2    0    0  0.00000000000E+00  0.00000000000E+00  0.11747209411E+04  0.22914492261E+04  0.19674273217E+04 0.  0.
        4    1    3    3  502    0  0.40286690399E+03 -0.23149393562E+03  0.15972238749E+04  0.16634352720E+04  0.12699999809E+01 0.  1.
       -4    1    3    3    0  502 -0.40286690399E+03  0.23149393562E+03 -0.42250293381E+03  0.62801395409E+03  0.12699999809E+01 0. -1.
</event>
<event>
 5   0  0.2463085E-04  0.1952644E+04  0.7818609E-02  0.8629087E-01
       -2   -1    0    0    0  501  0.00000000000E+00  0.00000000000E+00  0.95756251389E+03  0.95756251389E+03  0.25500000920E-02 0. -1.
        2   -1    0    0  501    0  0.00000000000E+00  0.00000000000E+00 -0.99544910946E+03  0.99544910947E+03  0.25500000920E-02 0.  1.
    10030    2    1    2    0    0  0.00000000000E+00  0.00000000000E+00 -0.37886595576E+02  0.19530116234E+04  0.19526441065E+04 0.  0.
        2    1    3    3  502    0  0.79832832424E+03  0.53217821330E+03 -0.19970635870E+03  0.98001244569E+03  0.25500000920E-02 0.  1.
       -2    1    3    3    0  502 -0.79832832424E+03 -0.53217821330E+03  0.16181976312E+03  0.97299917767E+03  0.25500000920E-02 0. -1.
</event>
<event>
 5   0  0.1207228E-04  0.1989164E+04  0.7818609E-02  0.8611704E-01
        1   -1    0    0  501    0  0.00000000000E+00  0.00000000000E+00  0.13069224859E+04  0.13069224859E+04  0.50400001928E-02 0. -1.
       -1   -1    0    0    0  501  0.00000000000E+00  0.00000000000E+00 -0.75688775392E+03  0.75688775394E+03  0.50400001928E-02 0.  1.
    10030    2    1    2    0    0  0.00000000000E+00  0.00000000000E+00  0.55003473197E+03  0.20638102398E+04  0.19891642717E+04 0.  0.
        1    1    3    3  502    0  0.43737699958E+03 -0.63494474496E+03 -0.37684328657E+03  0.85817500056E+03  0.50400001928E-02 0.  1.
       -1    1    3    3    0  502 -0.43737699958E+03  0.63494474496E+03  0.92687801855E+03  0.12056352393E+04  0.50400001928E-02 0. -1.
</event>
<event>
 5   0  0.2463085E-04  0.2064117E+04  0.7818609E-02  0.8577217E-01
        2   -1    0    0  501    0  0.00000000000E+00  0.00000000000E+00  0.16662330783E+04  0.16662330783E+04  0.25500000920E-02 0.  1.
       -2   -1    0    0    0  501  0.00000000000E+00  0.00000000000E+00 -0.63925344042E+03  0.63925344042E+03  0.25500000920E-02 0. -1.
    10030    2    1    2    0    0  0.00000000000E+00  0.00000000000E+00  0.10269796379E+04  0.23054865187E+04  0.20641174655E+04 0.  0.
        2    1    3    3  502    0 -0.67122927548E+03  0.64069409272E+03  0.88776360970E+01  0.92796361628E+03  0.25500000920E-02 0. -1.
       -2    1    3    3    0  502  0.67122927548E+03 -0.64069409272E+03  0.10181020018E+04  0.13775229025E+04  0.25500000920E-02 0.  1.
</event>
<event>
 5   0  0.2463085E-04  0.2113654E+04  0.7818609E-02  0.8555253E-01
        2   -1    0    0  501    0  0.00000000000E+00  0.00000000000E+00  0.12981451654E+04  0.12981451654E+04  0.25500000920E-02 0. -1.
       -2   -1    0    0    0  501  0.00000000000E+00  0.00000000000E+00 -0.86036827182E+03  0.86036827182E+03  0.25500000920E-02 0.  1.
    10030    2    1    2    0    0  0.00000000000E+00  0.00000000000E+00  0.43777689360E+03  0.21585134372E+04  0.21136536259E+04 0.  0.
        2    1    3    3  502    0 -0.27423062100E+03  0.10200268079E+04  0.18313408600E+03  0.10720052312E+04  0.25500000920E-02 0. -1.
       -2    1    3    3    0  502  0.27423062100E+03 -0.10200268079E+04  0.25464280760E+03  0.10865082060E+04  0.25500000920E-02 0.  1.
</event>
<event>
 5   0  0.2463085E-04  0.1928272E+04  0.7818609E-02  0.8640910E-01
        2   -1    0    0  501    0  0.00000000000E+00  0.00000000000E+00  0.86755449472E+03  0.86755449472E+03  0.25500000920E-02 0.  1.
       -2   -1    0    0    0  501  0.00000000000E+00  0.00000000000E+00 -0.10714696255E+04  0.10714696255E+04  0.25500000920E-02 0. -1.
    10030    2    1    2    0    0  0.00000000000E+00  0.00000000000E+00 -0.20391513082E+03  0.19390241203E+04  0.19282720654E+04 0.  0.
        2    1    3    3  502    0  0.75312667802E+03  0.32075900766E+03  0.41026685710E+03  0.91564459710E+03  0.25500000920E-02 0.  1.
       -2    1    3    3    0  502 -0.75312667802E+03 -0.32075900766E+03 -0.61418198792E+03  0.10233795232E+04  0.25500000920E-02 0. -1.
</event>
<event>
 5   0  0.2421737E-04  0.2032644E+04  0.7818609E-02  0.8591509E-01
       -2   -1    0    0    0  501  0.00000000000E+00  0.00000000000E+00  0.10363319434E+04  0.10363319434E+04  0.25500000920E-02 0.  1.
        2   -1    0    0  501    0  0.00000000000E+00  0.00000000000E+00 -0.99669842592E+03  0.99669842592E+03  0.25500000920E-02 0. -1.
    10030    2    1    2    0    0  0.00000000000E+00  0.00000000000E+00  0.39633517514E+02  0.20330303694E+04  0.20326440089E+04 0.  0.
        1    1    3    3  502    0  0.92386709964E+03 -0.29142304373E+03 -0.28757308917E+03  0.10105226815E+04  0.50400001928E-02 0.  1.
       -1    1    3    3    0  502 -0.92386709964E+03  0.29142304373E+03  0.32720660668E+03  0.10225076878E+04  0.50400001928E-02 0. -1.
</event>
<event>
 5   0  0.1210633E-04  0.1276756E+04  0.7818609E-02  0.9048204E-01
       -1   -1    0    0    0  501  0.00000000000E+00  0.00000000000E+00  0.33822435066E+03  0.33822435070E+03  0.50400001928E-02 0.  1.
        1   -1    0    0  501    0  0.00000000000E+00  0.00000000000E+00 -0.12048994808E+04  0.12048994808E+04  0.50400001928E-02 0. -1.
    10030    2    1    2    0    0  0.00000000000E+00  0.00000000000E+00 -0.86667513010E+03  0.15431238315E+04  0.12767558021E+04 0.  0.
        2    1    3    3  502    0  0.18870266751E+03  0.26032540923E+03  0.23321692112E+03  0.39720038736E+03  0.25500000920E-02 0.  1.
       -2    1    3    3    0  502 -0.18870266751E+03 -0.26032540923E+03 -0.10998920512E+04  0.11459234441E+04  0.25500000920E-02 0. -1.
</event>
<event>
 5   0  0.2540506E-04  0.1959875E+04  0.7818609E-02  0.8625614E-01
        2   -1    0    0  501    0  0.00000000000E+00  0.00000000000E+00  0.13274635394E+04  0.13274635394E+04  0.25500000920E-02 0.  1.
       -2   -1    0    0    0  501  0.00000000000E+00  0.00000000000E+00 -0.72339270710E+03  0.72339270711E+03  0.25500000920E-02 0. -1.
    10030    2    1    2    0    0  0.00000000000E+00  0.00000000000E+00  0.60407083232E+03  0.20508562465E+04  0.19598749382E+04 0.  0.
        4    1    3    3  502    0 -0.94019557057E+03 -0.27608566419E+03  0.31167304680E+03  0.10282668457E+04  0.12699999809E+01 0. -1.
       -4    1    3    3    0  502  0.94019557057E+03  0.27608566419E+03  0.29239778552E+03  0.10225894009E+04  0.12699999809E+01 0.  1.
</event>
<event>
 5   0  0.2596061E-04  0.2179444E+04  0.7818609E-02  0.8527033E-01
       -2   -1    0    0    0  501  0.00000000000E+00  0.00000000000E+00  0.14247805973E+04  0.14247805974E+04  0.25500000920E-02 0.  1.
        2   -1    0    0  501    0  0.00000000000E+00  0.00000000000E+00 -0.83345735158E+03  0.83345735159E+03  0.25500000920E-02 0. -1.
    10030    2    1    2    0    0  0.00000000000E+00  0.00000000000E+00  0.59132324577E+03  0.22582379489E+04  0.21794438403E+04 0.  0.
        5    1    3    3  502    0  0.83014498071E+03  0.39805616172E+03  0.89973311654E+03  0.12872960685E+04  0.46999998093E+01 0.  1.
       -5    1    3    3    0  502 -0.83014498071E+03 -0.39805616172E+03 -0.30840987078E+03  0.97094188048E+03  0.46999998093E+01 0. -1.
</event>
<event>
 5   0  0.1231056E-04  0.2184326E+04  0.7818609E-02  0.8524980E-01
        1   -1    0    0  501    0  0.00000000000E+00  0.00000000000E+00  0.13747083715E+04  0.13747083715E+04  0.50400001928E-02 0.  1.
       -1   -1    0    0    0  501  0.00000000000E+00  0.00000000000E+00 -0.86768954790E+03  0.86768954791E+03  0.50400001928E-02 0. -1.
    10030    2    1    2    0    0  0.00000000000E+00  0.00000000000E+00  0.50701882364E+03  0.22423979195E+04  0.21843260612E+04 0.  0.
        3    1    3    3  502    0  0.45495293547E+01 -0.10627972444E+04  0.51171437994E+03  0.11795805601E+04  0.10100000352E+00 0.  1.
       -3    1    3    3    0  502 -0.45495293547E+01  0.10627972444E+04 -0.46955563021E+01  0.10628173594E+04  0.10100000352E+00 0. -1.
</event>
<event>
 5   0  0.2596061E-04  0.2008204E+04  0.7818609E-02  0.8602795E-01
       -2   -1    0    0    0  501  0.00000000000E+00  0.00000000000E+00  0.48214832427E+03  0.48214832427E+03  0.25500000920E-02 0.  1.
        2   -1    0    0  501    0  0.00000000000E+00  0.00000000000E+00 -0.20911013751E+04  0.20911013751E+04  0.25500000920E-02 0. -1.
    10030    2    1    2    0    0  0.00000000000E+00  0.00000000000E+00 -0.16089530508E+04  0.25732496994E+04  0.20082041967E+04 0.  0.
        5    1    3    3  502    0  0.22680918304E+03  0.37952417344E+03 -0.19596414168E+04  0.20089045712E+04  0.46999998093E+01 0. -1.
       -5    1    3    3    0  502 -0.22680918304E+03 -0.37952417344E+03  0.35068836593E+03  0.56434512821E+03  0.46999998093E+01 0.  1.
</event>
<event>
 5   0  0.1324930E-04  0.1979852E+04  0.7818609E-02  0.8616099E-01
       -1   -1    0    0    0  501  0.00000000000E+00  0.00000000000E+00  0.55164510314E+03  0.55164510316E+03  0.50400001928E-02 0.  1.
        1   -1    0    0  501    0  0.00000000000E+00  0.00000000000E+00 -0.17764192805E+04  0.17764192805E+04  0.50400001928E-02 0. -1.
    10030    2    1    2    0    0  0.00000000000E+00  0.00000000000E+00 -0.12247741774E+04  0.23280643837E+04  0.19798515068E+04 0.  0.
        5    1    3    3  502    0  0.82224475692E+03  0.48664863847E+03 -0.91679553989E+03  0.13241787982E+04  0.46999998093E+01 0.  1.
       -5    1    3    3    0  502 -0.82224475692E+03 -0.48664863847E+03 -0.30797863748E+03  0.10038855855E+04  0.46999998093E+01 0. -1.
</event>
<event>
 5   0  0.2488886E-04  0.1918228E+04  0.7818609E-02  0.8645836E-01
        2   -1    0    0  501    0  0.00000000000E+00  0.00000000000E+00  0.11979515399E+04  0.11979515399E+04  0.25500000920E-02 0. -1.
       -2   -1    0    0    0  501  0.00000000000E+00  0.00000000000E+00 -0.76789349912E+03  0.76789349913E+03  0.25500000920E-02 0.  1.
    10030    2    1    2    0    0  0.00000000000E+00  0.00000000000E+00  0.43005804078E+03  0.19658450390E+04  0.19182275149E+04 0.  0.
        3    1    3    3  502    0 -0.93415444871E+03 -0.21067964928E+03  0.26991922210E+03  0.99493057312E+03  0.10100000352E+00 0. -1.
       -3    1    3    3    0  502  0.93415444871E+03  0.21067964928E+03  0.16013881868E+03  0.97091446591E+03  0.10100000352E+00 0.  1.
</event>
<event>
 5   0  0.2463085E-04  0.1980270E+04  0.7818609E-02  0.8615901E-01
        2   -1    0    0  501    0  0.00000000000E+00  0.00000000000E+00  0.13636045915E+04  0.13636045915E+04  0.25500000920E-02 0. -1.
       -2   -1    0    0    0  501  0.00000000000E+00  0.00000000000E+00 -0.71895256271E+03  0.71895256272E+03  0.25500000920E-02 0.  1.
    10030    2    1    2    0    0  0.00000000000E+00  0.00000000000E+00  0.64465202876E+03  0.20825571542E+04  0.19802696943E+04 0.  0.
        2    1    3    3  502    0  0.89164634716E+03  0.25854965340E+03 -0.39671754896E+02  0.92922278266E+03  0.25500000920E-02 0. -1.
       -2    1    3    3    0  502 -0.89164634716E+03 -0.25854965340E+03  0.68432378366E+03  0.11533343715E+04  0.25500000920E-02 0.  1.
</event>
<event>
 5   0  0.1207228E-04  0.2003097E+04  0.7818609E-02  0.8605174E-01
        1   -1    0    0  501    0  0.00000000000E+00  0.00000000000E+00  0.11566049161E+04  0.11566049161E+04  0.50400001928E-02 0. -1.
       -1   -1    0    0    0  501  0.00000000000E+00  0.00000000000E+00 -0.86727957577E+03  0.86727957579E+03  0.50400001928E-02 0.  1.
    10030    2    1    2    0    0  0.00000000000E+00  0.00000000000E+00  0.28932534033E+03  0.20238844919E+04  0.20030974225E+04 0.  0.
        1    1    3    3  502    0  0.31682959233E+02  0.82012814544E+03  0.72462799084E+03  0.10948514557E+04  0.50400001928E-02 0.  1.
       -1    1    3    3    0  502 -0.31682959233E+02 -0.82012814544E+03 -0.43530265051E+03  0.92903303623E+03  0.50400001928E-02 0. -1.
</event>
<event>
 5   0  0.1231056E-04  0.1968926E+04  0.7818609E-02  0.8621288E-01
       -1   -1    0    0    0  501  0.00000000000E+00  0.00000000000E+00  0.77058119552E+03  0.77058119554E+03  0.50400001928E-02 0.  1.
        1   -1    0    0  501    0  0.00000000000E+00  0.00000000000E+00 -0.12577092644E+04  0.12577092644E+04  0.50400001928E-02 0. -1.
    10030    2    1    2    0    0  0.00000000000E+00  0.00000000000E+00 -0.48712806883E+03  0.20282904599E+04  0.19689257056E+04 0.  0.
        3    1    3    3  502    0 -0.79889249753E+03  0.47859175864E+03 -0.57238683249E+03  0.10931175556E+04  0.10100000352E+00 0. -1.
       -3    1    3    3    0  502  0.79889249753E+03 -0.47859175864E+03  0.85258763662E+02  0.93517290435E+03  0.10100000352E+00 0.  1.
</event>
<event>
 5   0  0.2540506E-04  0.1974987E+04  0.7818609E-02  0.8618405E-01
        2   -1    0    0  501    0  0.00000000000E+00  0.00000000000E+00  0.15160110015E+04  0.15160110015E+04  0.25500000920E-02 0.  1.
       -2   -1    0    0    0  501  0.00000000000E+00  0.00000000000E+00 -0.64322954459E+03  0.64322954459E+03  0.25500000920E-02 0. -1.
    10030    2    1    2    0    0  0.00000000000E+00  0.00000000000E+00  0.87278145691E+03  0.21592405461E+04  0.19749866492E+04 0.  0.
        4    1    3    3  502    0 -0.63280942420E+01  0.89559445655E+03 -0.18361617379E+02  0.89580591496E+03  0.12699999809E+01 0. -1.
       -4    1    3    3    0  502  0.63280942420E+01 -0.89559445655E+03  0.89114307429E+03  0.12634346311E+04  0.12699999809E+01 0.  1.
</event>
<event>
 5   0  0.2540506E-04  0.2053216E+04  0.7818609E-02  0.8582137E-01
       -2   -1    0    0    0  501  0.00000000000E+00  0.00000000000E+00  0.10411215698E+04  0.10411215699E+04  0.25500000920E-02 0. -1.
        2   -1    0    0  501    0  0.00000000000E+00  0.00000000000E+00 -0.10122966858E+04  0.10122966858E+04  0.25500000920E-02 0.  1.
    10030    2    1    2    0    0  0.00000000000E+00  0.00000000000E+00  0.28824884057E+02  0.20534182556E+04  0.20532159308E+04 0.  0.
        4    1    3    3  502    0 -0.66852287784E+03  0.72867580806E+03  0.29017686199E+03  0.10305801743E+04  0.12699999809E+01 0. -1.
       -4    1    3    3    0  502  0.66852287784E+03 -0.72867580806E+03 -0.26135197793E+03  0.10228380814E+04  0.12699999809E+01 0.  1.
</event>
<event>
 5   0  0.2421737E-04  0.1612549E+04  0.7818609E-02  0.8812875E-01
        2   -1    0    0  501    0  0.00000000000E+00  0.00000000000E+00  0.17576470590E+04  0.17576470590E+04  0.25500000920E-02 0. -1.
       -2   -1    0    0    0  501  0.00000000000E+00  0.00000000000E+00 -0.36985745795E+03  0.36985745796E+03  0.25500000920E-02 0.  1.
    10030    2    1    2    0    0  0.00000000000E+00  0.00000000000E+00  0.13877896010E+04  0.21275045169E+04  0.16125493769E+04 0.  0.
        1    1    3    3  502    0  0.14794633180E+03 -0.55978056794E+03  0.14341815697E+04  0.15466477221E+04  0.50400001928E-02 0. -1.
       -1    1    3    3    0  502 -0.14794633180E+03  0.55978056794E+03 -0.46391968681E+02  0.58085679484E+03  0.50400001928E-02 0.  1.
</event>
<event>
 5   0  0.2596061E-04  0.2013945E+04  0.7818609E-02  0.8600129E-01
       -2   -1    0    0    0  501  0.00000000000E+00  0.00000000000E+00  0.12628559760E+04  0.12628559760E+04  0.25500000920E-02 0. -1.
        2   -1    0    0  501    0  0.00000000000E+00  0.00000000000E+00 -0.80293647753E+03  0.80293647753E+03  0.25500000920E-02 0.  1.
    10030    2    1    2    0    0  0.00000000000E+00  0.00000000000E+00  0.45991949842E+03  0.20657924535E+04  0.20139445166E+04 0.  0.
        5    1    3    3  502    0 -0.12791033907E+03 -0.88720049054E+03  0.70055771233E+03  0.11376682133E+04  0.46999998093E+01 0. -1.
       -5    1    3    3    0  502  0.12791033907E+03  0.88720049054E+03 -0.24063821390E+03  0.92812424019E+03  0.46999998093E+01 0.  1.
</event>
<event>
 5   0  0.1231056E-04  0.2080634E+04  0.7818609E-02  0.8569823E-01
       -1   -1    0    0    0  501  0.00000000000E+00  0.00000000000E+00  0.71413775352E+03  0.71413775353E+03  0.50400001928E-02 0.  1.
        1   -1    0    0  501    0  0.00000000000E+00  0.00000000000E+00 -0.15154765187E+04  0.15154765188E+04  0.50400001928E-02 0. -1.
    10030    2    1    2    0    0  0.00000000000E+00  0.00000000000E+00 -0.80133876523E+03  0.22296142723E+04  0.20806335541E+04 0.  0.
        3    1    3    3  502    0  0.85815128906E+03  0.12824689063E+03  0.21434897816E+03  0.89376529050E+03  0.10100000352E+00 0.  1.
       -3    1    3    3    0  502 -0.85815128906E+03 -0.12824689063E+03 -0.10156877434E+04  0.13358489818E+04  0.10100000352E+00 0. -1.
</event>
<event>
 5   0  0.1207228E-04  0.2010767E+04  0.7818609E-02  0.8601603E-01
        1   -1    0    0  501    0  0.00000000000E+00  0.00000000000E+00  0.10392564733E+04  0.10392564733E+04  0.50400001928E-02 0. -1.
       -1   -1    0    0    0  501  0.00000000000E+00  0.00000000000E+00 -0.97261464010E+03  0.97261464011E+03  0.50400001928E-02 0.  1.
    10030    2    1    2    0    0  0.00000000000E+00  0.00000000000E+00  0.66641833202E+02  0.20118711134E+04  0.20107670783E+04 0.  0.
        1    1    3    3  502    0 -0.43322928256E+03 -0.20842913754E+03 -0.85015072885E+03  0.97667117211E+03  0.50400001928E-02 0.  1.
       -1    1    3    3    0  502  0.43322928256E+03  0.20842913754E+03  0.91679256205E+03  0.10351999413E+04  0.50400001928E-02 0. -1.
</event>
<event>
 5   0  0.2463085E-04  0.2004675E+04  0.7818609E-02  0.8604438E-01
       -2   -1    0    0    0  501  0.00000000000E+00  0.00000000000E+00  0.88269362711E+03  0.88269362711E+03  0.25500000920E-02 0. -1.
        2   -1    0    0  501    0  0.00000000000E+00  0.00000000000E+00 -0.11381978256E+04  0.11381978256E+04  0.25500000920E-02 0.  1.
    10030    2    1    2    0    0  0.00000000000E+00  0.00000000000E+00 -0.25550419844E+03  0.20208914527E+04  0.20046745043E+04 0.  0.
        2    1    3    3  502    0 -0.60029298886E+03  0.13681191490E+03 -0.92510620865E+03  0.11112563475E+04  0.25500000920E-02 0.  1.
       -2    1    3    3    0  502  0.60029298886E+03 -0.13681191490E+03  0.66960201020E+03  0.90963510519E+03  0.25500000920E-02 0. -1.
</event>
<event>
 5   0  0.1324930E-04  0.1962778E+04  0.7818609E-02  0.8624224E-01
       -1   -1    0    0    0  501  0.00000000000E+00  0.00000000000E+00  0.90107980264E+03  0.90107980265E+03  0.50400001928E-02 0.  1.
        1   -1    0    0  501    0  0.00000000000E+00  0.00000000000E+00 -0.10688553491E+04  0.10688553491E+04  0.50400001928E-02 0. -1.
    10030    2    1    2    0    0  0.00000000000E+00  0.00000000000E+00 -0.16777554649E+03  0.19699351518E+04  0.19627775901E+04 0.  0.
        5    1    3    3  502    0 -0.94469953236E+03 -0.23636987287E+03 -0.20587917108E+03  0.99535734605E+03  0.46999998093E+01 0.  1.
       -5    1    3    3    0  502  0.94469953236E+03  0.23636987287E+03  0.38103624585E+02  0.97457780575E+03  0.46999998093E+01 0. -1.
</event>
<event>
 5   0  0.1207228E-04  0.1983201E+04  0.7818609E-02  0.8614515E-01
        1   -1    0    0  501    0  0.00000000000E+00  0.00000000000E+00  0.22618251389E+04  0.22618251389E+04  0.50400001928E-02 0.  1.
       -1   -1    0    0    0  501  0.00000000000E+00  0.00000000000E+00 -0.43472497159E+03  0.43472497162E+03  0.50400001928E-02 0. -1.
    10030    2    1    2    0    0  0.00000000000E+00  0.00000000000E+00  0.18271001673E+04  0.26965501105E+04  0.19832013204E+04 0.  0.
        1    1    3    3  502    0 -0.18544461620E+03  0.75026542111E+03  0.17582964297E+04  0.19206494325E+04  0.50400001928E-02 0.  1.
       -1    1    3    3    0  502  0.18544461620E+03 -0.75026542111E+03  0.68803737555E+02  0.77590067800E+03  0.50400001928E-02 0. -1.
</event>
<event>
 5   0  0.1210633E-04  0.1969435E+04  0.7818609E-02  0.8621046E-01
        1   -1    0    0  501    0  0.00000000000E+00  0.00000000000E+00  0.19553733236E+04  0.19553733236E+04  0.50400001928E-02 0. -1.
       -1   -1    0    0    0  501  0.00000000000E+00  0.00000000000E+00 -0.49589953252E+03  0.49589953254E+03  0.50400001928E-02 0.  1.
    10030    2    1    2    0    0  0.00000000000E+00  0.00000000000E+00  0.14594737910E+04  0.24512728561E+04  0.19694351648E+04 0.  0.
        2    1    3    3  502    0  0.80923876783E+03  0.14171500388E+03  0.14054361500E+04  0.16279438864E+04  0.25500000920E-02 0. -1.
       -2    1    3    3    0  502 -0.80923876783E+03 -0.14171500388E+03  0.54037641083E+02  0.82332896970E+03  0.25500000920E-02 0.  1.
</event>
<event>
 5   0  0.2463085E-04  0.1930861E+04  0.7818609E-02  0.8639646E-01
        2   -1    0    0  501    0  0.00000000000E+00  0.00000000000E+00  0.19234117775E+04  0.19234117775E+04  0.25500000920E-02 0.  1.
       -2   -1    0    0    0  501  0.00000000000E+00  0.00000000000E+00 -0.48458478771E+03  0.48458478772E+03  0.25500000920E-02 0. -1.
    10030    2    1    2    0    0  0.00000000000E+00  0.00000000000E+00  0.14388269898E+04  0.24079965652E+04  0.19308610389E+04 0.  0.
        2    1    3    3  502    0 -0.33060620241E+03  0.12050520881E+03  0.18405885699E+04  0.18739232241E+04  0.25500000920E-02 0.  1.
       -2    1    3    3    0  502  0.33060620241E+03 -0.12050520881E+03 -0.40176158008E+03  0.53407334108E+03  0.25500000920E-02 0. -1.
</event>
<event>
 5   0  0.2488886E-04  0.1991307E+04  0.7818609E-02  0.8610696E-01
        2   -1    0    0  501    0  0.00000000000E+00  0.00000000000E+00  0.15567764386E+04  0.15567764386E+04  0.25500000920E-02 0. -1.
       -2   -1    0    0    0  501  0.00000000000E+00  0.00000000000E+00 -0.63678123547E+03  0.63678123548E+03  0.25500000920E-02 0.  1.
    10030    2    1    2    0    0  0.00000000000E+00  0.00000000000E+00  0.91999520309E+03  0.21935576740E+04  0.19913071324E+04 0.  0.
        3    1    3    3  502    0 -0.27700031726E+03 -0.58607065688E+03  0.12924774722E+04  0.14459273900E+04  0.10100000352E+00 0. -1.
       -3    1    3    3    0  502  0.27700031726E+03  0.58607065688E+03 -0.37248226915E+03  0.74763028407E+03  0.10100000352E+00 0.  1.
</event>
<event>
 5   0  0.1324930E-04  0.2077958E+04  0.7818609E-02  0.8571016E-01
        1   -1    0    0  501    0  0.00000000000E+00  0.00000000000E+00  0.14519121320E+04  0.14519121320E+04  0.50400001928E-02 0.  1.
       -1   -1    0    0    0  501  0.00000000000E+00  0.00000000000E+00 -0.74348682002E+03  0.74348682003E+03  0.50400001928E-02 0. -1.
    10030    2    1    2    0    0  0.00000000000E+00  0.00000000000E+00  0.70842531197E+03  0.21953989520E+04  0.20779581651E+04 0.  0.
        5    1    3    3  502    0  0.23162628555E+03 -0.42768668086E+03 -0.61576514959E+03  0.78470086185E+03  0.46999998093E+01 0. -1.
       -5    1    3    3    0  502 -0.23162628555E+03  0.42768668086E+03  0.13241904616E+04  0.14106980902E+04  0.46999998093E+01 0.  1.
</event>
<event>
 5   0  0.1207228E-04  0.2075220E+04  0.7818609E-02  0.8572238E-01
       -1   -1    0    0    0  501  0.00000000000E+00  0.00000000000E+00  0.66683934185E+03  0.66683934187E+03  0.50400001928E-02 0. -1.
        1   -1    0    0  501    0  0.00000000000E+00  0.00000000000E+00 -0.16145338682E+04  0.16145338682E+04  0.50400001928E-02 0.  1.
    10030    2    1    2    0    0  0.00000000000E+00  0.00000000000E+00 -0.94769452632E+03  0.22813732101E+04  0.20752201831E+04 0.  0.
        1    1    3    3  502    0  0.69083081900E+03  0.74965306252E+03 -0.68647163787E+03  0.12290118975E+04  0.50400001928E-02 0.  1.
       -1    1    3    3    0  502 -0.69083081900E+03 -0.74965306252E+03 -0.26122288846E+03  0.10523613125E+04  0.50400001928E-02 0. -1.
</event>
<event>
 5   0  0.1231056E-04  0.2047988E+04  0.7818609E-02  0.8584507E-01
        1   -1    0    0  501    0  0.00000000000E+00  0.00000000000E+00  0.17883646928E+04  0.17883646928E+04  0.50400001928E-02 0.  1.
       -1   -1    0    0    0  501  0.00000000000E+00  0.00000000000E+00 -0.58632562429E+03  0.58632562432E+03  0.50400001928E-02 0. -1.
    10030    2    1    2    0    0  0.00000000000E+00  0.00000000000E+00  0.12020390685E+04  0.23746903171E+04  0.20479883252E+04 0.  0.
        3    1    3    3  502    0 -0.48384462243E+03 -0.31399797900E+03  0.15820775054E+04  0.16839446525E+04  0.10100000352E+00 0.  1.
       -3    1    3    3    0  502  0.48384462243E+03  0.31399797900E+03 -0.38003843688E+03  0.69074566461E+03  0.10100000352E+00 0. -1.
</event>
<event>
 5   0  0.2596061E-04  0.2014883E+04  0.7818609E-02  0.8599694E-01
        2   -1    0    0  501    0  0.00000000000E+00  0.00000000000E+00  0.20217054878E+04  0.20217054878E+04  0.25500000920E-02 0.  1.
       -2   -1    0    0    0  501  0.00000000000E+00  0.00000000000E+00 -0.50202113292E+03  0.50202113293E+03  0.25500000920E-02 0. -1.
    10030    2    1    2    0    0  0.00000000000E+00  0.00000000000E+00  0.15196843549E+04  0.25237266208E+04  0.20148834998E+04 0.  0.
        5    1    3    3  502    0  0.94376899896E+03 -0.34741031475E+03  0.83418600999E+03  0.13066301081E+04  0.46999998093E+01 0.  1.
       -5    1    3    3    0  502 -0.94376899896E+03  0.34741031475E+03  0.68549834492E+03  0.12170965126E+04  0.46999998093E+01 0. -1.
</event>
<event>
 5   0  0.9099125E-05  0.2059254E+04  0.7818609E-02  0.8579408E-01
       -3   -1    0    0    0  501  0.00000000000E+00  0.00000000000E+00  0.59562502161E+03  0.59562503018E+03  0.10100000352E+00 0.  1.
        3   -1    0    0  501    0  0.00000000000E+00  0.00000000000E+00 -0.17798643460E+04  0.17798643489E+04  0.10100000352E+00 0. -1.
    10030    2    1    2    0    0  0.00000000000E+00  0.00000000000E+00 -0.11842393244E+04  0.23754893791E+04  0.20592539942E+04 0.  0.
        3    1    3    3  502    0  0.36444982030E+03  0.57720457283E+03 -0.14812975437E+04  0.16310215246E+04  0.10100000352E+00 0. -1.
       -3    1    3    3    0  502 -0.36444982030E+03 -0.57720457283E+03  0.29705821935E+03  0.74446785445E+03  0.10100000352E+00 0.  1.
</event>
<event>
 5   0  0.2463085E-04  0.2003285E+04  0.7818609E-02  0.8605086E-01
       -2   -1    0    0    0  501  0.00000000000E+00  0.00000000000E+00  0.11298212023E+04  0.11298212023E+04  0.25500000920E-02 0. -1.
        2   -1    0    0  501    0  0.00000000000E+00  0.00000000000E+00 -0.88800573617E+03  0.88800573617E+03  0.25500000920E-02 0.  1.
    10030    2    1    2    0    0  0.00000000000E+00  0.00000000000E+00  0.24181546614E+03  0.20178269385E+04  0.20032850107E+04 0.  0.
        2    1    3    3  502    0 -0.14646679906E+03  0.88323682014E+03  0.57330936528E+03  0.10631290759E+04  0.25500000920E-02 0. -1.
       -2    1    3    3    0  502  0.14646679906E+03 -0.88323682014E+03 -0.33149389915E+03  0.95469786260E+03  0.25500000920E-02 0.  1.
</event>
<event>
 5   0  0.2463085E-04  0.1965049E+04  0.7818609E-02  0.8623138E-01
        2   -1    0    0  501    0  0.00000000000E+00  0.00000000000E+00  0.16097346036E+04  0.16097346036E+04  0.25500000920E-02 0.  1.
       -2   -1    0    0    0  501  0.00000000000E+00  0.00000000000E+00 -0.59969775478E+03  0.59969775478E+03  0.25500000920E-02 0. -1.
    10030    2    1    2    0    0  0.00000000000E+00  0.00000000000E+00  0.10100368488E+04  0.22094323584E+04  0.19650488315E+04 0.  0.
        2    1    3    3  502    0 -0.32681890972E+03  0.23916089057E+03  0.15115266247E+04  0.15648390551E+04  0.25500000920E-02 0.  1.
       -2    1    3    3    0  502  0.32681890972E+03 -0.23916089057E+03 -0.50148977584E+03  0.64459330327E+03  0.25500000920E-02 0. -1.
</event>
<event>
 5   0  0.2596061E-04  0.1928610E+04  0.7818609E-02  0.8640745E-01
       -2   -1    0    0    0  501  0.00000000000E+00  0.00000000000E+00  0.78664293433E+03  0.78664293434E+03  0.25500000920E-02 0. -1.
        2   -1    0    0  501    0  0.00000000000E+00  0.00000000000E+00 -0.11820916645E+04  0.11820916645E+04  0.25500000920E-02 0.  1.
    10030    2    1    2    0    0  0.00000000000E+00  0.00000000000E+00 -0.39544873021E+03  0.19687345989E+04  0.19286099198E+04 0.  0.
        5    1    3    3  502    0 -0.20255372099E+03  0.93717318450E+02  0.75990334150E+03  0.79201396710E+03  0.46999998093E+01 0. -1.
       -5    1    3    3    0  502  0.20255372099E+03 -0.93717318450E+02 -0.11553520717E+04  0.11767206318E+04  0.46999998093E+01 0.  1.
</event>
<event>
 5   0  0.2421737E-04  0.2046018E+04  0.7818609E-02  0.8585403E-01
        2   -1    0    0  501    0  0.00000000000E+00  0.00000000000E+00  0.12963910587E+04  0.12963910587E+04  0.25500000920E-02 0. -1.
       -2   -1    0    0    0  501  0.00000000000E+00  0.00000000000E+00 -0.80727735475E+03  0.80727735476E+03  0.25500000920E-02 0.  1.
    10030    2    1    2    0    0  0.00000000000E+00  0.00000000000E+00  0.48911370393E+03  0.21036684134E+04  0.20460177366E+04 0.  0.
        1    1    3    3  502    0 -0.86557222573E+03  0.17370787963E+03 -0.28687982985E+03  0.92827245042E+03  0.50400001928E-02 0.  1.
       -1    1    3    3    0  502  0.86557222573E+03 -0.17370787963E+03  0.77599353378E+03  0.11753959630E+04  0.50400001928E-02 0. -1.
</event>
<event>
 5   0  0.2463085E-04  0.2078668E+04  0.7818609E-02  0.8570699E-01
        2   -1    0    0  501    0  0.00000000000E+00  0.00000000000E+00  0.82996094606E+03  0.82996094606E+03  0.25500000920E-02 0.  1.
       -2   -1    0    0    0  501  0.00000000000E+00  0.00000000000E+00 -0.13015256664E+04  0.13015256664E+04  0.25500000920E-02 0. -1.
    10030    2    1    2    0    0  0.00000000000E+00  0.00000000000E+00 -0.47156472036E+03  0.21314866125E+04  0.20786682981E+04 0.  0.
        2    1    3    3  502    0 -0.27753044881E+03  0.96203941516E+03  0.49997107143E+02  0.10025181779E+04  0.25500000920E-02 0.  1.
       -2    1    3    3    0  502  0.27753044881E+03 -0.96203941516E+03 -0.52156182751E+03  0.11289684346E+04  0.25500000920E-02 0. -1.
</event>
<event>
 5   0  0.2421737E-04  0.1995224E+04  0.7818609E-02  0.8608857E-01
        2   -1    0    0  501    0  0.00000000000E+00  0.00000000000E+00  0.10721798146E+04  0.10721798146E+04  0.25500000920E-02 0. -1.
       -2   -1    0    0    0  501  0.00000000000E+00  0.00000000000E+00 -0.92823061783E+03  0.92823061783E+03  0.25500000920E-02 0.  1.
    10030    2    1    2    0    0  0.00000000000E+00  0.00000000000E+00  0.14394919675E+03  0.20004104324E+04  0.19952244302E+04 0.  0.
        1    1    3    3  502    0 -0.27336742161E+03  0.89081815027E+03  0.42919185685E+03  0.10259105098E+04  0.50400001928E-02 0. -1.
       -1    1    3    3    0  502  0.27336742161E+03 -0.89081815027E+03 -0.28524266011E+03  0.97449992264E+03  0.50400001928E-02 0.  1.
</event>
<event>
 5   0  0.1258546E-04  0.2027691E+04  0.7818609E-02  0.8593783E-01
       -1   -1    0    0    0  501  0.00000000000E+00  0.00000000000E+00  0.34716831473E+03  0.34716831477E+03  0.50400001928E-02 0.  1.
        1   -1    0    0  501    0  0.00000000000E+00  0.00000000000E+00 -0.29607615965E+04  0.29607615965E+04  0.50400001928E-02 0. -1.
    10030    2    1    2    0    0  0.00000000000E+00  0.00000000000E+00 -0.26135932817E+04  0.33079299113E+04  0.20276909171E+04 0.  0.
        4    1    3    3  502    0  0.76672860105E+03 -0.44658707885E+03 -0.21069508306E+04  0.22861662630E+04  0.12699999809E+01 0. -1.
       -4    1    3    3    0  502 -0.76672860105E+03  0.44658707885E+03 -0.50664245113E+03  0.10217636482E+04  0.12699999809E+01 0.  1.
</event>
<event>
 5   0  0.1258546E-04  0.1751978E+04  0.7818609E-02  0.8732262E-01
       -1   -1    0    0    0  501  0.00000000000E+00  0.00000000000E+00  0.60737478337E+03  0.60737478340E+03  0.50400001928E-02 0. -1.
        1   -1    0    0  501    0  0.00000000000E+00  0.00000000000E+00 -0.12633993259E+04  0.12633993259E+04  0.50400001928E-02 0.  1.
    10030    2    1    2    0    0  0.00000000000E+00  0.00000000000E+00 -0.65602454252E+03  0.18707741093E+04  0.17519781870E+04 0.  0.
        4    1    3    3  502    0  0.66575646875E+02 -0.72407242994E+03 -0.84964660362E+03  0.11183086177E+04  0.12699999809E+01 0.  1.
       -4    1    3    3    0  502 -0.66575646875E+02  0.72407242994E+03  0.19362206110E+03  0.75246549157E+03  0.12699999809E+01 0. -1.
</event>
<event>
 5   0  0.1258546E-04  0.2009227E+04  0.7818609E-02  0.8602319E-01
       -1   -1    0    0    0  501  0.00000000000E+00  0.00000000000E+00  0.86485283349E+03  0.86485283350E+03  0.50400001928E-02 0.  1.
        1   -1    0    0  501    0  0.00000000000E+00  0.00000000000E+00 -0.11669600921E+04  0.11669600921E+04  0.50400001928E-02 0. -1.
    10030    2    1    2    0    0  0.00000000000E+00  0.00000000000E+00 -0.30210725862E+03  0.20318129256E+04  0.20092274558E+04 0.  0.
        4    1    3    3  502    0 -0.19765194223E+03  0.18481529513E+03 -0.11294123956E+04  0.11613771807E+04  0.12699999809E+01 0. -1.
       -4    1    3    3    0  502  0.19765194223E+03 -0.18481529513E+03  0.82730513695E+03  0.87043574496E+03  0.12699999809E+01 0.  1.
</event>
<event>
 5   0  0.2540506E-04  0.2023909E+04  0.7818609E-02  0.8595523E-01
        2   -1    0    0  501    0  0.00000000000E+00  0.00000000000E+00  0.14461490872E+04  0.14461490872E+04  0.25500000920E-02 0.  1.
       -2   -1    0    0    0  501  0.00000000000E+00  0.00000000000E+00 -0.70812315432E+03  0.70812315433E+03  0.25500000920E-02 0. -1.
    10030    2    1    2    0    0  0.00000000000E+00  0.00000000000E+00  0.73802593285E+03  0.21542722415E+04  0.20239087462E+04 0.  0.
        4    1    3    3  502    0 -0.23644255479E+03 -0.64613809318E+03  0.11588685387E+04  0.13477304701E+04  0.12699999809E+01 0.  1.
       -4    1    3    3    0  502  0.23644255479E+03  0.64613809318E+03 -0.42084260586E+03  0.80654177138E+03  0.12699999809E+01 0. -1.
</event>
<event>
 5   0  0.1324930E-04  0.2063286E+04  0.7818609E-02  0.8577591E-01
       -1   -1    0    0    0  501  0.00000000000E+00  0.00000000000E+00  0.15887551758E+04  0.15887551758E+04  0.50400001928E-02 0.  1.
        1   -1    0    0  501    0  0.00000000000E+00  0.00000000000E+00 -0.66988761608E+03  0.66988761610E+03  0.50400001928E-02 0. -1.
    10030    2    1    2    0    0  0.00000000000E+00  0.00000000000E+00  0.91886755968E+03  0.22586427919E+04  0.20632861336E+04 0.  0.
        5    1    3    3  502    0 -0.30633497128E+03  0.96960016352E+03  0.64998314728E+03  0.12068412379E+04  0.46999998093E+01 0.  1.
       -5    1    3    3    0  502  0.30633497128E+03 -0.96960016352E+03  0.26888441240E+03  0.10518015540E+04  0.46999998093E+01 0. -1.
</event>
<event>
 5   0  0.1210633E-04  0.1461791E+04  0.7818609E-02  0.8910267E-01
        1   -1    0    0  501    0  0.00000000000E+00  0.00000000000E+00  0.10912117831E+04  0.10912117831E+04  0.50400001928E-02 0.  1.
       -1   -1    0    0    0  501  0.00000000000E+00  0.00000000000E+00 -0.48955494020E+03  0.48955494023E+03  0.50400001928E-02 0. -1.
    10030    2    1    2    0    0  0.00000000000E+00  0.00000000000E+00  0.60165684286E+03  0.15807667233E+04  0.14617908458E+04 0.  0.
        2    1    3    3  502    0  0.49147793168E+03 -0.49224322333E+02  0.88341045321E+03  0.10121203585E+04  0.25500000920E-02 0.  1.
       -2    1    3    3    0  502 -0.49147793168E+03  0.49224322333E+02 -0.28175361035E+03  0.56864636480E+03  0.25500000920E-02 0. -1.
</event>
<event>
 5   0  0.1258546E-04  0.2031704E+04  0.7818609E-02  0.8591940E-01
       -1   -1    0    0    0  501  0.00000000000E+00  0.00000000000E+00  0.11911238552E+04  0.11911238552E+04  0.50400001928E-02 0. -1.
        1   -1    0    0  501    0  0.00000000000E+00  0.00000000000E+00 -0.86637107544E+03  0.86637107546E+03  0.50400001928E-02 0.  1.
    10030    2    1    2    0    0  0.00000000000E+00  0.00000000000E+00  0.32475277975E+03  0.20574949307E+04  0.20317039700E+04 0.  0.
        4    1    3    3  502    0  0.78753794330E+03 -0.50176342405E+03  0.56741750094E+03  0.10926787172E+04  0.12699999809E+01 0. -1.
       -4    1    3    3    0  502 -0.78753794330E+03  0.50176342405E+03 -0.24266472120E+03  0.96481621341E+03  0.12699999809E+01 0.  1.
</event>
<event>
 5   0  0.1258546E-04  0.1980803E+04  0.7818609E-02  0.8615649E-01
       -1   -1    0    0    0  501  0.00000000000E+00  0.00000000000E+00  0.11326374239E+04  0.11326374239E+04  0.50400001928E-02 0.  1.
        1   -1    0    0  501    0  0.00000000000E+00  0.00000000000E+00 -0.86602724991E+03  0.86602724992E+03  0.50400001928E-02 0. -1.
    10030    2    1    2    0    0  0.00000000000E+00  0.00000000000E+00  0.26661017394E+03  0.19986646738E+04  0.19808027396E+04 0.  0.
        4    1    3    3  502    0  0.20255580295E+03  0.27844654822E+03  0.10702972128E+04  0.11243216044E+04  0.12699999809E+01 0.  1.
       -4    1    3    3    0  502 -0.20255580295E+03 -0.27844654822E+03 -0.80368703889E+03  0.87434306934E+03  0.12699999809E+01 0. -1.
</event>
<event>
 5   0  0.2488886E-04  0.1931925E+04  0.7818609E-02  0.8639127E-01
       -2   -1    0    0    0  501  0.00000000000E+00  0.00000000000E+00  0.17798728892E+04  0.17798728892E+04  0.25500000920E-02 0. -1.
        2   -1    0    0  501    0  0.00000000000E+00  0.00000000000E+00 -0.52424154238E+03  0.52424154239E+03  0.25500000920E-02 0.  1.
    10030    2    1    2    0    0  0.00000000000E+00  0.00000000000E+00  0.12556313468E+04  0.23041144316E+04  0.19319247487E+04 0.  0.
        3    1    3    3  502    0 -0.11052231022E+03  0.39805437589E+03  0.16692004268E+04  0.17195617297E+04  0.10100000352E+00 0. -1.
       -3    1    3    3    0  502  0.11052231022E+03 -0.39805437589E+03 -0.41356907996E+03  0.58455270192E+03  0.10100000352E+00 0.  1.
</event>
<event>
 5   0  0.1210633E-04  0.1982639E+04  0.7818609E-02  0.8614781E-01
        1   -1    0    0  501    0  0.00000000000E+00  0.00000000000E+00  0.78435020092E+03  0.78435020094E+03  0.50400001928E-02 0. -1.
       -1   -1    0    0    0  501  0.00000000000E+00  0.00000000000E+00 -0.12529029987E+04  0.12529029987E+04  0.50400001928E-02 0.  1.
    10030    2    1    2    0    0  0.00000000000E+00  0.00000000000E+00 -0.46855279776E+03  0.20372531996E+04  0.19826393709E+04 0.  0.
        2    1    3    3  502    0 -0.46186953875E+03  0.88041792096E+02 -0.11310361825E+04  0.12248745545E+04  0.25500000920E-02 0.  1.
       -2    1    3    3    0  502  0.46186953875E+03 -0.88041792096E+02  0.66248338478E+03  0.81237864515E+03  0.25500000920E-02 0. -1.
</event>
<event>
 5   0  0.2488886E-04  0.1954734E+04  0.7818609E-02  0.8628081E-01
       -2   -1    0    0    0  501  0.00000000000E+00  0.00000000000E+00  0.12973702613E+04  0.12973702613E+04  0.25500000920E-02 0.  1.
        2   -1    0    0  501    0  0.00000000000E+00  0.00000000000E+00 -0.73629435118E+03  0.73629435119E+03  0.25500000920E-02 0. -1.
    10030    2    1    2    0    0  0.00000000000E+00  0.00000000000E+00  0.56107591016E+03  0.20336646125E+04  0.19547341454E+04 0.  0.
        3    1    3    3  502    0  0.54311199730E+03  0.80091156082E+03  0.13782609359E+03  0.97745895676E+03  0.10100000352E+00 0. -1.
       -3    1    3    3    0  502 -0.54311199730E+03 -0.80091156082E+03  0.42324981657E+03  0.10562056558E+04  0.10100000352E+00 0.  1.
</event>
<event>
 5   0  0.1324930E-04  0.1605329E+04  0.7818609E-02  0.8817281E-01
        1   -1    0    0  501    0  0.00000000000E+00  0.00000000000E+00  0.12347267589E+04  0.12347267589E+04  0.50400001928E-02 0. -1.
       -1   -1    0    0    0  501  0.00000000000E+00  0.00000000000E+00 -0.52179162796E+03  0.52179162798E+03  0.50400001928E-02 0.  1.
    10030    2    1    2    0    0  0.00000000000E+00  0.00000000000E+00  0.71293513091E+03  0.17565183869E+04  0.16053287335E+04 0.  0.
        5    1    3    3  502    0  0.37565953885E+03 -0.33899433544E+03  0.10382134079E+04  0.11549659818E+04  0.46999998093E+01 0. -1.
       -5    1    3    3    0  502 -0.37565953885E+03  0.33899433544E+03 -0.32527827703E+03  0.60155240511E+03  0.46999998093E+01 0.  1.
</event>
<event>
 5   0  0.2488886E-04  0.1998129E+04  0.7818609E-02  0.8607496E-01
        2   -1    0    0  501    0  0.00000000000E+00  0.00000000000E+00  0.92123489405E+03  0.92123489405E+03  0.25500000920E-02 0. -1.
       -2   -1    0    0    0  501  0.00000000000E+00  0.00000000000E+00 -0.10834689503E+04  0.10834689503E+04  0.25500000920E-02 0.  1.
    10030    2    1    2    0    0  0.00000000000E+00  0.00000000000E+00 -0.16223405622E+03  0.20047038443E+04  0.19981285280E+04 0.  0.
        3    1    3    3  502    0  0.26969947968E+03 -0.48366406797E+03 -0.91539454316E+03  0.10698672440E+04  0.10100000352E+00 0.  1.
       -3    1    3    3    0  502 -0.26969947968E+03  0.48366406797E+03  0.75316048694E+03  0.93483660031E+03  0.10100000352E+00 0. -1.
</event>
<event>
 5   0  0.1231056E-04  0.2023028E+04  0.7818609E-02  0.8595930E-01
        1   -1    0    0  501    0  0.00000000000E+00  0.00000000000E+00  0.12259213860E+04  0.12259213860E+04  0.50400001928E-02 0. -1.
       -1   -1    0    0    0  501  0.00000000000E+00  0.00000000000E+00 -0.83460504856E+03  0.83460504857E+03  0.50400001928E-02 0.  1.
    10030    2    1    2    0    0  0.00000000000E+00  0.00000000000E+00  0.39131633739E+03  0.20605264345E+04  0.20230276102E+04 0.  0.
        3    1    3    3  502    0  0.10061280267E+04 -0.25683354945E+02  0.92756152669E+02  0.10107210074E+04  0.10100000352E+00 0.  1.
       -3    1    3    3    0  502 -0.10061280267E+04  0.25683354945E+02  0.29856018472E+03  0.10498054271E+04  0.10100000352E+00 0. -1.
</event>
<event>
 5   0  0.1324930E-04  0.1987423E+04  0.7818609E-02  0.8612523E-01
        1   -1    0    0  501    0  0.00000000000E+00  0.00000000000E+00  0.16833138265E+04  0.16833138265E+04  0.50400001928E-02 0. -1.
       -1   -1    0    0    0  501  0.00000000000E+00  0.00000000000E+00 -0.58661822849E+03  0.58661822852E+03  0.50400001928E-02 0.  1.
    10030    2    1    2    0    0  0.00000000000E+00  0.00000000000E+00  0.10966955980E+04  0.22699320551E+04  0.19874230299E+04 0.  0.
        5    1    3    3  502    0 -0.51009536204E+03 -0.70693947528E+02 -0.42230739733E+03  0.66600340872E+03  0.46999998093E+01 0.  1.
       -5    1    3    3    0  502  0.51009536204E+03  0.70693947528E+02  0.15190029954E+04  0.16039286463E+04  0.46999998093E+01 0. -1.
</event>
<event>
 5   0  0.2488886E-04  0.2014135E+04  0.7818609E-02  0.8600041E-01
        2   -1    0    0  501    0  0.00000000000E+00  0.00000000000E+00  0.39962664335E+03  0.39962664336E+03  0.25500000920E-02 0.  1.
       -2   -1    0    0    0  501  0.00000000000E+00  0.00000000000E+00 -0.25378309120E+04  0.25378309120E+04  0.25500000920E-02 0. -1.
    10030    2    1    2    0    0  0.00000000000E+00  0.00000000000E+00 -0.21382042686E+04  0.29374575553E+04  0.20141348999E+04 0.  0.
        3    1    3    3  502    0  0.10540112480E+03  0.50132862938E+03 -0.23336006761E+04  0.23891697130E+04  0.10100000352E+00 0. -1.
       -3    1    3    3    0  502 -0.10540112480E+03 -0.50132862938E+03  0.19539640752E+03  0.54828784230E+03  0.10100000352E+00 0.  1.
</event>
<event>
 5   0  0.1207228E-04  0.2020465E+04  0.7818609E-02  0.8597112E-01
       -1   -1    0    0    0  501  0.00000000000E+00  0.00000000000E+00  0.49743137660E+03  0.49743137663E+03  0.50400001928E-02 0.  1.
        1   -1    0    0  501    0  0.00000000000E+00  0.00000000000E+00 -0.20516792686E+04  0.20516792686E+04  0.50400001928E-02 0. -1.
    10030    2    1    2    0    0  0.00000000000E+00  0.00000000000E+00 -0.15542478920E+04  0.25491106453E+04  0.20204649395E+04 0.  0.
        1    1    3    3  502    0 -0.12096285095E+03 -0.99399374391E+03 -0.94598694021E+03  0.13775147423E+04  0.50400001928E-02 0. -1.
       -1    1    3    3    0  502  0.12096285095E+03  0.99399374391E+03 -0.60826095182E+03  0.11715959029E+04  0.50400001928E-02 0.  1.
</event>
<event>
 5   0  0.1210633E-04  0.1504167E+04  0.7818609E-02  0.8881686E-01
        1   -1    0    0  501    0  0.00000000000E+00  0.00000000000E+00  0.17734468567E+04  0.17734468568E+04  0.50400001928E-02 0.  1.
       -1   -1    0    0    0  501  0.00000000000E+00  0.00000000000E+00 -0.31894376939E+03  0.31894376943E+03  0.50400001928E-02 0. -1.
    10030    2    1    2    0    0  0.00000000000E+00  0.00000000000E+00  0.14545030874E+04  0.20923906262E+04  0.15041673116E+04 0.  0.
        2    1    3    3  502    0  0.60462507117E+03 -0.10863031676E+03  0.12368784356E+03  0.62663442696E+03  0.25500000920E-02 0. -1.
       -2    1    3    3    0  502 -0.60462507117E+03  0.10863031676E+03  0.13308152438E+04  0.14657561992E+04  0.25500000920E-02 0.  1.
</event>
<event>
 5   0  0.2463085E-04  0.1722688E+04  0.7818609E-02  0.8748530E-01
        2   -1    0    0  501    0  0.00000000000E+00  0.00000000000E+00  0.75149986940E+03  0.75149986941E+03  0.25500000920E-02 0. -1.
       -2   -1    0    0    0  501  0.00000000000E+00  0.00000000000E+00 -0.98724321519E+03  0.98724321519E+03  0.25500000920E-02 0.  1.
    10030    2    1    2    0    0  0.00000000000E+00  0.00000000000E+00 -0.23574334578E+03  0.17387430846E+04  0.17226876064E+04 0.  0.
        2    1    3    3  502    0  0.63553898724E+03  0.54893682388E+03 -0.31115502358E+03  0.89557740571E+03  0.25500000920E-02 0.  1.
       -2    1    3    3    0  502 -0.63553898724E+03 -0.54893682388E+03  0.75411677794E+02  0.84316567889E+03  0.25500000920E-02 0. -1.
</event>
<event>
 5   0  0.2463085E-04  0.2025456E+04  0.7818609E-02  0.8594811E-01
        2   -1    0    0  501    0  0.00000000000E+00  0.00000000000E+00  0.19428008616E+04  0.19428008616E+04  0.25500000920E-02 0. -1.
       -2   -1    0    0    0  501  0.00000000000E+00  0.00000000000E+00 -0.52790687670E+03  0.52790687670E+03  0.25500000920E-02 0.  1.
    10030    2    1    2    0    0  0.00000000000E+00  0.00000000000E+00  0.14148939849E+04  0.24707077383E+04  0.20254559338E+04 0.  0.
        2    1    3    3  502    0  0.35069643163E+02  0.99848006690E+03  0.50543519513E+03  0.11196682814E+04  0.25500000920E-02 0.  1.
       -2    1    3    3    0  502 -0.35069643163E+02 -0.99848006690E+03  0.90945878979E+03  0.13510394569E+04  0.25500000920E-02 0. -1.
</event>
<event>
 5   0  0.2540506E-04  0.2000911E+04  0.7818609E-02  0.8606195E-01
       -2   -1    0    0    0  501  0.00000000000E+00  0.00000000000E+00  0.15094579515E+04  0.15094579515E+04  0.25500000920E-02 0.  1.
        2   -1    0    0  501    0  0.00000000000E+00  0.00000000000E+00 -0.66309301361E+03  0.66309301362E+03  0.25500000920E-02 0. -1.
    10030    2    1    2    0    0  0.00000000000E+00  0.00000000000E+00  0.84636493789E+03  0.21725509651E+04  0.20009108146E+04 0.  0.
        4    1    3    3  502    0 -0.95495909065E+03 -0.24659532200E+03  0.60536504128E+03  0.11572487044E+04  0.12699999809E+01 0.  1.
       -4    1    3    3    0  502  0.95495909065E+03  0.24659532200E+03  0.24099989661E+03  0.10153022608E+04  0.12699999809E+01 0. -1.
</event>
<event>
 5   0  0.2421737E-04  0.1987554E+04  0.7818609E-02  0.8612462E-01
       -2   -1    0    0    0  501  0.00000000000E+00  0.00000000000E+00  0.44717688073E+03  0.44717688073E+03  0.25500000920E-02 0.  1.
        2   -1    0    0  501    0  0.00000000000E+00  0.00000000000E+00 -0.22085050189E+04  0.22085050189E+04  0.25500000920E-02 0. -1.
    10030    2    1    2    0    0  0.00000000000E+00  0.00000000000E+00 -0.17613281382E+04  0.26556818996E+04  0.19875536576E+04 0.  0.
        1    1    3    3  502    0 -0.67096648841E+03 -0.72954357531E+03 -0.78466026880E+03  0.12641683410E+04  0.50400001928E-02 0.  1.
       -1    1    3    3    0  502  0.67096648841E+03  0.72954357531E+03 -0.97666786936E+03  0.13915135587E+04  0.50400001928E-02 0. -1.
</event>
<event>
 5   0  0.2596061E-04  0.1932037E+04  0.7818609E-02  0.8639072E-01
       -2   -1    0    0    0  501  0.00000000000E+00  0.00000000000E+00  0.65548753073E+03  0.65548753073E+03  0.25500000920E-02 0.  1.
        2   -1    0    0  501    0  0.00000000000E+00  0.00000000000E+00 -0.14236599458E+04  0.14236599458E+04  0.25500000920E-02 0. -1.
    10030    2    1    2    0    0  0.00000000000E+00  0.00000000000E+00 -0.76817241510E+03  0.20791474766E+04  0.19320365861E+04 0.  0.
        5    1    3    3  502    0 -0.44711811781E+03 -0.12457476148E+02  0.53732055817E+03  0.69914610220E+03  0.46999998093E+01 0.  1.
       -5    1    3    3    0  502  0.44711811781E+03  0.12457476148E+02 -0.13054929733E+04  0.13800013744E+04  0.46999998093E+01 0. -1.
</event>
<event>
 5   0  0.2463085E-04  0.1944196E+04  0.7818609E-02  0.8633164E-01
        2   -1    0    0  501    0  0.00000000000E+00  0.00000000000E+00  0.84249984095E+03  0.84249984095E+03  0.25500000920E-02 0.  1.
       -2   -1    0    0    0  501  0.00000000000E+00  0.00000000000E+00 -0.11216320343E+04  0.11216320343E+04  0.25500000920E-02 0. -1.
    10030    2    1    2    0    0  0.00000000000E+00  0.00000000000E+00 -0.27913219338E+03  0.19641318753E+04  0.19441962972E+04 0.  0.
        2    1    3    3  502    0  0.53498907820E+03 -0.75469551503E+03  0.16215359185E+03  0.93918710679E+03  0.25500000920E-02 0.  1.
       -2    1    3    3    0  502 -0.53498907820E+03  0.75469551503E+03 -0.44128578523E+03  0.10249447685E+04  0.25500000920E-02 0. -1.
</event>
<event>
 5   0  0.2421737E-04  0.2037111E+04  0.7818609E-02  0.8589464E-01
        2   -1    0    0  501    0  0.00000000000E+00  0.00000000000E+00  0.15005563599E+04  0.15005563599E+04  0.25500000920E-02 0.  1.
       -2   -1    0    0    0  501  0.00000000000E+00  0.00000000000E+00 -0.69138015203E+03  0.69138015204E+03  0.25500000920E-02 0. -1.
    10030    2    1    2    0    0  0.00000000000E+00  0.00000000000E+00  0.80917620785E+03  0.21919365119E+04  0.20371105854E+04 0.  0.
        1    1    3    3  502    0  0.52922915559E+02 -0.19545953832E+03 -0.66950279812E+03  0.69945640524E+03  0.50400001928E-02 0. -1.
       -1    1    3    3    0  502 -0.52922915559E+02  0.19545953832E+03  0.14786790060E+04  0.14924801067E+04  0.50400001928E-02 0.  1.
</event>
<event>
 5   0  0.9099125E-05  0.1990003E+04  0.7818609E-02  0.8611309E-01
       -3   -1    0    0    0  501  0.00000000000E+00  0.00000000000E+00  0.10725099638E+04  0.10725099686E+04  0.10100000352E+00 0. -1.
        3   -1    0    0  501    0  0.00000000000E+00  0.00000000000E+00 -0.92309408452E+03  0.92309409005E+03  0.10100000352E+00 0.  1.
    10030    2    1    2    0    0  0.00000000000E+00  0.00000000000E+00  0.14941587929E+03  0.19956040586E+04  0.19900026266E+04 0.  0.
        5    1    3    3  502    0  0.45566284798E+03  0.82828357821E+03 -0.23652545852E+03  0.97449920446E+03  0.46999998093E+01 0.  1.
       -5    1    3    3    0  502 -0.45566284798E+03 -0.82828357821E+03  0.38594133780E+03  0.10211048542E+04  0.46999998093E+01 0. -1.
</event>
<event>
 5   0  0.9099125E-05  0.2012101E+04  0.7818609E-02  0.8600984E-01
       -3   -1    0    0    0  501  0.00000000000E+00  0.00000000000E+00  0.11471045894E+04  0.11471045939E+04  0.10100000352E+00 0.  1.
        3   -1    0    0  501    0  0.00000000000E+00  0.00000000000E+00 -0.88234086114E+03  0.88234086692E+03  0.10100000352E+00 0. -1.
    10030    2    1    2    0    0  0.00000000000E+00  0.00000000000E+00  0.26476372831E+03  0.20294454608E+04  0.20121006552E+04 0.  0.
        5    1    3    3  502    0  0.89060727130E+03  0.21229156089E+03 -0.28818514767E+03  0.95985508690E+03  0.46999998093E+01 0. -1.
       -5    1    3    3    0  502 -0.89060727130E+03 -0.21229156089E+03  0.55294887597E+03  0.10695903739E+04  0.46999998093E+01 0.  1.
</event>
<event>
 5   0  0.1231056E-04  0.1976330E+04  0.7818609E-02  0.8617768E-01
       -1   -1    0    0    0  501  0.00000000000E+00  0.00000000000E+00  0.65935632124E+03  0.65935632126E+03  0.50400001928E-02 0.  1.
        1   -1    0    0  501    0  0.00000000000E+00  0.00000000000E+00 -0.14809439061E+04  0.14809439061E+04  0.50400001928E-02 0. -1.
    10030    2    1    2    0    0  0.00000000000E+00  0.00000000000E+00 -0.82158758487E+03  0.21403002274E+04  0.19763296546E+04 0.  0.
        3    1    3    3  502    0  0.85718604123E+03  0.19086689062E+03  0.79865222650E+02  0.88180300703E+03  0.10100000352E+00 0. -1.
       -3    1    3    3    0  502 -0.85718604123E+03 -0.19086689062E+03 -0.90145280752E+03  0.12584972203E+04  0.10100000352E+00 0.  1.
</event>
<event>
 5   0  0.2596061E-04  0.1991434E+04  0.7818609E-02  0.8610636E-01
        2   -1    0    0  501    0  0.00000000000E+00  0.00000000000E+00  0.24407568070E+04  0.24407568070E+04  0.25500000920E-02 0. -1.
       -2   -1    0    0    0  501  0.00000000000E+00  0.00000000000E+00 -0.40620681973E+03  0.40620681974E+03  0.25500000920E-02 0.  1.
    10030    2    1    2    0    0  0.00000000000E+00  0.00000000000E+00  0.20345499872E+04  0.28469636267E+04  0.19914337150E+04 0.  0.
        5    1    3    3  502    0 -0.37148766673E+03 -0.87135776566E+03  0.14559623503E+04  0.17369847143E+04  0.46999998093E+01 0.  1.
       -5    1    3    3    0  502  0.37148766673E+03  0.87135776566E+03  0.57858763692E+03  0.11099789124E+04  0.46999998093E+01 0. -1.
</event>
<event>
 5   0  0.1258546E-04  0.1996217E+04  0.7818609E-02  0.8608391E-01
       -1   -1    0    0    0  501  0.00000000000E+00  0.00000000000E+00  0.65139643295E+03  0.65139643297E+03  0.50400001928E-02 0.  1.
        1   -1    0    0  501    0  0.00000000000E+00  0.00000000000E+00 -0.15293613842E+04  0.15293613842E+04  0.50400001928E-02 0. -1.
    10030    2    1    2    0    0  0.00000000000E+00  0.00000000000E+00 -0.87796495123E+03  0.21807578172E+04  0.19962169726E+04 0.  0.
        4    1    3    3  502    0 -0.95557874234E+03 -0.28778774279E+03 -0.45681377174E+03  0.10975577218E+04  0.12699999809E+01 0.  1.
       -4    1    3    3    0  502  0.95557874234E+03  0.28778774279E+03 -0.42115117950E+03  0.10832000954E+04  0.12699999809E+01 0. -1.
</event>
<event>
 5   0  0.2421737E-04  0.2018354E+04  0.7818609E-02  0.8598088E-01
        2   -1    0    0  501    0  0.00000000000E+00  0.00000000000E+00  0.11273029986E+04  0.11273029986E+04  0.25500000920E-02 0. -1.
       -2   -1    0    0    0  501  0.00000000000E+00  0.00000000000E+00 -0.90342858727E+03  0.90342858727E+03  0.25500000920E-02 0.  1.
    10030    2    1    2    0    0  0.00000000000E+00  0.00000000000E+00  0.22387441133E+03  0.20307315859E+04  0.20183535423E+04 0.  0.
        1    1    3    3  502    0  0.38767402395E+03  0.36833575183E+03 -0.74915924412E+03  0.92043573811E+03  0.50400001928E-02 0.  1.
       -1    1    3    3    0  502 -0.38767402395E+03 -0.36833575183E+03  0.97303365545E+03  0.11102958478E+04  0.50400001928E-02 0. -1.
</event>
<event>
 5   0  0.2463085E-04  0.2135858E+04  0.7818609E-02  0.8545610E-01
        2   -1    0    0  501    0  0.00000000000E+00  0.00000000000E+00  0.45159874352E+03  0.45159874353E+03  0.25500000920E-02 0. -1.
       -2   -1    0    0    0  501  0.00000000000E+00  0.00000000000E+00 -0.25254113341E+04  0.25254113341E+04  0.25500000920E-02 0.  1.
    10030    2    1    2    0    0  0.00000000000E+00  0.00000000000E+00 -0.20738125905E+04  0.29770100776E+04  0.21358582213E+04 0.  0.
        2    1    3    3  502    0 -0.49006521125E+03  0.78020211344E+03 -0.28425002941E+03  0.96419776411E+03  0.25500000920E-02 0.  1.
       -2    1    3    3    0  502  0.49006521125E+03 -0.78020211344E+03 -0.17895625611E+04  0.20128123135E+04  0.25500000920E-02 0. -1.
</event>
<event>
 5   0  0.1324930E-04  0.1972010E+04  0.7818609E-02  0.8619820E-01
       -1   -1    0    0    0  501  0.00000000000E+00  0.00000000000E+00  0.49197355639E+03  0.49197355641E+03  0.50400001928E-02 0. -1.
        1   -1    0    0  501    0  0.00000000000E+00  0.00000000000E+00 -0.19761353078E+04  0.19761353078E+04  0.50400001928E-02 0.  1.
    10030    2    1    2    0    0  0.00000000000E+00  0.00000000000E+00 -0.14841617514E+04  0.24681088642E+04  0.19720104617E+04 0.  0.
        5    1    3    3  502    0  0.10220275941E+02 -0.48295124052E+03  0.33371449513E+03  0.58714036568E+03  0.46999998093E+01 0. -1.
       -5    1    3    3    0  502 -0.10220275941E+02  0.48295124052E+03 -0.18178762465E+04  0.18809684985E+04  0.46999998093E+01 0.  1.
</event>
<event>
 5   0  0.2540506E-04  0.1985603E+04  0.7818609E-02  0.8613382E-01
        2   -1    0    0  501    0  0.00000000000E+00  0.00000000000E+00  0.17139122996E+04  0.17139122996E+04  0.25500000920E-02 0. -1.
       -2   -1    0    0    0  501  0.00000000000E+00  0.00000000000E+00 -0.57509031508E+03  0.57509031508E+03  0.25500000920E-02 0.  1.
    10030    2    1    2    0    0  0.00000000000E+00  0.00000000000E+00  0.11388219845E+04  0.22890026147E+04  0.19856025427E+04 0.  0.
        4    1    3    3  502    0 -0.30967335325E+03 -0.54251607664E+03 -0.32013797855E+03  0.70193391237E+03  0.12699999809E+01 0.  1.
       -4    1    3    3    0  502  0.30967335325E+03  0.54251607664E+03  0.14589599631E+04  0.15870687023E+04  0.12699999809E+01 0. -1.
</event>
<event>
 5   0  0.2596061E-04  0.2007813E+04  0.7818609E-02  0.8602977E-01
        2   -1    0    0  501    0  0.00000000000E+00  0.00000000000E+00  0.12426095318E+04  0.12426095318E+04  0.25500000920E-02 0.  1.
       -2   -1    0    0    0  501  0.00000000000E+00  0.00000000000E+00 -0.81105792610E+03  0.81105792610E+03  0.25500000920E-02 0. -1.
    10030    2    1    2    0    0  0.00000000000E+00  0.00000000000E+00  0.43155160571E+03  0.20536674579E+04  0.20078130489E+04 0.  0.
        5    1    3    3  502    0  0.73555597312E+03  0.11761093489E+02 -0.48292459939E+03  0.88001089290E+03  0.46999998093E+01 0. -1.
       -5    1    3    3    0  502 -0.73555597312E+03 -0.11761093489E+02  0.91447620510E+03  0.11736565650E+04  0.46999998093E+01 0.  1.
</event>
<event>
 5   0  0.1258546E-04  0.2068879E+04  0.7818609E-02  0.8575078E-01
        1   -1    0    0  501    0  0.00000000000E+00  0.00000000000E+00  0.19301278783E+04  0.19301278783E+04  0.50400001928E-02 0.  1.
       -1   -1    0    0    0  501  0.00000000000E+00  0.00000000000E+00 -0.55440103211E+03  0.55440103213E+03  0.50400001928E-02 0. -1.
    10030    2    1    2    0    0  0.00000000000E+00  0.00000000000E+00  0.13757268462E+04  0.24845289104E+04  0.20688788151E+04 0.  0.
        4    1    3    3  502    0 -0.78063387811E+03  0.49884187805E+03  0.13514548519E+03  0.93621492512E+03  0.12699999809E+01 0. -1.
       -4    1    3    3    0  502  0.78063387811E+03 -0.49884187805E+03  0.12405813610E+04  0.15483139853E+04  0.12699999809E+01 0.  1.
</event>
<event>
 5   0  0.2421737E-04  0.2071464E+04  0.7818609E-02  0.8573919E-01
       -2   -1    0    0    0  501  0.00000000000E+00  0.00000000000E+00  0.11625536890E+04  0.11625536890E+04  0.25500000920E-02 0.  1.
        2   -1    0    0  501    0  0.00000000000E+00  0.00000000000E+00 -0.92274524151E+03  0.92274524152E+03  0.25500000920E-02 0. -1.
    10030    2    1    2    0    0  0.00000000000E+00  0.00000000000E+00  0.23980844744E+03  0.20852989305E+04  0.20714641049E+04 0.  0.
        1    1    3    3  502    0  0.22767681112E+03  0.36852859495E+03 -0.82717177086E+03  0.93373614804E+03  0.50400001928E-02 0. -1.
       -1    1    3    3    0  502 -0.22767681112E+03 -0.36852859495E+03  0.10669802183E+04  0.11515627824E+04  0.50400001928E-02 0.  1.
</event>
<event>
 5   0  0.1324930E-04  0.1827592E+04  0.7818609E-02  0.8691763E-01
       -1   -1    0    0    0  501  0.00000000000E+00  0.00000000000E+00  0.78369724867E+03  0.78369724869E+03  0.50400001928E-02 0.  1.
        1   -1    0    0  501    0  0.00000000000E+00  0.00000000000E+00 -0.10654914994E+04  0.10654914994E+04  0.50400001928E-02 0. -1.
    10030    2    1    2    0    0  0.00000000000E+00  0.00000000000E+00 -0.28179425070E+03  0.18491887481E+04  0.18275915918E+04 0.  0.
        5    1    3    3  502    0  0.94538632640E+01 -0.74522185227E+03  0.39408128101E+03  0.84307006273E+03  0.46999998093E+01 0.  1.
       -5    1    3    3    0  502 -0.94538632640E+01  0.74522185227E+03 -0.67587553172E+03  0.10061186853E+04  0.46999998093E+01 0. -1.
</event>
<event>
 5   0  0.1231056E-04  0.1999350E+04  0.7818609E-02  0.8606924E-01
        1   -1    0    0  501    0  0.00000000000E+00  0.00000000000E+00  0.13000213129E+04  0.13000213129E+04  0.50400001928E-02 0. -1.
       -1   -1    0    0    0  501  0.00000000000E+00  0.00000000000E+00 -0.76871853103E+03  0.76871853104E+03  0.50400001928E-02 0.  1.
    10030    2    1    2    0    0  0.00000000000E+00  0.00000000000E+00  0.53130278188E+03  0.20687398440E+04  0.19993503685E+04 0.  0.
        3    1    3    3  502    0  0.89292461335E+03 -0.27656772487E+03  0.63227387066E+03  0.11285275049E+04  0.10100000352E+00 0. -1.
       -3    1    3    3    0  502 -0.89292461335E+03  0.27656772487E+03 -0.10097108878E+03  0.94021233907E+03  0.10100000352E+00 0.  1.
</event>
<event>
 5   0  0.1231056E-04  0.1919552E+04  0.7818609E-02  0.8645185E-01
       -1   -1    0    0    0  501  0.00000000000E+00  0.00000000000E+00  0.93447407640E+03  0.93447407642E+03  0.50400001928E-02 0.  1.
        1   -1    0    0  501    0  0.00000000000E+00  0.00000000000E+00 -0.98576341510E+03  0.98576341511E+03  0.50400001928E-02 0. -1.
    10030    2    1    2    0    0  0.00000000000E+00  0.00000000000E+00 -0.51289338698E+02  0.19202374915E+04  0.19195524029E+04 0.  0.
        3    1    3    3  502    0  0.82036221499E+03 -0.17906226181E+03 -0.49069002015E+03  0.97254005751E+03  0.10100000352E+00 0.  1.
       -3    1    3    3    0  502 -0.82036221499E+03  0.17906226181E+03  0.43940068145E+03  0.94769743402E+03  0.10100000352E+00 0. -1.
</event>
<event>
 5   0  0.1258546E-04  0.1779691E+04  0.7818609E-02  0.8717175E-01
       -1   -1    0    0    0  501  0.00000000000E+00  0.00000000000E+00  0.42199060652E+03  0.42199060655E+03  0.50400001928E-02 0.  1.
        1   -1    0    0  501    0  0.00000000000E+00  0.00000000000E+00 -0.18764039794E+04  0.18764039794E+04  0.50400001928E-02 0. -1.
    10030    2    1    2    0    0  0.00000000000E+00  0.00000000000E+00 -0.14544133729E+04  0.22983945859E+04  0.17796908196E+04 0.  0.
        4    1    3    3  502    0 -0.46724566147E+03 -0.73642762769E+03 -0.95524703081E+03  0.12935001592E+04  0.12699999809E+01 0. -1.
       -4    1    3    3    0  502  0.46724566147E+03  0.73642762769E+03 -0.49916634204E+03  0.10048944268E+04  0.12699999809E+01 0.  1.
</event>
<event>
 5   0  0.2488886E-04  0.1989867E+04  0.7818609E-02  0.8611373E-01
       -2   -1    0    0    0  501  0.00000000000E+00  0.00000000000E+00  0.56870108388E+03  0.56870108388E+03  0.25500000920E-02 0. -1.
        2   -1    0    0  501    0  0.00000000000E+00  0.00000000000E+00 -0.17406202898E+04  0.17406202898E+04  0.25500000920E-02 0.  1.
    10030    2    1    2    0    0  0.00000000000E+00  0.00000000000E+00 -0.11719192059E+04  0.23093213737E+04  0.19898669759E+04 0.  0.
        3    1    3    3  502    0  0.26916769093E+03 -0.30571317324E+03  0.46750243114E+03  0.62005670987E+03  0.10100000352E+00 0. -1.
       -3    1    3    3    0  502 -0.26916769093E+03  0.30571317324E+03 -0.16394216370E+04  0.16892646638E+04  0.10100000352E+00 0.  1.
</event>
<event>
 5   0  0.9099125E-05  0.1985358E+04  0.7818609E-02  0.8613497E-01
        3   -1    0    0  501    0  0.00000000000E+00  0.00000000000E+00  0.10469058615E+04  0.10469058664E+04  0.10100000352E+00 0. -1.
       -3   -1    0    0    0  501  0.00000000000E+00  0.00000000000E+00 -0.94126127782E+03  0.94126128323E+03  0.10100000352E+00 0.  1.
    10030    2    1    2    0    0  0.00000000000E+00  0.00000000000E+00  0.10564458370E+03  0.19881671496E+04  0.19853583648E+04 0.  0.
        1    1    3    3  502    0 -0.68155071212E+03  0.66016950046E+03 -0.23926966573E+03  0.97856278056E+03  0.50400001928E-02 0.  1.
       -1    1    3    3    0  502  0.68155071212E+03 -0.66016950046E+03  0.34491424944E+03  0.10096043691E+04  0.50400001928E-02 0. -1.
</event>
<event>
 5   0  0.2488886E-04  0.2023715E+04  0.7818609E-02  0.8595613E-01
       -2   -1    0    0    0  501  0.00000000000E+00  0.00000000000E+00  0.80674421379E+03  0.80674421379E+03  0.25500000920E-02 0.  1.
        2   -1    0    0  501    0  0.00000000000E+00  0.00000000000E+00 -0.12691201197E+04  0.12691201197E+04  0.25500000920E-02 0. -1.
    10030    2    1    2    0    0  0.00000000000E+00  0.00000000000E+00 -0.46237590594E+03  0.20758643335E+04  0.20237147163E+04 0.  0.
        3    1    3    3  502    0  0.63367753480E+03  0.70597526862E+03  0.12988720262E+03  0.95750665461E+03  0.10100000352E+00 0.  1.
       -3    1    3    3    0  502 -0.63367753480E+03 -0.70597526862E+03 -0.59226310856E+03  0.11183576789E+04  0.10100000352E+00 0. -1.
</event>
<event>
 5   0  0.2596061E-04  0.2019163E+04  0.7818609E-02  0.8597713E-01
        2   -1    0    0  501    0  0.00000000000E+00  0.00000000000E+00  0.25319612917E+04  0.25319612917E+04  0.25500000920E-02 0.  1.
       -2   -1    0    0    0  501  0.00000000000E+00  0.00000000000E+00 -0.40255554332E+03  0.40255554333E+03  0.25500000920E-02 0. -1.
    10030    2    1    2    0    0  0.00000000000E+00  0.00000000000E+00  0.21294057484E+04  0.29345168350E+04  0.20191632460E+04 0.  0.
        5    1    3    3  502    0  0.49140307991E+03  0.37263461397E+03  0.22263692535E+04  0.23102111777E+04  0.46999998093E+01 0.  1.
       -5    1    3    3    0  502 -0.49140307991E+03 -0.37263461397E+03 -0.96963505143E+02  0.62430565735E+03  0.46999998093E+01 0. -1.
</event>
<event>
 5   0  0.1210633E-04  0.1224412E+04  0.7818609E-02  0.9091753E-01
       -1   -1    0    0    0  501  0.00000000000E+00  0.00000000000E+00  0.89528376408E+03  0.89528376410E+03  0.50400001928E-02 0.  1.
        1   -1    0    0  501    0  0.00000000000E+00  0.00000000000E+00 -0.41863376784E+03  0.41863376787E+03  0.50400001928E-02 0. -1.
    10030    2    1    2    0    0  0.00000000000E+00  0.00000000000E+00  0.47664999625E+03  0.13139175320E+04  0.12244117207E+04 0.  0.
        2    1    3    3  502    0 -0.17521371290E+03  0.13440140560E+03 -0.37440766415E+03  0.43467767598E+03  0.25500000920E-02 0. -1.
       -2    1    3    3    0  502  0.17521371290E+03 -0.13440140560E+03  0.85105766040E+03  0.87923985598E+03  0.25500000920E-02 0.  1.
</event>
<event>
 5   0  0.1258546E-04  0.2069310E+04  0.7818609E-02  0.8574884E-01
        1   -1    0    0  501    0  0.00000000000E+00  0.00000000000E+00  0.12873126307E+04  0.12873126307E+04  0.50400001928E-02 0. -1.
       -1   -1    0    0    0  501  0.00000000000E+00  0.00000000000E+00 -0.83158606969E+03  0.83158606971E+03  0.50400001928E-02 0.  1.
    10030    2    1    2    0    0  0.00000000000E+00  0.00000000000E+00  0.45572656104E+03  0.21188987004E+04  0.20693102726E+04 0.  0.
        4    1    3    3  502    0 -0.52233205639E+03 -0.40134697230E+03  0.10448551167E+04  0.12351655748E+04  0.12699999809E+01 0. -1.
       -4    1    3    3    0  502  0.52233205639E+03  0.40134697230E+03 -0.58912855570E+03  0.88373312564E+03  0.12699999809E+01 0.  1.
</event>
<event>
 5   0  0.2463085E-04  0.1974323E+04  0.7818609E-02  0.8618721E-01
        2   -1    0    0  501    0  0.00000000000E+00  0.00000000000E+00  0.16750094732E+04  0.16750094732E+04  0.25500000920E-02 0.  1.
       -2   -1    0    0    0  501  0.00000000000E+00  0.00000000000E+00 -0.58178027200E+03  0.58178027200E+03  0.25500000920E-02 0. -1.
    10030    2    1    2    0    0  0.00000000000E+00  0.00000000000E+00  0.10932292012E+04  0.22567897452E+04  0.19743226352E+04 0.  0.
        2    1    3    3  502    0  0.93294310451E+03  0.32151152506E+03  0.51562558691E+03  0.11133832417E+04  0.25500000920E-02 0. -1.
       -2    1    3    3    0  502 -0.93294310451E+03 -0.32151152506E+03  0.57760361428E+03  0.11434065035E+04  0.25500000920E-02 0.  1.
</event>
<event>
 5   0  0.2488886E-04  0.2006054E+04  0.7818609E-02  0.8603795E-01
       -2   -1    0    0    0  501  0.00000000000E+00  0.00000000000E+00  0.99042346180E+03  0.99042346180E+03  0.25500000920E-02 0.  1.
        2   -1    0    0  501    0  0.00000000000E+00  0.00000000000E+00 -0.10157908116E+04  0.10157908116E+04  0.25500000920E-02 0. -1.
    10030    2    1    2    0    0  0.00000000000E+00  0.00000000000E+00 -0.25367349843E+02  0.20062142734E+04  0.20060538897E+04 0.  0.
        3    1    3    3  502    0  0.59211041440E+03 -0.17527612931E+03  0.77778863855E+03  0.99311209881E+03  0.10100000352E+00 0.  1.
       -3    1    3    3    0  502 -0.59211041440E+03  0.17527612931E+03 -0.80315598839E+03  0.10131021746E+04  0.10100000352E+00 0. -1.
</event>
<event>
 5   0  0.1207228E-04  0.1639715E+04  0.7818609E-02  0.8796514E-01
       -1   -1    0    0    0  501  0.00000000000E+00  0.00000000000E+00  0.40867781759E+03  0.40867781762E+03  0.50400001928E-02 0. -1.
        1   -1    0    0  501    0  0.00000000000E+00  0.00000000000E+00 -0.16447345029E+04  0.16447345029E+04  0.50400001928E-02 0.  1.
    10030    2    1    2    0    0  0.00000000000E+00  0.00000000000E+00 -0.12360566853E+04  0.20534123205E+04  0.16397152280E+04 0.  0.
        1    1    3    3  502    0  0.72361767486E+02  0.70989006274E+03 -0.11245590284E+03  0.72237556484E+03  0.50400001928E-02 0. -1.
       -1    1    3    3    0  502 -0.72361767486E+02 -0.70989006274E+03 -0.11236007825E+04  0.13310367557E+04  0.50400001928E-02 0.  1.
</event>
<event>
 5   0  0.2596061E-04  0.1965854E+04  0.7818609E-02  0.8622754E-01
       -2   -1    0    0    0  501  0.00000000000E+00  0.00000000000E+00  0.35326727511E+03  0.35326727512E+03  0.25500000920E-02 0. -1.
        2   -1    0    0  501    0  0.00000000000E+00  0.00000000000E+00 -0.27348842078E+04  0.27348842079E+04  0.25500000920E-02 0.  1.
    10030    2    1    2    0    0  0.00000000000E+00  0.00000000000E+00 -0.23816169327E+04  0.30881514830E+04  0.19658535977E+04 0.  0.
        5    1    3    3  502    0 -0.42305863528E+03 -0.56287066991E+02 -0.25817178976E+04  0.26167606378E+04  0.46999998093E+01 0.  1.
       -5    1    3    3    0  502  0.42305863528E+03  0.56287066991E+02  0.20010096484E+03  0.47139084518E+03  0.46999998093E+01 0. -1.
</event>
<event>
 5   0  0.1258546E-04  0.2074654E+04  0.7818609E-02  0.8572491E-01
        1   -1    0    0  501    0  0.00000000000E+00  0.00000000000E+00  0.98198442563E+03  0.98198442564E+03  0.50400001928E-02 0.  1.
       -1   -1    0    0    0  501  0.00000000000E+00  0.00000000000E+00 -0.10957886452E+04  0.10957886452E+04  0.50400001928E-02 0. -1.
    10030    2    1    2    0    0  0.00000000000E+00  0.00000000000E+00 -0.11380421953E+03  0.20777730708E+04  0.20746540756E+04 0.  0.
        4    1    3    3  502    0  0.91830506479E+02 -0.26992272265E+03 -0.10557754205E+04  0.10935970325E+04  0.12699999809E+01 0. -1.
       -4    1    3    3    0  502 -0.91830506479E+02  0.26992272265E+03  0.94197120093E+03  0.98417603832E+03  0.12699999809E+01 0.  1.
</event>
<event>
 5   0  0.1324930E-04  0.1760037E+04  0.7818609E-02  0.8727845E-01
       -1   -1    0    0    0  501  0.00000000000E+00  0.00000000000E+00  0.10031357223E+04  0.10031357223E+04  0.50400001928E-02 0. -1.
        1   -1    0    0  501    0  0.00000000000E+00  0.00000000000E+00 -0.77201186433E+03  0.77201186434E+03  0.50400001928E-02 0.  1.
    10030    2    1    2    0    0  0.00000000000E+00  0.00000000000E+00  0.23112385800E+03  0.17751475867E+04  0.17600371350E+04 0.  0.
        5    1    3    3  502    0 -0.23562888902E+03 -0.32346668867E+03 -0.67491349132E+03  0.78465405294E+03  0.46999998093E+01 0.  1.
       -5    1    3    3    0  502  0.23562888902E+03  0.32346668867E+03  0.90603734932E+03  0.99049353374E+03  0.46999998093E+01 0. -1.
</event>
<event>
 5   0  0.2463085E-04  0.2026592E+04  0.7818609E-02  0.8594288E-01
        2   -1    0    0  501    0  0.00000000000E+00  0.00000000000E+00  0.12432966402E+04  0.12432966402E+04  0.25500000920E-02 0.  1.
       -2   -1    0    0    0  501  0.00000000000E+00  0.00000000000E+00 -0.82584358047E+03  0.82584358047E+03  0.25500000920E-02 0. -1.
    10030    2    1    2    0    0  0.00000000000E+00  0.00000000000E+00  0.41745305977E+03  0.20691402207E+04  0.20265917684E+04 0.  0.
        2    1    3    3  502    0  0.31710104405E+03 -0.32982973387E+03  0.11318256914E+04  0.12208071597E+04  0.25500000920E-02 0.  1.
       -2    1    3    3    0  502 -0.31710104405E+03  0.32982973387E+03 -0.71437263165E+03  0.84833306098E+03  0.25500000920E-02 0. -1.
</event>
<event>
 5   0  0.1207228E-04  0.2023280E+04  0.7818609E-02  0.8595813E-01
       -1   -1    0    0    0  501  0.00000000000E+00  0.00000000000E+00  0.61114022337E+03  0.61114022339E+03  0.50400001928E-02 0. -1.
        1   -1    0    0  501    0  0.00000000000E+00  0.00000000000E+00 -0.16745995741E+04  0.16745995741E+04  0.50400001928E-02 0.  1.
    10030    2    1    2    0    0  0.00000000000E+00  0.00000000000E+00 -0.10634593507E+04  0.22857397975E+04  0.20232796720E+04 0.  0.
        1    1    3    3  502    0  0.41973619777E+03  0.61392003939E+03 -0.13065059376E+04  0.15033409645E+04  0.50400001928E-02 0.  1.
       -1    1    3    3    0  502 -0.41973619777E+03 -0.61392003939E+03  0.24304658687E+03  0.78239883301E+03  0.50400001928E-02 0. -1.
</event>
<event>
 5   0  0.1210633E-04  0.1993948E+04  0.7818609E-02  0.8609455E-01
       -1   -1    0    0    0  501  0.00000000000E+00  0.00000000000E+00  0.61753721671E+03  0.61753721673E+03  0.50400001928E-02 0. -1.
        1   -1    0    0  501    0  0.00000000000E+00  0.00000000000E+00 -0.16095501984E+04  0.16095501984E+04  0.50400001928E-02 0.  1.
    10030    2    1    2    0    0  0.00000000000E+00  0.00000000000E+00 -0.99201298169E+03  0.22270874152E+04  0.19939479930E+04 0.  0.
        2    1    3    3  502    0  0.82561717763E+03 -0.19660816485E+03 -0.10802959229E+04  0.13738041256E+04  0.25500000920E-02 0.  1.
       -2    1    3    3    0  502 -0.82561717763E+03  0.19660816485E+03  0.88282941225E+02  0.85328328953E+03  0.25500000920E-02 0. -1.
</event>
<event>
 5   0  0.2596061E-04  0.2031515E+04  0.7818609E-02  0.8592026E-01
       -2   -1    0    0    0  501  0.00000000000E+00  0.00000000000E+00  0.60430402519E+03  0.60430402520E+03  0.25500000920E-02 0.  1.
        2   -1    0    0  501    0  0.00000000000E+00  0.00000000000E+00 -0.17073584216E+04  0.17073584216E+04  0.25500000920E-02 0. -1.
    10030    2    1    2    0    0  0.00000000000E+00  0.00000000000E+00 -0.11030543964E+04  0.23116624468E+04  0.20315152636E+04 0.  0.
        5    1    3    3  502    0 -0.26473042555E+02 -0.57581226627E+03 -0.15032100737E+04  0.16099450934E+04  0.46999998093E+01 0. -1.
       -5    1    3    3    0  502  0.26473042555E+02  0.57581226627E+03  0.40015567733E+03  0.70171735340E+03  0.46999998093E+01 0.  1.
</event>
<event>
 5   0  0.2540506E-04  0.1939862E+04  0.7818609E-02  0.8635265E-01
       -2   -1    0    0    0  501  0.00000000000E+00  0.00000000000E+00  0.12152943792E+04  0.12152943792E+04  0.25500000920E-02 0.  1.
        2   -1    0    0  501    0  0.00000000000E+00  0.00000000000E+00 -0.77410519178E+03  0.77410519178E+03  0.25500000920E-02 0. -1.
    10030    2    1    2    0    0  0.00000000000E+00  0.00000000000E+00  0.44118918739E+03  0.19893995710E+04  0.19398615296E+04 0.  0.
        4    1    3    3  502    0 -0.14383706037E+03 -0.41305111747E+03  0.11084180306E+04  0.11915924090E+04  0.12699999809E+01 0.  1.
       -4    1    3    3    0  502  0.14383706037E+03  0.41305111747E+03 -0.66722884324E+03  0.79780716199E+03  0.12699999809E+01 0. -1.
</event>
<event>
 5   0  0.1210633E-04  0.1942806E+04  0.7818609E-02  0.8633838E-01
        1   -1    0    0  501    0  0.00000000000E+00  0.00000000000E+00  0.13226538373E+04  0.13226538373E+04  0.50400001928E-02 0.  1.
       -1   -1    0    0    0  501  0.00000000000E+00  0.00000000000E+00 -0.71343233048E+03  0.71343233050E+03  0.50400001928E-02 0. -1.
    10030    2    1    2    0    0  0.00000000000E+00  0.00000000000E+00  0.60922150677E+03  0.20360861678E+04  0.19428062277E+04 0.  0.
        2    1    3    3  502    0 -0.10000175087E+03  0.46201611470E+03 -0.58475950577E+03  0.75193278956E+03  0.25500000920E-02 0. -1.
       -2    1    3    3    0  502  0.10000175087E+03 -0.46201611470E+03  0.11939810125E+04  0.12841533782E+04  0.25500000920E-02 0.  1.
</event>
<event>
 5   0  0.1231056E-04  0.1608183E+04  0.7818609E-02  0.8815536E-01
        1   -1    0    0  501    0  0.00000000000E+00  0.00000000000E+00  0.94569634879E+03  0.94569634880E+03  0.50400001928E-02 0. -1.
       -1   -1    0    0    0  501  0.00000000000E+00  0.00000000000E+00 -0.68369033886E+03  0.68369033888E+03  0.50400001928E-02 0.  1.
    10030    2    1    2    0    0  0.00000000000E+00  0.00000000000E+00  0.26200600993E+03  0.16293866877E+04  0.16081833940E+04 0.  0.
        3    1    3    3  502    0  0.17791075429E+02 -0.77036807790E+03  0.36377089734E+03  0.85212251101E+03  0.10100000352E+00 0. -1.
       -3    1    3    3    0  502 -0.17791075429E+02  0.77036807790E+03 -0.10176488741E+03  0.77726417667E+03  0.10100000352E+00 0.  1.
</event>
<event>
 5   0  0.1210633E-04  0.1983870E+04  0.7818609E-02  0.8614199E-01
       -1   -1    0    0    0  501  0.00000000000E+00  0.00000000000E+00  0.38383176643E+03  0.38383176647E+03  0.50400001928E-02 0.  1.
        1   -1    0    0  501    0  0.00000000000E+00  0.00000000000E+00 -0.25634535579E+04  0.25634535579E+04  0.50400001928E-02 0. -1.
    10030    2    1    2    0    0  0.00000000000E+00  0.00000000000E+00 -0.21796217914E+04  0.29472853243E+04  0.19838698620E+04 0.  0.
        2    1    3    3  502    0  0.13451522781E+03  0.61131925175E+03  0.53376137314E+02  0.62821539787E+03  0.25500000920E-02 0.  1.
       -2    1    3    3    0  502 -0.13451522781E+03 -0.61131925175E+03 -0.22329979287E+04  0.23190699265E+04  0.25500000920E-02 0. -1.
</event>
<event>
 5   0  0.2488886E-04  0.2014630E+04  0.7818609E-02  0.8599811E-01
        2   -1    0    0  501    0  0.00000000000E+00  0.00000000000E+00  0.64304137496E+03  0.64304137496E+03  0.25500000920E-02 0. -1.
       -2   -1    0    0    0  501  0.00000000000E+00  0.00000000000E+00 -0.15779450225E+04  0.15779450225E+04  0.25500000920E-02 0.  1.
    10030    2    1    2    0    0  0.00000000000E+00  0.00000000000E+00 -0.93490364756E+03  0.22209863975E+04  0.20146304246E+04 0.  0.
        3    1    3    3  502    0 -0.84746933073E+03 -0.20337358810E+03  0.89377091503E+02  0.87610122563E+03  0.10100000352E+00 0. -1.
       -3    1    3    3    0  502  0.84746933073E+03  0.20337358810E+03 -0.10242807391E+04  0.13448851719E+04  0.10100000352E+00 0.  1.
</event>
<event>
 5   0  0.9099125E-05  0.2146426E+04  0.7818609E-02  0.8541064E-01
       -3   -1    0    0    0  501  0.00000000000E+00  0.00000000000E+00  0.92089054316E+03  0.92089054870E+03  0.10100000352E+00 0.  1.
        3   -1    0    0  501    0  0.00000000000E+00  0.00000000000E+00 -0.12507307488E+04  0.12507307529E+04  0.10100000352E+00 0. -1.
    10030    2    1    2    0    0  0.00000000000E+00  0.00000000000E+00 -0.32984020563E+03  0.21716213016E+04  0.21464259866E+04 0.  0.
        2    1    3    3  502    0 -0.27885770569E+03  0.93902252121E+03  0.27870285702E+03  0.10184302617E+04  0.25500000920E-02 0.  1.
       -2    1    3    3    0  502  0.27885770569E+03 -0.93902252121E+03 -0.60854306265E+03  0.11531910399E+04  0.25500000920E-02 0. -1.
</event>
<event>
 5   0  0.1258546E-04  0.1963239E+04  0.7818609E-02  0.8624003E-01
       -1   -1    0    0    0  501  0.00000000000E+00  0.00000000000E+00  0.59931935209E+03  0.59931935211E+03  0.50400001928E-02 0.  1.
        1   -1    0    0  501    0  0.00000000000E+00  0.00000000000E+00 -0.16077847891E+04  0.16077847891E+04  0.50400001928E-02 0. -1.
    10030    2    1    2    0    0  0.00000000000E+00  0.00000000000E+00 -0.10084654370E+04  0.22071041412E+04  0.19632386897E+04 0.  0.
        4    1    3    3  502    0 -0.38420619850E+03  0.62992015239E+03 -0.12320799251E+04  0.14361185035E+04  0.12699999809E+01 0. -1.
       -4    1    3    3    0  502  0.38420619850E+03 -0.62992015239E+03  0.22361448810E+03  0.77098563770E+03  0.12699999809E+01 0.  1.
</event>
<event>
 5   0  0.1231056E-04  0.1996034E+04  0.7818609E-02  0.8608477E-01
       -1   -1    0    0    0  501  0.00000000000E+00  0.00000000000E+00  0.10391756069E+04  0.10391756069E+04  0.50400001928E-02 0.  1.
        1   -1    0    0  501    0  0.00000000000E+00  0.00000000000E+00 -0.95848866959E+03  0.95848866960E+03  0.50400001928E-02 0. -1.
    10030    2    1    2    0    0  0.00000000000E+00  0.00000000000E+00  0.80686937334E+02  0.19976642765E+04  0.19960341129E+04 0.  0.
        3    1    3    3  502    0 -0.27685736041E+03 -0.88235685733E+03  0.41592907317E+03  0.10140022810E+04  0.10100000352E+00 0.  1.
       -3    1    3    3    0  502  0.27685736041E+03  0.88235685733E+03 -0.33524213584E+03  0.98366199557E+03  0.10100000352E+00 0. -1.
</event>
<event>
 5   0  0.2421737E-04  0.2015217E+04  0.7818609E-02  0.8599539E-01
        2   -1    0    0  501    0  0.00000000000E+00  0.00000000000E+00  0.15897479123E+04  0.15897479123E+04  0.25500000920E-02 0.  1.
       -2   -1    0    0    0  501  0.00000000000E+00  0.00000000000E+00 -0.63863904371E+03  0.63863904371E+03  0.25500000920E-02 0. -1.
    10030    2    1    2    0    0  0.00000000000E+00  0.00000000000E+00  0.95110886861E+03  0.22283869560E+04  0.20152171957E+04 0.  0.
        1    1    3    3  502    0  0.25836166783E+03  0.48707161654E+03  0.14081444209E+04  0.15122368271E+04  0.50400001928E-02 0.  1.
       -1    1    3    3    0  502 -0.25836166783E+03 -0.48707161654E+03 -0.45703555232E+03  0.71615012892E+03  0.50400001928E-02 0. -1.
</event>
<event>
 5   0  0.1207228E-04  0.2004612E+04  0.7818609E-02  0.8604467E-01
        1   -1    0    0  501    0  0.00000000000E+00  0.00000000000E+00  0.83262834987E+03  0.83262834988E+03  0.50400001928E-02 0.  1.
       -1   -1    0    0    0  501  0.00000000000E+00  0.00000000000E+00 -0.12065614960E+04  0.12065614960E+04  0.50400001928E-02 0. -1.
    10030    2    1    2    0    0  0.00000000000E+00  0.00000000000E+00 -0.37393314616E+03  0.20391898459E+04  0.20046119899E+04 0.  0.
        1    1    3    3  502    0 -0.21139929347E+03  0.94459243524E+03  0.77660538839E+02  0.97106935350E+03  0.50400001928E-02 0.  1.
       -1    1    3    3    0  502  0.21139929347E+03 -0.94459243524E+03 -0.45159368500E+03  0.10681204924E+04  0.50400001928E-02 0. -1.
</event>
<event>
 5   0  0.2488886E-04  0.2017211E+04  0.7818609E-02  0.8598616E-01
        2   -1    0    0  501    0  0.00000000000E+00  0.00000000000E+00  0.15282548235E+04  0.15282548236E+04  0.25500000920E-02 0.  1.
       -2   -1    0    0    0  501  0.00000000000E+00  0.00000000000E+00 -0.66565122868E+03  0.66565122868E+03  0.25500000920E-02 0. -1.
    10030    2    1    2    0    0  0.00000000000E+00  0.00000000000E+00  0.86260359487E+03  0.21939060522E+04  0.20172106494E+04 0.  0.
        3    1    3    3  502    0 -0.89302957155E+02  0.99817066206E+03  0.55513955213E+03  0.11456437585E+04  0.10100000352E+00 0.  1.
       -3    1    3    3    0  502  0.89302957155E+02 -0.99817066206E+03  0.30746404274E+03  0.10482622938E+04  0.10100000352E+00 0. -1.
</event>
<event>
 5   0  0.2488886E-04  0.2004585E+04  0.7818609E-02  0.8604480E-01
       -2   -1    0    0    0  501  0.00000000000E+00  0.00000000000E+00  0.84925515449E+03  0.84925515449E+03  0.25500000920E-02 0.  1.
        2   -1    0    0  501    0  0.00000000000E+00  0.00000000000E+00 -0.11829079392E+04  0.11829079392E+04  0.25500000920E-02 0. -1.
    10030    2    1    2    0    0  0.00000000000E+00  0.00000000000E+00 -0.33365278470E+03  0.20321630937E+04  0.20045854082E+04 0.  0.
        3    1    3    3  502    0 -0.70498628709E+03 -0.46266414118E+03 -0.71606105199E+03  0.11062582035E+04  0.10100000352E+00 0. -1.
       -3    1    3    3    0  502  0.70498628709E+03  0.46266414118E+03  0.38240826729E+03  0.92590489015E+03  0.10100000352E+00 0.  1.
</event>
<event>
 5   0  0.2540506E-04  0.1956363E+04  0.7818609E-02  0.8627299E-01
        2   -1    0    0  501    0  0.00000000000E+00  0.00000000000E+00  0.22149859239E+04  0.22149859239E+04  0.25500000920E-02 0. -1.
       -2   -1    0    0    0  501  0.00000000000E+00  0.00000000000E+00 -0.43198430540E+03  0.43198430540E+03  0.25500000920E-02 0.  1.
    10030    2    1    2    0    0  0.00000000000E+00  0.00000000000E+00  0.17830016185E+04  0.26469702293E+04  0.19563631113E+04 0.  0.
        4    1    3    3  502    0 -0.33524270047E+03  0.52120215646E+03  0.19155018753E+04  0.20132531891E+04  0.12699999809E+01 0. -1.
       -4    1    3    3    0  502  0.33524270047E+03 -0.52120215646E+03 -0.13250025681E+03  0.63371704023E+03  0.12699999809E+01 0.  1.
</event>
<event>
 5   0  0.1231056E-04  0.2013365E+04  0.7818609E-02  0.8600397E-01
        1   -1    0    0  501    0  0.00000000000E+00  0.00000000000E+00  0.92439593177E+03  0.92439593179E+03  0.50400001928E-02 0. -1.
       -1   -1    0    0    0  501  0.00000000000E+00  0.00000000000E+00 -0.10962941860E+04  0.10962941860E+04  0.50400001928E-02 0.  1.
    10030    2    1    2    0    0  0.00000000000E+00  0.00000000000E+00 -0.17189825424E+03  0.20206901178E+04  0.20133652283E+04 0.  0.
        3    1    3    3  502    0  0.36884206437E+03 -0.69425783626E+01  0.85411066475E+03  0.93037503496E+03  0.10100000352E+00 0. -1.
       -3    1    3    3    0  502 -0.36884206437E+03  0.69425783626E+01 -0.10260089190E+04  0.10903150829E+04  0.10100000352E+00 0.  1.
</event>
<event>
 5   0  0.2540506E-04  0.1949966E+04  0.7818609E-02  0.8630377E-01
        2   -1    0    0  501    0  0.00000000000E+00  0.00000000000E+00  0.20351981358E+04  0.20351981358E+04  0.25500000920E-02 0.  1.
       -2   -1    0    0    0  501  0.00000000000E+00  0.00000000000E+00 -0.46707581865E+03  0.46707581866E+03  0.25500000920E-02 0. -1.
    10030    2    1    2    0    0  0.00000000000E+00  0.00000000000E+00  0.15681223171E+04  0.25022739544E+04  0.19499659847E+04 0.  0.
        4    1    3    3  502    0 -0.27767962152E+03  0.49213504307E+03  0.18036412886E+04  0.18900863430E+04  0.12699999809E+01 0.  1.
       -4    1    3    3    0  502  0.27767962152E+03 -0.49213504307E+03 -0.23551897150E+03  0.61218761149E+03  0.12699999809E+01 0. -1.
</event>
<event>
 5   0  0.1324930E-04  0.1998972E+04  0.7818609E-02  0.8607101E-01
       -1   -1    0    0    0  501  0.00000000000E+00  0.00000000000E+00  0.69522752746E+03  0.69522752748E+03  0.50400001928E-02 0.  1.
        1   -1    0    0  501    0  0.00000000000E+00  0.00000000000E+00 -0.14368997461E+04  0.14368997462E+04  0.50400001928E-02 0. -1.
    10030    2    1    2    0    0  0.00000000000E+00  0.00000000000E+00 -0.74167221868E+03  0.21321272736E+04  0.19989719936E+04 0.  0.
        5    1    3    3  502    0  0.74364844479E+03 -0.36621168898E+03 -0.96644707850E+03  0.12732501938E+04  0.46999998093E+01 0. -1.
       -5    1    3    3    0  502 -0.74364844479E+03  0.36621168898E+03  0.22477485982E+03  0.85887707979E+03  0.46999998093E+01 0.  1.
</event>
<event>
 5   0  0.2421737E-04  0.2013448E+04  0.7818609E-02  0.8600359E-01
       -2   -1    0    0    0  501  0.00000000000E+00  0.00000000000E+00  0.71029593842E+03  0.71029593842E+03  0.25500000920E-02 0. -1.
        2   -1    0    0  501    0  0.00000000000E+00  0.00000000000E+00 -0.14268600884E+04  0.14268600884E+04  0.25500000920E-02 0.  1.
    10030    2    1    2    0    0  0.00000000000E+00  0.00000000000E+00 -0.71656414997E+03  0.21371560268E+04  0.20134477152E+04 0.  0.
        1    1    3    3  502    0  0.11911788911E+03  0.97706356121E+03 -0.13399214656E+03  0.99337614705E+03  0.50400001928E-02 0. -1.
       -1    1    3    3    0  502 -0.11911788911E+03 -0.97706356121E+03 -0.58257200340E+03  0.11437798798E+04  0.50400001928E-02 0.  1.
</event>
<event>
 5   0  0.1210633E-04  0.1953549E+04  0.7818609E-02  0.8628651E-01
        1   -1    0    0  501    0  0.00000000000E+00  0.00000000000E+00  0.13088510804E+04  0.13088510804E+04  0.50400001928E-02 0. -1.
       -1   -1    0    0    0  501  0.00000000000E+00  0.00000000000E+00 -0.72895103642E+03  0.72895103644E+03  0.50400001928E-02 0.  1.
    10030    2    1    2    0    0  0.00000000000E+00  0.00000000000E+00  0.57990004395E+03  0.20378021168E+04  0.19535489260E+04 0.  0.
        2    1    3    3  502    0  0.26460654280E+03 -0.71828149564E+03  0.92286626154E+03  0.11990108699E+04  0.25500000920E-02 0. -1.
       -2    1    3    3    0  502 -0.26460654280E+03  0.71828149564E+03 -0.34296621759E+03  0.83879124691E+03  0.25500000920E-02 0.  1.
</event>
<event>
 5   0  0.2596061E-04  0.2002874E+04  0.7818609E-02  0.8605278E-01
       -2   -1    0    0    0  501  0.00000000000E+00  0.00000000000E+00  0.85401067462E+03  0.85401067463E+03  0.25500000920E-02 0. -1.
        2   -1    0    0  501    0  0.00000000000E+00  0.00000000000E+00 -0.11743130503E+04  0.11743130503E+04  0.25500000920E-02 0.  1.
    10030    2    1    2    0    0  0.00000000000E+00  0.00000000000E+00 -0.32030237566E+03  0.20283237249E+04  0.20028738156E+04 0.  0.
        5    1    3    3  502    0 -0.40935221270E+03  0.14180146524E+03 -0.10744951767E+04  0.11585503288E+04  0.46999998093E+01 0.  1.
       -5    1    3    3    0  502  0.40935221270E+03 -0.14180146524E+03  0.75419280100E+03  0.86977339616E+03  0.46999998093E+01 0. -1.
</event>
<event>
 5   0  0.1231056E-04  0.1974318E+04  0.7818609E-02  0.8618723E-01
       -1   -1    0    0    0  501  0.00000000000E+00  0.00000000000E+00  0.44914762554E+03  0.44914762556E+03  0.50400001928E-02 0.  1.
        1   -1    0    0  501    0  0.00000000000E+00  0.00000000000E+00 -0.21696262570E+04  0.21696262570E+04  0.50400001928E-02 0. -1.
    10030    2    1    2    0    0  0.00000000000E+00  0.00000000000E+00 -0.17204786315E+04  0.26187738826E+04  0.19743175851E+04 0.  0.
        3    1    3    3  502    0 -0.91751556519E+03  0.19837627173E+03 -0.12653829695E+04  0.15755576877E+04  0.10100000352E+00 0.  1.
       -3    1    3    3    0  502  0.91751556519E+03 -0.19837627173E+03 -0.45509566199E+03  0.10432161949E+04  0.10100000352E+00 0. -1.
</event>
<event>
 5   0  0.1231056E-04  0.1992616E+04  0.7818609E-02  0.8610081E-01
       -1   -1    0    0    0  501  0.00000000000E+00  0.00000000000E+00  0.69222902111E+03  0.69222902113E+03  0.50400001928E-02 0.  1.
        1   -1    0    0  501    0  0.00000000000E+00  0.00000000000E+00 -0.14339611235E+04  0.14339611235E+04  0.50400001928E-02 0. -1.
    10030    2    1    2    0    0  0.00000000000E+00  0.00000000000E+00 -0.74173210241E+03  0.21261901447E+04  0.19926158735E+04 0.  0.
        3    1    3    3  502    0  0.18433369483E+03  0.84015743438E+03 -0.90734796254E+03  0.12502494795E+04  0.10100000352E+00 0. -1.
       -3    1    3    3    0  502 -0.18433369483E+03 -0.84015743438E+03  0.16561586013E+03  0.87594066518E+03  0.10100000352E+00 0.  1.
</event>
<event>
 5   0  0.9099125E-05  0.1765472E+04  0.7818609E-02  0.8724879E-01
        3   -1    0    0  501    0  0.00000000000E+00  0.00000000000E+00  0.14243649064E+04  0.14243649100E+04  0.10100000352E+00 0. -1.
       -3   -1    0    0    0  501  0.00000000000E+00  0.00000000000E+00 -0.54706710007E+03  0.54706710939E+03  0.10100000352E+00 0.  1.
    10030    2    1    2    0    0  0.00000000000E+00  0.00000000000E+00  0.87729780636E+03  0.19714320194E+04  0.17654723918E+04 0.  0.
        3    1    3    3  502    0  0.56154421672E+03 -0.68107466059E+03  0.43267913879E+03  0.98305943257E+03  0.10100000352E+00 0. -1.
       -3    1    3    3    0  502 -0.56154421672E+03  0.68107466059E+03  0.44461866757E+03  0.98837258682E+03  0.10100000352E+00 0.  1.
</event>
<event>
 5   0  0.1207228E-04  0.2006983E+04  0.7818609E-02  0.8603363E-01
        1   -1    0    0  501    0  0.00000000000E+00  0.00000000000E+00  0.14489876469E+04  0.14489876470E+04  0.50400001928E-02 0. -1.
       -1   -1    0    0    0  501  0.00000000000E+00  0.00000000000E+00 -0.69496451290E+03  0.69496451292E+03  0.50400001928E-02 0.  1.
    10030    2    1    2    0    0  0.00000000000E+00  0.00000000000E+00  0.75402313404E+03  0.21439521599E+04  0.20069828044E+04 0.  0.
        1    1    3    3  502    0  0.18159218378E+03 -0.93310527458E+03  0.72040554928E+03  0.11927469682E+04  0.50400001928E-02 0. -1.
       -1    1    3    3    0  502 -0.18159218378E+03  0.93310527458E+03  0.33617584761E+02  0.95120519168E+03  0.50400001928E-02 0.  1.
</event>
<event>
 5   0  0.1210633E-04  0.1956091E+04  0.7818609E-02  0.8627429E-01
       -1   -1    0    0    0  501  0.00000000000E+00  0.00000000000E+00  0.42144634990E+03  0.42144634993E+03  0.50400001928E-02 0.  1.
        1   -1    0    0  501    0  0.00000000000E+00  0.00000000000E+00 -0.22697381373E+04  0.22697381373E+04  0.50400001928E-02 0. -1.
    10030    2    1    2    0    0  0.00000000000E+00  0.00000000000E+00 -0.18482917874E+04  0.26911844872E+04  0.19560908499E+04 0.  0.
        2    1    3    3  502    0 -0.81800160710E+03  0.11758803107E+03 -0.16438066091E+04  0.18398515544E+04  0.25500000920E-02 0. -1.
       -2    1    3    3    0  502  0.81800160710E+03 -0.11758803107E+03 -0.20448517827E+03  0.85133293276E+03  0.25500000920E-02 0.  1.
</event>
<event>
 5   0  0.1324930E-04  0.1991537E+04  0.7818609E-02  0.8610587E-01
       -1   -1    0    0    0  501  0.00000000000E+00  0.00000000000E+00  0.58965842091E+03  0.58965842093E+03  0.50400001928E-02 0.  1.
        1   -1    0    0  501    0  0.00000000000E+00  0.00000000000E+00 -0.16815757695E+04  0.16815757695E+04  0.50400001928E-02 0. -1.
    10030    2    1    2    0    0  0.00000000000E+00  0.00000000000E+00 -0.10919173486E+04  0.22712341904E+04  0.19915374090E+04 0.  0.
        5    1    3    3  502    0  0.72134740517E+01  0.64423319736E+03 -0.14118278963E+04  0.15518919246E+04  0.46999998093E+01 0. -1.
       -5    1    3    3    0  502 -0.72134740517E+01 -0.64423319736E+03  0.31991054779E+03  0.71934226580E+03  0.46999998093E+01 0.  1.
</event>
<event>
 5   0  0.2596061E-04  0.2017263E+04  0.7818609E-02  0.8598592E-01
        2   -1    0    0  501    0  0.00000000000E+00  0.00000000000E+00  0.10533189619E+04  0.10533189619E+04  0.25500000920E-02 0. -1.
       -2   -1    0    0    0  501  0.00000000000E+00  0.00000000000E+00 -0.96583995199E+03  0.96583995199E+03  0.25500000920E-02 0.  1.
    10030    2    1    2    0    0  0.00000000000E+00  0.00000000000E+00  0.87479009935E+02  0.20191589139E+04  0.20172630325E+04 0.  0.
        5    1    3    3  502    0  0.98146776580E+03  0.11741318450E+03 -0.15707460638E+03  0.10008792900E+04  0.46999998093E+01 0. -1.
       -5    1    3    3    0  502 -0.98146776580E+03 -0.11741318450E+03  0.24455361632E+03  0.10182796239E+04  0.46999998093E+01 0.  1.
</event>
<event>
 5   0  0.9099125E-05  0.1808848E+04  0.7818609E-02  0.8701608E-01
        3   -1    0    0  501    0  0.00000000000E+00  0.00000000000E+00  0.12936052439E+04  0.12936052479E+04  0.10100000352E+00 0. -1.
       -3   -1    0    0    0  501  0.00000000000E+00  0.00000000000E+00 -0.63232783062E+03  0.63232783868E+03  0.10100000352E+00 0.  1.
    10030    2    1    2    0    0  0.00000000000E+00  0.00000000000E+00  0.66127741330E+03  0.19259330865E+04  0.18088478202E+04 0.  0.
        2    1    3    3  502    0 -0.36154194198E+03  0.42343355973E+02  0.12121657302E+04  0.12656426404E+04  0.25500000920E-02 0. -1.
       -2    1    3    3    0  502  0.36154194198E+03 -0.42343355973E+02 -0.55088831691E+03  0.66029044618E+03  0.25500000920E-02 0.  1.
</event>
<event>
 5   0  0.2421737E-04  0.1999864E+04  0.7818609E-02  0.8606684E-01
       -2   -1    0    0    0  501  0.00000000000E+00  0.00000000000E+00  0.58031738665E+03  0.58031738666E+03  0.25500000920E-02 0. -1.
        2   -1    0    0  501    0  0.00000000000E+00  0.00000000000E+00 -0.17229607679E+04  0.17229607679E+04  0.25500000920E-02 0.  1.
    10030    2    1    2    0    0  0.00000000000E+00  0.00000000000E+00 -0.11426433812E+04  0.23032781545E+04  0.19998640855E+04 0.  0.
        1    1    3    3  502    0 -0.19401356584E+03 -0.91989815700E+03 -0.17904364001E+03  0.95703213532E+03  0.50400001928E-02 0. -1.
       -1    1    3    3    0  502  0.19401356584E+03  0.91989815700E+03 -0.96359974123E+03  0.13462460192E+04  0.50400001928E-02 0.  1.
</event>
<event>
 5   0  0.1207228E-04  0.1928671E+04  0.7818609E-02  0.8640715E-01
       -1   -1    0    0    0  501  0.00000000000E+00  0.00000000000E+00  0.48032460616E+03  0.48032460619E+03  0.50400001928E-02 0.  1.
        1   -1    0    0  501    0  0.00000000000E+00  0.00000000000E+00 -0.19360728032E+04  0.19360728032E+04  0.50400001928E-02 0. -1.
    10030    2    1    2    0    0  0.00000000000E+00  0.00000000000E+00 -0.14557481970E+04  0.24163974094E+04  0.19286714668E+04 0.  0.
        1    1    3    3  502    0  0.60552009489E+03 -0.41612666157E+03  0.54678153214E+02  0.73675347590E+03  0.50400001928E-02 0.  1.
       -1    1    3    3    0  502 -0.60552009489E+03  0.41612666157E+03 -0.15104263503E+04  0.16796439335E+04  0.50400001928E-02 0. -1.
</event>
<event>
 5   0  0.2540506E-04  0.1907729E+04  0.7818609E-02  0.8651019E-01
        2   -1    0    0  501    0  0.00000000000E+00  0.00000000000E+00  0.16869103892E+04  0.16869103892E+04  0.25500000920E-02 0. -1.
       -2   -1    0    0    0  501  0.00000000000E+00  0.00000000000E+00 -0.53936310221E+03  0.53936310222E+03  0.25500000920E-02 0.  1.
    10030    2    1    2    0    0  0.00000000000E+00  0.00000000000E+00  0.11475472870E+04  0.22262734914E+04  0.19077287236E+04 0.  0.
        4    1    3    3  502    0 -0.10947524377E+03 -0.81744348218E+03  0.14529202186E+02  0.82487052691E+03  0.12699999809E+01 0.  1.
       -4    1    3    3    0  502  0.10947524377E+03  0.81744348218E+03  0.11330180848E+04  0.14014029645E+04  0.12699999809E+01 0. -1.
</event>
<event>
 5   0  0.2488886E-04  0.2069822E+04  0.7818609E-02  0.8574655E-01
       -2   -1    0    0    0  501  0.00000000000E+00  0.00000000000E+00  0.63814581077E+03  0.63814581078E+03  0.25500000920E-02 0. -1.
        2   -1    0    0  501    0  0.00000000000E+00  0.00000000000E+00 -0.16783633537E+04  0.16783633537E+04  0.25500000920E-02 0.  1.
    10030    2    1    2    0    0  0.00000000000E+00  0.00000000000E+00 -0.10402175429E+04  0.23165091645E+04  0.20698217731E+04 0.  0.
        3    1    3    3  502    0  0.21329472290E+03 -0.53598675726E+03 -0.14817364248E+04  0.15900689563E+04  0.10100000352E+00 0.  1.
       -3    1    3    3    0  502 -0.21329472290E+03  0.53598675726E+03  0.44151888193E+03  0.72644020819E+03  0.10100000352E+00 0. -1.
</event>
<event>
 5   0  0.1231056E-04  0.1991089E+04  0.7818609E-02  0.8610798E-01
       -1   -1    0    0    0  501  0.00000000000E+00  0.00000000000E+00  0.36407382606E+03  0.36407382610E+03  0.50400001928E-02 0. -1.
        1   -1    0    0  501    0  0.00000000000E+00  0.00000000000E+00 -0.27222742580E+04  0.27222742580E+04  0.50400001928E-02 0.  1.
    10030    2    1    2    0    0  0.00000000000E+00  0.00000000000E+00 -0.23582004319E+04  0.30863480841E+04  0.19910889531E+04 0.  0.
        3    1    3    3  502    0 -0.62386895685E+03  0.13772236756E+02  0.23293356341E+02  0.62445555525E+03  0.10100000352E+00 0. -1.
       -3    1    3    3    0  502  0.62386895685E+03 -0.13772236756E+02 -0.23814937883E+04  0.24618925288E+04  0.10100000352E+00 0.  1.
</event>
<event>
 5   0  0.1324930E-04  0.1756669E+04  0.7818609E-02  0.8729688E-01
        1   -1    0    0  501    0  0.00000000000E+00  0.00000000000E+00  0.92658152163E+03  0.92658152164E+03  0.50400001928E-02 0.  1.
       -1   -1    0    0    0  501  0.00000000000E+00  0.00000000000E+00 -0.83259984690E+03  0.83259984692E+03  0.50400001928E-02 0. -1.
    10030    2    1    2    0    0  0.00000000000E+00  0.00000000000E+00  0.93981674724E+02  0.17591813686E+04  0.17566691585E+04 0.  0.
        5    1    3    3  502    0 -0.45310982466E+03  0.70835335021E+03 -0.20709738046E+03  0.86601639532E+03  0.46999998093E+01 0.  1.
       -5    1    3    3    0  502  0.45310982466E+03 -0.70835335021E+03  0.30107905519E+03  0.89316497325E+03  0.46999998093E+01 0. -1.
</event>
<event>
 5   0  0.1210633E-04  0.1978941E+04  0.7818609E-02  0.8616530E-01
        1   -1    0    0  501    0  0.00000000000E+00  0.00000000000E+00  0.20002045113E+04  0.20002045113E+04  0.50400001928E-02 0. -1.
       -1   -1    0    0    0  501  0.00000000000E+00  0.00000000000E+00 -0.48947588513E+03  0.48947588515E+03  0.50400001928E-02 0.  1.
    10030    2    1    2    0    0  0.00000000000E+00  0.00000000000E+00  0.15107286261E+04  0.24896803964E+04  0.19789410033E+04 0.  0.
        2    1    3    3  502    0 -0.86031045967E+03  0.12276481335E+02  0.13701135125E+04  0.16178676819E+04  0.25500000920E-02 0.  1.
       -2    1    3    3    0  502  0.86031045967E+03 -0.12276481335E+02  0.14061511364E+03  0.87181271452E+03  0.25500000920E-02 0. -1.
</event>
<event>
 5   0  0.2488886E-04  0.1991163E+04  0.7818609E-02  0.8610763E-01
        2   -1    0    0  501    0  0.00000000000E+00  0.00000000000E+00  0.11714173454E+04  0.11714173454E+04  0.25500000920E-02 0.  1.
       -2   -1    0    0    0  501  0.00000000000E+00  0.00000000000E+00 -0.84613992750E+03  0.84613992750E+03  0.25500000920E-02 0. -1.
    10030    2    1    2    0    0  0.00000000000E+00  0.00000000000E+00  0.32527741791E+03  0.20175572729E+04  0.19911634666E+04 0.  0.
        3    1    3    3  502    0  0.34853710520E+03  0.92654631131E+03  0.26995196773E+03  0.10260800436E+04  0.10100000352E+00 0.  1.
       -3    1    3    3    0  502 -0.34853710520E+03 -0.92654631131E+03  0.55325450171E+02  0.99147722936E+03  0.10100000352E+00 0. -1.
</event>
<event>
 5   0  0.2463085E-04  0.1977483E+04  0.7818609E-02  0.8617221E-01
       -2   -1    0    0    0  501  0.00000000000E+00  0.00000000000E+00  0.40954918426E+03  0.40954918427E+03  0.25500000920E-02 0.  1.
        2   -1    0    0  501    0  0.00000000000E+00  0.00000000000E+00 -0.23870396137E+04  0.23870396137E+04  0.25500000920E-02 0. -1.
    10030    2    1    2    0    0  0.00000000000E+00  0.00000000000E+00 -0.19774904295E+04  0.27965887980E+04  0.19774833770E+04 0.  0.
        2    1    3    3  502    0 -0.68120464840E+03 -0.35754679753E+03 -0.11041496154E+03  0.77722001336E+03  0.25500000920E-02 0.  1.
       -2    1    3    3    0  502  0.68120464840E+03  0.35754679753E+03 -0.18670754679E+04  0.20193687846E+04  0.25500000920E-02 0. -1.
</event>
<event>
 5   0  0.2488886E-04  0.1940642E+04  0.7818609E-02  0.8634887E-01
       -2   -1    0    0    0  501  0.00000000000E+00  0.00000000000E+00  0.11040827928E+04  0.11040827928E+04  0.25500000920E-02 0. -1.
        2   -1    0    0  501    0  0.00000000000E+00  0.00000000000E+00 -0.85276484897E+03  0.85276484897E+03  0.25500000920E-02 0.  1.
    10030    2    1    2    0    0  0.00000000000E+00  0.00000000000E+00  0.25131794387E+03  0.19568476418E+04  0.19406421577E+04 0.  0.
        3    1    3    3  502    0  0.49489321795E+03 -0.29183593492E+03 -0.66281410434E+03  0.87716022322E+03  0.10100000352E+00 0.  1.
       -3    1    3    3    0  502 -0.49489321795E+03  0.29183593492E+03  0.91413204821E+03  0.10796874186E+04  0.10100000352E+00 0. -1.
</event>
<event>
 5   0  0.2463085E-04  0.2028557E+04  0.7818609E-02  0.8593385E-01
        2   -1    0    0  501    0  0.00000000000E+00  0.00000000000E+00  0.22093085608E+04  0.22093085608E+04  0.25500000920E-02 0.  1.
       -2   -1    0    0    0  501  0.00000000000E+00  0.00000000000E+00 -0.46564834793E+03  0.46564834793E+03  0.25500000920E-02 0. -1.
    10030    2    1    2    0    0  0.00000000000E+00  0.00000000000E+00  0.17436602129E+04  0.26749569087E+04  0.20285570058E+04 0.  0.
        2    1    3    3  502    0 -0.60451750756E+03 -0.59256595421E+02  0.19429507803E+04  0.20356842820E+04  0.25500000920E-02 0.  1.
       -2    1    3    3    0  502  0.60451750756E+03  0.59256595421E+02 -0.19929056746E+03  0.63927262676E+03  0.25500000920E-02 0. -1.
</event>
<event>
 5   0  0.2488886E-04  0.1971555E+04  0.7818609E-02  0.8620036E-01
       -2   -1    0    0    0  501  0.00000000000E+00  0.00000000000E+00  0.78076391708E+03  0.78076391709E+03  0.25500000920E-02 0. -1.
        2   -1    0    0  501    0  0.00000000000E+00  0.00000000000E+00 -0.12446237788E+04  0.12446237788E+04  0.25500000920E-02 0.  1.
    10030    2    1    2    0    0  0.00000000000E+00  0.00000000000E+00 -0.46385986174E+03  0.20253876959E+04  0.19715550582E+04 0.  0.
        3    1    3    3  502    0 -0.79339788181E+03  0.33764974438E+03  0.25889144178E+03  0.90028458699E+03  0.10100000352E+00 0. -1.
       -3    1    3    3    0  502  0.79339788181E+03 -0.33764974438E+03 -0.72275130352E+03  0.11251031089E+04  0.10100000352E+00 0.  1.
</event>
<event>
 5   0  0.2596061E-04  0.1952486E+04  0.7818609E-02  0.8629163E-01
        2   -1    0    0  501    0  0.00000000000E+00  0.00000000000E+00  0.12818614049E+04  0.12818614049E+04  0.25500000920E-02 0.  1.
       -2   -1    0    0    0  501  0.00000000000E+00  0.00000000000E+00 -0.74348974898E+03  0.74348974899E+03  0.25500000920E-02 0. -1.
    10030    2    1    2    0    0  0.00000000000E+00  0.00000000000E+00  0.53837165596E+03  0.20253511539E+04  0.19524864293E+04 0.  0.
        5    1    3    3  502    0 -0.22028494633E+03 -0.42587264289E+03 -0.61292311807E+03  0.77819650745E+03  0.46999998093E+01 0. -1.
       -5    1    3    3    0  502  0.22028494633E+03  0.42587264289E+03  0.11512947740E+04  0.12471546465E+04  0.46999998093E+01 0.  1.
</event>
<event>
 5   0  0.2540506E-04  0.1551970E+04  0.7818609E-02  0.8850610E-01
        2   -1    0    0  501    0  0.00000000000E+00  0.00000000000E+00  0.14939432028E+04  0.14939432028E+04  0.25500000920E-02 0.  1.
       -2   -1    0    0    0  501  0.00000000000E+00  0.00000000000E+00 -0.40306283547E+03  0.40306283548E+03  0.25500000920E-02 0. -1.
    10030    2    1    2    0    0  0.00000000000E+00  0.00000000000E+00  0.10908803673E+04  0.18970060383E+04  0.15519703391E+04 0.  0.
        4    1    3    3  502    0 -0.16603306083E+03  0.75720147942E+02  0.14673416442E+04  0.14786458777E+04  0.12699999809E+01 0.  1.
       -4    1    3    3    0  502  0.16603306083E+03 -0.75720147942E+02 -0.37646127683E+03  0.41836016056E+03  0.12699999809E+01 0. -1.
</event>
<event>
 5   0  0.2540506E-04  0.1931480E+04  0.7818609E-02  0.8639344E-01
       -2   -1    0    0    0  501  0.00000000000E+00  0.00000000000E+00  0.47387915639E+03  0.47387915639E+03  0.25500000920E-02 0. -1.
        2   -1    0    0  501    0  0.00000000000E+00  0.00000000000E+00 -0.19681249248E+04  0.19681249248E+04  0.25500000920E-02 0.  1.
    10030    2    1    2    0    0  0.00000000000E+00  0.00000000000E+00 -0.14942457684E+04  0.24420040812E+04  0.19314796183E+04 0.  0.
        4    1    3    3  502    0  0.50930648097E+03 -0.59232907538E+03 -0.14650115559E+04  0.16602732597E+04  0.12699999809E+01 0.  1.
       -4    1    3    3    0  502 -0.50930648097E+03  0.59232907538E+03 -0.29234212470E+02  0.78173082144E+03  0.12699999809E+01 0. -1.
</event>
<event>
 5   0  0.1207228E-04  0.1964426E+04  0.7818609E-02  0.8623436E-01
       -1   -1    0    0    0  501  0.00000000000E+00  0.00000000000E+00  0.83696242207E+03  0.83696242209E+03  0.50400001928E-02 0. -1.
        1   -1    0    0  501    0  0.00000000000E+00  0.00000000000E+00 -0.11526708764E+04  0.11526708764E+04  0.50400001928E-02 0.  1.
    10030    2    1    2    0    0  0.00000000000E+00  0.00000000000E+00 -0.31570845436E+03  0.19896332985E+04  0.19644258282E+04 0.  0.
        1    1    3    3  502    0  0.43399178628E+03 -0.26329331849E+03 -0.10095188360E+04  0.11299559825E+04  0.50400001928E-02 0.  1.
       -1    1    3    3    0  502 -0.43399178628E+03  0.26329331849E+03  0.69381038160E+03  0.85967731607E+03  0.50400001928E-02 0. -1.
</event>
<event>
 5   0  0.2463085E-04  0.1997596E+04  0.7818609E-02  0.8607745E-01
        2   -1    0    0  501    0  0.00000000000E+00  0.00000000000E+00  0.15011363420E+04  0.15011363420E+04  0.25500000920E-02 0.  1.
       -2   -1    0    0    0  501  0.00000000000E+00  0.00000000000E+00 -0.66456147966E+03  0.66456147967E+03  0.25500000920E-02 0. -1.
    10030    2    1    2    0    0  0.00000000000E+00  0.00000000000E+00  0.83657486235E+03  0.21656978217E+04  0.19975959438E+04 0.  0.
        2    1    3    3  502    0  0.63074386873E+03  0.14839548237E+03 -0.40576682612E+03  0.76452976679E+03  0.25500000920E-02 0. -1.
       -2    1    3    3    0  502 -0.63074386873E+03 -0.14839548237E+03  0.12423416885E+04  0.14011680549E+04  0.25500000920E-02 0.  1.
</event>
<event>
 5   0  0.1324930E-04  0.2015712E+04  0.7818609E-02  0.8599310E-01
        1   -1    0    0  501    0  0.00000000000E+00  0.00000000000E+00  0.18600691691E+04  0.18600691691E+04  0.50400001928E-02 0.  1.
       -1   -1    0    0    0  501  0.00000000000E+00  0.00000000000E+00 -0.54609483262E+03  0.54609483265E+03  0.50400001928E-02 0. -1.
    10030    2    1    2    0    0  0.00000000000E+00  0.00000000000E+00  0.13139743365E+04  0.24061640018E+04  0.20157124414E+04 0.  0.
        5    1    3    3  502    0  0.17760560587E+03 -0.71221413639E+03 -0.16741159113E+03  0.75288874221E+03  0.46999998093E+01 0. -1.
       -5    1    3    3    0  502 -0.17760560587E+03  0.71221413639E+03  0.14813859276E+04  0.16532752596E+04  0.46999998093E+01 0.  1.
</event>
<event>
 5   0  0.1258546E-04  0.1996246E+04  0.7818609E-02  0.8608378E-01
        1   -1    0    0  501    0  0.00000000000E+00  0.00000000000E+00  0.24233489126E+04  0.24233489126E+04  0.50400001928E-02 0. -1.
       -1   -1    0    0    0  501  0.00000000000E+00  0.00000000000E+00 -0.41110434610E+03  0.41110434613E+03  0.50400001928E-02 0.  1.
    10030    2    1    2    0    0  0.00000000000E+00  0.00000000000E+00  0.20122445665E+04  0.28344532587E+04  0.19962457465E+04 0.  0.
        4    1    3    3  502    0  0.44098287864E+03  0.85211308418E+03  0.13967475635E+04  0.16945406388E+04  0.12699999809E+01 0. -1.
       -4    1    3    3    0  502 -0.44098287864E+03 -0.85211308418E+03  0.61549700299E+03  0.11399126199E+04  0.12699999809E+01 0.  1.
</event>
<event>
 5   0  0.1324930E-04  0.2039917E+04  0.7818609E-02  0.8588182E-01
       -1   -1    0    0    0  501  0.00000000000E+00  0.00000000000E+00  0.59077575497E+03  0.59077575499E+03  0.50400001928E-02 0. -1.
        1   -1    0    0  501    0  0.00000000000E+00  0.00000000000E+00 -0.17609308388E+04  0.17609308388E+04  0.50400001928E-02 0.  1.
    10030    2    1    2    0    0  0.00000000000E+00  0.00000000000E+00 -0.11701550838E+04  0.23517065937E+04  0.20399169059E+04 0.  0.
        5    1    3    3  502    0 -0.78151036710E+02  0.24576111939E+03 -0.17227117839E+04  0.17419139165E+04  0.46999998093E+01 0.  1.
       -5    1    3    3    0  502  0.78151036710E+02 -0.24576111939E+03  0.55255670010E+03  0.60979267720E+03  0.46999998093E+01 0. -1.
</event>
<event>
 5   0  0.2421737E-04  0.2070649E+04  0.7818609E-02  0.8574284E-01
       -2   -1    0    0    0  501  0.00000000000E+00  0.00000000000E+00  0.59208356566E+03  0.59208356567E+03  0.25500000920E-02 0.  1.
        2   -1    0    0  501    0  0.00000000000E+00  0.00000000000E+00 -0.18103812163E+04  0.18103812163E+04  0.25500000920E-02 0. -1.
    10030    2    1    2    0    0  0.00000000000E+00  0.00000000000E+00 -0.12182976507E+04  0.24024647820E+04  0.20706491405E+04 0.  0.
        1    1    3    3  502    0 -0.15148571278E+03 -0.92058123164E+03 -0.88355192288E+02  0.93713625757E+03  0.50400001928E-02 0.  1.
       -1    1    3    3    0  502  0.15148571278E+03  0.92058123164E+03 -0.11299424584E+04  0.14653285244E+04  0.50400001928E-02 0. -1.
</event>
<event>
 5   0  0.2488886E-04  0.2103055E+04  0.7818609E-02  0.8559899E-01
        2   -1    0    0  501    0  0.00000000000E+00  0.00000000000E+00  0.15939355309E+04  0.15939355309E+04  0.25500000920E-02 0.  1.
       -2   -1    0    0    0  501  0.00000000000E+00  0.00000000000E+00 -0.69369787211E+03  0.69369787211E+03  0.25500000920E-02 0. -1.
    10030    2    1    2    0    0  0.00000000000E+00  0.00000000000E+00  0.90023765876E+03  0.22876334030E+04  0.21030546223E+04 0.  0.
        3    1    3    3  502    0  0.40651450800E+03 -0.63470111561E+03 -0.34745261430E+03  0.82995354132E+03  0.10100000352E+00 0. -1.
       -3    1    3    3    0  502 -0.40651450800E+03  0.63470111561E+03  0.12476902731E+04  0.14576798617E+04  0.10100000352E+00 0.  1.
</event>
<event>
 5   0  0.2596061E-04  0.2034238E+04  0.7818609E-02  0.8590779E-01
       -2   -1    0    0    0  501  0.00000000000E+00  0.00000000000E+00  0.15415732501E+04  0.15415732501E+04  0.25500000920E-02 0.  1.
        2   -1    0    0  501    0  0.00000000000E+00  0.00000000000E+00 -0.67108764103E+03  0.67108764104E+03  0.25500000920E-02 0. -1.
    10030    2    1    2    0    0  0.00000000000E+00  0.00000000000E+00  0.87048560903E+03  0.22126608911E+04  0.20342377008E+04 0.  0.
        5    1    3    3  502    0 -0.19500069120E+03 -0.22179293307E+03  0.14938989750E+04  0.15228176556E+04  0.46999998093E+01 0.  1.
       -5    1    3    3    0  502  0.19500069120E+03  0.22179293307E+03 -0.62341336595E+03  0.68984323551E+03  0.46999998093E+01 0. -1.
</event>
<event>
 5   0  0.1324930E-04  0.1966441E+04  0.7818609E-02  0.8622473E-01
       -1   -1    0    0    0  501  0.00000000000E+00  0.00000000000E+00  0.10275871077E+04  0.10275871077E+04  0.50400001928E-02 0.  1.
        1   -1    0    0  501    0  0.00000000000E+00  0.00000000000E+00 -0.94076928579E+03  0.94076928580E+03  0.50400001928E-02 0. -1.
    10030    2    1    2    0    0  0.00000000000E+00  0.00000000000E+00  0.86817821860E+02  0.19683563935E+04  0.19664408350E+04 0.  0.
        5    1    3    3  502    0 -0.21247179701E+03 -0.47907680289E+03  0.87610956407E+03  0.10209059241E+04  0.46999998093E+01 0.  1.
       -5    1    3    3    0  502  0.21247179701E+03  0.47907680289E+03 -0.78929174221E+03  0.94745046937E+03  0.46999998093E+01 0. -1.
</event>
<event>
 5   0  0.2488886E-04  0.2054366E+04  0.7818609E-02  0.8581616E-01
        2   -1    0    0  501    0  0.00000000000E+00  0.00000000000E+00  0.92696502282E+03  0.92696502282E+03  0.25500000920E-02 0.  1.
       -2   -1    0    0    0  501  0.00000000000E+00  0.00000000000E+00 -0.11382359527E+04  0.11382359527E+04  0.25500000920E-02 0. -1.
    10030    2    1    2    0    0  0.00000000000E+00  0.00000000000E+00 -0.21127092988E+03  0.20652009755E+04  0.20543660004E+04 0.  0.
        3    1    3    3  502    0  0.27345924195E+03 -0.82993326876E+03 -0.64842365284E+03  0.10881279481E+04  0.10100000352E+00 0. -1.
       -3    1    3    3    0  502 -0.27345924195E+03  0.82993326876E+03  0.43715272296E+03  0.97707302746E+03  0.10100000352E+00 0.  1.
</event>
<event>
 5   0  0.2540506E-04  0.1976866E+04  0.7818609E-02  0.8617513E-01
       -2   -1    0    0    0  501  0.00000000000E+00  0.00000000000E+00  0.19157091994E+04  0.19157091994E+04  0.25500000920E-02 0. -1.
        2   -1    0    0  501    0  0.00000000000E+00  0.00000000000E+00 -0.50999401829E+03  0.50999401830E+03  0.25500000920E-02 0.  1.
    10030    2    1    2    0    0  0.00000000000E+00  0.00000000000E+00  0.14057151811E+04  0.24257032177E+04  0.19768664421E+04 0.  0.
        4    1    3    3  502    0  0.71493817327E+03 -0.84769711124E+02  0.15338812761E+04  0.16944367435E+04  0.12699999809E+01 0. -1.
       -4    1    3    3    0  502 -0.71493817327E+03  0.84769711124E+02 -0.12816609500E+03  0.73126647423E+03  0.12699999809E+01 0.  1.
</event>
<event>
 5   0  0.2596061E-04  0.2031599E+04  0.7818609E-02  0.8591988E-01
       -2   -1    0    0    0  501  0.00000000000E+00  0.00000000000E+00  0.82218955676E+03  0.82218955676E+03  0.25500000920E-02 0. -1.
        2   -1    0    0  501    0  0.00000000000E+00  0.00000000000E+00 -0.12550011932E+04  0.12550011932E+04  0.25500000920E-02 0.  1.
    10030    2    1    2    0    0  0.00000000000E+00  0.00000000000E+00 -0.43281163648E+03  0.20771907500E+04  0.20315992467E+04 0.  0.
        5    1    3    3  502    0  0.73277035104E+03 -0.38261971096E+03 -0.81997230679E+03  0.11643568630E+04  0.46999998093E+01 0.  1.
       -5    1    3    3    0  502 -0.73277035104E+03  0.38261971096E+03  0.38716067031E+03  0.91283388698E+03  0.46999998093E+01 0. -1.
</event>
<event>
 5   0  0.1324930E-04  0.1978494E+04  0.7818609E-02  0.8616742E-01
        1   -1    0    0  501    0  0.00000000000E+00  0.00000000000E+00  0.17583516358E+04  0.17583516359E+04  0.50400001928E-02 0. -1.
       -1   -1    0    0    0  501  0.00000000000E+00  0.00000000000E+00 -0.55654946781E+03  0.55654946783E+03  0.50400001928E-02 0.  1.
    10030    2    1    2    0    0  0.00000000000E+00  0.00000000000E+00  0.12018021680E+04  0.23149011037E+04  0.19784940406E+04 0.  0.
        5    1    3    3  502    0  0.39818908726E+03  0.59605065579E+03  0.13985476483E+04  0.15715560913E+04  0.46999998093E+01 0. -1.
       -5    1    3    3    0  502 -0.39818908726E+03 -0.59605065579E+03 -0.19674548025E+03  0.74334501241E+03  0.46999998093E+01 0.  1.
</event>
<event>
 5   0  0.2488886E-04  0.1891862E+04  0.7818609E-02  0.8658918E-01
        2   -1    0    0  501    0  0.00000000000E+00  0.00000000000E+00  0.10898430152E+04  0.10898430152E+04  0.25500000920E-02 0. -1.
       -2   -1    0    0    0  501  0.00000000000E+00  0.00000000000E+00 -0.82102241751E+03  0.82102241752E+03  0.25500000920E-02 0.  1.
    10030    2    1    2    0    0  0.00000000000E+00  0.00000000000E+00  0.26882059773E+03  0.19108654328E+04  0.18918620955E+04 0.  0.
        3    1    3    3  502    0  0.91598600127E+03  0.15459150205E+03 -0.45866849292E+02  0.93007132259E+03  0.10100000352E+00 0.  1.
       -3    1    3    3    0  502 -0.91598600127E+03 -0.15459150205E+03  0.31468744702E+03  0.98079411017E+03  0.10100000352E+00 0. -1.
</event>
<event>
 5   0  0.2421737E-04  0.1994987E+04  0.7818609E-02  0.8608968E-01
       -2   -1    0    0    0  501  0.00000000000E+00  0.00000000000E+00  0.66953118883E+03  0.66953118883E+03  0.25500000920E-02 0. -1.
        2   -1    0    0  501    0  0.00000000000E+00  0.00000000000E+00 -0.14861040269E+04  0.14861040269E+04  0.25500000920E-02 0.  1.
    10030    2    1    2    0    0  0.00000000000E+00  0.00000000000E+00 -0.81657283804E+03  0.21556352157E+04  0.19949867126E+04 0.  0.
        1    1    3    3  502    0 -0.68871806901E+03  0.99678149359E+02 -0.11804844440E+04  0.13703327459E+04  0.50400001928E-02 0.  1.
       -1    1    3    3    0  502  0.68871806901E+03 -0.99678149359E+02  0.36391160596E+03  0.78530246976E+03  0.50400001928E-02 0. -1.
</event>
<event>
 5   0  0.2540506E-04  0.1733297E+04  0.7818609E-02  0.8742598E-01
        2   -1    0    0  501    0  0.00000000000E+00  0.00000000000E+00  0.29794717828E+04  0.29794717828E+04  0.25500000920E-02 0.  1.
       -2   -1    0    0    0  501  0.00000000000E+00  0.00000000000E+00 -0.25208490347E+03  0.25208490348E+03  0.25500000920E-02 0. -1.
    10030    2    1    2    0    0  0.00000000000E+00  0.00000000000E+00  0.27273868793E+04  0.32315566863E+04  0.17332972703E+04 0.  0.
        4    1    3    3  502    0 -0.24639015009E+03 -0.71923247799E+03  0.58806161514E+03  0.96115635542E+03  0.12699999809E+01 0. -1.
       -4    1    3    3    0  502  0.24639015009E+03  0.71923247799E+03  0.21393252642E+04  0.22704003308E+04  0.12699999809E+01 0.  1.
</event>
<event>
 5   0  0.2421737E-04  0.1931966E+04  0.7818609E-02  0.8639107E-01
        2   -1    0    0  501    0  0.00000000000E+00  0.00000000000E+00  0.12358016427E+04  0.12358016427E+04  0.25500000920E-02 0. -1.
       -2   -1    0    0    0  501  0.00000000000E+00  0.00000000000E+00 -0.75507482173E+03  0.75507482174E+03  0.25500000920E-02 0.  1.
    10030    2    1    2    0    0  0.00000000000E+00  0.00000000000E+00  0.48072682098E+03  0.19908764645E+04  0.19319655329E+04 0.  0.
        1    1    3    3  502    0  0.99197050251E+02 -0.78967747895E+03  0.80449784182E+03  0.11316569061E+04  0.50400001928E-02 0. -1.
       -1    1    3    3    0  502 -0.99197050251E+02  0.78967747895E+03 -0.32377102084E+03  0.85921955838E+03  0.50400001928E-02 0.  1.
</event>
<event>
 5   0  0.2488886E-04  0.1991860E+04  0.7818609E-02  0.8610436E-01
        2   -1    0    0  501    0  0.00000000000E+00  0.00000000000E+00  0.19186029732E+04  0.19186029732E+04  0.25500000920E-02 0. -1.
       -2   -1    0    0    0  501  0.00000000000E+00  0.00000000000E+00 -0.51697873201E+03  0.51697873202E+03  0.25500000920E-02 0.  1.
    10030    2    1    2    0    0  0.00000000000E+00  0.00000000000E+00  0.14016242412E+04  0.24355817052E+04  0.19918603689E+04 0.  0.
        3    1    3    3  502    0 -0.48232719867E+03  0.85890616451E+03  0.88017835405E+03  0.13210122146E+04  0.10100000352E+00 0. -1.
       -3    1    3    3    0  502  0.48232719867E+03 -0.85890616451E+03  0.52144588716E+03  0.11145694906E+04  0.10100000352E+00 0.  1.
</event>
<event>
 5   0  0.2463085E-04  0.1955851E+04  0.7818609E-02  0.8627544E-01
        2   -1    0    0  501    0  0.00000000000E+00  0.00000000000E+00  0.19181557443E+04  0.19181557443E+04  0.25500000920E-02 0.  1.
       -2   -1    0    0    0  501  0.00000000000E+00  0.00000000000E+00 -0.49857185076E+03  0.49857185077E+03  0.25500000920E-02 0. -1.
    10030    2    1    2    0    0  0.00000000000E+00  0.00000000000E+00  0.14195838936E+04  0.24167275951E+04  0.19558511799E+04 0.  0.
        2    1    3    3  502    0 -0.81532879254E+03 -0.42147274283E+03  0.29270512325E+03  0.96336732458E+03  0.25500000920E-02 0. -1.
       -2    1    3    3    0  502  0.81532879254E+03  0.42147274283E+03  0.11268787703E+04  0.14533602705E+04  0.25500000920E-02 0.  1.
</event>
<event>
 5   0  0.2421737E-04  0.1987412E+04  0.7818609E-02  0.8612529E-01
        2   -1    0    0  501    0  0.00000000000E+00  0.00000000000E+00  0.64129872213E+03  0.64129872214E+03  0.25500000920E-02 0. -1.
       -2   -1    0    0    0  501  0.00000000000E+00  0.00000000000E+00 -0.15397682038E+04  0.15397682038E+04  0.25500000920E-02 0.  1.
    10030    2    1    2    0    0  0.00000000000E+00  0.00000000000E+00 -0.89846948170E+03  0.21810669260E+04  0.19874117656E+04 0.  0.
        1    1    3    3  502    0 -0.17855355879E+03  0.88918534470E+03 -0.35609967982E+01  0.90694246307E+03  0.50400001928E-02 0. -1.
       -1    1    3    3    0  502  0.17855355879E+03 -0.88918534470E+03 -0.89490848490E+03  0.12741244629E+04  0.50400001928E-02 0.  1.
</event>
<event>
 5   0  0.2463085E-04  0.2023709E+04  0.7818609E-02  0.8595616E-01
        2   -1    0    0  501    0  0.00000000000E+00  0.00000000000E+00  0.12397679486E+04  0.12397679486E+04  0.25500000920E-02 0. -1.
       -2   -1    0    0    0  501  0.00000000000E+00  0.00000000000E+00 -0.82583951301E+03  0.82583951301E+03  0.25500000920E-02 0.  1.
    10030    2    1    2    0    0  0.00000000000E+00  0.00000000000E+00  0.41392843560E+03  0.20656074616E+04  0.20237088317E+04 0.  0.
        2    1    3    3  502    0  0.24676868907E+03 -0.91351528755E+03  0.57277570671E+03  0.11061089353E+04  0.25500000920E-02 0. -1.
       -2    1    3    3    0  502 -0.24676868907E+03  0.91351528755E+03 -0.15884727112E+03  0.95949852634E+03  0.25500000920E-02 0.  1.
</event>
<event>
 5   0  0.1207228E-04  0.2022407E+04  0.7818609E-02  0.8596216E-01
        1   -1    0    0  501    0  0.00000000000E+00  0.00000000000E+00  0.19929627134E+04  0.19929627134E+04  0.50400001928E-02 0.  1.
       -1   -1    0    0    0  501  0.00000000000E+00  0.00000000000E+00 -0.51307159107E+03  0.51307159109E+03  0.50400001928E-02 0. -1.
    10030    2    1    2    0    0  0.00000000000E+00  0.00000000000E+00  0.14798911223E+04  0.25060343045E+04  0.20224070316E+04 0.  0.
        1    1    3    3  502    0 -0.29625088914E+03  0.48902261432E+03 -0.29354374479E+03  0.64270960531E+03  0.50400001928E-02 0. -1.
       -1    1    3    3    0  502  0.29625088914E+03 -0.48902261432E+03  0.17734348671E+04  0.18633246992E+04  0.50400001928E-02 0.  1.
</event>
<event>
 5   0  0.1210633E-04  0.2020174E+04  0.7818609E-02  0.8597246E-01
       -1   -1    0    0    0  501  0.00000000000E+00  0.00000000000E+00  0.85909860902E+03  0.85909860904E+03  0.50400001928E-02 0.  1.
        1   -1    0    0  501    0  0.00000000000E+00  0.00000000000E+00 -0.11876119718E+04  0.11876119718E+04  0.50400001928E-02 0. -1.
    10030    2    1    2    0    0  0.00000000000E+00  0.00000000000E+00 -0.32851336279E+03  0.20467105809E+04  0.20201740450E+04 0.  0.
        2    1    3    3  502    0 -0.70784450913E+03  0.71868871844E+03 -0.21708051492E+03  0.10318339368E+04  0.25500000920E-02 0.  1.
       -2    1    3    3    0  502  0.70784450913E+03 -0.71868871844E+03 -0.11143284786E+03  0.10148766441E+04  0.25500000920E-02 0. -1.
</event>
<event>
 5   0  0.1258546E-04  0.2021880E+04  0.7818609E-02  0.8596459E-01
       -1   -1    0    0    0  501  0.00000000000E+00  0.00000000000E+00  0.60577155599E+03  0.60577155601E+03  0.50400001928E-02 0. -1.
        1   -1    0    0  501    0  0.00000000000E+00  0.00000000000E+00 -0.16871036416E+04  0.16871036416E+04  0.50400001928E-02 0.  1.
    10030    2    1    2    0    0  0.00000000000E+00  0.00000000000E+00 -0.10813320856E+04  0.22928751976E+04  0.20218797176E+04 0.  0.
        4    1    3    3  502    0 -0.80343670314E+03  0.30399134672E+03 -0.11450915213E+04  0.14314878553E+04  0.12699999809E+01 0.  1.
       -4    1    3    3    0  502  0.80343670314E+03 -0.30399134672E+03  0.63759435752E+02  0.86138734225E+03  0.12699999809E+01 0. -1.
</event>
<event>
 5   0  0.1324930E-04  0.1989933E+04  0.7818609E-02  0.8611342E-01
        1   -1    0    0  501    0  0.00000000000E+00  0.00000000000E+00  0.10357921056E+04  0.10357921056E+04  0.50400001928E-02 0. -1.
       -1   -1    0    0    0  501  0.00000000000E+00  0.00000000000E+00 -0.95575008618E+03  0.95575008619E+03  0.50400001928E-02 0.  1.
    10030    2    1    2    0    0  0.00000000000E+00  0.00000000000E+00  0.80042019397E+02  0.19915421918E+04  0.19899330584E+04 0.  0.
        5    1    3    3  502    0  0.20830473019E+03  0.67250977773E+03  0.74363720152E+03  0.10240501156E+04  0.46999998093E+01 0. -1.
       -5    1    3    3    0  502 -0.20830473019E+03 -0.67250977773E+03 -0.66359518212E+03  0.96749207619E+03  0.46999998093E+01 0.  1.
</event>
<event>
 5   0  0.2488886E-04  0.1652715E+04  0.7818609E-02  0.8788802E-01
        2   -1    0    0  501    0  0.00000000000E+00  0.00000000000E+00  0.63312140959E+03  0.63312140959E+03  0.25500000920E-02 0. -1.
       -2   -1    0    0    0  501  0.00000000000E+00  0.00000000000E+00 -0.10785709903E+04  0.10785709903E+04  0.25500000920E-02 0.  1.
    10030    2    1    2    0    0  0.00000000000E+00  0.00000000000E+00 -0.44544958074E+03  0.17116923999E+04  0.16527145982E+04 0.  0.
        3    1    3    3  502    0 -0.76177903233E+02  0.24213264813E+03 -0.10371944647E+04  0.10678031935E+04  0.10100000352E+00 0.  1.
       -3    1    3    3    0  502  0.76177903233E+02 -0.24213264813E+03  0.59174488397E+03  0.64388920642E+03  0.10100000352E+00 0. -1.
</event>
<event>
 5   0  0.2488886E-04  0.2000662E+04  0.7818609E-02  0.8606311E-01
        2   -1    0    0  501    0  0.00000000000E+00  0.00000000000E+00  0.13662107980E+04  0.13662107980E+04  0.25500000920E-02 0. -1.
       -2   -1    0    0    0  501  0.00000000000E+00  0.00000000000E+00 -0.73243589490E+03  0.73243589490E+03  0.25500000920E-02 0.  1.
    10030    2    1    2    0    0  0.00000000000E+00  0.00000000000E+00  0.63377490306E+03  0.20986466929E+04  0.20006617190E+04 0.  0.
        3    1    3    3  502    0  0.89816504987E+03 -0.39726710214E+03  0.51630391528E+03  0.11095455603E+04  0.10100000352E+00 0. -1.
       -3    1    3    3    0  502 -0.89816504987E+03  0.39726710214E+03  0.11747098778E+03  0.98910113256E+03  0.10100000352E+00 0.  1.
</event>
<event>
 5   0  0.1231056E-04  0.1955116E+04  0.7818609E-02  0.8627898E-01
        1   -1    0    0  501    0  0.00000000000E+00  0.00000000000E+00  0.96377717406E+03  0.96377717408E+03  0.50400001928E-02 0.  1.
       -1   -1    0    0    0  501  0.00000000000E+00  0.00000000000E+00 -0.99153577396E+03  0.99153577398E+03  0.50400001928E-02 0. -1.
    10030    2    1    2    0    0  0.00000000000E+00  0.00000000000E+00 -0.27758599899E+02  0.19553129481E+04  0.19551159006E+04 0.  0.
        3    1    3    3  502    0 -0.84053139832E+03  0.47418929668E+03 -0.16968657827E+03  0.97986839202E+03  0.10100000352E+00 0.  1.
       -3    1    3    3    0  502  0.84053139832E+03 -0.47418929668E+03  0.14192797837E+03  0.97544455603E+03  0.10100000352E+00 0. -1.
</event>
<event>
 5   0  0.1258546E-04  0.2002872E+04  0.7818609E-02  0.8605279E-01
        1   -1    0    0  501    0  0.00000000000E+00  0.00000000000E+00  0.13559474365E+04  0.13559474365E+04  0.50400001928E-02 0.  1.
       -1   -1    0    0    0  501  0.00000000000E+00  0.00000000000E+00 -0.73961121614E+03  0.73961121616E+03  0.50400001928E-02 0. -1.
    10030    2    1    2    0    0  0.00000000000E+00  0.00000000000E+00  0.61633622033E+03  0.20955586526E+04  0.20028718706E+04 0.  0.
        4    1    3    3  502    0  0.66921175632E+03  0.77614620181E+02 -0.46706867988E+03  0.81977019261E+03  0.12699999809E+01 0.  1.
       -4    1    3    3    0  502 -0.66921175632E+03 -0.77614620181E+02  0.10834049002E+04  0.12757884600E+04  0.12699999809E+01 0. -1.
</event>
<event>
 5   0  0.1324930E-04  0.1710344E+04  0.7818609E-02  0.8755487E-01
        1   -1    0    0  501    0  0.00000000000E+00  0.00000000000E+00  0.63167425358E+03  0.63167425360E+03  0.50400001928E-02 0. -1.
       -1   -1    0    0    0  501  0.00000000000E+00  0.00000000000E+00 -0.11577468867E+04  0.11577468867E+04  0.50400001928E-02 0.  1.
    10030    2    1    2    0    0  0.00000000000E+00  0.00000000000E+00 -0.52607263308E+03  0.17894211403E+04  0.17103437087E+04 0.  0.
        5    1    3    3  502    0 -0.25573567389E+03 -0.72100046522E+03 -0.66287655597E+03  0.10122597612E+04  0.46999998093E+01 0.  1.
       -5    1    3    3    0  502  0.25573567389E+03  0.72100046522E+03  0.13680392290E+03  0.77716137903E+03  0.46999998093E+01 0. -1.
</event>
<event>
 5   0  0.2540506E-04  0.2012398E+04  0.7818609E-02  0.8600846E-01
        2   -1    0    0  501    0  0.00000000000E+00  0.00000000000E+00  0.24688929259E+04  0.24688929259E+04  0.25500000920E-02 0. -1.
       -2   -1    0    0    0  501  0.00000000000E+00  0.00000000000E+00 -0.41007692131E+03  0.41007692132E+03  0.25500000920E-02 0.  1.
    10030    2    1    2    0    0  0.00000000000E+00  0.00000000000E+00  0.20588160045E+04  0.28789698472E+04  0.20123975851E+04 0.  0.
        4    1    3    3  502    0  0.54057396124E+03  0.50997516824E+03  0.58969329546E+02  0.74550243093E+03  0.12699999809E+01 0.  1.
       -4    1    3    3    0  502 -0.54057396124E+03 -0.50997516824E+03  0.19998466750E+04  0.21334674163E+04  0.12699999809E+01 0. -1.
</event>
<event>
 5   0  0.2540506E-04  0.2013291E+04  0.7818609E-02  0.8600432E-01
       -2   -1    0    0    0  501  0.00000000000E+00  0.00000000000E+00  0.69829866096E+03  0.69829866097E+03  0.25500000920E-02 0. -1.
        2   -1    0    0  501    0  0.00000000000E+00  0.00000000000E+00 -0.14511491080E+04  0.14511491080E+04  0.25500000920E-02 0.  1.
    10030    2    1    2    0    0  0.00000000000E+00  0.00000000000E+00 -0.75285044708E+03  0.21494477690E+04  0.20132913142E+04 0.  0.
        4    1    3    3  502    0 -0.76558477480E+03 -0.61840129332E+02 -0.10711141533E+04  0.13180407396E+04  0.12699999809E+01 0.  1.
       -4    1    3    3    0  502  0.76558477480E+03  0.61840129332E+02  0.31826370618E+03  0.83140702942E+03  0.12699999809E+01 0. -1.
</event>
<event>
 5   0  0.2488886E-04  0.1990580E+04  0.7818609E-02  0.8611037E-01
        2   -1    0    0  501    0  0.00000000000E+00  0.00000000000E+00  0.21825552078E+04  0.21825552078E+04  0.25500000920E-02 0. -1.
       -2   -1    0    0    0  501  0.00000000000E+00  0.00000000000E+00 -0.45387282458E+03  0.45387282459E+03  0.25500000920E-02 0.  1.
    10030    2    1    2    0    0  0.00000000000E+00  0.00000000000E+00  0.17286823833E+04  0.26364280324E+04  0.19905803144E+04 0.  0.
        3    1    3    3  502    0 -0.83325068754E+03  0.24885190223E+02  0.15845271084E+04  0.17904335085E+04  0.10100000352E+00 0. -1.
       -3    1    3    3    0  502  0.83325068754E+03 -0.24885190223E+02  0.14415527484E+03  0.84599452389E+03  0.10100000352E+00 0.  1.
</event>
<event>
 5   0  0.1207228E-04  0.1981307E+04  0.7818609E-02  0.8615410E-01
        1   -1    0    0  501    0  0.00000000000E+00  0.00000000000E+00  0.15444456334E+04  0.15444456334E+04  0.50400001928E-02 0. -1.
       -1   -1    0    0    0  501  0.00000000000E+00  0.00000000000E+00 -0.63543462869E+03  0.63543462871E+03  0.50400001928E-02 0.  1.
    10030    2    1    2    0    0  0.00000000000E+00  0.00000000000E+00  0.90901100471E+03  0.21798802621E+04  0.19813068794E+04 0.  0.
        1    1    3    3  502    0  0.56002961574E+03  0.25366473430E+03  0.13091569637E+04  0.14463301572E+04  0.50400001928E-02 0. -1.
       -1    1    3    3    0  502 -0.56002961574E+03 -0.25366473430E+03 -0.40014595899E+03  0.73355010494E+03  0.50400001928E-02 0.  1.
</event>
<event>
 5   0  0.2540506E-04  0.2015057E+04  0.7818609E-02  0.8599613E-01
        2   -1    0    0  501    0  0.00000000000E+00  0.00000000000E+00  0.22779904848E+04  0.22779904849E+04  0.25500000920E-02 0.  1.
       -2   -1    0    0    0  501  0.00000000000E+00  0.00000000000E+00 -0.44561787472E+03  0.44561787473E+03  0.25500000920E-02 0. -1.
    10030    2    1    2    0    0  0.00000000000E+00  0.00000000000E+00  0.18323726101E+04  0.27236083596E+04  0.20150566032E+04 0.  0.
        4    1    3    3  502    0  0.30334247410E+03  0.95198254867E+03  0.10915037306E+04  0.14797531674E+04  0.12699999809E+01 0. -1.
       -4    1    3    3    0  502 -0.30334247410E+03 -0.95198254867E+03  0.74086887948E+03  0.12438551922E+04  0.12699999809E+01 0.  1.
</event>
<event>
 5   0  0.1258546E-04  0.1993654E+04  0.7818609E-02  0.8609593E-01
        1   -1    0    0  501    0  0.00000000000E+00  0.00000000000E+00  0.72361721778E+03  0.72361721780E+03  0.50400001928E-02 0.  1.
       -1   -1    0    0    0  501  0.00000000000E+00  0.00000000000E+00 -0.13731900419E+04  0.13731900419E+04  0.50400001928E-02 0. -1.
    10030    2    1    2    0    0  0.00000000000E+00  0.00000000000E+00 -0.64957282409E+03  0.20968072597E+04  0.19936538893E+04 0.  0.
        4    1    3    3  502    0  0.76672842554E+02 -0.36272322848E+03 -0.12979823439E+04  0.13498913450E+04  0.12699999809E+01 0. -1.
       -4    1    3    3    0  502 -0.76672842554E+02  0.36272322848E+03  0.64840951984E+03  0.74691591467E+03  0.12699999809E+01 0.  1.
</event>
<event>
 5   0  0.2421737E-04  0.1992305E+04  0.7818609E-02  0.8610227E-01
        2   -1    0    0  501    0  0.00000000000E+00  0.00000000000E+00  0.30275516600E+04  0.30275516600E+04  0.25500000920E-02 0. -1.
       -2   -1    0    0    0  501  0.00000000000E+00  0.00000000000E+00 -0.32776326978E+03  0.32776326979E+03  0.25500000920E-02 0.  1.
    10030    2    1    2    0    0  0.00000000000E+00  0.00000000000E+00  0.26997883902E+04  0.33553149298E+04  0.19923054299E+04 0.  0.
        1    1    3    3  502    0 -0.40858941652E+03  0.96832802976E+02  0.28712192061E+04  0.29017618153E+04  0.50400001928E-02 0. -1.
       -1    1    3    3    0  502  0.40858941652E+03 -0.96832802976E+02 -0.17143081589E+03  0.45355311452E+03  0.50400001928E-02 0.  1.
</event>
<event>
 5   0  0.2596061E-04  0.1990857E+04  0.7818609E-02  0.8610907E-01
       -2   -1    0    0    0  501  0.00000000000E+00  0.00000000000E+00  0.55346361776E+03  0.55346361776E+03  0.25500000920E-02 0.  1.
        2   -1    0    0  501    0  0.00000000000E+00  0.00000000000E+00 -0.17903212968E+04  0.17903212968E+04  0.25500000920E-02 0. -1.
    10030    2    1    2    0    0  0.00000000000E+00  0.00000000000E+00 -0.12368576790E+04  0.23437849145E+04  0.19908568024E+04 0.  0.
        5    1    3    3  502    0  0.98282226839E+03 -0.15655805880E+03 -0.59471983964E+03  0.11593807893E+04  0.46999998093E+01 0. -1.
       -5    1    3    3    0  502 -0.98282226839E+03  0.15655805880E+03 -0.64213783938E+03  0.11844041252E+04  0.46999998093E+01 0.  1.
</event>
<event>
 5   0  0.1258546E-04  0.1980415E+04  0.7818609E-02  0.8615833E-01
        1   -1    0    0  501    0  0.00000000000E+00  0.00000000000E+00  0.10445475230E+04  0.10445475231E+04  0.50400001928E-02 0. -1.
       -1   -1    0    0    0  501  0.00000000000E+00  0.00000000000E+00 -0.93869411206E+03  0.93869411208E+03  0.50400001928E-02 0.  1.
    10030    2    1    2    0    0  0.00000000000E+00  0.00000000000E+00  0.10585341098E+03  0.19832416351E+04  0.19804147138E+04 0.  0.
        4    1    3    3  502    0 -0.40889383877E+03  0.56894982669E+03  0.75364754664E+03  0.10290210465E+04  0.12699999809E+01 0. -1.
       -4    1    3    3    0  502  0.40889383877E+03 -0.56894982669E+03 -0.64779413566E+03  0.95422058863E+03  0.12699999809E+01 0.  1.
</event>
<event>
 5   0  0.1207228E-04  0.2002139E+04  0.7818609E-02  0.8605621E-01
       -1   -1    0    0    0  501  0.00000000000E+00  0.00000000000E+00  0.62332253633E+03  0.62332253635E+03  0.50400001928E-02 0. -1.
        1   -1    0    0  501    0  0.00000000000E+00  0.00000000000E+00 -0.16077396617E+04  0.16077396617E+04  0.50400001928E-02 0.  1.
    10030    2    1    2    0    0  0.00000000000E+00  0.00000000000E+00 -0.98441712536E+03  0.22310621980E+04  0.20021392196E+04 0.  0.
        1    1    3    3  502    0 -0.42796875298E+03  0.20295477934E+03 -0.14749726350E+04  0.15491585361E+04  0.50400001928E-02 0.  1.
       -1    1    3    3    0  502  0.42796875298E+03 -0.20295477934E+03  0.49055550968E+03  0.68190366188E+03  0.50400001928E-02 0. -1.
</event>
<event>
 5   0  0.1258546E-04  0.2019342E+04  0.7818609E-02  0.8597631E-01
       -1   -1    0    0    0  501  0.00000000000E+00  0.00000000000E+00  0.10100220075E+04  0.10100220076E+04  0.50400001928E-02 0.  1.
        1   -1    0    0  501    0  0.00000000000E+00  0.00000000000E+00 -0.10093196330E+04  0.10093196330E+04  0.50400001928E-02 0. -1.
    10030    2    1    2    0    0  0.00000000000E+00  0.00000000000E+00  0.70237453968E+00  0.20193416406E+04  0.20193415184E+04 0.  0.
        4    1    3    3  502    0  0.19812144439E+03  0.97335831852E+03  0.18133436357E+03  0.10097337705E+04  0.12699999809E+01 0.  1.
       -4    1    3    3    0  502 -0.19812144439E+03 -0.97335831852E+03 -0.18063198903E+03  0.10096078701E+04  0.12699999809E+01 0. -1.
</event>
<event>
 5   0  0.2540506E-04  0.2076340E+04  0.7818609E-02  0.8571738E-01
        2   -1    0    0  501    0  0.00000000000E+00  0.00000000000E+00  0.20826767688E+04  0.20826767688E+04  0.25500000920E-02 0.  1.
       -2   -1    0    0    0  501  0.00000000000E+00  0.00000000000E+00 -0.51750581279E+03  0.51750581279E+03  0.25500000920E-02 0. -1.
    10030    2    1    2    0    0  0.00000000000E+00  0.00000000000E+00  0.15651709560E+04  0.26001825816E+04  0.20763403710E+04 0.  0.
        4    1    3    3  502    0 -0.63403498309E+03  0.70052730885E+03  0.24387195162E+03  0.97581453766E+03  0.12699999809E+01 0. -1.
       -4    1    3    3    0  502  0.63403498309E+03 -0.70052730885E+03  0.13212990044E+04  0.16243680439E+04  0.12699999809E+01 0.  1.
</event>
<event>
 5   0  0.1207228E-04  0.1986209E+04  0.7818609E-02  0.8613096E-01
       -1   -1    0    0    0  501  0.00000000000E+00  0.00000000000E+00  0.12349396570E+04  0.12349396570E+04  0.50400001928E-02 0.  1.
        1   -1    0    0  501    0  0.00000000000E+00  0.00000000000E+00 -0.79862697663E+03  0.79862697665E+03  0.50400001928E-02 0. -1.
    10030    2    1    2    0    0  0.00000000000E+00  0.00000000000E+00  0.43631268035E+03  0.20335666336E+04  0.19862085737E+04 0.  0.
        1    1    3    3  502    0  0.42951897910E+03 -0.62407163199E+03 -0.43926291266E+03  0.87573047322E+03  0.50400001928E-02 0. -1.
       -1    1    3    3    0  502 -0.42951897910E+03  0.62407163199E+03  0.87557559301E+03  0.11578361604E+04  0.50400001928E-02 0.  1.
</event>
<event>
 5   0  0.2421737E-04  0.2029336E+04  0.7818609E-02  0.8593027E-01
       -2   -1    0    0    0  501  0.00000000000E+00  0.00000000000E+00  0.53715508882E+03  0.53715508883E+03  0.25500000920E-02 0.  1.
        2   -1    0    0  501    0  0.00000000000E+00  0.00000000000E+00 -0.19166735493E+04  0.19166735493E+04  0.25500000920E-02 0. -1.
    10030    2    1    2    0    0  0.00000000000E+00  0.00000000000E+00 -0.13795184605E+04  0.24538286382E+04  0.20293358033E+04 0.  0.
        1    1    3    3  502    0  0.22782571921E+03  0.95086575955E+03 -0.36193877468E+03  0.10426168652E+04  0.50400001928E-02 0.  1.
       -1    1    3    3    0  502 -0.22782571921E+03 -0.95086575955E+03 -0.10175796858E+04  0.14112117729E+04  0.50400001928E-02 0. -1.
</event>
<event>
 5   0  0.9099125E-05  0.1997738E+04  0.7818609E-02  0.8607679E-01
        3   -1    0    0  501    0  0.00000000000E+00  0.00000000000E+00  0.77740452201E+03  0.77740452858E+03  0.10100000352E+00 0.  1.
       -3   -1    0    0    0  501  0.00000000000E+00  0.00000000000E+00 -0.12834239928E+04  0.12834239968E+04  0.10100000352E+00 0. -1.
    10030    2    1    2    0    0  0.00000000000E+00  0.00000000000E+00 -0.50601947078E+03  0.20608285253E+04  0.19977383477E+04 0.  0.
        5    1    3    3  502    0 -0.77180017772E+03 -0.62210963104E+03 -0.12657634938E+03  0.99936958608E+03  0.46999998093E+01 0.  1.
       -5    1    3    3    0  502  0.77180017772E+03  0.62210963104E+03 -0.37944312139E+03  0.10614589393E+04  0.46999998093E+01 0. -1.
</event>
<event>
 5   0  0.1324930E-04  0.2013220E+04  0.7818609E-02  0.8600465E-01
        1   -1    0    0  501    0  0.00000000000E+00  0.00000000000E+00  0.65313886128E+03  0.65313886130E+03  0.50400001928E-02 0.  1.
       -1   -1    0    0    0  501  0.00000000000E+00  0.00000000000E+00 -0.15513758957E+04  0.15513758957E+04  0.50400001928E-02 0. -1.
    10030    2    1    2    0    0  0.00000000000E+00  0.00000000000E+00 -0.89823703439E+03  0.22045147570E+04  0.20132201926E+04 0.  0.
        5    1    3    3  502    0 -0.55346719830E+03  0.84022241663E+03 -0.41550754624E+03  0.10885624741E+04  0.46999998093E+01 0. -1.
       -5    1    3    3    0  502  0.55346719830E+03 -0.84022241663E+03 -0.48272948816E+03  0.11159522829E+04  0.46999998093E+01 0.  1.
</event>
<event>
 5   0  0.2488886E-04  0.2039305E+04  0.7818609E-02  0.8588462E-01
        2   -1    0    0  501    0  0.00000000000E+00  0.00000000000E+00  0.84542420320E+03  0.84542420321E+03  0.25500000920E-02 0.  1.
       -2   -1    0    0    0  501  0.00000000000E+00  0.00000000000E+00 -0.12297861430E+04  0.12297861430E+04  0.25500000920E-02 0. -1.
    10030    2    1    2    0    0  0.00000000000E+00  0.00000000000E+00 -0.38436193979E+03  0.20752103462E+04  0.20393047541E+04 0.  0.
        3    1    3    3  502    0  0.22568154707E+02  0.73157368248E+02 -0.12268572224E+04  0.12292436604E+04  0.10100000352E+00 0. -1.
       -3    1    3    3    0  502 -0.22568154707E+02 -0.73157368248E+02  0.84249528262E+03  0.84596668585E+03  0.10100000352E+00 0.  1.
</event>
<event>
 5   0  0.1207228E-04  0.1954166E+04  0.7818609E-02  0.8628355E-01
       -1   -1    0    0    0  501  0.00000000000E+00  0.00000000000E+00  0.82267921617E+03  0.82267921619E+03  0.50400001928E-02 0.  1.
        1   -1    0    0  501    0  0.00000000000E+00  0.00000000000E+00 -0.11604657199E+04  0.11604657199E+04  0.50400001928E-02 0. -1.
    10030    2    1    2    0    0  0.00000000000E+00  0.00000000000E+00 -0.33778650370E+03  0.19831449361E+04  0.19541658362E+04 0.  0.
        1    1    3    3  502    0 -0.70718862434E+03  0.58701576455E+02 -0.85051526235E+03  0.11076722606E+04  0.50400001928E-02 0. -1.
       -1    1    3    3    0  502  0.70718862434E+03 -0.58701576455E+02  0.51272875864E+03  0.87547267544E+03  0.50400001928E-02 0.  1.
</event>
<event>
 5   0  0.1324930E-04  0.1962952E+04  0.7818609E-02  0.8624140E-01
        1   -1    0    0  501    0  0.00000000000E+00  0.00000000000E+00  0.12152963232E+04  0.12152963232E+04  0.50400001928E-02 0. -1.
       -1   -1    0    0    0  501  0.00000000000E+00  0.00000000000E+00 -0.79264242932E+03  0.79264242934E+03  0.50400001928E-02 0.  1.
    10030    2    1    2    0    0  0.00000000000E+00  0.00000000000E+00  0.42265389391E+03  0.20079387526E+04  0.19629522969E+04 0.  0.
        5    1    3    3  502    0 -0.15836904303E+03 -0.12626735131E+03  0.11936737721E+04  0.12107449616E+04  0.46999998093E+01 0. -1.
       -5    1    3    3    0  502  0.15836904303E+03  0.12626735131E+03 -0.77101987820E+03  0.79719379098E+03  0.46999998093E+01 0.  1.
</event>
<event>
 5   0  0.2488886E-04  0.1968926E+04  0.7818609E-02  0.8621288E-01
       -2   -1    0    0    0  501  0.00000000000E+00  0.00000000000E+00  0.80209408057E+03  0.80209408058E+03  0.25500000920E-02 0.  1.
        2   -1    0    0  501    0  0.00000000000E+00  0.00000000000E+00 -0.12082969461E+04  0.12082969461E+04  0.25500000920E-02 0. -1.
    10030    2    1    2    0    0  0.00000000000E+00  0.00000000000E+00 -0.40620286548E+03  0.20103910266E+04  0.19689264364E+04 0.  0.
        3    1    3    3  502    0 -0.77568507364E+03  0.58997386249E+03 -0.60842794318E+02  0.97645191777E+03  0.10100000352E+00 0.  1.
       -3    1    3    3    0  502  0.77568507364E+03 -0.58997386249E+03 -0.34536007116E+03  0.10339391089E+04  0.10100000352E+00 0. -1.
</event>
<event>
 5   0  0.1207228E-04  0.1596791E+04  0.7818609E-02  0.8822522E-01
       -1   -1    0    0    0  501  0.00000000000E+00  0.00000000000E+00  0.65086998990E+03  0.65086998992E+03  0.50400001928E-02 0. -1.
        1   -1    0    0  501    0  0.00000000000E+00  0.00000000000E+00 -0.97935926328E+03  0.97935926329E+03  0.50400001928E-02 0.  1.
    10030    2    1    2    0    0  0.00000000000E+00  0.00000000000E+00 -0.32848927338E+03  0.16302292532E+04  0.15967912247E+04 0.  0.
        1    1    3    3  502    0 -0.35248182126E+03  0.33791909379E+03  0.48064963512E+03  0.68516919081E+03  0.50400001928E-02 0. -1.
       -1    1    3    3    0  502  0.35248182126E+03 -0.33791909379E+03 -0.80913890850E+03  0.94506006240E+03  0.50400001928E-02 0.  1.
</event>
<event>
 5   0  0.1324930E-04  0.1830024E+04  0.7818609E-02  0.8690494E-01
        1   -1    0    0  501    0  0.00000000000E+00  0.00000000000E+00  0.12252434456E+04  0.12252434456E+04  0.50400001928E-02 0. -1.
       -1   -1    0    0    0  501  0.00000000000E+00  0.00000000000E+00 -0.68333095713E+03  0.68333095714E+03  0.50400001928E-02 0.  1.
    10030    2    1    2    0    0  0.00000000000E+00  0.00000000000E+00  0.54191248847E+03  0.19085744027E+04  0.18300237992E+04 0.  0.
        5    1    3    3  502    0  0.74168393135E+02  0.64821158040E+03 -0.39809791800E+03  0.76431881164E+03  0.46999998093E+01 0.  1.
       -5    1    3    3    0  502 -0.74168393135E+02 -0.64821158040E+03  0.94001040647E+03  0.11442555911E+04  0.46999998093E+01 0. -1.
</event>
<event>
 5   0  0.1231056E-04  0.2001440E+04  0.7818609E-02  0.8605948E-01
        1   -1    0    0  501    0  0.00000000000E+00  0.00000000000E+00  0.11134830786E+04  0.11134830786E+04  0.50400001928E-02 0.  1.
       -1   -1    0    0    0  501  0.00000000000E+00  0.00000000000E+00 -0.89937682567E+03  0.89937682568E+03  0.50400001928E-02 0. -1.
    10030    2    1    2    0    0  0.00000000000E+00  0.00000000000E+00  0.21410625292E+03  0.20128599043E+04  0.20014403580E+04 0.  0.
        3    1    3    3  502    0 -0.82620876743E+02 -0.95715418213E+03 -0.17467109393E+03  0.97646317847E+03  0.10100000352E+00 0.  1.
       -3    1    3    3    0  502  0.82620876743E+02  0.95715418213E+03  0.38877734685E+03  0.10363967258E+04  0.10100000352E+00 0. -1.
</event>
<event>
 5   0  0.2540506E-04  0.2098395E+04  0.7818609E-02  0.8561951E-01
        2   -1    0    0  501    0  0.00000000000E+00  0.00000000000E+00  0.12698538366E+04  0.12698538366E+04  0.25500000920E-02 0.  1.
       -2   -1    0    0    0  501  0.00000000000E+00  0.00000000000E+00 -0.86688356916E+03  0.86688356916E+03  0.25500000920E-02 0. -1.
    10030    2    1    2    0    0  0.00000000000E+00  0.00000000000E+00  0.40297026742E+03  0.21367374057E+04  0.20983950307E+04 0.  0.
        4    1    3    3  502    0 -0.67207608324E+03  0.16147700585E+03 -0.60227470990E+03  0.91678652050E+03  0.12699999809E+01 0. -1.
       -4    1    3    3    0  502  0.67207608324E+03 -0.16147700585E+03  0.10052449773E+04  0.12199508852E+04  0.12699999809E+01 0.  1.
</event>
<event>
 5   0  0.1210633E-04  0.1975912E+04  0.7818609E-02  0.8617966E-01
        1   -1    0    0  501    0  0.00000000000E+00  0.00000000000E+00  0.37067383763E+03  0.37067383767E+03  0.50400001928E-02 0. -1.
       -1   -1    0    0    0  501  0.00000000000E+00  0.00000000000E+00 -0.26331971166E+04  0.26331971166E+04  0.50400001928E-02 0.  1.
    10030    2    1    2    0    0  0.00000000000E+00  0.00000000000E+00 -0.22625232789E+04  0.30038709542E+04  0.19759122253E+04 0.  0.
        2    1    3    3  502    0 -0.59543098469E+03  0.20445761636E+02  0.66843152613E+02  0.59951988604E+03  0.25500000920E-02 0. -1.
       -2    1    3    3    0  502  0.59543098469E+03 -0.20445761636E+02 -0.23293664316E+04  0.24043510682E+04  0.25500000920E-02 0.  1.
</event>
<event>
 5   0  0.9099125E-05  0.1373054E+04  0.7818609E-02  0.8973558E-01
       -3   -1    0    0    0  501  0.00000000000E+00  0.00000000000E+00  0.24160852468E+03  0.24160854579E+03  0.10100000352E+00 0. -1.
        3   -1    0    0  501    0  0.00000000000E+00  0.00000000000E+00 -0.19507555609E+04  0.19507555635E+04  0.10100000352E+00 0.  1.
    10030    2    1    2    0    0  0.00000000000E+00  0.00000000000E+00 -0.17091470362E+04  0.21923641093E+04  0.13730538214E+04 0.  0.
        3    1    3    3  502    0  0.50512531864E+03  0.41586623720E+03 -0.11865306041E+04  0.13549727671E+04  0.10100000352E+00 0. -1.
       -3    1    3    3    0  502 -0.50512531864E+03 -0.41586623720E+03 -0.52261643211E+03  0.83739134226E+03  0.10100000352E+00 0.  1.
</event>
<event>
 5   0  0.2421737E-04  0.1986932E+04  0.7818609E-02  0.8612755E-01
        2   -1    0    0  501    0  0.00000000000E+00  0.00000000000E+00  0.14535332342E+04  0.14535332342E+04  0.25500000920E-02 0. -1.
       -2   -1    0    0    0  501  0.00000000000E+00  0.00000000000E+00 -0.67901772815E+03  0.67901772816E+03  0.25500000920E-02 0.  1.
    10030    2    1    2    0    0  0.00000000000E+00  0.00000000000E+00  0.77451550601E+03  0.21325509623E+04  0.19869321422E+04 0.  0.
        1    1    3    3  502    0 -0.60546571865E+03 -0.60944430331E+03  0.92278852664E+03  0.12607734770E+04  0.50400001928E-02 0. -1.
       -1    1    3    3    0  502  0.60546571865E+03  0.60944430331E+03 -0.14827302063E+03  0.87177748536E+03  0.50400001928E-02 0.  1.
</event>
<event>
 5   0  0.2540506E-04  0.2002953E+04  0.7818609E-02  0.8605241E-01
        2   -1    0    0  501    0  0.00000000000E+00  0.00000000000E+00  0.56400706866E+03  0.56400706866E+03  0.25500000920E-02 0.  1.
       -2   -1    0    0    0  501  0.00000000000E+00  0.00000000000E+00 -0.17782672408E+04  0.17782672408E+04  0.25500000920E-02 0. -1.
    10030    2    1    2    0    0  0.00000000000E+00  0.00000000000E+00 -0.12142601721E+04  0.23422743094E+04  0.20029531135E+04 0.  0.
        4    1    3    3  502    0  0.58693101735E+03 -0.39415043388E+03  0.22233654672E+03  0.74113273883E+03  0.12699999809E+01 0.  1.
       -4    1    3    3    0  502 -0.58693101735E+03  0.39415043388E+03 -0.14365967188E+04  0.16011415706E+04  0.12699999809E+01 0. -1.
</event>
<event>
 5   0  0.2540506E-04  0.1885445E+04  0.7818609E-02  0.8662135E-01
        2   -1    0    0  501    0  0.00000000000E+00  0.00000000000E+00  0.18427342100E+04  0.18427342100E+04  0.25500000920E-02 0.  1.
       -2   -1    0    0    0  501  0.00000000000E+00  0.00000000000E+00 -0.48228653526E+03  0.48228653527E+03  0.25500000920E-02 0. -1.
    10030    2    1    2    0    0  0.00000000000E+00  0.00000000000E+00  0.13604476747E+04  0.23250207452E+04  0.18854451968E+04 0.  0.
        4    1    3    3  502    0  0.58866744608E+03  0.68485838341E+03  0.34667349278E+03  0.96733887077E+03  0.12699999809E+01 0. -1.
       -4    1    3    3    0  502 -0.58866744608E+03 -0.68485838341E+03  0.10137741819E+04  0.13576818744E+04  0.12699999809E+01 0.  1.
</event>
<event>
 5   0  0.2463085E-04  0.2002370E+04  0.7818609E-02  0.8605513E-01
        2   -1    0    0  501    0  0.00000000000E+00  0.00000000000E+00  0.13850866969E+04  0.13850866969E+04  0.25500000920E-02 0. -1.
       -2   -1    0    0    0  501  0.00000000000E+00  0.00000000000E+00 -0.72368864674E+03  0.72368864674E+03  0.25500000920E-02 0.  1.
    10030    2    1    2    0    0  0.00000000000E+00  0.00000000000E+00  0.66139805019E+03  0.21087753437E+04  0.20023701130E+04 0.  0.
        2    1    3    3  502    0  0.90113988523E+02  0.81427693154E+03  0.93678437976E+03  0.12444807858E+04  0.25500000920E-02 0. -1.
       -2    1    3    3    0  502 -0.90113988523E+02 -0.81427693154E+03 -0.27538632957E+03  0.86429455783E+03  0.25500000920E-02 0.  1.
</event>
<event>
 5   0  0.2488886E-04  0.2076135E+04  0.7818609E-02  0.8571829E-01
       -2   -1    0    0    0  501  0.00000000000E+00  0.00000000000E+00  0.96198366914E+03  0.96198366914E+03  0.25500000920E-02 0. -1.
        2   -1    0    0  501    0  0.00000000000E+00  0.00000000000E+00 -0.11201690688E+04  0.11201690688E+04  0.25500000920E-02 0.  1.
    10030    2    1    2    0    0  0.00000000000E+00  0.00000000000E+00 -0.15818539967E+03  0.20821527380E+04  0.20761352084E+04 0.  0.
        3    1    3    3  502    0  0.23619411235E+03 -0.53403021474E+03 -0.93983924416E+03  0.11064690434E+04  0.10100000352E+00 0.  1.
       -3    1    3    3    0  502 -0.23619411235E+03  0.53403021474E+03  0.78165384449E+03  0.97568369454E+03  0.10100000352E+00 0. -1.
</event>
<event>
 5   0  0.1231056E-04  0.1480184E+04  0.7818609E-02  0.8897738E-01
        1   -1    0    0  501    0  0.00000000000E+00  0.00000000000E+00  0.61128202810E+03  0.61128202812E+03  0.50400001928E-02 0.  1.
       -1   -1    0    0    0  501  0.00000000000E+00  0.00000000000E+00 -0.89604465855E+03  0.89604465856E+03  0.50400001928E-02 0. -1.
    10030    2    1    2    0    0  0.00000000000E+00  0.00000000000E+00 -0.28476263045E+03  0.15073266867E+04  0.14801837672E+04 0.  0.
        3    1    3    3  502    0 -0.38301861337E+03  0.44985148382E+03 -0.59627477995E+03  0.83941243682E+03  0.10100000352E+00 0. -1.
       -3    1    3    3    0  502  0.38301861337E+03 -0.44985148382E+03  0.31151214949E+03  0.66791424986E+03  0.10100000352E+00 0.  1.
</event>
<event>
 5   0  0.1258546E-04  0.2010268E+04  0.7818609E-02  0.8601835E-01
       -1   -1    0    0    0  501  0.00000000000E+00  0.00000000000E+00  0.63661872887E+03  0.63661872889E+03  0.50400001928E-02 0. -1.
        1   -1    0    0  501    0  0.00000000000E+00  0.00000000000E+00 -0.15869697705E+04  0.15869697705E+04  0.50400001928E-02 0.  1.
    10030    2    1    2    0    0  0.00000000000E+00  0.00000000000E+00 -0.95035104164E+03  0.22235884994E+04  0.20102683185E+04 0.  0.
        4    1    3    3  502    0 -0.54553278911E+03 -0.68875788555E+03  0.64785068157E+02  0.88101768817E+03  0.12699999809E+01 0. -1.
       -4    1    3    3    0  502  0.54553278911E+03  0.68875788555E+03 -0.10151361098E+04  0.13425708112E+04  0.12699999809E+01 0.  1.
</event>
<event>
 5   0  0.2488886E-04  0.2053440E+04  0.7818609E-02  0.8582035E-01
       -2   -1    0    0    0  501  0.00000000000E+00  0.00000000000E+00  0.65199864870E+03  0.65199864871E+03  0.25500000920E-02 0.  1.
        2   -1    0    0  501    0  0.00000000000E+00  0.00000000000E+00 -0.16168035987E+04  0.16168035987E+04  0.25500000920E-02 0. -1.
    10030    2    1    2    0    0  0.00000000000E+00  0.00000000000E+00 -0.96480495004E+03  0.22688022475E+04  0.20534398083E+04 0.  0.
        3    1    3    3  502    0 -0.23819676705E+03  0.52832710709E+03  0.45400209501E+03  0.73619640341E+03  0.10100000352E+00 0.  1.
       -3    1    3    3    0  502  0.23819676705E+03 -0.52832710709E+03 -0.14188070451E+04  0.15326058440E+04  0.10100000352E+00 0. -1.
</event>
<event>
 5   0  0.2463085E-04  0.1982378E+04  0.7818609E-02  0.8614904E-01
       -2   -1    0    0    0  501  0.00000000000E+00  0.00000000000E+00  0.55985052120E+03  0.55985052120E+03  0.25500000920E-02 0.  1.
        2   -1    0    0  501    0  0.00000000000E+00  0.00000000000E+00 -0.17548526621E+04  0.17548526621E+04  0.25500000920E-02 0. -1.
    10030    2    1    2    0    0  0.00000000000E+00  0.00000000000E+00 -0.11950021409E+04  0.23147031833E+04  0.19823775397E+04 0.  0.
        2    1    3    3  502    0 -0.16166664104E+03 -0.47844013708E+03 -0.15933645379E+04  0.16714818630E+04  0.25500000920E-02 0. -1.
       -2    1    3    3    0  502  0.16166664104E+03  0.47844013708E+03  0.39836239699E+03  0.64322132034E+03  0.25500000920E-02 0.  1.
</event>
<event>
 5   0  0.1207228E-04  0.2026804E+04  0.7818609E-02  0.8594191E-01
       -1   -1    0    0    0  501  0.00000000000E+00  0.00000000000E+00  0.82137669418E+03  0.82137669420E+03  0.50400001928E-02 0. -1.
        1   -1    0    0  501    0  0.00000000000E+00  0.00000000000E+00 -0.12503194984E+04  0.12503194984E+04  0.50400001928E-02 0.  1.
    10030    2    1    2    0    0  0.00000000000E+00  0.00000000000E+00 -0.42894280424E+03  0.20716961926E+04  0.20268036869E+04 0.  0.
        1    1    3    3  502    0  0.67416442774E+02 -0.10496462843E+03 -0.12424410958E+04  0.12486882824E+04  0.50400001928E-02 0.  1.
       -1    1    3    3    0  502 -0.67416442774E+02  0.10496462843E+03  0.81349829155E+03  0.82300791026E+03  0.50400001928E-02 0. -1.
</event>
<event>
 5   0  0.2421737E-04  0.1961285E+04  0.7818609E-02  0.8624938E-01
        2   -1    0    0  501    0  0.00000000000E+00  0.00000000000E+00  0.17621454583E+04  0.17621454583E+04  0.25500000920E-02 0.  1.
       -2   -1    0    0    0  501  0.00000000000E+00  0.00000000000E+00 -0.54573247220E+03  0.54573247221E+03  0.25500000920E-02 0. -1.
    10030    2    1    2    0    0  0.00000000000E+00  0.00000000000E+00  0.12164129861E+04  0.23078779305E+04  0.19612852902E+04 0.  0.
        1    1    3    3  502    0  0.10770083942E+03  0.30397127534E+03  0.16979646911E+04  0.17283177079E+04  0.50400001928E-02 0.  1.
       -1    1    3    3    0  502 -0.10770083942E+03 -0.30397127534E+03 -0.48155170501E+03  0.57956022264E+03  0.50400001928E-02 0. -1.
</event>
<event>
 5   0  0.1210633E-04  0.2211204E+04  0.7818609E-02  0.8513779E-01
       -1   -1    0    0    0  501  0.00000000000E+00  0.00000000000E+00  0.89200876717E+03  0.89200876718E+03  0.50400001928E-02 0. -1.
        1   -1    0    0  501    0  0.00000000000E+00  0.00000000000E+00 -0.13703399687E+04  0.13703399687E+04  0.50400001928E-02 0.  1.
    10030    2    1    2    0    0  0.00000000000E+00  0.00000000000E+00 -0.47833120155E+03  0.22623487359E+04  0.22112035330E+04 0.  0.
        2    1    3    3  502    0  0.19677467590E+03 -0.94075370717E+03  0.31993302773E+03  0.10129634509E+04  0.25500000920E-02 0. -1.
       -2    1    3    3    0  502 -0.19677467590E+03  0.94075370717E+03 -0.79826422928E+03  0.12493852850E+04  0.25500000920E-02 0.  1.
</event>
<event>
 5   0  0.2596061E-04  0.1343118E+04  0.7818609E-02  0.8996054E-01
       -2   -1    0    0    0  501  0.00000000000E+00  0.00000000000E+00  0.24067489959E+03  0.24067489961E+03  0.25500000920E-02 0.  1.
        2   -1    0    0  501    0  0.00000000000E+00  0.00000000000E+00 -0.18738624079E+04  0.18738624079E+04  0.25500000920E-02 0. -1.
    10030    2    1    2    0    0  0.00000000000E+00  0.00000000000E+00 -0.16331875083E+04  0.21145373075E+04  0.13431182329E+04 0.  0.
        5    1    3    3  502    0 -0.15593908554E+03  0.63839295793E+03 -0.59897453751E+03  0.88918791812E+03  0.46999998093E+01 0.  1.
       -5    1    3    3    0  502  0.15593908554E+03 -0.63839295793E+03 -0.10342129708E+04  0.12253493894E+04  0.46999998093E+01 0. -1.
</event>
<event>
 5   0  0.1210633E-04  0.1957936E+04  0.7818609E-02  0.8626543E-01
       -1   -1    0    0    0  501  0.00000000000E+00  0.00000000000E+00  0.12499736346E+04  0.12499736346E+04  0.50400001928E-02 0.  1.
        1   -1    0    0  501    0  0.00000000000E+00  0.00000000000E+00 -0.76671875208E+03  0.76671875210E+03  0.50400001928E-02 0. -1.
    10030    2    1    2    0    0  0.00000000000E+00  0.00000000000E+00  0.48325488250E+03  0.20166923867E+04  0.19579358777E+04 0.  0.
        2    1    3    3  502    0 -0.30721706825E+02 -0.91262626086E+03  0.60513133525E+03  0.10954517097E+04  0.25500000920E-02 0. -1.
       -2    1    3    3    0  502  0.30721706825E+02  0.91262626086E+03 -0.12187645275E+03  0.92124067704E+03  0.25500000920E-02 0.  1.
</event>
<event>
 5   0  0.1231056E-04  0.1941856E+04  0.7818609E-02  0.8634298E-01
        1   -1    0    0  501    0  0.00000000000E+00  0.00000000000E+00  0.20567049316E+04  0.20567049316E+04  0.50400001928E-02 0. -1.
       -1   -1    0    0    0  501  0.00000000000E+00  0.00000000000E+00 -0.45835508727E+03  0.45835508730E+03  0.50400001928E-02 0.  1.
    10030    2    1    2    0    0  0.00000000000E+00  0.00000000000E+00  0.15983498444E+04  0.25150600189E+04  0.19418559869E+04 0.  0.
        3    1    3    3  502    0  0.12543060651E+03  0.17785824605E+03 -0.42635539483E+03  0.47869126339E+03  0.10100000352E+00 0.  1.
       -3    1    3    3    0  502 -0.12543060651E+03 -0.17785824605E+03  0.20247052392E+04  0.20363687555E+04  0.10100000352E+00 0. -1.
</event>
<event>
 5   0  0.1324930E-04  0.1997223E+04  0.7818609E-02  0.8607920E-01
        1   -1    0    0  501    0  0.00000000000E+00  0.00000000000E+00  0.12829289632E+04  0.12829289632E+04  0.50400001928E-02 0. -1.
       -1   -1    0    0    0  501  0.00000000000E+00  0.00000000000E+00 -0.77730347004E+03  0.77730347006E+03  0.50400001928E-02 0.  1.
    10030    2    1    2    0    0  0.00000000000E+00  0.00000000000E+00  0.50562549312E+03  0.20602324332E+04  0.19972232073E+04 0.  0.
        5    1    3    3  502    0 -0.27872212610E+03  0.95865191508E+03  0.27596008241E+03  0.10357970723E+04  0.46999998093E+01 0.  1.
       -5    1    3    3    0  502  0.27872212610E+03 -0.95865191508E+03  0.22966541071E+03  0.10244353609E+04  0.46999998093E+01 0. -1.
</event>
<event>
 5   0  0.2421737E-04  0.2039465E+04  0.7818609E-02  0.8588388E-01
        2   -1    0    0  501    0  0.00000000000E+00  0.00000000000E+00  0.15792206254E+04  0.15792206254E+04  0.25500000920E-02 0. -1.
       -2   -1    0    0    0  501  0.00000000000E+00  0.00000000000E+00 -0.65846079861E+03  0.65846079862E+03  0.25500000920E-02 0.  1.
    10030    2    1    2    0    0  0.00000000000E+00  0.00000000000E+00  0.92075982683E+03  0.22376814241E+04  0.20394654929E+04 0.  0.
        1    1    3    3  502    0  0.72992098099E+02  0.17819998163E+02  0.15761793846E+04  0.15779692175E+04  0.50400001928E-02 0. -1.
       -1    1    3    3    0  502 -0.72992098099E+02 -0.17819998163E+02 -0.65541955781E+03  0.65971220658E+03  0.50400001928E-02 0.  1.
</event>
<event>
 5   0  0.1231056E-04  0.2015859E+04  0.7818609E-02  0.8599242E-01
       -1   -1    0    0    0  501  0.00000000000E+00  0.00000000000E+00  0.14073233035E+04  0.14073233035E+04  0.50400001928E-02 0.  1.
        1   -1    0    0  501    0  0.00000000000E+00  0.00000000000E+00 -0.72188215293E+03  0.72188215295E+03  0.50400001928E-02 0. -1.
    10030    2    1    2    0    0  0.00000000000E+00  0.00000000000E+00  0.68544115053E+03  0.21292054564E+04  0.20158587016E+04 0.  0.
        3    1    3    3  502    0  0.23900274504E+03 -0.54364839726E+02  0.13753652932E+04  0.13970352708E+04  0.10100000352E+00 0.  1.
       -3    1    3    3    0  502 -0.23900274504E+03  0.54364839726E+02 -0.68992414264E+03  0.73217018564E+03  0.10100000352E+00 0. -1.
</event>
<event>
 5   0  0.2463085E-04  0.1972534E+04  0.7818609E-02  0.8619571E-01
       -2   -1    0    0    0  501  0.00000000000E+00  0.00000000000E+00  0.10838538929E+04  0.10838538929E+04  0.25500000920E-02 0. -1.
        2   -1    0    0  501    0  0.00000000000E+00  0.00000000000E+00 -0.89746663554E+03  0.89746663554E+03  0.25500000920E-02 0.  1.
    10030    2    1    2    0    0  0.00000000000E+00  0.00000000000E+00  0.18638725739E+03  0.19813205285E+04  0.19725341130E+04 0.  0.
        2    1    3    3  502    0  0.79453778613E+03  0.32107244096E+03 -0.39718682275E+03  0.94452907743E+03  0.25500000920E-02 0.  1.
       -2    1    3    3    0  502 -0.79453778613E+03 -0.32107244096E+03  0.58357408014E+03  0.10367914510E+04  0.25500000920E-02 0. -1.
</event>
<event>
 5   0  0.1258546E-04  0.2206200E+04  0.7818609E-02  0.8515852E-01
        1   -1    0    0  501    0  0.00000000000E+00  0.00000000000E+00  0.10332468158E+04  0.10332468158E+04  0.50400001928E-02 0. -1.
       -1   -1    0    0    0  501  0.00000000000E+00  0.00000000000E+00 -0.11776758879E+04  0.11776758879E+04  0.50400001928E-02 0.  1.
    10030    2    1    2    0    0  0.00000000000E+00  0.00000000000E+00 -0.14442907204E+03  0.22109227037E+04  0.22062002278E+04 0.  0.
        4    1    3    3  502    0  0.35896809187E+03 -0.76637703524E+02  0.97025097264E+03  0.10373620349E+04  0.12699999809E+01 0. -1.
       -4    1    3    3    0  502 -0.35896809187E+03  0.76637703524E+02 -0.11146800447E+04  0.11735606689E+04  0.12699999809E+01 0.  1.
</event>
<event>
 5   0  0.1324930E-04  0.2006509E+04  0.7818609E-02  0.8603583E-01
        1   -1    0    0  501    0  0.00000000000E+00  0.00000000000E+00  0.75291449777E+03  0.75291449779E+03  0.50400001928E-02 0.  1.
       -1   -1    0    0    0  501  0.00000000000E+00  0.00000000000E+00 -0.13368317635E+04  0.13368317635E+04  0.50400001928E-02 0. -1.
    10030    2    1    2    0    0  0.00000000000E+00  0.00000000000E+00 -0.58391726577E+03  0.20897462613E+04  0.20065094227E+04 0.  0.
        5    1    3    3  502    0 -0.81414080267E+03  0.38535425614E+03  0.16815404385E+03  0.91630836608E+03  0.46999998093E+01 0.  1.
       -5    1    3    3    0  502  0.81414080267E+03 -0.38535425614E+03 -0.75207130961E+03  0.11734378953E+04  0.46999998093E+01 0. -1.
</event>
<event>
 5   0  0.2596061E-04  0.1851023E+04  0.7818609E-02  0.8679627E-01
       -2   -1    0    0    0  501  0.00000000000E+00  0.00000000000E+00  0.51044831347E+03  0.51044831348E+03  0.25500000920E-02 0. -1.
        2   -1    0    0  501    0  0.00000000000E+00  0.00000000000E+00 -0.16780761436E+04  0.16780761436E+04  0.25500000920E-02 0.  1.
    10030    2    1    2    0    0  0.00000000000E+00  0.00000000000E+00 -0.11676278301E+04  0.21885244570E+04  0.18510225686E+04 0.  0.
        5    1    3    3  502    0  0.66168171836E+03 -0.39742713628E+03 -0.11875889949E+04  0.14163900366E+04  0.46999998093E+01 0. -1.
       -5    1    3    3    0  502 -0.66168171836E+03  0.39742713628E+03  0.19961164832E+02  0.77213442039E+03  0.46999998093E+01 0.  1.
</event>
<event>
 5   0  0.1324930E-04  0.2027104E+04  0.7818609E-02  0.8594053E-01
       -1   -1    0    0    0  501  0.00000000000E+00  0.00000000000E+00  0.11423854160E+04  0.11423854160E+04  0.50400001928E-02 0.  1.
        1   -1    0    0  501    0  0.00000000000E+00  0.00000000000E+00 -0.89924758788E+03  0.89924758789E+03  0.50400001928E-02 0. -1.
    10030    2    1    2    0    0  0.00000000000E+00  0.00000000000E+00  0.24313782811E+03  0.20416330039E+04  0.20271036775E+04 0.  0.
        5    1    3    3  502    0 -0.72107970773E+03  0.52413022409E+03 -0.36417077088E+03  0.96296982147E+03  0.46999998093E+01 0. -1.
       -5    1    3    3    0  502  0.72107970773E+03 -0.52413022409E+03  0.60730859898E+03  0.10786631824E+04  0.46999998093E+01 0.  1.
</event>
<event>
 5   0  0.1210633E-04  0.2019459E+04  0.7818609E-02  0.8597577E-01
        1   -1    0    0  501    0  0.00000000000E+00  0.00000000000E+00  0.22420874764E+04  0.22420874764E+04  0.50400001928E-02 0.  1.
       -1   -1    0    0    0  501  0.00000000000E+00  0.00000000000E+00 -0.45473406616E+03  0.45473406618E+03  0.50400001928E-02 0. -1.
    10030    2    1    2    0    0  0.00000000000E+00  0.00000000000E+00  0.17873534102E+04  0.26968215425E+04  0.20194588927E+04 0.  0.
        2    1    3    3  502    0 -0.75461839922E+02 -0.73040453276E+03  0.18192362297E+04  0.19618373353E+04  0.25500000920E-02 0.  1.
       -2    1    3    3    0  502  0.75461839922E+02  0.73040453276E+03 -0.31882819451E+02  0.73498420728E+03  0.25500000920E-02 0. -1.
</event>
<event>
 5   0  0.2421737E-04  0.1998456E+04  0.7818609E-02  0.8607343E-01
        2   -1    0    0  501    0  0.00000000000E+00  0.00000000000E+00  0.10215496796E+04  0.10215496796E+04  0.25500000920E-02 0.  1.
       -2   -1    0    0    0  501  0.00000000000E+00  0.00000000000E+00 -0.97739391598E+03  0.97739391598E+03  0.25500000920E-02 0. -1.
    10030    2    1    2    0    0  0.00000000000E+00  0.00000000000E+00  0.44155763578E+02  0.19989435955E+04  0.19984558456E+04 0.  0.
        1    1    3    3  502    0  0.65889427498E+03  0.45543097193E+03  0.61963259754E+03  0.10126715123E+04  0.50400001928E-02 0.  1.
       -1    1    3    3    0  502 -0.65889427498E+03 -0.45543097193E+03 -0.57547683396E+03  0.98627208327E+03  0.50400001928E-02 0. -1.
</event>
<event>
 5   0  0.1258546E-04  0.1945263E+04  0.7818609E-02  0.8632648E-01
       -1   -1    0    0    0  501  0.00000000000E+00  0.00000000000E+00  0.74135992044E+03  0.74135992046E+03  0.50400001928E-02 0.  1.
        1   -1    0    0  501    0  0.00000000000E+00  0.00000000000E+00 -0.12760496679E+04  0.12760496679E+04  0.50400001928E-02 0. -1.
    10030    2    1    2    0    0  0.00000000000E+00  0.00000000000E+00 -0.53468974745E+03  0.20174095884E+04  0.19452630468E+04 0.  0.
        4    1    3    3  502    0  0.72929291356E+03 -0.57318346577E+03 -0.57077612490E+03  0.10891255377E+04  0.12699999809E+01 0. -1.
       -4    1    3    3    0  502 -0.72929291356E+03  0.57318346577E+03  0.36086377445E+02  0.92828405067E+03  0.12699999809E+01 0.  1.
</event>
<event>
 5   0  0.2421737E-04  0.1921354E+04  0.7818609E-02  0.8644299E-01
       -2   -1    0    0    0  501  0.00000000000E+00  0.00000000000E+00  0.93137490597E+03  0.93137490597E+03  0.25500000920E-02 0.  1.
        2   -1    0    0  501    0  0.00000000000E+00  0.00000000000E+00 -0.99090140436E+03  0.99090140436E+03  0.25500000920E-02 0. -1.
    10030    2    1    2    0    0  0.00000000000E+00  0.00000000000E+00 -0.59526498390E+02  0.19222763103E+04  0.19213544205E+04 0.  0.
        1    1    3    3  502    0  0.73495200348E+03  0.48764935940E+02  0.58727267707E+03  0.94203060654E+03  0.50400001928E-02 0. -1.
       -1    1    3    3    0  502 -0.73495200348E+03 -0.48764935940E+02 -0.64679917546E+03  0.98024570379E+03  0.50400001928E-02 0.  1.
</event>
<event>
 5   0  0.2421737E-04  0.2000797E+04  0.7818609E-02  0.8606248E-01
        2   -1    0    0  501    0  0.00000000000E+00  0.00000000000E+00  0.22056529954E+04  0.22056529954E+04  0.25500000920E-02 0.  1.
       -2   -1    0    0    0  501  0.00000000000E+00  0.00000000000E+00 -0.45374172021E+03  0.45374172022E+03  0.25500000920E-02 0. -1.
    10030    2    1    2    0    0  0.00000000000E+00  0.00000000000E+00  0.17519112752E+04  0.26593947156E+04  0.20007966257E+04 0.  0.
        1    1    3    3  502    0 -0.84906971098E+02  0.37959839295E+03  0.21010221491E+04  0.21367260481E+04  0.50400001928E-02 0.  1.
       -1    1    3    3    0  502  0.84906971098E+02 -0.37959839295E+03 -0.34911087391E+03  0.52266866750E+03  0.50400001928E-02 0. -1.
</event>
<event>
 5   0  0.1258546E-04  0.1964002E+04  0.7818609E-02  0.8623639E-01
       -1   -1    0    0    0  501  0.00000000000E+00  0.00000000000E+00  0.81556671748E+03  0.81556671750E+03  0.50400001928E-02 0.  1.
        1   -1    0    0  501    0  0.00000000000E+00  0.00000000000E+00 -0.11823992657E+04  0.11823992657E+04  0.50400001928E-02 0. -1.
    10030    2    1    2    0    0  0.00000000000E+00  0.00000000000E+00 -0.36683254818E+03  0.19979659832E+04  0.19640015151E+04 0.  0.
        4    1    3    3  502    0  0.17970344940E+03  0.70385186112E+03  0.48878545782E+03  0.87556473708E+03  0.12699999809E+01 0.  1.
       -4    1    3    3    0  502 -0.17970344940E+03 -0.70385186112E+03 -0.85561800600E+03  0.11224012461E+04  0.12699999809E+01 0. -1.
</event>
<event>
 5   0  0.1231056E-04  0.1224979E+04  0.7818609E-02  0.9091269E-01
       -1   -1    0    0    0  501  0.00000000000E+00  0.00000000000E+00  0.50439052284E+03  0.50439052287E+03  0.50400001928E-02 0. -1.
        1   -1    0    0  501    0  0.00000000000E+00  0.00000000000E+00 -0.74375571237E+03  0.74375571238E+03  0.50400001928E-02 0.  1.
    10030    2    1    2    0    0  0.00000000000E+00  0.00000000000E+00 -0.23936518952E+03  0.12481462352E+04  0.12249789103E+04 0.  0.
        3    1    3    3  502    0  0.13016174764E+02 -0.40944999027E+03 -0.58362309333E+03  0.71304602980E+03  0.10100000352E+00 0.  1.
       -3    1    3    3    0  502 -0.13016174764E+02  0.40944999027E+03  0.34425790381E+03  0.53510020545E+03  0.10100000352E+00 0. -1.
</event>
<event>
 5   0  0.2540506E-04  0.1626524E+04  0.7818609E-02  0.8804417E-01
       -2   -1    0    0    0  501  0.00000000000E+00  0.00000000000E+00  0.49944675656E+03  0.49944675656E+03  0.25500000920E-02 0.  1.
        2   -1    0    0  501    0  0.00000000000E+00  0.00000000000E+00 -0.13242552915E+04  0.13242552915E+04  0.25500000920E-02 0. -1.
    10030    2    1    2    0    0  0.00000000000E+00  0.00000000000E+00 -0.82480853490E+03  0.18237020480E+04  0.16265239134E+04 0.  0.
        4    1    3    3  502    0  0.32843520276E+03  0.35795089213E+03  0.31888560526E+03  0.58110942664E+03  0.12699999809E+01 0.  1.
       -4    1    3    3    0  502 -0.32843520276E+03 -0.35795089213E+03 -0.11436941402E+04  0.12425926214E+04  0.12699999809E+01 0. -1.
</event>
<event>
 5   0  0.1258546E-04  0.2009268E+04  0.7818609E-02  0.8602300E-01
       -1   -1    0    0    0  501  0.00000000000E+00  0.00000000000E+00  0.16668776374E+04  0.16668776374E+04  0.50400001928E-02 0.  1.
        1   -1    0    0  501    0  0.00000000000E+00  0.00000000000E+00 -0.60549689341E+03  0.60549689343E+03  0.50400001928E-02 0. -1.
    10030    2    1    2    0    0  0.00000000000E+00  0.00000000000E+00  0.10613807440E+04  0.22723745309E+04  0.20092677584E+04 0.  0.
        4    1    3    3  502    0  0.52224501447E+03  0.35638154546E+02 -0.43907749654E+03  0.68322806885E+03  0.12699999809E+01 0. -1.
       -4    1    3    3    0  502 -0.52224501447E+03 -0.35638154546E+02  0.15004582406E+04  0.15891464620E+04  0.12699999809E+01 0.  1.
</event>
<event>
 5   0  0.1207228E-04  0.1999400E+04  0.7818609E-02  0.8606901E-01
        1   -1    0    0  501    0  0.00000000000E+00  0.00000000000E+00  0.25127910308E+04  0.25127910308E+04  0.50400001928E-02 0. -1.
       -1   -1    0    0    0  501  0.00000000000E+00  0.00000000000E+00 -0.39772503393E+03  0.39772503396E+03  0.50400001928E-02 0.  1.
    10030    2    1    2    0    0  0.00000000000E+00  0.00000000000E+00  0.21150659969E+04  0.29105160648E+04  0.19993998080E+04 0.  0.
        1    1    3    3  502    0  0.71529923198E+02 -0.65535474696E+03 -0.36461678304E+02  0.66025436635E+03  0.50400001928E-02 0.  1.
       -1    1    3    3    0  502 -0.71529923198E+02  0.65535474696E+03  0.21515276752E+04  0.22502616984E+04  0.50400001928E-02 0. -1.
</event>
<event>
 5   0  0.1324930E-04  0.1969564E+04  0.7818609E-02  0.8620984E-01
        1   -1    0    0  501    0  0.00000000000E+00  0.00000000000E+00  0.10918891807E+04  0.10918891807E+04  0.50400001928E-02 0.  1.
       -1   -1    0    0    0  501  0.00000000000E+00  0.00000000000E+00 -0.88818155735E+03  0.88818155736E+03  0.50400001928E-02 0. -1.
    10030    2    1    2    0    0  0.00000000000E+00  0.00000000000E+00  0.20370762334E+03  0.19800707381E+04  0.19695642493E+04 0.  0.
        5    1    3    3  502    0 -0.75908808159E+03 -0.61802290876E+03  0.21016296234E+03  0.10011781021E+04  0.46999998093E+01 0.  1.
       -5    1    3    3    0  502  0.75908808159E+03  0.61802290876E+03 -0.64553389977E+01  0.97889263598E+03  0.46999998093E+01 0. -1.
</event>
<event>
 5   0  0.2540506E-04  0.2010590E+04  0.7818609E-02  0.8601685E-01
        2   -1    0    0  501    0  0.00000000000E+00  0.00000000000E+00  0.14369470444E+04  0.14369470444E+04  0.25500000920E-02 0.  1.
       -2   -1    0    0    0  501  0.00000000000E+00  0.00000000000E+00 -0.70330925320E+03  0.70330925320E+03  0.25500000920E-02 0. -1.
    10030    2    1    2    0    0  0.00000000000E+00  0.00000000000E+00  0.73363779123E+03  0.21402562976E+04  0.20105901151E+04 0.  0.
        4    1    3    3  502    0 -0.89758924790E+03  0.33583583741E+03  0.68998349094E+03  0.11809026202E+04  0.12699999809E+01 0.  1.
       -4    1    3    3    0  502  0.89758924790E+03 -0.33583583741E+03  0.43654300289E+02  0.95935367747E+03  0.12699999809E+01 0. -1.
</event>
<event>
 5   0  0.2463085E-04  0.1997399E+04  0.7818609E-02  0.8607838E-01
       -2   -1    0    0    0  501  0.00000000000E+00  0.00000000000E+00  0.69755270298E+03  0.69755270298E+03  0.25500000920E-02 0. -1.
        2   -1    0    0  501    0  0.00000000000E+00  0.00000000000E+00 -0.14298565867E+04  0.14298565867E+04  0.25500000920E-02 0.  1.
    10030    2    1    2    0    0  0.00000000000E+00  0.00000000000E+00 -0.73230388370E+03  0.21274092897E+04  0.19973986351E+04 0.  0.
        2    1    3    3  502    0 -0.55677566360E+03  0.54413364077E+03  0.30012103069E+03  0.83435795176E+03  0.25500000920E-02 0. -1.
       -2    1    3    3    0  502  0.55677566360E+03 -0.54413364077E+03 -0.10324249144E+04  0.12930513379E+04  0.25500000920E-02 0.  1.
</event>
<event>
 5   0  0.1324930E-04  0.2020904E+04  0.7818609E-02  0.8596909E-01
        1   -1    0    0  501    0  0.00000000000E+00  0.00000000000E+00  0.83450654080E+03  0.83450654081E+03  0.50400001928E-02 0.  1.
       -1   -1    0    0    0  501  0.00000000000E+00  0.00000000000E+00 -0.12234931659E+04  0.12234931659E+04  0.50400001928E-02 0. -1.
    10030    2    1    2    0    0  0.00000000000E+00  0.00000000000E+00 -0.38898662512E+03  0.20579997067E+04  0.20209038073E+04 0.  0.
        5    1    3    3  502    0  0.64974720619E+03  0.44916678363E+03 -0.83619400634E+03  0.11502889801E+04  0.46999998093E+01 0. -1.
       -5    1    3    3    0  502 -0.64974720619E+03 -0.44916678363E+03  0.44720738123E+03  0.90771072666E+03  0.46999998093E+01 0.  1.
</event>
<event>
 5   0  0.1207228E-04  0.1983706E+04  0.7818609E-02  0.8614277E-01
        1   -1    0    0  501    0  0.00000000000E+00  0.00000000000E+00  0.12941982732E+04  0.12941982732E+04  0.50400001928E-02 0.  1.
       -1   -1    0    0    0  501  0.00000000000E+00  0.00000000000E+00 -0.76014037777E+03  0.76014037778E+03  0.50400001928E-02 0. -1.
    10030    2    1    2    0    0  0.00000000000E+00  0.00000000000E+00  0.53405789539E+03  0.20543386509E+04  0.19837059906E+04 0.  0.
        1    1    3    3  502    0 -0.12153189384E+02  0.42214555805E+03 -0.66237677422E+03  0.78555557616E+03  0.50400001928E-02 0. -1.
       -1    1    3    3    0  502  0.12153189384E+02 -0.42214555805E+03  0.11964346696E+04  0.12687830748E+04  0.50400001928E-02 0.  1.
</event>
<event>
 5   0  0.2488886E-04  0.1948674E+04  0.7818609E-02  0.8631000E-01
       -2   -1    0    0    0  501  0.00000000000E+00  0.00000000000E+00  0.10879594623E+04  0.10879594623E+04  0.25500000920E-02 0.  1.
        2   -1    0    0  501    0  0.00000000000E+00  0.00000000000E+00 -0.87258090499E+03  0.87258090500E+03  0.25500000920E-02 0. -1.
    10030    2    1    2    0    0  0.00000000000E+00  0.00000000000E+00  0.21537855731E+03  0.19605403673E+04  0.19486740643E+04 0.  0.
        3    1    3    3  502    0  0.19498209874E+03  0.73900847573E+03  0.71567128703E+03  0.10470611001E+04  0.10100000352E+00 0.  1.
       -3    1    3    3    0  502 -0.19498209874E+03 -0.73900847573E+03 -0.50029272972E+03  0.91347926722E+03  0.10100000352E+00 0. -1.
</event>
<event>
 5   0  0.2540506E-04  0.1898257E+04  0.7818609E-02  0.8655724E-01
       -2   -1    0    0    0  501  0.00000000000E+00  0.00000000000E+00  0.79608774795E+03  0.79608774795E+03  0.25500000920E-02 0.  1.
        2   -1    0    0  501    0  0.00000000000E+00  0.00000000000E+00 -0.11315901230E+04  0.11315901230E+04  0.25500000920E-02 0. -1.
    10030    2    1    2    0    0  0.00000000000E+00  0.00000000000E+00 -0.33550237504E+03  0.19276778709E+04  0.18982571297E+04 0.  0.
        4    1    3    3  502    0 -0.32679236887E+02  0.79422792808E+03  0.35891736430E+03  0.87217499480E+03  0.12699999809E+01 0.  1.
       -4    1    3    3    0  502  0.32679236887E+02 -0.79422792808E+03 -0.69441973934E+03  0.10555028761E+04  0.12699999809E+01 0. -1.
</event>
<event>
 5   0  0.2540506E-04  0.2007867E+04  0.7818609E-02  0.8602951E-01
        2   -1    0    0  501    0  0.00000000000E+00  0.00000000000E+00  0.47825651830E+03  0.47825651831E+03  0.25500000920E-02 0.  1.
       -2   -1    0    0    0  501  0.00000000000E+00  0.00000000000E+00 -0.21074098746E+04  0.21074098746E+04  0.25500000920E-02 0. -1.
    10030    2    1    2    0    0  0.00000000000E+00  0.00000000000E+00 -0.16291533563E+04  0.25856663929E+04  0.20078670367E+04 0.  0.
        4    1    3    3  502    0 -0.40677636494E+03  0.21189488632E+03 -0.19646004538E+04  0.20174298030E+04  0.12699999809E+01 0. -1.
       -4    1    3    3    0  502  0.40677636494E+03 -0.21189488632E+03  0.33544709756E+03  0.56823658989E+03  0.12699999809E+01 0.  1.
</event>
<event>
 5   0  0.1231056E-04  0.2002848E+04  0.7818609E-02  0.8605290E-01
       -1   -1    0    0    0  501  0.00000000000E+00  0.00000000000E+00  0.70030216238E+03  0.70030216240E+03  0.50400001928E-02 0. -1.
        1   -1    0    0  501    0  0.00000000000E+00  0.00000000000E+00 -0.14320241706E+04  0.14320241706E+04  0.50400001928E-02 0.  1.
    10030    2    1    2    0    0  0.00000000000E+00  0.00000000000E+00 -0.73172200821E+03  0.21323263330E+04  0.20028475961E+04 0.  0.
        3    1    3    3  502    0  0.64016052796E+03  0.19271594885E+03  0.42792955568E+03  0.79376863967E+03  0.10100000352E+00 0. -1.
       -3    1    3    3    0  502 -0.64016052796E+03 -0.19271594885E+03 -0.11596515639E+04  0.13385576933E+04  0.10100000352E+00 0.  1.
</event>
<event>
 5   0  0.1231056E-04  0.2002580E+04  0.7818609E-02  0.8605415E-01
       -1   -1    0    0    0  501  0.00000000000E+00  0.00000000000E+00  0.64655486691E+03  0.64655486693E+03  0.50400001928E-02 0. -1.
        1   -1    0    0  501    0  0.00000000000E+00  0.00000000000E+00 -0.15506523002E+04  0.15506523002E+04  0.50400001928E-02 0.  1.
    10030    2    1    2    0    0  0.00000000000E+00  0.00000000000E+00 -0.90409743327E+03  0.21972071671E+04  0.20025801273E+04 0.  0.
        3    1    3    3  502    0  0.69866182815E+03  0.61318751203E+03 -0.43790764622E+02  0.93061534282E+03  0.10100000352E+00 0. -1.
       -3    1    3    3    0  502 -0.69866182815E+03 -0.61318751203E+03 -0.86030666865E+03  0.12665918243E+04  0.10100000352E+00 0.  1.
</event>
<event>
 5   0  0.1207228E-04  0.2029366E+04  0.7818609E-02  0.8593013E-01
       -1   -1    0    0    0  501  0.00000000000E+00  0.00000000000E+00  0.11742484218E+04  0.11742484218E+04  0.50400001928E-02 0.  1.
        1   -1    0    0  501    0  0.00000000000E+00  0.00000000000E+00 -0.87680065916E+03  0.87680065918E+03  0.50400001928E-02 0. -1.
    10030    2    1    2    0    0  0.00000000000E+00  0.00000000000E+00  0.29744776260E+03  0.20510490810E+04  0.20293661969E+04 0.  0.
        1    1    3    3  502    0 -0.37767338269E+03 -0.56840661123E+03  0.90765211287E+03  0.11355860239E+04  0.50400001928E-02 0.  1.
       -1    1    3    3    0  502  0.37767338269E+03  0.56840661123E+03 -0.61020435027E+03  0.91546305704E+03  0.50400001928E-02 0. -1.
</event>
<event>
 5   0  0.1210633E-04  0.2007812E+04  0.7818609E-02  0.8602977E-01
        1   -1    0    0  501    0  0.00000000000E+00  0.00000000000E+00  0.16944690611E+04  0.16944690611E+04  0.50400001928E-02 0.  1.
       -1   -1    0    0    0  501  0.00000000000E+00  0.00000000000E+00 -0.59477476639E+03  0.59477476641E+03  0.50400001928E-02 0. -1.
    10030    2    1    2    0    0  0.00000000000E+00  0.00000000000E+00  0.10996942947E+04  0.22892438275E+04  0.20078121825E+04 0.  0.
        2    1    3    3  502    0 -0.84764706011E+03  0.46789998728E+03  0.85234973029E+03  0.12899364323E+04  0.25500000920E-02 0. -1.
       -2    1    3    3    0  502  0.84764706011E+03 -0.46789998728E+03  0.24734456442E+03  0.99930739523E+03  0.25500000920E-02 0.  1.
</event>
<event>
 5   0  0.2488886E-04  0.2081710E+04  0.7818609E-02  0.8569343E-01
       -2   -1    0    0    0  501  0.00000000000E+00  0.00000000000E+00  0.56839921691E+03  0.56839921692E+03  0.25500000920E-02 0.  1.
        2   -1    0    0  501    0  0.00000000000E+00  0.00000000000E+00 -0.19060187696E+04  0.19060187696E+04  0.25500000920E-02 0. -1.
    10030    2    1    2    0    0  0.00000000000E+00  0.00000000000E+00 -0.13376195527E+04  0.24744179866E+04  0.20817104276E+04 0.  0.
        3    1    3    3  502    0 -0.59137094034E+03 -0.53525543687E+03  0.12603988602E+03  0.80752958760E+03  0.10100000352E+00 0.  1.
       -3    1    3    3    0  502  0.59137094034E+03  0.53525543687E+03 -0.14636594387E+04  0.16668883990E+04  0.10100000352E+00 0. -1.
</event>
<event>
 5   0  0.2488886E-04  0.1984409E+04  0.7818609E-02  0.8613945E-01
        2   -1    0    0  501    0  0.00000000000E+00  0.00000000000E+00  0.54840007197E+03  0.54840007197E+03  0.25500000920E-02 0.  1.
       -2   -1    0    0    0  501  0.00000000000E+00  0.00000000000E+00 -0.17951664477E+04  0.17951664477E+04  0.25500000920E-02 0. -1.
    10030    2    1    2    0    0  0.00000000000E+00  0.00000000000E+00 -0.12467663757E+04  0.23435665196E+04  0.19844086364E+04 0.  0.
        3    1    3    3  502    0 -0.11352584747E+03  0.48068542828E+03 -0.16396679028E+04  0.17124419525E+04  0.10100000352E+00 0. -1.
       -3    1    3    3    0  502  0.11352584747E+03 -0.48068542828E+03  0.39290152712E+03  0.63112456712E+03  0.10100000352E+00 0.  1.
</event>
<event>
 5   0  0.1231056E-04  0.1878579E+04  0.7818609E-02  0.8665593E-01
        1   -1    0    0  501    0  0.00000000000E+00  0.00000000000E+00  0.13910071594E+04  0.13910071594E+04  0.50400001928E-02 0. -1.
       -1   -1    0    0    0  501  0.00000000000E+00  0.00000000000E+00 -0.63426334315E+03  0.63426334317E+03  0.50400001928E-02 0.  1.
    10030    2    1    2    0    0  0.00000000000E+00  0.00000000000E+00  0.75674381627E+03  0.20252705026E+04  0.18785790921E+04 0.  0.
        3    1    3    3  502    0 -0.91258409909E+03 -0.15578878210E+03  0.20728208663E+03  0.94870741337E+03  0.10100000352E+00 0. -1.
       -3    1    3    3    0  502  0.91258409909E+03  0.15578878210E+03  0.54946172964E+03  0.10765630892E+04  0.10100000352E+00 0.  1.
</event>
<event>
 5   0  0.2463085E-04  0.2024922E+04  0.7818609E-02  0.8595057E-01
       -2   -1    0    0    0  501  0.00000000000E+00  0.00000000000E+00  0.79813203269E+03  0.79813203269E+03  0.25500000920E-02 0.  1.
        2   -1    0    0  501    0  0.00000000000E+00  0.00000000000E+00 -0.12843455902E+04  0.12843455902E+04  0.25500000920E-02 0. -1.
    10030    2    1    2    0    0  0.00000000000E+00  0.00000000000E+00 -0.48621355753E+03  0.20824776229E+04  0.20249220791E+04 0.  0.
        2    1    3    3  502    0 -0.57692527971E+03  0.14865542534E+03 -0.10849932844E+04  0.12378011315E+04  0.25500000920E-02 0. -1.
       -2    1    3    3    0  502  0.57692527971E+03 -0.14865542534E+03  0.59877972689E+03  0.84467649143E+03  0.25500000920E-02 0.  1.
</event>
<event>
 5   0  0.2421737E-04  0.1840640E+04  0.7818609E-02  0.8684981E-01
       -2   -1    0    0    0  501  0.00000000000E+00  0.00000000000E+00  0.12423548821E+04  0.12423548821E+04  0.25500000920E-02 0. -1.
        2   -1    0    0  501    0  0.00000000000E+00  0.00000000000E+00 -0.68176091089E+03  0.68176091089E+03  0.25500000920E-02 0.  1.
    10030    2    1    2    0    0  0.00000000000E+00  0.00000000000E+00  0.56059397118E+03  0.19241157930E+04  0.18406401018E+04 0.  0.
        1    1    3    3  502    0  0.12901816629E+03  0.30121030546E+03  0.11793087476E+04  0.12239862979E+04  0.50400001928E-02 0. -1.
       -1    1    3    3    0  502 -0.12901816629E+03 -0.30121030546E+03 -0.61871477637E+03  0.70012949507E+03  0.50400001928E-02 0.  1.
</event>
<event>
 5   0  0.2540506E-04  0.2008152E+04  0.7818609E-02  0.8602819E-01
        2   -1    0    0  501    0  0.00000000000E+00  0.00000000000E+00  0.16295053457E+04  0.16295053457E+04  0.25500000920E-02 0.  1.
       -2   -1    0    0    0  501  0.00000000000E+00  0.00000000000E+00 -0.61869633001E+03  0.61869633002E+03  0.25500000920E-02 0. -1.
    10030    2    1    2    0    0  0.00000000000E+00  0.00000000000E+00  0.10108090156E+04  0.22482016757E+04  0.20081523618E+04 0.  0.
        4    1    3    3  502    0 -0.57315808060E+03  0.47854429296E+03  0.12569573434E+04  0.14620048569E+04  0.12699999809E+01 0.  1.
       -4    1    3    3    0  502  0.57315808060E+03 -0.47854429296E+03 -0.24614832772E+03  0.78619681876E+03  0.12699999809E+01 0. -1.
</event>
<event>
 5   0  0.1324930E-04  0.1956181E+04  0.7818609E-02  0.8627386E-01
        1   -1    0    0  501    0  0.00000000000E+00  0.00000000000E+00  0.78209670794E+03  0.78209670796E+03  0.50400001928E-02 0. -1.
       -1   -1    0    0    0  501  0.00000000000E+00  0.00000000000E+00 -0.12232006289E+04  0.12232006289E+04  0.50400001928E-02 0.  1.
    10030    2    1    2    0    0  0.00000000000E+00  0.00000000000E+00 -0.44110392097E+03  0.20052973369E+04  0.19561811624E+04 0.  0.
        5    1    3    3  502    0 -0.82418546220E+03  0.33846637987E+03 -0.63416492403E+03  0.10936308368E+04  0.46999998093E+01 0.  1.
       -5    1    3    3    0  502  0.82418546220E+03 -0.33846637987E+03  0.19306100306E+03  0.91166650004E+03  0.46999998093E+01 0. -1.
</event>
<event>
 5   0  0.2421737E-04  0.2012816E+04  0.7818609E-02  0.8600652E-01
        2   -1    0    0  501    0  0.00000000000E+00  0.00000000000E+00  0.16178786931E+04  0.16178786931E+04  0.25500000920E-02 0.  1.
       -2   -1    0    0    0  501  0.00000000000E+00  0.00000000000E+00 -0.62603995321E+03  0.62603995322E+03  0.25500000920E-02 0. -1.
    10030    2    1    2    0    0  0.00000000000E+00  0.00000000000E+00  0.99183873994E+03  0.22439186464E+04  0.20128156412E+04 0.  0.
        1    1    3    3  502    0  0.30741969342E+03 -0.73299756609E+03  0.11840997688E+04  0.14261432475E+04  0.50400001928E-02 0.  1.
       -1    1    3    3    0  502 -0.30741969342E+03  0.73299756609E+03 -0.19226102887E+03  0.81777539890E+03  0.50400001928E-02 0. -1.
</event>
<event>
 5   0  0.2488886E-04  0.1973011E+04  0.7818609E-02  0.8619344E-01
       -2   -1    0    0    0  501  0.00000000000E+00  0.00000000000E+00  0.31673709632E+04  0.31673709632E+04  0.25500000920E-02 0.  1.
        2   -1    0    0  501    0  0.00000000000E+00  0.00000000000E+00 -0.30725594527E+03  0.30725594528E+03  0.25500000920E-02 0. -1.
    10030    2    1    2    0    0  0.00000000000E+00  0.00000000000E+00  0.28601150179E+04  0.34746269085E+04  0.19730114641E+04 0.  0.
        3    1    3    3  502    0 -0.47540085808E+03 -0.42803039695E+03  0.27525995284E+04  0.28259547361E+04  0.10100000352E+00 0.  1.
       -3    1    3    3    0  502  0.47540085808E+03  0.42803039695E+03  0.10751548957E+03  0.64867217242E+03  0.10100000352E+00 0. -1.
</event>
<event>
 5   0  0.1258546E-04  0.2137809E+04  0.7818609E-02  0.8544769E-01
       -1   -1    0    0    0  501  0.00000000000E+00  0.00000000000E+00  0.97717643521E+03  0.97717643522E+03  0.50400001928E-02 0.  1.
        1   -1    0    0  501    0  0.00000000000E+00  0.00000000000E+00 -0.11692432281E+04  0.11692432281E+04  0.50400001928E-02 0. -1.
    10030    2    1    2    0    0  0.00000000000E+00  0.00000000000E+00 -0.19206679286E+03  0.21464196633E+04  0.21378090930E+04 0.  0.
        4    1    3    3  502    0 -0.70027421411E+03 -0.14414292592E+03  0.70177021535E+03  0.10018204460E+04  0.12699999809E+01 0.  1.
       -4    1    3    3    0  502  0.70027421411E+03  0.14414292592E+03 -0.89383700821E+03  0.11445992173E+04  0.12699999809E+01 0. -1.
</event>
<event>
 5   0  0.2596061E-04  0.1927884E+04  0.7818609E-02  0.8641100E-01
       -2   -1    0    0    0  501  0.00000000000E+00  0.00000000000E+00  0.61489086178E+03  0.61489086178E+03  0.25500000920E-02 0.  1.
        2   -1    0    0  501    0  0.00000000000E+00  0.00000000000E+00 -0.15111367337E+04  0.15111367337E+04  0.25500000920E-02 0. -1.
    10030    2    1    2    0    0  0.00000000000E+00  0.00000000000E+00 -0.89624587192E+03  0.21260275955E+04  0.19278839887E+04 0.  0.
        5    1    3    3  502    0  0.16947597324E+03  0.37189800747E+03 -0.14108497214E+04  0.14688598503E+04  0.46999998093E+01 0. -1.
       -5    1    3    3    0  502 -0.16947597324E+03 -0.37189800747E+03  0.51460384945E+03  0.65716774520E+03  0.46999998093E+01 0.  1.
</event>
<event>
 5   0  0.2463085E-04  0.1952113E+04  0.7818609E-02  0.8629342E-01
        2   -1    0    0  501    0  0.00000000000E+00  0.00000000000E+00  0.21750495869E+04  0.21750495869E+04  0.25500000920E-02 0.  1.
       -2   -1    0    0    0  501  0.00000000000E+00  0.00000000000E+00 -0.43800673876E+03  0.43800673877E+03  0.25500000920E-02 0. -1.
    10030    2    1    2    0    0  0.00000000000E+00  0.00000000000E+00  0.17370428482E+04  0.26130563257E+04  0.19521130871E+04 0.  0.
        2    1    3    3  502    0 -0.46656833764E+03  0.80479721780E+03  0.12640295395E+04  0.15694442495E+04  0.25500000920E-02 0.  1.
       -2    1    3    3    0  502  0.46656833764E+03 -0.80479721780E+03  0.47301330868E+03  0.10436120762E+04  0.25500000920E-02 0. -1.
</event>
<event>
 5   0  0.2463085E-04  0.1902591E+04  0.7818609E-02  0.8653568E-01
       -2   -1    0    0    0  501  0.00000000000E+00  0.00000000000E+00  0.64827216156E+03  0.64827216157E+03  0.25500000920E-02 0.  1.
        2   -1    0    0  501    0  0.00000000000E+00  0.00000000000E+00 -0.13959617081E+04  0.13959617081E+04  0.25500000920E-02 0. -1.
    10030    2    1    2    0    0  0.00000000000E+00  0.00000000000E+00 -0.74768954654E+03  0.20442338697E+04  0.19025909849E+04 0.  0.
        2    1    3    3  502    0  0.26065486468E+03  0.42433759233E+01  0.60914488875E+03  0.66258317231E+03  0.25500000920E-02 0.  1.
       -2    1    3    3    0  502 -0.26065486468E+03 -0.42433759233E+01 -0.13568344353E+04  0.13816506974E+04  0.25500000920E-02 0. -1.
</event>
<event>
 5   0  0.1231056E-04  0.2007211E+04  0.7818609E-02  0.8603257E-01
       -1   -1    0    0    0  501  0.00000000000E+00  0.00000000000E+00  0.10515009332E+04  0.10515009332E+04  0.50400001928E-02 0. -1.
        1   -1    0    0  501    0  0.00000000000E+00  0.00000000000E+00 -0.95789142364E+03  0.95789142365E+03  0.50400001928E-02 0.  1.
    10030    2    1    2    0    0  0.00000000000E+00  0.00000000000E+00  0.93609509591E+02  0.20093923569E+04  0.20072107273E+04 0.  0.
        3    1    3    3  502    0  0.85143704985E+03  0.52597619605E+03 -0.28294826798E+02  0.10011975909E+04  0.10100000352E+00 0. -1.
       -3    1    3    3    0  502 -0.85143704985E+03 -0.52597619605E+03  0.12190433639E+03  0.10081947660E+04  0.10100000352E+00 0.  1.
</event>
<event>
 5   0  0.1210633E-04  0.2092938E+04  0.7818609E-02  0.8564360E-01
        1   -1    0    0  501    0  0.00000000000E+00  0.00000000000E+00  0.12015494832E+04  0.12015494832E+04  0.50400001928E-02 0.  1.
       -1   -1    0    0    0  501  0.00000000000E+00  0.00000000000E+00 -0.91140464099E+03  0.91140464100E+03  0.50400001928E-02 0. -1.
    10030    2    1    2    0    0  0.00000000000E+00  0.00000000000E+00  0.29014484218E+03  0.21129541242E+04  0.20929383893E+04 0.  0.
        2    1    3    3  502    0 -0.32833073424E+03  0.49285287018E+03 -0.72596074529E+03  0.93686926858E+03  0.25500000920E-02 0. -1.
       -2    1    3    3    0  502  0.32833073424E+03 -0.49285287018E+03  0.10161055875E+04  0.11760848556E+04  0.25500000920E-02 0.  1.
</event>
<event>
 5   0  0.2421737E-04  0.1927091E+04  0.7818609E-02  0.8641488E-01
       -2   -1    0    0    0  501  0.00000000000E+00  0.00000000000E+00  0.76167162446E+03  0.76167162446E+03  0.25500000920E-02 0.  1.
        2   -1    0    0  501    0  0.00000000000E+00  0.00000000000E+00 -0.12189240768E+04  0.12189240768E+04  0.25500000920E-02 0. -1.
    10030    2    1    2    0    0  0.00000000000E+00  0.00000000000E+00 -0.45725245234E+03  0.19805957013E+04  0.19270909492E+04 0.  0.
        1    1    3    3  502    0 -0.13483255451E+03  0.76621215419E+03 -0.81288029731E+03  0.11251823233E+04  0.50400001928E-02 0. -1.
       -1    1    3    3    0  502  0.13483255451E+03 -0.76621215419E+03  0.35562784497E+03  0.85541337792E+03  0.50400001928E-02 0.  1.
</event>
<event>
 5   0  0.9099125E-05  0.2020623E+04  0.7818609E-02  0.8597039E-01
        4   -1    0    0  501    0  0.00000000000E+00  0.00000000000E+00  0.12528361788E+04  0.12528368225E+04  0.12699999809E+01 0.  1.
       -4   -1    0    0    0  501  0.00000000000E+00  0.00000000000E+00 -0.81473316214E+03  0.81473415197E+03  0.12699999809E+01 0. -1.
    10030    2    1    2    0    0  0.00000000000E+00  0.00000000000E+00  0.43810301666E+03  0.20675709745E+04  0.20206225479E+04 0.  0.
        1    1    3    3  502    0  0.16925081495E+03 -0.41400029751E+03  0.11460178222E+04  0.12302028018E+04  0.50400001928E-02 0.  1.
       -1    1    3    3    0  502 -0.16925081495E+03  0.41400029751E+03 -0.70791480554E+03  0.83736817268E+03  0.50400001928E-02 0. -1.
</event>
<event>
 5   0  0.1324930E-04  0.1935842E+04  0.7818609E-02  0.8637218E-01
       -1   -1    0    0    0  501  0.00000000000E+00  0.00000000000E+00  0.51107286746E+03  0.51107286748E+03  0.50400001928E-02 0. -1.
        1   -1    0    0  501    0  0.00000000000E+00  0.00000000000E+00 -0.18331462761E+04  0.18331462762E+04  0.50400001928E-02 0.  1.
    10030    2    1    2    0    0  0.00000000000E+00  0.00000000000E+00 -0.13220734087E+04  0.23442191436E+04  0.19358422703E+04 0.  0.
        5    1    3    3  502    0  0.54008555760E+03  0.72303332693E+03 -0.23741050460E+03  0.93319635612E+03  0.46999998093E+01 0. -1.
       -5    1    3    3    0  502 -0.54008555760E+03 -0.72303332693E+03 -0.10846629041E+04  0.14110227875E+04  0.46999998093E+01 0.  1.
</event>
<event>
 5   0  0.2596061E-04  0.2006969E+04  0.7818609E-02  0.8603370E-01
       -2   -1    0    0    0  501  0.00000000000E+00  0.00000000000E+00  0.75271518883E+03  0.75271518883E+03  0.25500000920E-02 0.  1.
        2   -1    0    0  501    0  0.00000000000E+00  0.00000000000E+00 -0.13377977558E+04  0.13377977558E+04  0.25500000920E-02 0. -1.
    10030    2    1    2    0    0  0.00000000000E+00  0.00000000000E+00 -0.58508256692E+03  0.20905129446E+04  0.20069685502E+04 0.  0.
        5    1    3    3  502    0  0.93618456430E+02 -0.38323853209E+03  0.66853824714E+03  0.77627422072E+03  0.46999998093E+01 0.  1.
       -5    1    3    3    0  502 -0.93618456430E+02  0.38323853209E+03 -0.12536208141E+04  0.13142387239E+04  0.46999998093E+01 0. -1.
</event>
<event>
 5   0  0.9099125E-05  0.2000841E+04  0.7818609E-02  0.8606227E-01
       -4   -1    0    0    0  501  0.00000000000E+00  0.00000000000E+00  0.88461788648E+03  0.88461879812E+03  0.12699999809E+01 0.  1.
        4   -1    0    0  501    0  0.00000000000E+00  0.00000000000E+00 -0.11313809819E+04  0.11313816947E+04  0.12699999809E+01 0. -1.
    10030    2    1    2    0    0  0.00000000000E+00  0.00000000000E+00 -0.24676309545E+03  0.20160004929E+04  0.20008413135E+04 0.  0.
        5    1    3    3  502    0 -0.63059586404E+03 -0.70391022757E+03  0.20724885438E+03  0.96753032504E+03  0.46999998093E+01 0. -1.
       -5    1    3    3    0  502  0.63059586404E+03  0.70391022757E+03 -0.45401194983E+03  0.10484701678E+04  0.46999998093E+01 0.  1.
</event>
<event>
 5   0  0.1231056E-04  0.2001008E+04  0.7818609E-02  0.8606149E-01
        1   -1    0    0  501    0  0.00000000000E+00  0.00000000000E+00  0.10496986230E+04  0.10496986230E+04  0.50400001928E-02 0.  1.
       -1   -1    0    0    0  501  0.00000000000E+00  0.00000000000E+00 -0.95361505834E+03  0.95361505836E+03  0.50400001928E-02 0. -1.
    10030    2    1    2    0    0  0.00000000000E+00  0.00000000000E+00  0.96083564679E+02  0.20033136814E+04  0.20010081596E+04 0.  0.
        3    1    3    3  502    0 -0.35462152881E+03 -0.53732708108E+03 -0.71869411834E+03  0.96488241082E+03  0.10100000352E+00 0. -1.
       -3    1    3    3    0  502  0.35462152881E+03  0.53732708108E+03  0.81477768302E+03  0.10384312706E+04  0.10100000352E+00 0.  1.
</event>
<event>
 5   0  0.1324930E-04  0.2005418E+04  0.7818609E-02  0.8604092E-01
        1   -1    0    0  501    0  0.00000000000E+00  0.00000000000E+00  0.84744077140E+03  0.84744077142E+03  0.50400001928E-02 0.  1.
       -1   -1    0    0    0  501  0.00000000000E+00  0.00000000000E+00 -0.11864256095E+04  0.11864256095E+04  0.50400001928E-02 0. -1.
    10030    2    1    2    0    0  0.00000000000E+00  0.00000000000E+00 -0.33898483813E+03  0.20338663810E+04  0.20054180948E+04 0.  0.
        5    1    3    3  502    0  0.81514823314E+03 -0.10915736975E+03 -0.75123324324E+03  0.11138920276E+04  0.46999998093E+01 0. -1.
       -5    1    3    3    0  502 -0.81514823314E+03  0.10915736975E+03  0.41224840511E+03  0.91997435338E+03  0.46999998093E+01 0.  1.
</event>
<event>
 5   0  0.2463085E-04  0.2033441E+04  0.7818609E-02  0.8591143E-01
       -2   -1    0    0    0  501  0.00000000000E+00  0.00000000000E+00  0.56654568606E+03  0.56654568607E+03  0.25500000920E-02 0. -1.
        2   -1    0    0  501    0  0.00000000000E+00  0.00000000000E+00 -0.18246027668E+04  0.18246027668E+04  0.25500000920E-02 0.  1.
    10030    2    1    2    0    0  0.00000000000E+00  0.00000000000E+00 -0.12580570808E+04  0.23911484529E+04  0.20334412471E+04 0.  0.
        2    1    3    3  502    0 -0.95184216288E+03  0.15856589306E+01 -0.10492667526E+04  0.14166745340E+04  0.25500000920E-02 0.  1.
       -2    1    3    3    0  502  0.95184216288E+03 -0.15856589306E+01 -0.20879032817E+03  0.97447391883E+03  0.25500000920E-02 0. -1.
</event>
<event>
 5   0  0.2421737E-04  0.1891181E+04  0.7818609E-02  0.8659258E-01
        2   -1    0    0  501    0  0.00000000000E+00  0.00000000000E+00  0.94657095051E+03  0.94657095051E+03  0.25500000920E-02 0. -1.
       -2   -1    0    0    0  501  0.00000000000E+00  0.00000000000E+00 -0.94461139281E+03  0.94461139282E+03  0.25500000920E-02 0.  1.
    10030    2    1    2    0    0  0.00000000000E+00  0.00000000000E+00  0.19595576922E+01  0.18911823433E+04  0.18911813281E+04 0.  0.
        1    1    3    3  502    0 -0.17774915545E+03  0.89986080928E+03  0.23075689321E+03  0.94582925633E+03  0.50400001928E-02 0. -1.
       -1    1    3    3    0  502  0.17774915545E+03 -0.89986080928E+03 -0.22879733552E+03  0.94535308700E+03  0.50400001928E-02 0.  1.
</event>
<event>
 5   0  0.1231056E-04  0.1998407E+04  0.7818609E-02  0.8607366E-01
       -1   -1    0    0    0  501  0.00000000000E+00  0.00000000000E+00  0.16531293854E+04  0.16531293854E+04  0.50400001928E-02 0.  1.
        1   -1    0    0  501    0  0.00000000000E+00  0.00000000000E+00 -0.60395013489E+03  0.60395013491E+03  0.50400001928E-02 0. -1.
    10030    2    1    2    0    0  0.00000000000E+00  0.00000000000E+00  0.10491792505E+04  0.22570795203E+04  0.19984070810E+04 0.  0.
        3    1    3    3  502    0 -0.73670773168E+03 -0.38466624984E+03 -0.10191973731E+03  0.83731359044E+03  0.10100000352E+00 0. -1.
       -3    1    3    3    0  502  0.73670773168E+03  0.38466624984E+03  0.11510989878E+04  0.14197659298E+04  0.10100000352E+00 0.  1.
</event>
<event>
 5   0  0.2421737E-04  0.2022599E+04  0.7818609E-02  0.8596127E-01
        2   -1    0    0  501    0  0.00000000000E+00  0.00000000000E+00  0.14925652845E+04  0.14925652845E+04  0.25500000920E-02 0.  1.
       -2   -1    0    0    0  501  0.00000000000E+00  0.00000000000E+00 -0.68521435850E+03  0.68521435851E+03  0.25500000920E-02 0. -1.
    10030    2    1    2    0    0  0.00000000000E+00  0.00000000000E+00  0.80735092595E+03  0.21777796430E+04  0.20225994798E+04 0.  0.
        1    1    3    3  502    0  0.86483636456E+03  0.37548520383E+03  0.98300872510E+01  0.94288265781E+03  0.50400001928E-02 0. -1.
       -1    1    3    3    0  502 -0.86483636456E+03 -0.37548520383E+03  0.79752083870E+03  0.12348969852E+04  0.50400001928E-02 0.  1.
</event>
<event>
 5   0  0.2421737E-04  0.2019594E+04  0.7818609E-02  0.8597514E-01
        2   -1    0    0  501    0  0.00000000000E+00  0.00000000000E+00  0.13801624009E+04  0.13801624009E+04  0.25500000920E-02 0.  1.
       -2   -1    0    0    0  501  0.00000000000E+00  0.00000000000E+00 -0.73881908089E+03  0.73881908090E+03  0.25500000920E-02 0. -1.
    10030    2    1    2    0    0  0.00000000000E+00  0.00000000000E+00  0.64134332000E+03  0.21189814818E+04  0.20195943321E+04 0.  0.
        1    1    3    3  502    0 -0.69296466857E+03  0.24231491257E+02 -0.44955468085E+03  0.82636953486E+03  0.50400001928E-02 0. -1.
       -1    1    3    3    0  502  0.69296466857E+03 -0.24231491257E+02  0.10908980008E+04  0.12926119469E+04  0.50400001928E-02 0.  1.
</event>
<event>
 5   0  0.2596061E-04  0.2004447E+04  0.7818609E-02  0.8604544E-01
        2   -1    0    0  501    0  0.00000000000E+00  0.00000000000E+00  0.17043296957E+04  0.17043296957E+04  0.25500000920E-02 0. -1.
       -2   -1    0    0    0  501  0.00000000000E+00  0.00000000000E+00 -0.58935325466E+03  0.58935325466E+03  0.25500000920E-02 0.  1.
    10030    2    1    2    0    0  0.00000000000E+00  0.00000000000E+00  0.11149764410E+04  0.22936829503E+04  0.20044473085E+04 0.  0.
        5    1    3    3  502    0 -0.39818551556E+03 -0.68629005875E+03  0.12581161313E+04  0.14874219439E+04  0.46999998093E+01 0. -1.
       -5    1    3    3    0  502  0.39818551556E+03  0.68629005875E+03 -0.14313969024E+03  0.80626100642E+03  0.46999998093E+01 0.  1.
</event>
<event>
 5   0  0.2421737E-04  0.2007579E+04  0.7818609E-02  0.8603086E-01
        2   -1    0    0  501    0  0.00000000000E+00  0.00000000000E+00  0.16257069277E+04  0.16257069277E+04  0.25500000920E-02 0. -1.
       -2   -1    0    0    0  501  0.00000000000E+00  0.00000000000E+00 -0.61978759026E+03  0.61978759027E+03  0.25500000920E-02 0.  1.
    10030    2    1    2    0    0  0.00000000000E+00  0.00000000000E+00  0.10059193375E+04  0.22454945180E+04  0.20075786203E+04 0.  0.
        1    1    3    3  502    0  0.70621553573E+03 -0.14449766838E+02 -0.29475267970E+03  0.76539422580E+03  0.50400001928E-02 0.  1.
       -1    1    3    3    0  502 -0.70621553573E+03  0.14449766838E+02  0.13006720172E+04  0.14801002922E+04  0.50400001928E-02 0. -1.
</event>
<event>
 5   0  0.1207228E-04  0.1917906E+04  0.7818609E-02  0.8645994E-01
       -1   -1    0    0    0  501  0.00000000000E+00  0.00000000000E+00  0.50014570479E+03  0.50014570481E+03  0.50400001928E-02 0.  1.
        1   -1    0    0  501    0  0.00000000000E+00  0.00000000000E+00 -0.18386459004E+04  0.18386459004E+04  0.50400001928E-02 0. -1.
    10030    2    1    2    0    0  0.00000000000E+00  0.00000000000E+00 -0.13385001957E+04  0.23387916053E+04  0.19179059933E+04 0.  0.
        1    1    3    3  502    0  0.33957089783E+03  0.79394775599E+03 -0.16068010815E+03  0.87833907523E+03  0.50400001928E-02 0.  1.
       -1    1    3    3    0  502 -0.33957089783E+03 -0.79394775599E+03 -0.11778200875E+04  0.14604525300E+04  0.50400001928E-02 0. -1.
</event>
<event>
 5   0  0.1207228E-04  0.2035237E+04  0.7818609E-02  0.8590321E-01
       -1   -1    0    0    0  501  0.00000000000E+00  0.00000000000E+00  0.92617909104E+03  0.92617909106E+03  0.50400001928E-02 0.  1.
        1   -1    0    0  501    0  0.00000000000E+00  0.00000000000E+00 -0.11180851308E+04  0.11180851308E+04  0.50400001928E-02 0. -1.
    10030    2    1    2    0    0  0.00000000000E+00  0.00000000000E+00 -0.19190603975E+03  0.20442642219E+04  0.20352366645E+04 0.  0.
        1    1    3    3  502    0  0.12797563715E+03  0.77242418777E+01  0.91803439644E+03  0.92694367719E+03  0.50400001928E-02 0.  1.
       -1    1    3    3    0  502 -0.12797563715E+03 -0.77242418777E+01 -0.11099404362E+04  0.11173205447E+04  0.50400001928E-02 0. -1.
</event>
<event>
 5   0  0.1207228E-04  0.2001215E+04  0.7818609E-02  0.8606053E-01
       -1   -1    0    0    0  501  0.00000000000E+00  0.00000000000E+00  0.76863957093E+03  0.76863957095E+03  0.50400001928E-02 0.  1.
        1   -1    0    0  501    0  0.00000000000E+00  0.00000000000E+00 -0.13025813923E+04  0.13025813923E+04  0.50400001928E-02 0. -1.
    10030    2    1    2    0    0  0.00000000000E+00  0.00000000000E+00 -0.53394182136E+03  0.20712209632E+04  0.20012152333E+04 0.  0.
        1    1    3    3  502    0 -0.40419698353E+03  0.86732999398E+03  0.35801602711E+02  0.95755849677E+03  0.50400001928E-02 0.  1.
       -1    1    3    3    0  502  0.40419698353E+03 -0.86732999398E+03 -0.56974342407E+03  0.11136624665E+04  0.50400001928E-02 0. -1.
</event>
<event>
 5   0  0.2596061E-04  0.2019238E+04  0.7818609E-02  0.8597679E-01
       -2   -1    0    0    0  501  0.00000000000E+00  0.00000000000E+00  0.68937498930E+03  0.68937498931E+03  0.25500000920E-02 0. -1.
        2   -1    0    0  501    0  0.00000000000E+00  0.00000000000E+00 -0.14786300539E+04  0.14786300539E+04  0.25500000920E-02 0.  1.
    10030    2    1    2    0    0  0.00000000000E+00  0.00000000000E+00 -0.78925506464E+03  0.21680050433E+04  0.20192380520E+04 0.  0.
        5    1    3    3  502    0 -0.19052859444E+03  0.32162442139E+03  0.61231979677E+03  0.71742667726E+03  0.46999998093E+01 0. -1.
       -5    1    3    3    0  502  0.19052859444E+03 -0.32162442139E+03 -0.14015748614E+04  0.14505783660E+04  0.46999998093E+01 0.  1.
</event>
<event>
 5   0  0.2421737E-04  0.1972318E+04  0.7818609E-02  0.8619674E-01
       -2   -1    0    0    0  501  0.00000000000E+00  0.00000000000E+00  0.84323005271E+03  0.84323005271E+03  0.25500000920E-02 0.  1.
        2   -1    0    0  501    0  0.00000000000E+00  0.00000000000E+00 -0.11533142245E+04  0.11533142245E+04  0.25500000920E-02 0. -1.
    10030    2    1    2    0    0  0.00000000000E+00  0.00000000000E+00 -0.31008417180E+03  0.19965442772E+04  0.19723176360E+04 0.  0.
        1    1    3    3  502    0  0.49091014704E+03  0.28223797132E+03 -0.97233671360E+03  0.11252065275E+04  0.50400001928E-02 0. -1.
       -1    1    3    3    0  502 -0.49091014704E+03 -0.28223797132E+03  0.66225254180E+03  0.87133774971E+03  0.50400001928E-02 0.  1.
</event>
<event>
 5   0  0.1324930E-04  0.1854728E+04  0.7818609E-02  0.8677725E-01
        1   -1    0    0  501    0  0.00000000000E+00  0.00000000000E+00  0.10377127281E+04  0.10377127281E+04  0.50400001928E-02 0.  1.
       -1   -1    0    0    0  501  0.00000000000E+00  0.00000000000E+00 -0.82874940387E+03  0.82874940388E+03  0.50400001928E-02 0. -1.
    10030    2    1    2    0    0  0.00000000000E+00  0.00000000000E+00  0.20896332426E+03  0.18664621320E+04  0.18547278020E+04 0.  0.
        5    1    3    3  502    0 -0.22302406910E+03 -0.89905974862E+03  0.14873198716E+03  0.93818519546E+03  0.46999998093E+01 0.  1.
       -5    1    3    3    0  502  0.22302406910E+03  0.89905974862E+03  0.60231337097E+02  0.92827693656E+03  0.46999998093E+01 0. -1.
</event>
<event>
 5   0  0.1231056E-04  0.2019371E+04  0.7818609E-02  0.8597617E-01
       -1   -1    0    0    0  501  0.00000000000E+00  0.00000000000E+00  0.11602553374E+04  0.11602553374E+04  0.50400001928E-02 0. -1.
        1   -1    0    0  501    0  0.00000000000E+00  0.00000000000E+00 -0.87865563408E+03  0.87865563409E+03  0.50400001928E-02 0.  1.
    10030    2    1    2    0    0  0.00000000000E+00  0.00000000000E+00  0.28159970336E+03  0.20389109715E+04  0.20193710796E+04 0.  0.
        3    1    3    3  502    0 -0.25269337057E+02  0.62911922062E+03 -0.65616372500E+03  0.90938461465E+03  0.10100000352E+00 0.  1.
       -3    1    3    3    0  502  0.25269337057E+02 -0.62911922062E+03  0.93776342836E+03  0.11295263569E+04  0.10100000352E+00 0. -1.
</event>
<event>
 5   0  0.2421737E-04  0.1994058E+04  0.7818609E-02  0.8609404E-01
       -2   -1    0    0    0  501  0.00000000000E+00  0.00000000000E+00  0.97692809300E+03  0.97692809301E+03  0.25500000920E-02 0.  1.
        2   -1    0    0  501    0  0.00000000000E+00  0.00000000000E+00 -0.10175438266E+04  0.10175438266E+04  0.25500000920E-02 0. -1.
    10030    2    1    2    0    0  0.00000000000E+00  0.00000000000E+00 -0.40615733591E+02  0.19944719196E+04  0.19940583242E+04 0.  0.
        1    1    3    3  502    0 -0.49341687740E+03 -0.57042019073E+03  0.63192227337E+03  0.98395384470E+03  0.50400001928E-02 0.  1.
       -1    1    3    3    0  502  0.49341687740E+03  0.57042019073E+03 -0.67253800696E+03  0.10105180749E+04  0.50400001928E-02 0. -1.
</event>
<event>
 5   0  0.1207228E-04  0.1960564E+04  0.7818609E-02  0.8625283E-01
       -1   -1    0    0    0  501  0.00000000000E+00  0.00000000000E+00  0.72908910223E+03  0.72908910225E+03  0.50400001928E-02 0. -1.
        1   -1    0    0  501    0  0.00000000000E+00  0.00000000000E+00 -0.13180182600E+04  0.13180182600E+04  0.50400001928E-02 0.  1.
    10030    2    1    2    0    0  0.00000000000E+00  0.00000000000E+00 -0.58892915775E+03  0.20471073622E+04  0.19605639494E+04 0.  0.
        1    1    3    3  502    0  0.34618092279E+03  0.10081295491E+03 -0.12462665518E+04  0.12973761218E+04  0.50400001928E-02 0.  1.
       -1    1    3    3    0  502 -0.34618092279E+03 -0.10081295491E+03  0.65733739409E+03  0.74973124043E+03  0.50400001928E-02 0. -1.
</event>
<event>
 5   0  0.1210633E-04  0.2002288E+04  0.7818609E-02  0.8605552E-01
        1   -1    0    0  501    0  0.00000000000E+00  0.00000000000E+00  0.18563160869E+04  0.18563160869E+04  0.50400001928E-02 0.  1.
       -1   -1    0    0    0  501  0.00000000000E+00  0.00000000000E+00 -0.53993456137E+03  0.53993456139E+03  0.50400001928E-02 0. -1.
    10030    2    1    2    0    0  0.00000000000E+00  0.00000000000E+00  0.13163815255E+04  0.23962506483E+04  0.20022879035E+04 0.  0.
        2    1    3    3  502    0 -0.53998011745E+02 -0.75263982140E+03 -0.12922279184E+03  0.76555928312E+03  0.25500000920E-02 0. -1.
       -2    1    3    3    0  502  0.53998011745E+02  0.75263982140E+03  0.14456043174E+04  0.16306913652E+04  0.25500000920E-02 0.  1.
</event>
<event>
 5   0  0.1258546E-04  0.1951408E+04  0.7818609E-02  0.8629682E-01
        1   -1    0    0  501    0  0.00000000000E+00  0.00000000000E+00  0.92481538628E+03  0.92481538630E+03  0.50400001928E-02 0.  1.
       -1   -1    0    0    0  501  0.00000000000E+00  0.00000000000E+00 -0.10293924016E+04  0.10293924016E+04  0.50400001928E-02 0. -1.
    10030    2    1    2    0    0  0.00000000000E+00  0.00000000000E+00 -0.10457701532E+03  0.19542077879E+04  0.19514076269E+04 0.  0.
        4    1    3    3  502    0  0.26900379984E+00 -0.11303822753E+03 -0.10228120735E+04  0.10290402635E+04  0.12699999809E+01 0. -1.
       -4    1    3    3    0  502 -0.26900379984E+00  0.11303822753E+03  0.91823505820E+03  0.92516752442E+03  0.12699999809E+01 0.  1.
</event>
<event>
 5   0  0.1210633E-04  0.1998007E+04  0.7818609E-02  0.8607553E-01
        1   -1    0    0  501    0  0.00000000000E+00  0.00000000000E+00  0.21968807120E+04  0.21968807120E+04  0.50400001928E-02 0. -1.
       -1   -1    0    0    0  501  0.00000000000E+00  0.00000000000E+00 -0.45428391506E+03  0.45428391509E+03  0.50400001928E-02 0.  1.
    10030    2    1    2    0    0  0.00000000000E+00  0.00000000000E+00  0.17425967969E+04  0.26511646271E+04  0.19980065774E+04 0.  0.
        2    1    3    3  502    0 -0.50647809694E+03  0.51376477605E+03 -0.45643034185E+02  0.72288145250E+03  0.25500000920E-02 0.  1.
       -2    1    3    3    0  502  0.50647809694E+03 -0.51376477605E+03  0.17882398311E+04  0.19282831746E+04  0.25500000920E-02 0. -1.
</event>
<event>
 5   0  0.1207228E-04  0.1865656E+04  0.7818609E-02  0.8672143E-01
        1   -1    0    0  501    0  0.00000000000E+00  0.00000000000E+00  0.14582610646E+04  0.14582610646E+04  0.50400001928E-02 0.  1.
       -1   -1    0    0    0  501  0.00000000000E+00  0.00000000000E+00 -0.59671609237E+03  0.59671609239E+03  0.50400001928E-02 0. -1.
    10030    2    1    2    0    0  0.00000000000E+00  0.00000000000E+00  0.86154497224E+03  0.20549771570E+04  0.18656557498E+04 0.  0.
        1    1    3    3  502    0  0.81988404688E+02 -0.33536968021E+03  0.13852981883E+04  0.14276715279E+04  0.50400001928E-02 0.  1.
       -1    1    3    3    0  502 -0.81988404688E+02  0.33536968021E+03 -0.52375321611E+03  0.62730562911E+03  0.50400001928E-02 0. -1.
</event>
<event>
 5   0  0.1231056E-04  0.2062656E+04  0.7818609E-02  0.8577875E-01
        1   -1    0    0  501    0  0.00000000000E+00  0.00000000000E+00  0.71394057497E+03  0.71394057499E+03  0.50400001928E-02 0. -1.
       -1   -1    0    0    0  501  0.00000000000E+00  0.00000000000E+00 -0.14898117586E+04  0.14898117586E+04  0.50400001928E-02 0.  1.
    10030    2    1    2    0    0  0.00000000000E+00  0.00000000000E+00 -0.77587118365E+03  0.22037523336E+04  0.20626556315E+04 0.  0.
        3    1    3    3  502    0  0.13251327826E+03  0.25229735475E+03  0.67103863837E+03  0.72904498387E+03  0.10100000352E+00 0. -1.
       -3    1    3    3    0  502 -0.13251327826E+03 -0.25229735475E+03 -0.14469098220E+04  0.14747073497E+04  0.10100000352E+00 0.  1.
</event>
<event>
 5   0  0.1258546E-04  0.1727437E+04  0.7818609E-02  0.8745869E-01
        1   -1    0    0  501    0  0.00000000000E+00  0.00000000000E+00  0.51246406090E+03  0.51246406093E+03  0.50400001928E-02 0.  1.
       -1   -1    0    0    0  501  0.00000000000E+00  0.00000000000E+00 -0.14557305599E+04  0.14557305599E+04  0.50400001928E-02 0. -1.
    10030    2    1    2    0    0  0.00000000000E+00  0.00000000000E+00 -0.94326649897E+03  0.19681946208E+04  0.17274369387E+04 0.  0.
        4    1    3    3  502    0 -0.10869230751E+03  0.71600390954E+03  0.64637896697E+02  0.72708684954E+03  0.12699999809E+01 0.  1.
       -4    1    3    3    0  502  0.10869230751E+03 -0.71600390954E+03 -0.10079043957E+04  0.12411077713E+04  0.12699999809E+01 0. -1.
</event>
<event>
 5   0  0.2488886E-04  0.2015808E+04  0.7818609E-02  0.8599266E-01
       -2   -1    0    0    0  501  0.00000000000E+00  0.00000000000E+00  0.69055365540E+03  0.69055365540E+03  0.25500000920E-02 0. -1.
        2   -1    0    0  501    0  0.00000000000E+00  0.00000000000E+00 -0.14710951523E+04  0.14710951523E+04  0.25500000920E-02 0.  1.
    10030    2    1    2    0    0  0.00000000000E+00  0.00000000000E+00 -0.78054149690E+03  0.21616488077E+04  0.20158076643E+04 0.  0.
        3    1    3    3  502    0 -0.86592405685E+03  0.86114860864E+02  0.15507935193E+03  0.88390602277E+03  0.10100000352E+00 0. -1.
       -3    1    3    3    0  502  0.86592405685E+03 -0.86114860864E+02 -0.93562084883E+03  0.12777427849E+04  0.10100000352E+00 0.  1.
</event>
<event>
 5   0  0.1210633E-04  0.1967819E+04  0.7818609E-02  0.8621816E-01
       -1   -1    0    0    0  501  0.00000000000E+00  0.00000000000E+00  0.20258853695E+04  0.20258853695E+04  0.50400001928E-02 0.  1.
        1   -1    0    0  501    0  0.00000000000E+00  0.00000000000E+00 -0.47785430743E+03  0.47785430746E+03  0.50400001928E-02 0. -1.
    10030    2    1    2    0    0  0.00000000000E+00  0.00000000000E+00  0.15480310621E+04  0.25037396770E+04  0.19678191484E+04 0.  0.
        2    1    3    3  502    0 -0.13629711078E+03  0.46533724534E+03 -0.31527777911E+03  0.57837335028E+03  0.25500000920E-02 0. -1.
       -2    1    3    3    0  502  0.13629711078E+03 -0.46533724534E+03  0.18633088412E+04  0.19253663267E+04  0.25500000920E-02 0.  1.
</event>
<event>
 5   0  0.1231056E-04  0.1941213E+04  0.7818609E-02  0.8634610E-01
       -1   -1    0    0    0  501  0.00000000000E+00  0.00000000000E+00  0.11585596164E+04  0.11585596165E+04  0.50400001928E-02 0. -1.
        1   -1    0    0  501    0  0.00000000000E+00  0.00000000000E+00 -0.81314483638E+03  0.81314483639E+03  0.50400001928E-02 0.  1.
    10030    2    1    2    0    0  0.00000000000E+00  0.00000000000E+00  0.34541478007E+03  0.19717044529E+04  0.19412127856E+04 0.  0.
        3    1    3    3  502    0 -0.19908102440E+03  0.35072700940E+03  0.10694305094E+04  0.11429454554E+04  0.10100000352E+00 0. -1.
       -3    1    3    3    0  502  0.19908102440E+03 -0.35072700940E+03 -0.72401572931E+03  0.82875899747E+03  0.10100000352E+00 0.  1.
</event>
<event>
 5   0  0.1210633E-04  0.2008687E+04  0.7818609E-02  0.8602570E-01
        1   -1    0    0  501    0  0.00000000000E+00  0.00000000000E+00  0.96404026550E+03  0.96404026551E+03  0.50400001928E-02 0.  1.
       -1   -1    0    0    0  501  0.00000000000E+00  0.00000000000E+00 -0.10463316291E+04  0.10463316291E+04  0.50400001928E-02 0. -1.
    10030    2    1    2    0    0  0.00000000000E+00  0.00000000000E+00 -0.82291363562E+02  0.20103718946E+04  0.20086869557E+04 0.  0.
        2    1    3    3  502    0  0.38869298328E+03 -0.41705439544E+03  0.78640292172E+03  0.97131156655E+03  0.25500000920E-02 0.  1.
       -2    1    3    3    0  502 -0.38869298328E+03  0.41705439544E+03 -0.86869428528E+03  0.10390603280E+04  0.25500000920E-02 0. -1.
</event>
<event>
 5   0  0.2421737E-04  0.2010032E+04  0.7818609E-02  0.8601945E-01
        2   -1    0    0  501    0  0.00000000000E+00  0.00000000000E+00  0.21290936545E+04  0.21290936545E+04  0.25500000920E-02 0. -1.
       -2   -1    0    0    0  501  0.00000000000E+00  0.00000000000E+00 -0.47440722673E+03  0.47440722674E+03  0.25500000920E-02 0.  1.
    10030    2    1    2    0    0  0.00000000000E+00  0.00000000000E+00  0.16546864278E+04  0.26035008813E+04  0.20100322546E+04 0.  0.
        1    1    3    3  502    0  0.31226944335E+03  0.30419396408E+03 -0.34556656189E+03  0.55629346730E+03  0.50400001928E-02 0.  1.
       -1    1    3    3    0  502 -0.31226944335E+03 -0.30419396408E+03  0.20002529897E+04  0.20472074140E+04  0.50400001928E-02 0. -1.
</event>
<event>
 5   0  0.1207228E-04  0.1984756E+04  0.7818609E-02  0.8613781E-01
       -1   -1    0    0    0  501  0.00000000000E+00  0.00000000000E+00  0.64221151084E+03  0.64221151085E+03  0.50400001928E-02 0. -1.
        1   -1    0    0  501    0  0.00000000000E+00  0.00000000000E+00 -0.15334735552E+04  0.15334735552E+04  0.50400001928E-02 0.  1.
    10030    2    1    2    0    0  0.00000000000E+00  0.00000000000E+00 -0.89126204438E+03  0.21756850661E+04  0.19847562760E+04 0.  0.
        1    1    3    3  502    0  0.32223120774E+03  0.54510258425E+03  0.39197053691E+03  0.74472188126E+03  0.50400001928E-02 0. -1.
       -1    1    3    3    0  502 -0.32223120774E+03 -0.54510258425E+03 -0.12832325813E+04  0.14309631848E+04  0.50400001928E-02 0.  1.
</event>
<event>
 5   0  0.2463085E-04  0.1970799E+04  0.7818609E-02  0.8620396E-01
        2   -1    0    0  501    0  0.00000000000E+00  0.00000000000E+00  0.17824921891E+04  0.17824921891E+04  0.25500000920E-02 0. -1.
       -2   -1    0    0    0  501  0.00000000000E+00  0.00000000000E+00 -0.54474981914E+03  0.54474981914E+03  0.25500000920E-02 0.  1.
    10030    2    1    2    0    0  0.00000000000E+00  0.00000000000E+00  0.12377423700E+04  0.23272420083E+04  0.19707991249E+04 0.  0.
        2    1    3    3  502    0  0.40652597986E+03 -0.67234258887E+03 -0.83423527601E+02  0.79010595117E+03  0.25500000920E-02 0.  1.
       -2    1    3    3    0  502 -0.40652597986E+03  0.67234258887E+03  0.13211658976E+04  0.15371360571E+04  0.25500000920E-02 0. -1.
</event>
<event>
 5   0  0.9099125E-05  0.2006489E+04  0.7818609E-02  0.8603593E-01
       -3   -1    0    0    0  501  0.00000000000E+00  0.00000000000E+00  0.17300744253E+04  0.17300744283E+04  0.10100000352E+00 0.  1.
        3   -1    0    0  501    0  0.00000000000E+00  0.00000000000E+00 -0.58176659605E+03  0.58176660481E+03  0.10100000352E+00 0. -1.
    10030    2    1    2    0    0  0.00000000000E+00  0.00000000000E+00  0.11483078293E+04  0.23118410331E+04  0.20064889961E+04 0.  0.
        2    1    3    3  502    0  0.11969058668E+03 -0.13986565854E+02  0.17217055055E+04  0.17259175265E+04  0.25500000920E-02 0.  1.
       -2    1    3    3    0  502 -0.11969058668E+03  0.13986565854E+02 -0.57339767619E+03  0.58592350664E+03  0.25500000920E-02 0. -1.
</event>
<event>
 5   0  0.1258546E-04  0.2073685E+04  0.7818609E-02  0.8572925E-01
       -1   -1    0    0    0  501  0.00000000000E+00  0.00000000000E+00  0.14941463514E+04  0.14941463514E+04  0.50400001928E-02 0.  1.
        1   -1    0    0  501    0  0.00000000000E+00  0.00000000000E+00 -0.71950261003E+03  0.71950261004E+03  0.50400001928E-02 0. -1.
    10030    2    1    2    0    0  0.00000000000E+00  0.00000000000E+00  0.77464374133E+03  0.22136489614E+04  0.20736848358E+04 0.  0.
        4    1    3    3  502    0  0.10350474727E+04  0.65858220775E+01  0.32261771146E+03  0.10841819241E+04  0.12699999809E+01 0. -1.
       -4    1    3    3    0  502 -0.10350474727E+04 -0.65858220775E+01  0.45202602987E+03  0.11294670373E+04  0.12699999809E+01 0.  1.
</event>
<event>
 5   0  0.1231056E-04  0.1950154E+04  0.7818609E-02  0.8630287E-01
       -1   -1    0    0    0  501  0.00000000000E+00  0.00000000000E+00  0.70659864818E+03  0.70659864820E+03  0.50400001928E-02 0. -1.
        1   -1    0    0  501    0  0.00000000000E+00  0.00000000000E+00 -0.13455659521E+04  0.13455659521E+04  0.50400001928E-02 0.  1.
    10030    2    1    2    0    0  0.00000000000E+00  0.00000000000E+00 -0.63896730395E+03  0.20521646003E+04  0.19501539250E+04 0.  0.
        3    1    3    3  502    0 -0.45785651973E+03 -0.72660432648E+03  0.16639220818E+03  0.87479872946E+03  0.10100000352E+00 0. -1.
       -3    1    3    3    0  502  0.45785651973E+03  0.72660432648E+03 -0.80535951213E+03  0.11773658709E+04  0.10100000352E+00 0.  1.
</event>
<event>
 5   0  0.2488886E-04  0.2019329E+04  0.7818609E-02  0.8597637E-01
       -2   -1    0    0    0  501  0.00000000000E+00  0.00000000000E+00  0.98198305684E+03  0.98198305684E+03  0.25500000920E-02 0. -1.
        2   -1    0    0  501    0  0.00000000000E+00  0.00000000000E+00 -0.10381260869E+04  0.10381260869E+04  0.25500000920E-02 0.  1.
    10030    2    1    2    0    0  0.00000000000E+00  0.00000000000E+00 -0.56143030021E+02  0.20201091437E+04  0.20193288273E+04 0.  0.
        3    1    3    3  502    0 -0.24700186428E+03 -0.86491811687E+03  0.43072204606E+03  0.99730374561E+03  0.10100000352E+00 0. -1.
       -3    1    3    3    0  502  0.24700186428E+03  0.86491811687E+03 -0.48686507608E+03  0.10228053981E+04  0.10100000352E+00 0.  1.
</event>
<event>
 5   0  0.2540506E-04  0.1966030E+04  0.7818609E-02  0.8622670E-01
        2   -1    0    0  501    0  0.00000000000E+00  0.00000000000E+00  0.16507164577E+04  0.16507164577E+04  0.25500000920E-02 0. -1.
       -2   -1    0    0    0  501  0.00000000000E+00  0.00000000000E+00 -0.58539309382E+03  0.58539309382E+03  0.25500000920E-02 0.  1.
    10030    2    1    2    0    0  0.00000000000E+00  0.00000000000E+00  0.10653233639E+04  0.22361095515E+04  0.19660295157E+04 0.  0.
        4    1    3    3  502    0  0.50895027557E+03  0.82870783667E+03  0.36969811040E+03  0.10404159588E+04  0.12699999809E+01 0.  1.
       -4    1    3    3    0  502 -0.50895027557E+03 -0.82870783667E+03  0.69562525348E+03  0.11956935927E+04  0.12699999809E+01 0. -1.
</event>
<event>
 5   0  0.1258546E-04  0.1994887E+04  0.7818609E-02  0.8609015E-01
       -1   -1    0    0    0  501  0.00000000000E+00  0.00000000000E+00  0.49101761674E+03  0.49101761676E+03  0.50400001928E-02 0.  1.
        1   -1    0    0  501    0  0.00000000000E+00  0.00000000000E+00 -0.20261861565E+04  0.20261861565E+04  0.50400001928E-02 0. -1.
    10030    2    1    2    0    0  0.00000000000E+00  0.00000000000E+00 -0.15351685397E+04  0.25172037732E+04  0.19948865608E+04 0.  0.
        4    1    3    3  502    0 -0.22473526457E+03 -0.39299412536E+03  0.35391124746E+03  0.57463475851E+03  0.12699999809E+01 0.  1.
       -4    1    3    3    0  502  0.22473526457E+03  0.39299412536E+03 -0.18890797872E+04  0.19425690147E+04  0.12699999809E+01 0. -1.
</event>
<event>
 5   0  0.1324930E-04  0.1501253E+04  0.7818609E-02  0.8883620E-01
        1   -1    0    0  501    0  0.00000000000E+00  0.00000000000E+00  0.73157705091E+03  0.73157705093E+03  0.50400001928E-02 0.  1.
       -1   -1    0    0    0  501  0.00000000000E+00  0.00000000000E+00 -0.77017198757E+03  0.77017198758E+03  0.50400001928E-02 0. -1.
    10030    2    1    2    0    0  0.00000000000E+00  0.00000000000E+00 -0.38594936656E+02  0.15017490385E+04  0.15012530118E+04 0.  0.
        5    1    3    3  502    0  0.67761140219E+03 -0.22293627088E+02 -0.34152785707E+03  0.75915583732E+03  0.46999998093E+01 0. -1.
       -5    1    3    3    0  502 -0.67761140219E+03  0.22293627088E+02  0.30293292041E+03  0.74259320119E+03  0.46999998093E+01 0.  1.
</event>
<event>
 5   0  0.2488886E-04  0.1971702E+04  0.7818609E-02  0.8619966E-01
       -2   -1    0    0    0  501  0.00000000000E+00  0.00000000000E+00  0.63001966072E+03  0.63001966073E+03  0.25500000920E-02 0. -1.
        2   -1    0    0  501    0  0.00000000000E+00  0.00000000000E+00 -0.15426534704E+04  0.15426534704E+04  0.25500000920E-02 0.  1.
    10030    2    1    2    0    0  0.00000000000E+00  0.00000000000E+00 -0.91263380965E+03  0.21726731311E+04  0.19717018193E+04 0.  0.
        3    1    3    3  502    0  0.24898213386E+02 -0.34011958660E+03 -0.14755857155E+04  0.15144815840E+04  0.10100000352E+00 0.  1.
       -3    1    3    3    0  502 -0.24898213386E+02  0.34011958660E+03  0.56295190584E+03  0.65819154713E+03  0.10100000352E+00 0. -1.
</event>
<event>
 5   0  0.1258546E-04  0.2015453E+04  0.7818609E-02  0.8599430E-01
       -1   -1    0    0    0  501  0.00000000000E+00  0.00000000000E+00  0.12096978090E+04  0.12096978090E+04  0.50400001928E-02 0.  1.
        1   -1    0    0  501    0  0.00000000000E+00  0.00000000000E+00 -0.83947648103E+03  0.83947648104E+03  0.50400001928E-02 0. -1.
    10030    2    1    2    0    0  0.00000000000E+00  0.00000000000E+00  0.37022132795E+03  0.20491742900E+04  0.20154531598E+04 0.  0.
        4    1    3    3  502    0 -0.77307274495E+03  0.39075711674E+03  0.70868152675E+03  0.11191799286E+04  0.12699999809E+01 0.  1.
       -4    1    3    3    0  502  0.77307274495E+03 -0.39075711674E+03 -0.33846019881E+03  0.92999436145E+03  0.12699999809E+01 0. -1.
</event>
<event>
 5   0  0.2488886E-04  0.2019507E+04  0.7818609E-02  0.8597554E-01
       -2   -1    0    0    0  501  0.00000000000E+00  0.00000000000E+00  0.88186925940E+03  0.88186925940E+03  0.25500000920E-02 0. -1.
        2   -1    0    0  501    0  0.00000000000E+00  0.00000000000E+00 -0.11561828504E+04  0.11561828504E+04  0.25500000920E-02 0.  1.
    10030    2    1    2    0    0  0.00000000000E+00  0.00000000000E+00 -0.27431359098E+03  0.20380521098E+04  0.20195069834E+04 0.  0.
        3    1    3    3  502    0 -0.50986266844E+03  0.69743023701E+03  0.39036047291E+03  0.94802435896E+03  0.10100000352E+00 0. -1.
       -3    1    3    3    0  502  0.50986266844E+03 -0.69743023701E+03 -0.66467406390E+03  0.10900277508E+04  0.10100000352E+00 0.  1.
</event>
<event>
 5   0  0.9099125E-05  0.2026968E+04  0.7818609E-02  0.8594115E-01
       -3   -1    0    0    0  501  0.00000000000E+00  0.00000000000E+00  0.79332546121E+03  0.79332546764E+03  0.10100000352E+00 0. -1.
        3   -1    0    0  501    0  0.00000000000E+00  0.00000000000E+00 -0.12947389798E+04  0.12947389838E+04  0.10100000352E+00 0.  1.
    10030    2    1    2    0    0  0.00000000000E+00  0.00000000000E+00 -0.50141351861E+03  0.20880644514E+04  0.20269675963E+04 0.  0.
        2    1    3    3  502    0 -0.66763702454E+02 -0.92726515244E+03  0.16503097743E+03  0.94419980852E+03  0.25500000920E-02 0. -1.
       -2    1    3    3    0  502  0.66763702454E+02  0.92726515244E+03 -0.66644449604E+03  0.11438646429E+04  0.25500000920E-02 0.  1.
</event>
<event>
 5   0  0.1210633E-04  0.2041888E+04  0.7818609E-02  0.8587283E-01
        1   -1    0    0  501    0  0.00000000000E+00  0.00000000000E+00  0.10714777423E+04  0.10714777423E+04  0.50400001928E-02 0.  1.
       -1   -1    0    0    0  501  0.00000000000E+00  0.00000000000E+00 -0.97279387700E+03  0.97279387702E+03  0.50400001928E-02 0. -1.
    10030    2    1    2    0    0  0.00000000000E+00  0.00000000000E+00  0.98683865288E+02  0.20442716193E+04  0.20418883290E+04 0.  0.
        2    1    3    3  502    0  0.32910918105E+03 -0.40062207918E+03  0.92986611294E+03  0.10646416728E+04  0.25500000920E-02 0.  1.
       -2    1    3    3    0  502 -0.32910918105E+03  0.40062207918E+03 -0.83118224765E+03  0.97962994656E+03  0.25500000920E-02 0. -1.
</event>
<event>
 5   0  0.2596061E-04  0.1970040E+04  0.7818609E-02  0.8620758E-01
       -2   -1    0    0    0  501  0.00000000000E+00  0.00000000000E+00  0.11314553358E+04  0.11314553359E+04  0.25500000920E-02 0.  1.
        2   -1    0    0  501    0  0.00000000000E+00  0.00000000000E+00 -0.85753639997E+03  0.85753639997E+03  0.25500000920E-02 0. -1.
    10030    2    1    2    0    0  0.00000000000E+00  0.00000000000E+00  0.27391893588E+03  0.19889917358E+04  0.19700397310E+04 0.  0.
        5    1    3    3  502    0  0.54508574116E+03 -0.65947648051E+03 -0.35580791710E+03  0.92663318386E+03  0.46999998093E+01 0. -1.
       -5    1    3    3    0  502 -0.54508574116E+03  0.65947648051E+03  0.62972685298E+03  0.10623585520E+04  0.46999998093E+01 0.  1.
</event>
<event>
 5   0  0.1207228E-04  0.2005101E+04  0.7818609E-02  0.8604240E-01
       -1   -1    0    0    0  501  0.00000000000E+00  0.00000000000E+00  0.89640656821E+03  0.89640656823E+03  0.50400001928E-02 0. -1.
        1   -1    0    0  501    0  0.00000000000E+00  0.00000000000E+00 -0.11212625726E+04  0.11212625726E+04  0.50400001928E-02 0.  1.
    10030    2    1    2    0    0  0.00000000000E+00  0.00000000000E+00 -0.22485600438E+03  0.20176691408E+04  0.20051006307E+04 0.  0.
        1    1    3    3  502    0  0.26606277744E+03 -0.91811725462E+03  0.19175549448E+03  0.97493531296E+03  0.50400001928E-02 0. -1.
       -1    1    3    3    0  502 -0.26606277744E+03  0.91811725462E+03 -0.41661149885E+03  0.10427338279E+04  0.50400001928E-02 0.  1.
</event>
<event>
 5   0  0.1207228E-04  0.1985460E+04  0.7818609E-02  0.8613449E-01
        1   -1    0    0  501    0  0.00000000000E+00  0.00000000000E+00  0.19986419519E+04  0.19986419519E+04  0.50400001928E-02 0.  1.
       -1   -1    0    0    0  501  0.00000000000E+00  0.00000000000E+00 -0.49309122444E+03  0.49309122447E+03  0.50400001928E-02 0. -1.
    10030    2    1    2    0    0  0.00000000000E+00  0.00000000000E+00  0.15055507274E+04  0.24917331763E+04  0.19854599541E+04 0.  0.
        1    1    3    3  502    0  0.84918299040E+03  0.46482729474E+03  0.10286924795E+04  0.14125807525E+04  0.50400001928E-02 0.  1.
       -1    1    3    3    0  502 -0.84918299040E+03 -0.46482729474E+03  0.47685824794E+03  0.10791524238E+04  0.50400001928E-02 0. -1.
</event>
<event>
 5   0  0.2488886E-04  0.1950449E+04  0.7818609E-02  0.8630144E-01
        2   -1    0    0  501    0  0.00000000000E+00  0.00000000000E+00  0.10793780592E+04  0.10793780592E+04  0.25500000920E-02 0. -1.
       -2   -1    0    0    0  501  0.00000000000E+00  0.00000000000E+00 -0.88112099528E+03  0.88112099528E+03  0.25500000920E-02 0.  1.
    10030    2    1    2    0    0  0.00000000000E+00  0.00000000000E+00  0.19825706392E+03  0.19604990545E+04  0.19504488405E+04 0.  0.
        3    1    3    3  502    0 -0.98666533426E+02 -0.96140999983E+03  0.23025527420E+03  0.99350982587E+03  0.10100000352E+00 0.  1.
       -3    1    3    3    0  502  0.98666533426E+02  0.96140999983E+03 -0.31998210287E+02  0.96698922861E+03  0.10100000352E+00 0. -1.
</event>
<event>
 5   0  0.1258546E-04  0.2021777E+04  0.7818609E-02  0.8596506E-01
       -1   -1    0    0    0  501  0.00000000000E+00  0.00000000000E+00  0.60488616249E+03  0.60488616251E+03  0.50400001928E-02 0. -1.
        1   -1    0    0  501    0  0.00000000000E+00  0.00000000000E+00 -0.16894016683E+04  0.16894016683E+04  0.50400001928E-02 0.  1.
    10030    2    1    2    0    0  0.00000000000E+00  0.00000000000E+00 -0.10845155058E+04  0.22942878309E+04  0.20217771312E+04 0.  0.
        4    1    3    3  502    0 -0.38210699275E+03  0.74272761347E+02  0.51642794956E+03  0.64670057753E+03  0.12699999809E+01 0. -1.
       -4    1    3    3    0  502  0.38210699275E+03 -0.74272761347E+02 -0.16009434554E+04  0.16475872533E+04  0.12699999809E+01 0.  1.
</event>
<event>
 5   0  0.1207228E-04  0.2024538E+04  0.7818609E-02  0.8595234E-01
       -1   -1    0    0    0  501  0.00000000000E+00  0.00000000000E+00  0.58646537335E+03  0.58646537337E+03  0.50400001928E-02 0. -1.
        1   -1    0    0  501    0  0.00000000000E+00  0.00000000000E+00 -0.17472268284E+04  0.17472268284E+04  0.50400001928E-02 0.  1.
    10030    2    1    2    0    0  0.00000000000E+00  0.00000000000E+00 -0.11607614551E+04  0.23336922018E+04  0.20245375119E+04 0.  0.
        1    1    3    3  502    0  0.68166675889E+03  0.54464156937E+03  0.11197881670E+02  0.87259922178E+03  0.50400001928E-02 0. -1.
       -1    1    3    3    0  502 -0.68166675889E+03 -0.54464156937E+03 -0.11719593367E+04  0.14610929800E+04  0.50400001928E-02 0.  1.
</event>
<event>
 5   0  0.2596061E-04  0.1931016E+04  0.7818609E-02  0.8639570E-01
        2   -1    0    0  501    0  0.00000000000E+00  0.00000000000E+00  0.18604797025E+04  0.18604797025E+04  0.25500000920E-02 0. -1.
       -2   -1    0    0    0  501  0.00000000000E+00  0.00000000000E+00 -0.50105646805E+03  0.50105646806E+03  0.25500000920E-02 0.  1.
    10030    2    1    2    0    0  0.00000000000E+00  0.00000000000E+00  0.13594232345E+04  0.23615361706E+04  0.19310156795E+04 0.  0.
        5    1    3    3  502    0 -0.84400050764E+03  0.30540517808E+03  0.24461945678E+03  0.93030637336E+03  0.46999998093E+01 0.  1.
       -5    1    3    3    0  502  0.84400050764E+03 -0.30540517808E+03  0.11148037777E+04  0.14312297972E+04  0.46999998093E+01 0. -1.
</event>
<event>
 5   0  0.1324930E-04  0.1996956E+04  0.7818609E-02  0.8608045E-01
       -1   -1    0    0    0  501  0.00000000000E+00  0.00000000000E+00  0.54035513199E+03  0.54035513202E+03  0.50400001928E-02 0.  1.
        1   -1    0    0  501    0  0.00000000000E+00  0.00000000000E+00 -0.18450057906E+04  0.18450057906E+04  0.50400001928E-02 0. -1.
    10030    2    1    2    0    0  0.00000000000E+00  0.00000000000E+00 -0.13046506586E+04  0.23853609227E+04  0.19969560311E+04 0.  0.
        5    1    3    3  502    0  0.38077886172E+03 -0.63905832932E+03  0.14320362755E+03  0.75757340156E+03  0.46999998093E+01 0.  1.
       -5    1    3    3    0  502 -0.38077886172E+03  0.63905832932E+03 -0.14478542862E+04  0.16277875211E+04  0.46999998093E+01 0. -1.
</event>
<event>
 5   0  0.2488886E-04  0.2072370E+04  0.7818609E-02  0.8573513E-01
       -2   -1    0    0    0  501  0.00000000000E+00  0.00000000000E+00  0.11685120394E+04  0.11685120394E+04  0.25500000920E-02 0. -1.
        2   -1    0    0  501    0  0.00000000000E+00  0.00000000000E+00 -0.91884281146E+03  0.91884281147E+03  0.25500000920E-02 0.  1.
    10030    2    1    2    0    0  0.00000000000E+00  0.00000000000E+00  0.24966922796E+03  0.20873548509E+04  0.20723695496E+04 0.  0.
        3    1    3    3  502    0  0.94350515339E+03  0.57222503331E+02 -0.30273759999E+03  0.99253536663E+03  0.10100000352E+00 0.  1.
       -3    1    3    3    0  502 -0.94350515339E+03 -0.57222503331E+02  0.55240682795E+03  0.10948194843E+04  0.10100000352E+00 0. -1.
</event>
<event>
 5   0  0.1210633E-04  0.1923529E+04  0.7818609E-02  0.8643232E-01
        1   -1    0    0  501    0  0.00000000000E+00  0.00000000000E+00  0.21586998028E+04  0.21586998028E+04  0.50400001928E-02 0. -1.
       -1   -1    0    0    0  501  0.00000000000E+00  0.00000000000E+00 -0.42849457783E+03  0.42849457786E+03  0.50400001928E-02 0.  1.
    10030    2    1    2    0    0  0.00000000000E+00  0.00000000000E+00  0.17302052250E+04  0.25871943807E+04  0.19235292155E+04 0.  0.
        2    1    3    3  502    0 -0.71270408314E+03  0.60442161575E+03  0.55922091710E+03  0.10890365622E+04  0.25500000920E-02 0.  1.
       -2    1    3    3    0  502  0.71270408314E+03 -0.60442161575E+03  0.11709843079E+04  0.14981578185E+04  0.25500000920E-02 0. -1.
</event>
<event>
 5   0  0.1258546E-04  0.1751230E+04  0.7818609E-02  0.8732674E-01
        1   -1    0    0  501    0  0.00000000000E+00  0.00000000000E+00  0.87512334700E+03  0.87512334701E+03  0.50400001928E-02 0.  1.
       -1   -1    0    0    0  501  0.00000000000E+00  0.00000000000E+00 -0.87610688778E+03  0.87610688780E+03  0.50400001928E-02 0. -1.
    10030    2    1    2    0    0  0.00000000000E+00  0.00000000000E+00 -0.98354078686E+00  0.17512302348E+04  0.17512299586E+04 0.  0.
        4    1    3    3  502    0  0.42244266357E+03  0.13165379280E+03  0.75509385282E+03  0.87519075899E+03  0.12699999809E+01 0.  1.
       -4    1    3    3    0  502 -0.42244266357E+03 -0.13165379280E+03 -0.75607739361E+03  0.87603947582E+03  0.12699999809E+01 0. -1.
</event>
<event>
 5   0  0.1207228E-04  0.1860825E+04  0.7818609E-02  0.8674606E-01
       -1   -1    0    0    0  501  0.00000000000E+00  0.00000000000E+00  0.49774433858E+03  0.49774433860E+03  0.50400001928E-02 0.  1.
        1   -1    0    0  501    0  0.00000000000E+00  0.00000000000E+00 -0.17391800131E+04  0.17391800131E+04  0.50400001928E-02 0. -1.
    10030    2    1    2    0    0  0.00000000000E+00  0.00000000000E+00 -0.12414356746E+04  0.22369243517E+04  0.18608245542E+04 0.  0.
        1    1    3    3  502    0  0.80648595757E+03 -0.36840950457E+03 -0.95970955396E+03  0.13065938890E+04  0.50400001928E-02 0.  1.
       -1    1    3    3    0  502 -0.80648595757E+03  0.36840950457E+03 -0.28172612060E+03  0.93033046273E+03  0.50400001928E-02 0. -1.
</event>
<event>
 5   0  0.1258546E-04  0.1999919E+04  0.7818609E-02  0.8606658E-01
       -1   -1    0    0    0  501  0.00000000000E+00  0.00000000000E+00  0.10512276728E+04  0.10512276728E+04  0.50400001928E-02 0.  1.
        1   -1    0    0  501    0  0.00000000000E+00  0.00000000000E+00 -0.95119179376E+03  0.95119179378E+03  0.50400001928E-02 0. -1.
    10030    2    1    2    0    0  0.00000000000E+00  0.00000000000E+00  0.10003587902E+03  0.20024194666E+04  0.19999191341E+04 0.  0.
        4    1    3    3  502    0  0.22580753665E+03 -0.81516351469E+03  0.58401099543E+03  0.10278866936E+04  0.12699999809E+01 0.  1.
       -4    1    3    3    0  502 -0.22580753665E+03  0.81516351469E+03 -0.48397511641E+03  0.97453277292E+03  0.12699999809E+01 0. -1.
</event>
<event>
 5   0  0.2463085E-04  0.1981882E+04  0.7818609E-02  0.8615139E-01
       -2   -1    0    0    0  501  0.00000000000E+00  0.00000000000E+00  0.63619686231E+03  0.63619686232E+03  0.25500000920E-02 0. -1.
        2   -1    0    0  501    0  0.00000000000E+00  0.00000000000E+00 -0.15434907482E+04  0.15434907482E+04  0.25500000920E-02 0.  1.
    10030    2    1    2    0    0  0.00000000000E+00  0.00000000000E+00 -0.90729388593E+03  0.21796876106E+04  0.19818819047E+04 0.  0.
        2    1    3    3  502    0  0.85441755745E+03  0.36885036609E+03 -0.82804040139E+03  0.12456848965E+04  0.25500000920E-02 0. -1.
       -2    1    3    3    0  502 -0.85441755745E+03 -0.36885036609E+03 -0.79253484545E+02  0.93400271406E+03  0.25500000920E-02 0.  1.
</event>
<event>
 5   0  0.2421737E-04  0.1471817E+04  0.7818609E-02  0.8903413E-01
       -2   -1    0    0    0  501  0.00000000000E+00  0.00000000000E+00  0.25463168510E+03  0.25463168511E+03  0.25500000920E-02 0. -1.
        2   -1    0    0  501    0  0.00000000000E+00  0.00000000000E+00 -0.21268431429E+04  0.21268431429E+04  0.25500000920E-02 0.  1.
    10030    2    1    2    0    0  0.00000000000E+00  0.00000000000E+00 -0.18722114578E+04  0.23814748280E+04  0.14718174526E+04 0.  0.
        1    1    3    3  502    0 -0.45941887553E+03  0.27113745205E+03 -0.17563478637E+04  0.18355759422E+04  0.50400001928E-02 0.  1.
       -1    1    3    3    0  502  0.45941887553E+03 -0.27113745205E+03 -0.11586359408E+03  0.54589888584E+03  0.50400001928E-02 0. -1.
</event>
<event>
 5   0  0.2488886E-04  0.1992561E+04  0.7818609E-02  0.8610107E-01
        2   -1    0    0  501    0  0.00000000000E+00  0.00000000000E+00  0.11491137091E+04  0.11491137091E+04  0.25500000920E-02 0.  1.
       -2   -1    0    0    0  501  0.00000000000E+00  0.00000000000E+00 -0.86377404881E+03  0.86377404881E+03  0.25500000920E-02 0. -1.
    10030    2    1    2    0    0  0.00000000000E+00  0.00000000000E+00  0.28533966027E+03  0.20128877579E+04  0.19925607655E+04 0.  0.
        3    1    3    3  502    0 -0.14474697505E+03  0.44098857170E+03  0.10332252763E+04  0.11326857856E+04  0.10100000352E+00 0.  1.
       -3    1    3    3    0  502  0.14474697505E+03 -0.44098857170E+03 -0.74788561602E+03  0.88020197228E+03  0.10100000352E+00 0. -1.
</event>
<event>
 5   0  0.2421737E-04  0.2022905E+04  0.7818609E-02  0.8595986E-01
        2   -1    0    0  501    0  0.00000000000E+00  0.00000000000E+00  0.96842636374E+03  0.96842636375E+03  0.25500000920E-02 0.  1.
       -2   -1    0    0    0  501  0.00000000000E+00  0.00000000000E+00 -0.10563903722E+04  0.10563903722E+04  0.25500000920E-02 0. -1.
    10030    2    1    2    0    0  0.00000000000E+00  0.00000000000E+00 -0.87964008496E+02  0.20248167360E+04  0.20229051257E+04 0.  0.
        1    1    3    3  502    0  0.67093403449E+03 -0.37213498547E+03 -0.70369462991E+03  0.10410682294E+04  0.50400001928E-02 0. -1.
       -1    1    3    3    0  502 -0.67093403449E+03  0.37213498547E+03  0.61573062142E+03  0.98374850660E+03  0.50400001928E-02 0.  1.
</event>
<event>
 5   0  0.2540506E-04  0.1978960E+04  0.7818609E-02  0.8616521E-01
       -2   -1    0    0    0  501  0.00000000000E+00  0.00000000000E+00  0.25095462267E+04  0.25095462267E+04  0.25500000920E-02 0.  1.
        2   -1    0    0  501    0  0.00000000000E+00  0.00000000000E+00 -0.39013835936E+03  0.39013835937E+03  0.25500000920E-02 0. -1.
    10030    2    1    2    0    0  0.00000000000E+00  0.00000000000E+00  0.21194078673E+04  0.28996845860E+04  0.19789595727E+04 0.  0.
        4    1    3    3  502    0  0.56245760106E+03  0.16428702782E+03 -0.10857548330E+03  0.59593542349E+03  0.12699999809E+01 0. -1.
       -4    1    3    3    0  502 -0.56245760106E+03 -0.16428702782E+03  0.22279833506E+04  0.23037491625E+04  0.12699999809E+01 0.  1.
</event>
<event>
 5   0  0.1231056E-04  0.1903010E+04  0.7818609E-02  0.8653360E-01
       -1   -1    0    0    0  501  0.00000000000E+00  0.00000000000E+00  0.50906352240E+03  0.50906352242E+03  0.50400001928E-02 0.  1.
        1   -1    0    0  501    0  0.00000000000E+00  0.00000000000E+00 -0.17784850614E+04  0.17784850614E+04  0.50400001928E-02 0. -1.
    10030    2    1    2    0    0  0.00000000000E+00  0.00000000000E+00 -0.12694215390E+04  0.22875485838E+04  0.19030101102E+04 0.  0.
        3    1    3    3  502    0  0.71865154383E+03 -0.16428045046E+02  0.11466297854E+03  0.72792687199E+03  0.10100000352E+00 0.  1.
       -3    1    3    3    0  502 -0.71865154383E+03  0.16428045046E+02 -0.13840845175E+04  0.15596217118E+04  0.10100000352E+00 0. -1.
</event>
<event>
 5   0  0.1207228E-04  0.2040560E+04  0.7818609E-02  0.8587889E-01
       -1   -1    0    0    0  501  0.00000000000E+00  0.00000000000E+00  0.49796803866E+03  0.49796803869E+03  0.50400001928E-02 0. -1.
        1   -1    0    0  501    0  0.00000000000E+00  0.00000000000E+00 -0.20904384089E+04  0.20904384089E+04  0.50400001928E-02 0.  1.
    10030    2    1    2    0    0  0.00000000000E+00  0.00000000000E+00 -0.15924703702E+04  0.25884064476E+04  0.20405602314E+04 0.  0.
        1    1    3    3  502    0  0.96085985228E+03 -0.34209180124E+03 -0.76284122521E+03  0.12736581924E+04  0.50400001928E-02 0. -1.
       -1    1    3    3    0  502 -0.96085985228E+03  0.34209180124E+03 -0.82962914504E+03  0.13147482552E+04  0.50400001928E-02 0.  1.
</event>
<event>
 5   0  0.9099125E-05  0.1925590E+04  0.7818609E-02  0.8642223E-01
       -3   -1    0    0    0  501  0.00000000000E+00  0.00000000000E+00  0.12041893554E+04  0.12041893596E+04  0.10100000352E+00 0.  1.
        3   -1    0    0  501    0  0.00000000000E+00  0.00000000000E+00 -0.76979090016E+03  0.76979090678E+03  0.10100000352E+00 0. -1.
    10030    2    1    2    0    0  0.00000000000E+00  0.00000000000E+00  0.43439845520E+03  0.19739802664E+04  0.19255897990E+04 0.  0.
        4    1    3    3  502    0 -0.44069169000E+02 -0.94728299955E+03  0.38776941228E+03  0.10245261846E+04  0.12699999809E+01 0.  1.
       -4    1    3    3    0  502  0.44069169000E+02  0.94728299955E+03  0.46629042913E+02  0.94945408179E+03  0.12699999809E+01 0. -1.
</event>
<event>
 5   0  0.1207228E-04  0.1979211E+04  0.7818609E-02  0.8616403E-01
       -1   -1    0    0    0  501  0.00000000000E+00  0.00000000000E+00  0.15808355421E+04  0.15808355421E+04  0.50400001928E-02 0. -1.
        1   -1    0    0  501    0  0.00000000000E+00  0.00000000000E+00 -0.61949431680E+03  0.61949431682E+03  0.50400001928E-02 0.  1.
    10030    2    1    2    0    0  0.00000000000E+00  0.00000000000E+00  0.96134122530E+03  0.22003298589E+04  0.19792105842E+04 0.  0.
        1    1    3    3  502    0 -0.19588926084E+03 -0.96079034213E+03  0.62910909054E+03  0.11650188547E+04  0.50400001928E-02 0.  1.
       -1    1    3    3    0  502  0.19588926084E+03  0.96079034213E+03  0.33223213476E+03  0.10353110042E+04  0.50400001928E-02 0. -1.
</event>
<event>
 5   0  0.1258546E-04  0.1966615E+04  0.7818609E-02  0.8622390E-01
       -1   -1    0    0    0  501  0.00000000000E+00  0.00000000000E+00  0.13581944626E+04  0.13581944626E+04  0.50400001928E-02 0.  1.
        1   -1    0    0  501    0  0.00000000000E+00  0.00000000000E+00 -0.71189643004E+03  0.71189643006E+03  0.50400001928E-02 0. -1.
    10030    2    1    2    0    0  0.00000000000E+00  0.00000000000E+00  0.64629803259E+03  0.20700908927E+04  0.19666151523E+04 0.  0.
        4    1    3    3  502    0 -0.52448967510E+02  0.11813160787E+03 -0.70291485111E+03  0.71470054693E+03  0.12699999809E+01 0. -1.
       -4    1    3    3    0  502  0.52448967510E+02 -0.11813160787E+03  0.13492128837E+04  0.13553903458E+04  0.12699999809E+01 0.  1.
</event>
<event>
 5   0  0.1231056E-04  0.2012404E+04  0.7818609E-02  0.8600843E-01
        1   -1    0    0  501    0  0.00000000000E+00  0.00000000000E+00  0.76064157653E+03  0.76064157654E+03  0.50400001928E-02 0.  1.
       -1   -1    0    0    0  501  0.00000000000E+00  0.00000000000E+00 -0.13310370060E+04  0.13310370061E+04  0.50400001928E-02 0. -1.
    10030    2    1    2    0    0  0.00000000000E+00  0.00000000000E+00 -0.57039542952E+03  0.20916785826E+04  0.20124036242E+04 0.  0.
        3    1    3    3  502    0  0.58114700861E+03  0.72680617346E+03  0.11258311275E+03  0.93736547135E+03  0.10100000352E+00 0.  1.
       -3    1    3    3    0  502 -0.58114700861E+03 -0.72680617346E+03 -0.68297854227E+03  0.11543131112E+04  0.10100000352E+00 0. -1.
</event>
<event>
 5   0  0.2540506E-04  0.1868865E+04  0.7818609E-02  0.8670511E-01
        2   -1    0    0  501    0  0.00000000000E+00  0.00000000000E+00  0.11137099093E+04  0.11137099093E+04  0.25500000920E-02 0. -1.
       -2   -1    0    0    0  501  0.00000000000E+00  0.00000000000E+00 -0.78401402976E+03  0.78401402977E+03  0.25500000920E-02 0.  1.
    10030    2    1    2    0    0  0.00000000000E+00  0.00000000000E+00  0.32969587955E+03  0.18977239391E+04  0.18688651037E+04 0.  0.
        4    1    3    3  502    0 -0.42959863284E+03  0.36322947554E+03  0.92247372665E+03  0.10804860140E+04  0.12699999809E+01 0. -1.
       -4    1    3    3    0  502  0.42959863284E+03 -0.36322947554E+03 -0.59277784710E+03  0.81723792506E+03  0.12699999809E+01 0.  1.
</event>
<event>
 5   0  0.1210633E-04  0.2102857E+04  0.7818609E-02  0.8559986E-01
        1   -1    0    0  501    0  0.00000000000E+00  0.00000000000E+00  0.19709342426E+04  0.19709342426E+04  0.50400001928E-02 0. -1.
       -1   -1    0    0    0  501  0.00000000000E+00  0.00000000000E+00 -0.56090257102E+03  0.56090257105E+03  0.50400001928E-02 0.  1.
    10030    2    1    2    0    0  0.00000000000E+00  0.00000000000E+00  0.14100316716E+04  0.25318368137E+04  0.21028571840E+04 0.  0.
        2    1    3    3  502    0  0.55415931654E+03  0.89351305495E+03  0.71299831611E+03  0.12703640133E+04  0.25500000920E-02 0. -1.
       -2    1    3    3    0  502 -0.55415931654E+03 -0.89351305495E+03  0.69703335550E+03  0.12614728004E+04  0.25500000920E-02 0.  1.
</event>
<event>
 5   0  0.1231056E-04  0.2443740E+04  0.7818609E-02  0.8423307E-01
        1   -1    0    0  501    0  0.00000000000E+00  0.00000000000E+00  0.15004614820E+04  0.15004614820E+04  0.50400001928E-02 0.  1.
       -1   -1    0    0    0  501  0.00000000000E+00  0.00000000000E+00 -0.99500485749E+03  0.99500485750E+03  0.50400001928E-02 0. -1.
    10030    2    1    2    0    0  0.00000000000E+00  0.00000000000E+00  0.50545662449E+03  0.24954663395E+04  0.24437401360E+04 0.  0.
        3    1    3    3  502    0 -0.68580510385E+02  0.79761245141E+03  0.11953474532E+04  0.14386606456E+04  0.10100000352E+00 0.  1.
       -3    1    3    3    0  502  0.68580510385E+02 -0.79761245141E+03 -0.68989082868E+03  0.10568056939E+04  0.10100000352E+00 0. -1.
</event>
<event>
 5   0  0.2596061E-04  0.1862981E+04  0.7818609E-02  0.8673506E-01
        2   -1    0    0  501    0  0.00000000000E+00  0.00000000000E+00  0.18185995304E+04  0.18185995304E+04  0.25500000920E-02 0.  1.
       -2   -1    0    0    0  501  0.00000000000E+00  0.00000000000E+00 -0.47711148462E+03  0.47711148463E+03  0.25500000920E-02 0. -1.
    10030    2    1    2    0    0  0.00000000000E+00  0.00000000000E+00  0.13414880457E+04  0.22957110150E+04  0.18629811828E+04 0.  0.
        5    1    3    3  502    0 -0.51024712563E+03 -0.70259600717E+03  0.10861869219E+04  0.13906176318E+04  0.46999998093E+01 0. -1.
       -5    1    3    3    0  502  0.51024712563E+03  0.70259600717E+03  0.25530112386E+03  0.90509338322E+03  0.46999998093E+01 0.  1.
</event>
<event>
 5   0  0.1210633E-04  0.1830318E+04  0.7818609E-02  0.8690341E-01
       -1   -1    0    0    0  501  0.00000000000E+00  0.00000000000E+00  0.13204914296E+04  0.13204914296E+04  0.50400001928E-02 0.  1.
        1   -1    0    0  501    0  0.00000000000E+00  0.00000000000E+00 -0.63424583408E+03  0.63424583410E+03  0.50400001928E-02 0. -1.
    10030    2    1    2    0    0  0.00000000000E+00  0.00000000000E+00  0.68624559556E+03  0.19547372637E+04  0.18303182108E+04 0.  0.
        2    1    3    3  502    0  0.10640445434E+03 -0.77452685300E+03  0.85117273749E+03  0.11557286805E+04  0.25500000920E-02 0.  1.
       -2    1    3    3    0  502 -0.10640445434E+03  0.77452685300E+03 -0.16492714193E+03  0.79900858322E+03  0.25500000920E-02 0. -1.
</event>
<event>
 5   0  0.1324930E-04  0.1978715E+04  0.7818609E-02  0.8616637E-01
        1   -1    0    0  501    0  0.00000000000E+00  0.00000000000E+00  0.18484670127E+04  0.18484670127E+04  0.50400001928E-02 0. -1.
       -1   -1    0    0    0  501  0.00000000000E+00  0.00000000000E+00 -0.52953508070E+03  0.52953508072E+03  0.50400001928E-02 0.  1.
    10030    2    1    2    0    0  0.00000000000E+00  0.00000000000E+00  0.13189319320E+04  0.23780020934E+04  0.19787148645E+04 0.  0.
        5    1    3    3  502    0 -0.82904153884E+03  0.11074814066E+03  0.12945202408E+04  0.15412267087E+04  0.46999998093E+01 0. -1.
       -5    1    3    3    0  502  0.82904153884E+03 -0.11074814066E+03  0.24411691194E+02  0.83677538471E+03  0.46999998093E+01 0.  1.
</event>
<event>
 5   0  0.1324930E-04  0.2090578E+04  0.7818609E-02  0.8565405E-01
        1   -1    0    0  501    0  0.00000000000E+00  0.00000000000E+00  0.14863174931E+04  0.14863174931E+04  0.50400001928E-02 0. -1.
       -1   -1    0    0    0  501  0.00000000000E+00  0.00000000000E+00 -0.73512524152E+03  0.73512524154E+03  0.50400001928E-02 0.  1.
    10030    2    1    2    0    0  0.00000000000E+00  0.00000000000E+00  0.75119225159E+03  0.22214427347E+04  0.20905783947E+04 0.  0.
        5    1    3    3  502    0  0.90994806887E+03  0.61732374996E+02 -0.16704786650E+03  0.92722351882E+03  0.46999998093E+01 0.  1.
       -5    1    3    3    0  502 -0.90994806887E+03 -0.61732374996E+02  0.91824011809E+03  0.12942192158E+04  0.46999998093E+01 0. -1.
</event>
<event>
 5   0  0.2463085E-04  0.1419328E+04  0.7818609E-02  0.8939946E-01
       -2   -1    0    0    0  501  0.00000000000E+00  0.00000000000E+00  0.33692603203E+03  0.33692603204E+03  0.25500000920E-02 0.  1.
        2   -1    0    0  501    0  0.00000000000E+00  0.00000000000E+00 -0.14947578739E+04  0.14947578739E+04  0.25500000920E-02 0. -1.
    10030    2    1    2    0    0  0.00000000000E+00  0.00000000000E+00 -0.11578318418E+04  0.18316839059E+04  0.14193277836E+04 0.  0.
        2    1    3    3  502    0 -0.53576069096E+03 -0.24176330108E+03 -0.10921083216E+04  0.12402377183E+04  0.25500000920E-02 0. -1.
       -2    1    3    3    0  502  0.53576069096E+03  0.24176330108E+03 -0.65723520208E+02  0.59144618761E+03  0.25500000920E-02 0.  1.
</event>
<event>
 5   0  0.2463085E-04  0.2004384E+04  0.7818609E-02  0.8604574E-01
       -2   -1    0    0    0  501  0.00000000000E+00  0.00000000000E+00  0.47710363885E+03  0.47710363886E+03  0.25500000920E-02 0. -1.
        2   -1    0    0  501    0  0.00000000000E+00  0.00000000000E+00 -0.21051800751E+04  0.21051800751E+04  0.25500000920E-02 0.  1.
    10030    2    1    2    0    0  0.00000000000E+00  0.00000000000E+00 -0.16280764363E+04  0.25822837140E+04  0.20043842688E+04 0.  0.
        2    1    3    3  502    0  0.42299243647E+03  0.44965206091E+03 -0.18311399437E+04  0.19324034441E+04  0.25500000920E-02 0.  1.
       -2    1    3    3    0  502 -0.42299243647E+03 -0.44965206091E+03  0.20306350742E+03  0.64988026993E+03  0.25500000920E-02 0. -1.
</event>
<event>
 5   0  0.2488886E-04  0.1991129E+04  0.7818609E-02  0.8610779E-01
        2   -1    0    0  501    0  0.00000000000E+00  0.00000000000E+00  0.10405904108E+04  0.10405904108E+04  0.25500000920E-02 0. -1.
       -2   -1    0    0    0  501  0.00000000000E+00  0.00000000000E+00 -0.95248707211E+03  0.95248707212E+03  0.25500000920E-02 0.  1.
    10030    2    1    2    0    0  0.00000000000E+00  0.00000000000E+00  0.88103338686E+02  0.19930774829E+04  0.19911292411E+04 0.  0.
        3    1    3    3  502    0  0.89489270059E+02 -0.60988237571E+03 -0.73849589228E+03  0.96194648228E+03  0.10100000352E+00 0.  1.
       -3    1    3    3    0  502 -0.89489270059E+02  0.60988237571E+03  0.82659923096E+03  0.10311310006E+04  0.10100000352E+00 0. -1.
</event>
<event>
 5   0  0.2540506E-04  0.2013963E+04  0.7818609E-02  0.8600120E-01
       -2   -1    0    0    0  501  0.00000000000E+00  0.00000000000E+00  0.13831489687E+04  0.13831489687E+04  0.25500000920E-02 0.  1.
        2   -1    0    0  501    0  0.00000000000E+00  0.00000000000E+00 -0.73311860492E+03  0.73311860493E+03  0.25500000920E-02 0. -1.
    10030    2    1    2    0    0  0.00000000000E+00  0.00000000000E+00  0.65003036380E+03  0.21162675737E+04  0.20139634975E+04 0.  0.
        4    1    3    3  502    0 -0.49765085118E+03  0.36640812296E+03 -0.51041787102E+03  0.80152311146E+03  0.12699999809E+01 0. -1.
       -4    1    3    3    0  502  0.49765085118E+03 -0.36640812296E+03  0.11604482348E+04  0.13147444622E+04  0.12699999809E+01 0.  1.
</event>
<event>
 5   0  0.1207228E-04  0.1982272E+04  0.7818609E-02  0.8614954E-01
        1   -1    0    0  501    0  0.00000000000E+00  0.00000000000E+00  0.15870296327E+04  0.15870296327E+04  0.50400001928E-02 0. -1.
       -1   -1    0    0    0  501  0.00000000000E+00  0.00000000000E+00 -0.61898667455E+03  0.61898667457E+03  0.50400001928E-02 0.  1.
    10030    2    1    2    0    0  0.00000000000E+00  0.00000000000E+00  0.96804295813E+03  0.22060163073E+04  0.19822716209E+04 0.  0.
        1    1    3    3  502    0 -0.65911764852E+03 -0.27593420255E+03  0.12484075370E+04  0.14384356562E+04  0.50400001928E-02 0.  1.
       -1    1    3    3    0  502  0.65911764852E+03  0.27593420255E+03 -0.28036457884E+03  0.76758065102E+03  0.50400001928E-02 0. -1.
</event>
<event>
 5   0  0.2540506E-04  0.2105220E+04  0.7818609E-02  0.8558948E-01
       -2   -1    0    0    0  501  0.00000000000E+00  0.00000000000E+00  0.61179491027E+03  0.61179491028E+03  0.25500000920E-02 0. -1.
        2   -1    0    0  501    0  0.00000000000E+00  0.00000000000E+00 -0.18110437067E+04  0.18110437067E+04  0.25500000920E-02 0.  1.
    10030    2    1    2    0    0  0.00000000000E+00  0.00000000000E+00 -0.11992487965E+04  0.24228386170E+04  0.21052195345E+04 0.  0.
        4    1    3    3  502    0  0.46489500983E+03  0.32423322335E+03 -0.16204234797E+04  0.17166911253E+04  0.12699999809E+01 0.  1.
       -4    1    3    3    0  502 -0.46489500983E+03 -0.32423322335E+03  0.42117468325E+03  0.70614749168E+03  0.12699999809E+01 0. -1.
</event>
<event>
 5   0  0.1258546E-04  0.1987068E+04  0.7818609E-02  0.8612691E-01
        1   -1    0    0  501    0  0.00000000000E+00  0.00000000000E+00  0.16386544426E+04  0.16386544426E+04  0.50400001928E-02 0. -1.
       -1   -1    0    0    0  501  0.00000000000E+00  0.00000000000E+00 -0.60239025109E+03  0.60239025111E+03  0.50400001928E-02 0.  1.
    10030    2    1    2    0    0  0.00000000000E+00  0.00000000000E+00  0.10362641915E+04  0.22410446937E+04  0.19870676497E+04 0.  0.
        4    1    3    3  502    0  0.39585899262E+03 -0.19298076602E+03 -0.48629586858E+03  0.65607255909E+03  0.12699999809E+01 0.  1.
       -4    1    3    3    0  502 -0.39585899262E+03  0.19298076602E+03  0.15225600601E+04  0.15849721346E+04  0.12699999809E+01 0. -1.
</event>
<event>
 5   0  0.2421737E-04  0.2008149E+04  0.7818609E-02  0.8602820E-01
        2   -1    0    0  501    0  0.00000000000E+00  0.00000000000E+00  0.12030918613E+04  0.12030918613E+04  0.25500000920E-02 0. -1.
       -2   -1    0    0    0  501  0.00000000000E+00  0.00000000000E+00 -0.83797884819E+03  0.83797884819E+03  0.25500000920E-02 0.  1.
    10030    2    1    2    0    0  0.00000000000E+00  0.00000000000E+00  0.36511301311E+03  0.20410707095E+04  0.20081489309E+04 0.  0.
        1    1    3    3  502    0  0.75406096122E+03 -0.59940828266E+02 -0.48854434982E+03  0.90048676720E+03  0.50400001928E-02 0.  1.
       -1    1    3    3    0  502 -0.75406096122E+03  0.59940828266E+02  0.85365736293E+03  0.11405839423E+04  0.50400001928E-02 0. -1.
</event>
<event>
 5   0  0.1231056E-04  0.2469648E+04  0.7818609E-02  0.8413879E-01
        1   -1    0    0  501    0  0.00000000000E+00  0.00000000000E+00  0.73782565096E+03  0.73782565098E+03  0.50400001928E-02 0. -1.
       -1   -1    0    0    0  501  0.00000000000E+00  0.00000000000E+00 -0.20665999978E+04  0.20665999978E+04  0.50400001928E-02 0.  1.
    10030    2    1    2    0    0  0.00000000000E+00  0.00000000000E+00 -0.13287743468E+04  0.28044256487E+04  0.24696481439E+04 0.  0.
        3    1    3    3  502    0  0.73020030781E+03 -0.39155890563E+03  0.37530146861E+03  0.90959445284E+03  0.10100000352E+00 0. -1.
       -3    1    3    3    0  502 -0.73020030781E+03  0.39155890563E+03 -0.17040758154E+04  0.18948311959E+04  0.10100000352E+00 0.  1.
</event>
<event>
 5   0  0.2488886E-04  0.1987338E+04  0.7818609E-02  0.8612564E-01
        2   -1    0    0  501    0  0.00000000000E+00  0.00000000000E+00  0.13025266457E+04  0.13025266457E+04  0.25500000920E-02 0.  1.
       -2   -1    0    0    0  501  0.00000000000E+00  0.00000000000E+00 -0.75804820279E+03  0.75804820279E+03  0.25500000920E-02 0. -1.
    10030    2    1    2    0    0  0.00000000000E+00  0.00000000000E+00  0.54447844292E+03  0.20605748485E+04  0.19873379007E+04 0.  0.
        3    1    3    3  502    0  0.93456742559E+03 -0.23191167015E+03  0.17885558026E+02  0.96307798184E+03  0.10100000352E+00 0. -1.
       -3    1    3    3    0  502 -0.93456742559E+03  0.23191167015E+03  0.52659288490E+03  0.10974968667E+04  0.10100000352E+00 0.  1.
</event>
<event>
 5   0  0.1324930E-04  0.2061484E+04  0.7818609E-02  0.8578402E-01
       -1   -1    0    0    0  501  0.00000000000E+00  0.00000000000E+00  0.88044148764E+03  0.88044148766E+03  0.50400001928E-02 0. -1.
        1   -1    0    0  501    0  0.00000000000E+00  0.00000000000E+00 -0.12067000394E+04  0.12067000395E+04  0.50400001928E-02 0.  1.
    10030    2    1    2    0    0  0.00000000000E+00  0.00000000000E+00 -0.32625855180E+03  0.20871415271E+04  0.20614837161E+04 0.  0.
        5    1    3    3  502    0  0.23208230508E+03 -0.99871206605E+03 -0.56371624634E+02  0.10268825820E+04  0.46999998093E+01 0.  1.
       -5    1    3    3    0  502 -0.23208230508E+03  0.99871206605E+03 -0.26988692717E+03  0.10602589451E+04  0.46999998093E+01 0. -1.
</event>
<event>
 5   0  0.2421737E-04  0.2000594E+04  0.7818609E-02  0.8606343E-01
       -2   -1    0    0    0  501  0.00000000000E+00  0.00000000000E+00  0.74569434225E+03  0.74569434225E+03  0.25500000920E-02 0. -1.
        2   -1    0    0  501    0  0.00000000000E+00  0.00000000000E+00 -0.13418287100E+04  0.13418287100E+04  0.25500000920E-02 0.  1.
    10030    2    1    2    0    0  0.00000000000E+00  0.00000000000E+00 -0.59613436774E+03  0.20875230522E+04  0.20005939891E+04 0.  0.
        1    1    3    3  502    0 -0.52454112467E+03 -0.81789865443E+02  0.58656880596E+03  0.79113585288E+03  0.50400001928E-02 0. -1.
       -1    1    3    3    0  502  0.52454112467E+03  0.81789865443E+02 -0.11827031737E+04  0.12963871994E+04  0.50400001928E-02 0.  1.
</event>
<event>
 5   0  0.2488886E-04  0.1982895E+04  0.7818609E-02  0.8614660E-01
        2   -1    0    0  501    0  0.00000000000E+00  0.00000000000E+00  0.96014958939E+03  0.96014958940E+03  0.25500000920E-02 0.  1.
       -2   -1    0    0    0  501  0.00000000000E+00  0.00000000000E+00 -0.10237659271E+04  0.10237659271E+04  0.25500000920E-02 0. -1.
    10030    2    1    2    0    0  0.00000000000E+00  0.00000000000E+00 -0.63616337725E+02  0.19839155165E+04  0.19828952918E+04 0.  0.
        3    1    3    3  502    0 -0.53407498900E+03  0.33905201611E+03 -0.79559865482E+03  0.10164495035E+04  0.10100000352E+00 0. -1.
       -3    1    3    3    0  502  0.53407498900E+03 -0.33905201611E+03  0.73198231710E+03  0.96746601297E+03  0.10100000352E+00 0.  1.
</event>
<event>
 5   0  0.9099125E-05  0.1896519E+04  0.7818609E-02  0.8656591E-01
       -3   -1    0    0    0  501  0.00000000000E+00  0.00000000000E+00  0.51430191027E+03  0.51430192019E+03  0.10100000352E+00 0. -1.
        3   -1    0    0  501    0  0.00000000000E+00  0.00000000000E+00 -0.17483815353E+04  0.17483815382E+04  0.10100000352E+00 0.  1.
    10030    2    1    2    0    0  0.00000000000E+00  0.00000000000E+00 -0.12340796250E+04  0.22626834584E+04  0.18965188931E+04 0.  0.
        4    1    3    3  502    0  0.69145018510E+03  0.70253489300E+02 -0.13866918505E+04  0.15511140552E+04  0.12699999809E+01 0.  1.
       -4    1    3    3    0  502 -0.69145018510E+03 -0.70253489300E+02  0.15261222548E+03  0.71156940315E+03  0.12699999809E+01 0. -1.
</event>
<event>
 5   0  0.1258546E-04  0.2075426E+04  0.7818609E-02  0.8572146E-01
       -1   -1    0    0    0  501  0.00000000000E+00  0.00000000000E+00  0.71146084829E+03  0.71146084831E+03  0.50400001928E-02 0.  1.
        1   -1    0    0  501    0  0.00000000000E+00  0.00000000000E+00 -0.15135737699E+04  0.15135737699E+04  0.50400001928E-02 0. -1.
    10030    2    1    2    0    0  0.00000000000E+00  0.00000000000E+00 -0.80211292164E+03  0.22250346183E+04  0.20754262004E+04 0.  0.
        4    1    3    3  502    0 -0.45371213959E+02  0.54889434965E+03 -0.13439454538E+04  0.14524236813E+04  0.12699999809E+01 0. -1.
       -4    1    3    3    0  502  0.45371213959E+02 -0.54889434965E+03  0.54183253218E+03  0.77261093699E+03  0.12699999809E+01 0.  1.
</event>
<event>
 5   0  0.1210633E-04  0.2135281E+04  0.7818609E-02  0.8545859E-01
        1   -1    0    0  501    0  0.00000000000E+00  0.00000000000E+00  0.83839493716E+03  0.83839493717E+03  0.50400001928E-02 0.  1.
       -1   -1    0    0    0  501  0.00000000000E+00  0.00000000000E+00 -0.13595693056E+04  0.13595693057E+04  0.50400001928E-02 0. -1.
    10030    2    1    2    0    0  0.00000000000E+00  0.00000000000E+00 -0.52117436849E+03  0.21979642428E+04  0.21352807990E+04 0.  0.
        2    1    3    3  502    0  0.94135476963E+03  0.17808658356E+03 -0.74557929113E+03  0.12139819245E+04  0.25500000920E-02 0. -1.
       -2    1    3    3    0  502 -0.94135476963E+03 -0.17808658356E+03  0.22440492264E+03  0.98398231837E+03  0.25500000920E-02 0.  1.
</event>
<event>
 5   0  0.2540506E-04  0.1916461E+04  0.7818609E-02  0.8646706E-01
        2   -1    0    0  501    0  0.00000000000E+00  0.00000000000E+00  0.12326401680E+04  0.12326401680E+04  0.25500000920E-02 0. -1.
       -2   -1    0    0    0  501  0.00000000000E+00  0.00000000000E+00 -0.74490946924E+03  0.74490946924E+03  0.25500000920E-02 0.  1.
    10030    2    1    2    0    0  0.00000000000E+00  0.00000000000E+00  0.48773069877E+03  0.19775496373E+04  0.19164606266E+04 0.  0.
        4    1    3    3  502    0 -0.85542570044E+03 -0.20463648494E+03  0.63621506516E+03  0.10855415432E+04  0.12699999809E+01 0. -1.
       -4    1    3    3    0  502  0.85542570044E+03  0.20463648494E+03 -0.14848436638E+03  0.89200809408E+03  0.12699999809E+01 0.  1.
</event>
<event>
 5   0  0.2421737E-04  0.2003673E+04  0.7818609E-02  0.8604905E-01
       -2   -1    0    0    0  501  0.00000000000E+00  0.00000000000E+00  0.62170696443E+03  0.62170696444E+03  0.25500000920E-02 0. -1.
        2   -1    0    0  501    0  0.00000000000E+00  0.00000000000E+00 -0.16143888279E+04  0.16143888279E+04  0.25500000920E-02 0.  1.
    10030    2    1    2    0    0  0.00000000000E+00  0.00000000000E+00 -0.99268186342E+03  0.22360957923E+04  0.20036734041E+04 0.  0.
        1    1    3    3  502    0  0.55455725994E+03  0.83147622749E+03 -0.41910042659E+03  0.10837581091E+04  0.50400001928E-02 0. -1.
       -1    1    3    3    0  502 -0.55455725994E+03 -0.83147622749E+03 -0.57358143682E+03  0.11523376832E+04  0.50400001928E-02 0.  1.
</event>
<event>
 5   0  0.1207228E-04  0.2032524E+04  0.7818609E-02  0.8591564E-01
       -1   -1    0    0    0  501  0.00000000000E+00  0.00000000000E+00  0.29576921330E+04  0.29576921330E+04  0.50400001928E-02 0. -1.
        1   -1    0    0  501    0  0.00000000000E+00  0.00000000000E+00 -0.34918714583E+03  0.34918714586E+03  0.50400001928E-02 0.  1.
    10030    2    1    2    0    0  0.00000000000E+00  0.00000000000E+00  0.26085049871E+04  0.33068792788E+04  0.20325236276E+04 0.  0.
        1    1    3    3  502    0 -0.91916871503E+03 -0.13300552639E+03  0.19755210340E+04  0.21829441020E+04  0.50400001928E-02 0. -1.
       -1    1    3    3    0  502  0.91916871503E+03  0.13300552639E+03  0.63298395317E+03  0.11239351768E+04  0.50400001928E-02 0.  1.
</event>
<event>
 5   0  0.2596061E-04  0.1860247E+04  0.7818609E-02  0.8674901E-01
       -2   -1    0    0    0  501  0.00000000000E+00  0.00000000000E+00  0.73380890719E+03  0.73380890719E+03  0.25500000920E-02 0.  1.
        2   -1    0    0  501    0  0.00000000000E+00  0.00000000000E+00 -0.11789573848E+04  0.11789573848E+04  0.25500000920E-02 0. -1.
    10030    2    1    2    0    0  0.00000000000E+00  0.00000000000E+00 -0.44514847759E+03  0.19127662920E+04  0.18602466827E+04 0.  0.
        5    1    3    3  502    0 -0.70387675124E+03 -0.24667580026E+02 -0.84722564746E+03  0.11017551262E+04  0.46999998093E+01 0. -1.
       -5    1    3    3    0  502  0.70387675124E+03  0.24667580026E+02  0.40207716988E+03  0.81101116575E+03  0.46999998093E+01 0.  1.
</event>
<event>
 5   0  0.1258546E-04  0.1926499E+04  0.7818609E-02  0.8641777E-01
        1   -1    0    0  501    0  0.00000000000E+00  0.00000000000E+00  0.23144474952E+04  0.23144474952E+04  0.50400001928E-02 0. -1.
       -1   -1    0    0    0  501  0.00000000000E+00  0.00000000000E+00 -0.40089465373E+03  0.40089465376E+03  0.50400001928E-02 0.  1.
    10030    2    1    2    0    0  0.00000000000E+00  0.00000000000E+00  0.19135528414E+04  0.27153421489E+04  0.19264990290E+04 0.  0.
        4    1    3    3  502    0 -0.21496245604E+03 -0.25529851926E+03  0.22303490228E+04  0.22551817151E+04  0.12699999809E+01 0. -1.
       -4    1    3    3    0  502  0.21496245604E+03  0.25529851926E+03 -0.31679618140E+03  0.46016043386E+03  0.12699999809E+01 0.  1.
</event>
<event>
 5   0  0.1231056E-04  0.1994860E+04  0.7818609E-02  0.8609028E-01
       -1   -1    0    0    0  501  0.00000000000E+00  0.00000000000E+00  0.10228882968E+04  0.10228882968E+04  0.50400001928E-02 0.  1.
        1   -1    0    0  501    0  0.00000000000E+00  0.00000000000E+00 -0.97260487951E+03  0.97260487952E+03  0.50400001928E-02 0. -1.
    10030    2    1    2    0    0  0.00000000000E+00  0.00000000000E+00  0.50283417316E+02  0.19954931764E+04  0.19948595426E+04 0.  0.
        3    1    3    3  502    0 -0.52525042258E+03  0.80232123555E+03  0.29956215986E+03  0.10046615695E+04  0.10100000352E+00 0.  1.
       -3    1    3    3    0  502  0.52525042258E+03 -0.80232123555E+03 -0.24927874255E+03  0.99083160685E+03  0.10100000352E+00 0. -1.
</event>
<event>
 5   0  0.1210633E-04  0.1917873E+04  0.7818609E-02  0.8646011E-01
        1   -1    0    0  501    0  0.00000000000E+00  0.00000000000E+00  0.14271087815E+04  0.14271087815E+04  0.50400001928E-02 0. -1.
       -1   -1    0    0    0  501  0.00000000000E+00  0.00000000000E+00 -0.64435087148E+03  0.64435087150E+03  0.50400001928E-02 0.  1.
    10030    2    1    2    0    0  0.00000000000E+00  0.00000000000E+00  0.78275791006E+03  0.20714596530E+04  0.19178725579E+04 0.  0.
        2    1    3    3  502    0  0.39299719795E+03  0.37220042472E+03 -0.46357867706E+03  0.71266060898E+03  0.25500000920E-02 0.  1.
       -2    1    3    3    0  502 -0.39299719795E+03 -0.37220042472E+03  0.12463365871E+04  0.13587990441E+04  0.25500000920E-02 0. -1.
</event>
<event>
 5   0  0.2540506E-04  0.2040389E+04  0.7818609E-02  0.8587967E-01
       -2   -1    0    0    0  501  0.00000000000E+00  0.00000000000E+00  0.61499186478E+03  0.61499186479E+03  0.25500000920E-02 0. -1.
        2   -1    0    0  501    0  0.00000000000E+00  0.00000000000E+00 -0.16923751559E+04  0.16923751560E+04  0.25500000920E-02 0.  1.
    10030    2    1    2    0    0  0.00000000000E+00  0.00000000000E+00 -0.10773832912E+04  0.23073670207E+04  0.20403891326E+04 0.  0.
        4    1    3    3  502    0  0.44610063072E+03  0.90203382487E+02 -0.15712065188E+04  0.16357976527E+04  0.12699999809E+01 0.  1.
       -4    1    3    3    0  502 -0.44610063072E+03 -0.90203382487E+02  0.49382322768E+03  0.67156936800E+03  0.12699999809E+01 0. -1.
</event>
<event>
 5   0  0.1207228E-04  0.2003466E+04  0.7818609E-02  0.8605002E-01
       -1   -1    0    0    0  501  0.00000000000E+00  0.00000000000E+00  0.10843724069E+04  0.10843724069E+04  0.50400001928E-02 0. -1.
        1   -1    0    0  501    0  0.00000000000E+00  0.00000000000E+00 -0.92539153835E+03  0.92539153837E+03  0.50400001928E-02 0.  1.
    10030    2    1    2    0    0  0.00000000000E+00  0.00000000000E+00  0.15898086856E+03  0.20097639453E+04  0.20034660464E+04 0.  0.
        1    1    3    3  502    0 -0.77465743234E+01 -0.86130681803E+03  0.59252709605E+03  0.10454653527E+04  0.50400001928E-02 0. -1.
       -1    1    3    3    0  502  0.77465743234E+01  0.86130681803E+03 -0.43354622749E+03  0.96429859255E+03  0.50400001928E-02 0.  1.
</event>
<event>
 5   0  0.1231056E-04  0.2007124E+04  0.7818609E-02  0.8603297E-01
        1   -1    0    0  501    0  0.00000000000E+00  0.00000000000E+00  0.31122173430E+03  0.31122173434E+03  0.50400001928E-02 0. -1.
       -1   -1    0    0    0  501  0.00000000000E+00  0.00000000000E+00 -0.32360746287E+04  0.32360746287E+04  0.50400001928E-02 0.  1.
    10030    2    1    2    0    0  0.00000000000E+00  0.00000000000E+00 -0.29248528944E+04  0.35472963630E+04  0.20071240703E+04 0.  0.
        3    1    3    3  502    0  0.44624234109E+03  0.81515825565E+03 -0.21319745695E+04  0.23257108126E+04  0.10100000352E+00 0.  1.
       -3    1    3    3    0  502 -0.44624234109E+03 -0.81515825565E+03 -0.79287832491E+03  0.12215855504E+04  0.10100000352E+00 0. -1.
</event>
<event>
 5   0  0.2463085E-04  0.1979606E+04  0.7818609E-02  0.8616216E-01
        2   -1    0    0  501    0  0.00000000000E+00  0.00000000000E+00  0.85542307530E+03  0.85542307530E+03  0.25500000920E-02 0.  1.
       -2   -1    0    0    0  501  0.00000000000E+00  0.00000000000E+00 -0.11452923657E+04  0.11452923657E+04  0.25500000920E-02 0. -1.
    10030    2    1    2    0    0  0.00000000000E+00  0.00000000000E+00 -0.28986929042E+03  0.20007154410E+04  0.19796055341E+04 0.  0.
        2    1    3    3  502    0 -0.55502925075E+03  0.50049985056E+03  0.51094789743E+03  0.90533160969E+03  0.25500000920E-02 0.  1.
       -2    1    3    3    0  502  0.55502925075E+03 -0.50049985056E+03 -0.80081718785E+03  0.10953838313E+04  0.25500000920E-02 0. -1.
</event>
<event>
 5   0  0.2540506E-04  0.1990703E+04  0.7818609E-02  0.8610980E-01
        2   -1    0    0  501    0  0.00000000000E+00  0.00000000000E+00  0.13940382807E+04  0.13940382807E+04  0.25500000920E-02 0. -1.
       -2   -1    0    0    0  501  0.00000000000E+00  0.00000000000E+00 -0.71068682171E+03  0.71068682172E+03  0.25500000920E-02 0.  1.
    10030    2    1    2    0    0  0.00000000000E+00  0.00000000000E+00  0.68335145899E+03  0.21047251024E+04  0.19907030266E+04 0.  0.
        4    1    3    3  502    0 -0.48188559418E+03 -0.56371887941E+03 -0.36022447521E+03  0.82447315682E+03  0.12699999809E+01 0.  1.
       -4    1    3    3    0  502  0.48188559418E+03  0.56371887941E+03  0.10435759342E+04  0.12802519456E+04  0.12699999809E+01 0. -1.
</event>
<event>
 5   0  0.1324930E-04  0.1977090E+04  0.7818609E-02  0.8617408E-01
        1   -1    0    0  501    0  0.00000000000E+00  0.00000000000E+00  0.95842038418E+03  0.95842038419E+03  0.50400001928E-02 0.  1.
       -1   -1    0    0    0  501  0.00000000000E+00  0.00000000000E+00 -0.10196160201E+04  0.10196160201E+04  0.50400001928E-02 0. -1.
    10030    2    1    2    0    0  0.00000000000E+00  0.00000000000E+00 -0.61195635890E+02  0.19780364043E+04  0.19770895556E+04 0.  0.
        5    1    3    3  502    0  0.66961014975E+03  0.35746881234E+03 -0.66417590845E+03  0.10086195674E+04  0.46999998093E+01 0. -1.
       -5    1    3    3    0  502 -0.66961014975E+03 -0.35746881234E+03  0.60298027256E+03  0.96941683684E+03  0.46999998093E+01 0.  1.
</event>
<event>
 5   0  0.2540506E-04  0.2006302E+04  0.7818609E-02  0.8603680E-01
        2   -1    0    0  501    0  0.00000000000E+00  0.00000000000E+00  0.16199639384E+04  0.16199639384E+04  0.25500000920E-02 0.  1.
       -2   -1    0    0    0  501  0.00000000000E+00  0.00000000000E+00 -0.62119379564E+03  0.62119379565E+03  0.25500000920E-02 0. -1.
    10030    2    1    2    0    0  0.00000000000E+00  0.00000000000E+00  0.99877014275E+03  0.22411577340E+04  0.20063016201E+04 0.  0.
        4    1    3    3  502    0 -0.68296473657E+03 -0.72362732189E+03  0.64170649373E+03  0.11840042945E+04  0.12699999809E+01 0.  1.
       -4    1    3    3    0  502  0.68296473657E+03  0.72362732189E+03  0.35706364902E+03  0.10571534395E+04  0.12699999809E+01 0. -1.
</event>
<event>
 5   0  0.1210633E-04  0.2003354E+04  0.7818609E-02  0.8605054E-01
       -1   -1    0    0    0  501  0.00000000000E+00  0.00000000000E+00  0.81838101342E+03  0.81838101343E+03  0.50400001928E-02 0.  1.
        1   -1    0    0  501    0  0.00000000000E+00  0.00000000000E+00 -0.12260269165E+04  0.12260269165E+04  0.50400001928E-02 0. -1.
    10030    2    1    2    0    0  0.00000000000E+00  0.00000000000E+00 -0.40764590305E+03  0.20444079299E+04  0.20033543375E+04 0.  0.
        2    1    3    3  502    0  0.87142048225E+03  0.49037803093E+03 -0.14333881828E+03  0.10101436962E+04  0.25500000920E-02 0.  1.
       -2    1    3    3    0  502 -0.87142048225E+03 -0.49037803093E+03 -0.26430708477E+03  0.10342642337E+04  0.25500000920E-02 0. -1.
</event>
<event>
 5   0  0.2596061E-04  0.1977988E+04  0.7818609E-02  0.8616982E-01
        2   -1    0    0  501    0  0.00000000000E+00  0.00000000000E+00  0.15472107816E+04  0.15472107816E+04  0.25500000920E-02 0. -1.
       -2   -1    0    0    0  501  0.00000000000E+00  0.00000000000E+00 -0.63217561298E+03  0.63217561299E+03  0.25500000920E-02 0.  1.
    10030    2    1    2    0    0  0.00000000000E+00  0.00000000000E+00  0.91503516859E+03  0.21793863946E+04  0.19779877899E+04 0.  0.
        5    1    3    3  502    0 -0.60547083213E+03 -0.50554802093E+03  0.11148463199E+04  0.13656786361E+04  0.46999998093E+01 0.  1.
       -5    1    3    3    0  502  0.60547083213E+03  0.50554802093E+03 -0.19981115132E+03  0.81370775848E+03  0.46999998093E+01 0. -1.
</event>
<event>
 5   0  0.1210633E-04  0.1994383E+04  0.7818609E-02  0.8609251E-01
       -1   -1    0    0    0  501  0.00000000000E+00  0.00000000000E+00  0.19259521479E+04  0.19259521479E+04  0.50400001928E-02 0. -1.
        1   -1    0    0  501    0  0.00000000000E+00  0.00000000000E+00 -0.51631111173E+03  0.51631111176E+03  0.50400001928E-02 0.  1.
    10030    2    1    2    0    0  0.00000000000E+00  0.00000000000E+00  0.14096410362E+04  0.24422632597E+04  0.19943826059E+04 0.  0.
        2    1    3    3  502    0 -0.44138666608E+02 -0.70559407661E+03 -0.15637538237E+03  0.72406110451E+03  0.25500000920E-02 0.  1.
       -2    1    3    3    0  502  0.44138666608E+02  0.70559407661E+03  0.15660164186E+04  0.17182021552E+04  0.25500000920E-02 0. -1.
</event>
<event>
 5   0  0.2421737E-04  0.1987927E+04  0.7818609E-02  0.8612286E-01
       -2   -1    0    0    0  501  0.00000000000E+00  0.00000000000E+00  0.66032911251E+03  0.66032911251E+03  0.25500000920E-02 0.  1.
        2   -1    0    0  501    0  0.00000000000E+00  0.00000000000E+00 -0.14961676424E+04  0.14961676424E+04  0.25500000920E-02 0. -1.
    10030    2    1    2    0    0  0.00000000000E+00  0.00000000000E+00 -0.83583852993E+03  0.21564967550E+04  0.19879266098E+04 0.  0.
        1    1    3    3  502    0  0.55065257138E+03 -0.43003911680E+03  0.34900315550E+03  0.78099622209E+03  0.50400001928E-02 0.  1.
       -1    1    3    3    0  502 -0.55065257138E+03  0.43003911680E+03 -0.11848416854E+04  0.13755005329E+04  0.50400001928E-02 0. -1.
</event>
<event>
 5   0  0.2596061E-04  0.1926501E+04  0.7818609E-02  0.8641776E-01
       -2   -1    0    0    0  501  0.00000000000E+00  0.00000000000E+00  0.54332859869E+03  0.54332859870E+03  0.25500000920E-02 0.  1.
        2   -1    0    0  501    0  0.00000000000E+00  0.00000000000E+00 -0.17077176878E+04  0.17077176878E+04  0.25500000920E-02 0. -1.
    10030    2    1    2    0    0  0.00000000000E+00  0.00000000000E+00 -0.11643890891E+04  0.22510462865E+04  0.19265013452E+04 0.  0.
        5    1    3    3  502    0  0.15860558068E+03  0.64643080292E+03 -0.13957683857E+04  0.15463570059E+04  0.46999998093E+01 0. -1.
       -5    1    3    3    0  502 -0.15860558068E+03 -0.64643080292E+03  0.23137929666E+03  0.70468928054E+03  0.46999998093E+01 0.  1.
</event>
<event>
 5   0  0.2463085E-04  0.2031698E+04  0.7818609E-02  0.8591943E-01
        2   -1    0    0  501    0  0.00000000000E+00  0.00000000000E+00  0.69542032411E+03  0.69542032411E+03  0.25500000920E-02 0.  1.
       -2   -1    0    0    0  501  0.00000000000E+00  0.00000000000E+00 -0.14839209074E+04  0.14839209074E+04  0.25500000920E-02 0. -1.
    10030    2    1    2    0    0  0.00000000000E+00  0.00000000000E+00 -0.78850058330E+03  0.21793412315E+04  0.20316975743E+04 0.  0.
        2    1    3    3  502    0  0.19682300502E+03 -0.42514172206E+03  0.57262003333E+03  0.73985031034E+03  0.25500000920E-02 0.  1.
       -2    1    3    3    0  502 -0.19682300502E+03  0.42514172206E+03 -0.13611206166E+04  0.14394909212E+04  0.25500000920E-02 0. -1.
</event>
<event>
 5   0  0.9099125E-05  0.2030939E+04  0.7818609E-02  0.8592291E-01
       -3   -1    0    0    0  501  0.00000000000E+00  0.00000000000E+00  0.77625363024E+03  0.77625363681E+03  0.10100000352E+00 0.  1.
        3   -1    0    0  501    0  0.00000000000E+00  0.00000000000E+00 -0.13284044822E+04  0.13284044861E+04  0.10100000352E+00 0. -1.
    10030    2    1    2    0    0  0.00000000000E+00  0.00000000000E+00 -0.55215085198E+03  0.21046581229E+04  0.20309394996E+04 0.  0.
        3    1    3    3  502    0  0.86896272824E+03  0.62002358471E+02 -0.81677891914E+03  0.11941810284E+04  0.10100000352E+00 0. -1.
       -3    1    3    3    0  502 -0.86896272824E+03 -0.62002358471E+02  0.26462806716E+03  0.91047709453E+03  0.10100000352E+00 0.  1.
</event>
<event>
 5   0  0.2540506E-04  0.1959830E+04  0.7818609E-02  0.8625635E-01
        2   -1    0    0  501    0  0.00000000000E+00  0.00000000000E+00  0.18241876558E+04  0.18241876558E+04  0.25500000920E-02 0.  1.
       -2   -1    0    0    0  501  0.00000000000E+00  0.00000000000E+00 -0.52638981135E+03  0.52638981136E+03  0.25500000920E-02 0. -1.
    10030    2    1    2    0    0  0.00000000000E+00  0.00000000000E+00  0.12977978445E+04  0.23505774672E+04  0.19598303968E+04 0.  0.
        4    1    3    3  502    0 -0.25383077406E+02  0.33204888924E+03 -0.45643799195E+03  0.56501152100E+03  0.12699999809E+01 0. -1.
       -4    1    3    3    0  502  0.25383077406E+02 -0.33204888924E+03  0.17542358364E+04  0.17855659462E+04  0.12699999809E+01 0.  1.
</event>
<event>
 5   0  0.2596061E-04  0.1972779E+04  0.7818609E-02  0.8619454E-01
        2   -1    0    0  501    0  0.00000000000E+00  0.00000000000E+00  0.23353817460E+04  0.23353817460E+04  0.25500000920E-02 0. -1.
       -2   -1    0    0    0  501  0.00000000000E+00  0.00000000000E+00 -0.41661874560E+03  0.41661874561E+03  0.25500000920E-02 0.  1.
    10030    2    1    2    0    0  0.00000000000E+00  0.00000000000E+00  0.19187630004E+04  0.27520004916E+04  0.19727785618E+04 0.  0.
        5    1    3    3  502    0  0.34298248886E+03  0.85796799865E+03  0.14409969041E+04  0.17117944509E+04  0.46999998093E+01 0. -1.
       -5    1    3    3    0  502 -0.34298248886E+03 -0.85796799865E+03  0.47776609623E+03  0.10402060407E+04  0.46999998093E+01 0.  1.
</event>
<event>
 5   0  0.1258546E-04  0.2005650E+04  0.7818609E-02  0.8603983E-01
        1   -1    0    0  501    0  0.00000000000E+00  0.00000000000E+00  0.89716022131E+03  0.89716022133E+03  0.50400001928E-02 0. -1.
       -1   -1    0    0    0  501  0.00000000000E+00  0.00000000000E+00 -0.11209350499E+04  0.11209350499E+04  0.50400001928E-02 0.  1.
    10030    2    1    2    0    0  0.00000000000E+00  0.00000000000E+00 -0.22377482855E+03  0.20180952712E+04  0.20056503558E+04 0.  0.
        4    1    3    3  502    0 -0.28361207287E+03 -0.92315122157E+03 -0.38377273452E+03  0.10391954149E+04  0.12699999809E+01 0.  1.
       -4    1    3    3    0  502  0.28361207287E+03  0.92315122157E+03  0.15999790597E+03  0.97889985626E+03  0.12699999809E+01 0. -1.
</event>
<event>
 5   0  0.9099125E-05  0.2006392E+04  0.7818609E-02  0.8603638E-01
       -4   -1    0    0    0  501  0.00000000000E+00  0.00000000000E+00  0.47266667599E+03  0.47266838216E+03  0.12699999809E+01 0.  1.
        4   -1    0    0  501    0  0.00000000000E+00  0.00000000000E+00 -0.21291958804E+04  0.21291962592E+04  0.12699999809E+01 0. -1.
    10030    2    1    2    0    0  0.00000000000E+00  0.00000000000E+00 -0.16565292044E+04  0.26018646413E+04  0.20063924359E+04 0.  0.
        4    1    3    3  502    0 -0.71275394609E+03 -0.67389883576E+03 -0.55549741003E+03  0.11272696279E+04  0.12699999809E+01 0.  1.
       -4    1    3    3    0  502  0.71275394609E+03  0.67389883576E+03 -0.11010317944E+04  0.14745950134E+04  0.12699999809E+01 0. -1.
</event>
<event>
 5   0  0.2596061E-04  0.2017914E+04  0.7818609E-02  0.8598291E-01
       -2   -1    0    0    0  501  0.00000000000E+00  0.00000000000E+00  0.76294489689E+03  0.76294489689E+03  0.25500000920E-02 0. -1.
        2   -1    0    0  501    0  0.00000000000E+00  0.00000000000E+00 -0.13342958966E+04  0.13342958966E+04  0.25500000920E-02 0.  1.
    10030    2    1    2    0    0  0.00000000000E+00  0.00000000000E+00 -0.57135099970E+03  0.20972407935E+04  0.20179140173E+04 0.  0.
        5    1    3    3  502    0 -0.93103724417E+03  0.41255337552E+02 -0.68744668092E+03  0.11580748603E+04  0.46999998093E+01 0.  1.
       -5    1    3    3    0  502  0.93103724417E+03 -0.41255337552E+02  0.11609568122E+03  0.93916593321E+03  0.46999998093E+01 0. -1.
</event>
<event>
 5   0  0.1231056E-04  0.2000791E+04  0.7818609E-02  0.8606251E-01
       -1   -1    0    0    0  501  0.00000000000E+00  0.00000000000E+00  0.88542409617E+03  0.88542409618E+03  0.50400001928E-02 0. -1.
        1   -1    0    0  501    0  0.00000000000E+00  0.00000000000E+00 -0.11302956377E+04  0.11302956377E+04  0.50400001928E-02 0.  1.
    10030    2    1    2    0    0  0.00000000000E+00  0.00000000000E+00 -0.24487154153E+03  0.20157197339E+04  0.20007908371E+04 0.  0.
        3    1    3    3  502    0  0.22025573249E+03 -0.97565079531E+03 -0.14217587700E+03  0.10102579137E+04  0.10100000352E+00 0. -1.
       -3    1    3    3    0  502 -0.22025573249E+03  0.97565079531E+03 -0.10269566453E+03  0.10054618202E+04  0.10100000352E+00 0.  1.
</event>
<event>
 5   0  0.2421737E-04  0.2015926E+04  0.7818609E-02  0.8599211E-01
        2   -1    0    0  501    0  0.00000000000E+00  0.00000000000E+00  0.14471387890E+04  0.14471387890E+04  0.25500000920E-02 0.  1.
       -2   -1    0    0    0  501  0.00000000000E+00  0.00000000000E+00 -0.70206762583E+03  0.70206762583E+03  0.25500000920E-02 0. -1.
    10030    2    1    2    0    0  0.00000000000E+00  0.00000000000E+00  0.74507116321E+03  0.21492064149E+04  0.20159258854E+04 0.  0.
        1    1    3    3  502    0  0.66347791334E+03 -0.44889780884E+03  0.10247647247E+04  0.13007132372E+04  0.50400001928E-02 0.  1.
       -1    1    3    3    0  502 -0.66347791334E+03  0.44889780884E+03 -0.27969356150E+03  0.84849317772E+03  0.50400001928E-02 0. -1.
</event>
<event>
 5   0  0.1207228E-04  0.1927631E+04  0.7818609E-02  0.8641224E-01
        1   -1    0    0  501    0  0.00000000000E+00  0.00000000000E+00  0.80207644867E+03  0.80207644869E+03  0.50400001928E-02 0.  1.
       -1   -1    0    0    0  501  0.00000000000E+00  0.00000000000E+00 -0.11581689704E+04  0.11581689705E+04  0.50400001928E-02 0. -1.
    10030    2    1    2    0    0  0.00000000000E+00  0.00000000000E+00 -0.35609252178E+03  0.19602454191E+04  0.19276307269E+04 0.  0.
        1    1    3    3  502    0  0.63578135322E+03 -0.20336451220E+03  0.52896154338E+03  0.85168971364E+03  0.50400001928E-02 0.  1.
       -1    1    3    3    0  502 -0.63578135322E+03  0.20336451220E+03 -0.88505406515E+03  0.11085557055E+04  0.50400001928E-02 0. -1.
</event>
<event>
 5   0  0.2421737E-04  0.2039467E+04  0.7818609E-02  0.8588388E-01
        2   -1    0    0  501    0  0.00000000000E+00  0.00000000000E+00  0.10214079422E+04  0.10214079422E+04  0.25500000920E-02 0.  1.
       -2   -1    0    0    0  501  0.00000000000E+00  0.00000000000E+00 -0.10180615994E+04  0.10180615994E+04  0.25500000920E-02 0. -1.
    10030    2    1    2    0    0  0.00000000000E+00  0.00000000000E+00  0.33463427745E+01  0.20394695417E+04  0.20394667963E+04 0.  0.
        1    1    3    3  502    0  0.84955694878E+03 -0.30805138978E+03  0.47412860450E+03  0.10205099713E+04  0.50400001928E-02 0.  1.
       -1    1    3    3    0  502 -0.84955694878E+03  0.30805138978E+03 -0.47078226173E+03  0.10189595703E+04  0.50400001928E-02 0. -1.
</event>
<event>
 5   0  0.2421737E-04  0.1993391E+04  0.7818609E-02  0.8609717E-01
       -2   -1    0    0    0  501  0.00000000000E+00  0.00000000000E+00  0.97304944756E+03  0.97304944756E+03  0.25500000920E-02 0. -1.
        2   -1    0    0  501    0  0.00000000000E+00  0.00000000000E+00 -0.10209161508E+04  0.10209161508E+04  0.25500000920E-02 0.  1.
    10030    2    1    2    0    0  0.00000000000E+00  0.00000000000E+00 -0.47866703275E+02  0.19939655984E+04  0.19933909768E+04 0.  0.
        1    1    3    3  502    0  0.38960294474E+03 -0.91592997887E+03 -0.75752877506E+02  0.99822676743E+03  0.50400001928E-02 0.  1.
       -1    1    3    3    0  502 -0.38960294474E+03  0.91592997887E+03  0.27886174230E+02  0.99573883096E+03  0.50400001928E-02 0. -1.
</event>
<event>
 5   0  0.2596061E-04  0.2010078E+04  0.7818609E-02  0.8601923E-01
        2   -1    0    0  501    0  0.00000000000E+00  0.00000000000E+00  0.20325693456E+04  0.20325693456E+04  0.25500000920E-02 0.  1.
       -2   -1    0    0    0  501  0.00000000000E+00  0.00000000000E+00 -0.49695909053E+03  0.49695909054E+03  0.25500000920E-02 0. -1.
    10030    2    1    2    0    0  0.00000000000E+00  0.00000000000E+00  0.15356102550E+04  0.25295284361E+04  0.20100784198E+04 0.  0.
        5    1    3    3  502    0 -0.93122455395E+03 -0.10069368318E+03  0.30927735790E+03  0.98640405606E+03  0.46999998093E+01 0. -1.
       -5    1    3    3    0  502  0.93122455395E+03  0.10069368318E+03  0.12263328971E+04  0.15431243800E+04  0.46999998093E+01 0.  1.
</event>
<event>
 5   0  0.2488886E-04  0.2000758E+04  0.7818609E-02  0.8606266E-01
       -2   -1    0    0    0  501  0.00000000000E+00  0.00000000000E+00  0.62334746769E+03  0.62334746769E+03  0.25500000920E-02 0.  1.
        2   -1    0    0  501    0  0.00000000000E+00  0.00000000000E+00 -0.16054587135E+04  0.16054587135E+04  0.25500000920E-02 0. -1.
    10030    2    1    2    0    0  0.00000000000E+00  0.00000000000E+00 -0.98211124581E+03  0.22288061812E+04  0.20007584797E+04 0.  0.
        3    1    3    3  502    0 -0.16160063461E+02 -0.62365181186E+03  0.38009993464E+03  0.73053316187E+03  0.10100000352E+00 0.  1.
       -3    1    3    3    0  502  0.16160063461E+02  0.62365181186E+03 -0.13622111804E+04  0.14982730193E+04  0.10100000352E+00 0. -1.
</event>
<event>
 5   0  0.1210633E-04  0.1990143E+04  0.7818609E-02  0.8611243E-01
        1   -1    0    0  501    0  0.00000000000E+00  0.00000000000E+00  0.23225509810E+04  0.23225509810E+04  0.50400001928E-02 0. -1.
       -1   -1    0    0    0  501  0.00000000000E+00  0.00000000000E+00 -0.42632752461E+03  0.42632752464E+03  0.50400001928E-02 0.  1.
    10030    2    1    2    0    0  0.00000000000E+00  0.00000000000E+00  0.18962234564E+04  0.27488785056E+04  0.19901431210E+04 0.  0.
        2    1    3    3  502    0  0.23608325041E+03 -0.54642673882E+03  0.20495205458E+04  0.21342099123E+04  0.25500000920E-02 0. -1.
       -2    1    3    3    0  502 -0.23608325041E+03  0.54642673882E+03 -0.15329708943E+03  0.61466859335E+03  0.25500000920E-02 0.  1.
</event>
<event>
 5   0  0.1231056E-04  0.2019100E+04  0.7818609E-02  0.8597742E-01
       -1   -1    0    0    0  501  0.00000000000E+00  0.00000000000E+00  0.55827135285E+03  0.55827135287E+03  0.50400001928E-02 0.  1.
        1   -1    0    0  501    0  0.00000000000E+00  0.00000000000E+00 -0.18256204470E+04  0.18256204470E+04  0.50400001928E-02 0. -1.
    10030    2    1    2    0    0  0.00000000000E+00  0.00000000000E+00 -0.12673490941E+04  0.23838917999E+04  0.20191003905E+04 0.  0.
        3    1    3    3  502    0 -0.64926108488E+03  0.75916271195E+02  0.27466562771E+03  0.70904474740E+03  0.10100000352E+00 0.  1.
       -3    1    3    3    0  502  0.64926108488E+03 -0.75916271195E+02 -0.15420147218E+04  0.16748470525E+04  0.10100000352E+00 0. -1.
</event>
<event>
 5   0  0.9099125E-05  0.2188987E+04  0.7818609E-02  0.8523026E-01
        3   -1    0    0  501    0  0.00000000000E+00  0.00000000000E+00  0.16360095838E+04  0.16360095869E+04  0.10100000352E+00 0.  1.
       -3   -1    0    0    0  501  0.00000000000E+00  0.00000000000E+00 -0.73221835364E+03  0.73221836061E+03  0.10100000352E+00 0. -1.
    10030    2    1    2    0    0  0.00000000000E+00  0.00000000000E+00  0.90379123012E+03  0.23682279475E+04  0.21889872141E+04 0.  0.
        5    1    3    3  502    0  0.93170477142E+03  0.28611718437E+03  0.99062264077E+03  0.13897093691E+04  0.46999998093E+01 0.  1.
       -5    1    3    3    0  502 -0.93170477142E+03 -0.28611718437E+03 -0.86831410645E+02  0.97851857834E+03  0.46999998093E+01 0. -1.
</event>
<event>
 5   0  0.1210633E-04  0.1847341E+04  0.7818609E-02  0.8681522E-01
        1   -1    0    0  501    0  0.00000000000E+00  0.00000000000E+00  0.12908109651E+04  0.12908109651E+04  0.50400001928E-02 0.  1.
       -1   -1    0    0    0  501  0.00000000000E+00  0.00000000000E+00 -0.66095414859E+03  0.66095414861E+03  0.50400001928E-02 0. -1.
    10030    2    1    2    0    0  0.00000000000E+00  0.00000000000E+00  0.62985681647E+03  0.19517651137E+04  0.18473406426E+04 0.  0.
        2    1    3    3  502    0 -0.15012180690E+03  0.33746265253E+03 -0.57953832637E+03  0.68722796108E+03  0.25500000920E-02 0. -1.
       -2    1    3    3    0  502  0.15012180690E+03 -0.33746265253E+03  0.12093951428E+04  0.12645371526E+04  0.25500000920E-02 0.  1.
</event>
<event>
 5   0  0.1207228E-04  0.1969447E+04  0.7818609E-02  0.8621040E-01
        1   -1    0    0  501    0  0.00000000000E+00  0.00000000000E+00  0.80865413410E+03  0.80865413411E+03  0.50400001928E-02 0. -1.
       -1   -1    0    0    0  501  0.00000000000E+00  0.00000000000E+00 -0.11991292896E+04  0.11991292896E+04  0.50400001928E-02 0.  1.
    10030    2    1    2    0    0  0.00000000000E+00  0.00000000000E+00 -0.39047515549E+03  0.20077834237E+04  0.19694474935E+04 0.  0.
        1    1    3    3  502    0  0.21243102531E+03 -0.56615085668E+03  0.59708253104E+03  0.84980073072E+03  0.50400001928E-02 0. -1.
       -1    1    3    3    0  502 -0.21243102531E+03  0.56615085668E+03 -0.98755768652E+03  0.11579826930E+04  0.50400001928E-02 0.  1.
</event>
<event>
 5   0  0.2540506E-04  0.1580553E+04  0.7818609E-02  0.8832585E-01
       -2   -1    0    0    0  501  0.00000000000E+00  0.00000000000E+00  0.40599259228E+03  0.40599259229E+03  0.25500000920E-02 0. -1.
        2   -1    0    0  501    0  0.00000000000E+00  0.00000000000E+00 -0.15382958261E+04  0.15382958262E+04  0.25500000920E-02 0.  1.
    10030    2    1    2    0    0  0.00000000000E+00  0.00000000000E+00 -0.11323032339E+04  0.19442884184E+04  0.15805527010E+04 0.  0.
        4    1    3    3  502    0  0.26867697899E+03  0.89698968228E+02  0.34140060095E+03  0.44360929563E+03  0.12699999809E+01 0. -1.
       -4    1    3    3    0  502 -0.26867697899E+03 -0.89698968228E+02 -0.14737038348E+04  0.15006791228E+04  0.12699999809E+01 0.  1.
</event>
<event>
 5   0  0.1231056E-04  0.2068593E+04  0.7818609E-02  0.8575206E-01
       -1   -1    0    0    0  501  0.00000000000E+00  0.00000000000E+00  0.14616810747E+04  0.14616810747E+04  0.50400001928E-02 0.  1.
        1   -1    0    0  501    0  0.00000000000E+00  0.00000000000E+00 -0.73187568407E+03  0.73187568409E+03  0.50400001928E-02 0. -1.
    10030    2    1    2    0    0  0.00000000000E+00  0.00000000000E+00  0.72980539060E+03  0.21935567588E+04  0.20685926002E+04 0.  0.
        3    1    3    3  502    0 -0.23792684782E+03 -0.69073540008E+03  0.11412824998E+04  0.13550831459E+04  0.10100000352E+00 0.  1.
       -3    1    3    3    0  502  0.23792684782E+03  0.69073540008E+03 -0.41147710920E+03  0.83847361284E+03  0.10100000352E+00 0. -1.
</event>
<event>
 5   0  0.2463085E-04  0.1989280E+04  0.7818609E-02  0.8611649E-01
        2   -1    0    0  501    0  0.00000000000E+00  0.00000000000E+00  0.13832648072E+04  0.13832648072E+04  0.25500000920E-02 0. -1.
       -2   -1    0    0    0  501  0.00000000000E+00  0.00000000000E+00 -0.71519840569E+03  0.71519840569E+03  0.25500000920E-02 0.  1.
    10030    2    1    2    0    0  0.00000000000E+00  0.00000000000E+00  0.66806640153E+03  0.20984632129E+04  0.19892800555E+04 0.  0.
        2    1    3    3  502    0  0.11751408769E+03  0.98665260586E+03  0.38139580136E+03  0.10643099561E+04  0.25500000920E-02 0. -1.
       -2    1    3    3    0  502 -0.11751408769E+03 -0.98665260586E+03  0.28667060017E+03  0.10341532568E+04  0.25500000920E-02 0.  1.
</event>
<event>
 5   0  0.1324930E-04  0.2013045E+04  0.7818609E-02  0.8600546E-01
       -1   -1    0    0    0  501  0.00000000000E+00  0.00000000000E+00  0.18585890677E+04  0.18585890677E+04  0.50400001928E-02 0.  1.
        1   -1    0    0  501    0  0.00000000000E+00  0.00000000000E+00 -0.54508403046E+03  0.54508403048E+03  0.50400001928E-02 0. -1.
    10030    2    1    2    0    0  0.00000000000E+00  0.00000000000E+00  0.13135050372E+04  0.24036730982E+04  0.20130446791E+04 0.  0.
        5    1    3    3  502    0  0.80258192595E+03 -0.37086389890E+03  0.82382455877E+02  0.88796775753E+03  0.46999998093E+01 0.  1.
       -5    1    3    3    0  502 -0.80258192595E+03  0.37086389890E+03  0.12311225813E+04  0.15157053406E+04  0.46999998093E+01 0. -1.
</event>
<event>
 5   0  0.2540506E-04  0.2009929E+04  0.7818609E-02  0.8601993E-01
        2   -1    0    0  501    0  0.00000000000E+00  0.00000000000E+00  0.59120051793E+03  0.59120051794E+03  0.25500000920E-02 0.  1.
       -2   -1    0    0    0  501  0.00000000000E+00  0.00000000000E+00 -0.17083098272E+04  0.17083098272E+04  0.25500000920E-02 0. -1.
    10030    2    1    2    0    0  0.00000000000E+00  0.00000000000E+00 -0.11171093092E+04  0.22995103451E+04  0.20099290083E+04 0.  0.
        4    1    3    3  502    0  0.59031675043E+03 -0.73861725270E+03 -0.16902641384E+03  0.96052113631E+03  0.12699999809E+01 0.  1.
       -4    1    3    3    0  502 -0.59031675043E+03  0.73861725270E+03 -0.94808289539E+03  0.13389892088E+04  0.12699999809E+01 0. -1.
</event>
<event>
 5   0  0.2421737E-04  0.1992073E+04  0.7818609E-02  0.8610336E-01
        2   -1    0    0  501    0  0.00000000000E+00  0.00000000000E+00  0.15590488006E+04  0.15590488006E+04  0.25500000920E-02 0.  1.
       -2   -1    0    0    0  501  0.00000000000E+00  0.00000000000E+00 -0.63634242613E+03  0.63634242614E+03  0.25500000920E-02 0. -1.
    10030    2    1    2    0    0  0.00000000000E+00  0.00000000000E+00  0.92270637444E+03  0.21953912267E+04  0.19920731876E+04 0.  0.
        1    1    3    3  502    0 -0.30135814989E+03 -0.27802609988E+03 -0.53902288607E+03  0.67724509482E+03  0.50400001928E-02 0. -1.
       -1    1    3    3    0  502  0.30135814989E+03  0.27802609988E+03  0.14617292605E+04  0.15181461319E+04  0.50400001928E-02 0.  1.
</event>
<event>
 5   0  0.2421737E-04  0.1950642E+04  0.7818609E-02  0.8630051E-01
       -2   -1    0    0    0  501  0.00000000000E+00  0.00000000000E+00  0.13130102057E+04  0.13130102057E+04  0.25500000920E-02 0. -1.
        2   -1    0    0  501    0  0.00000000000E+00  0.00000000000E+00 -0.72448100487E+03  0.72448100488E+03  0.25500000920E-02 0.  1.
    10030    2    1    2    0    0  0.00000000000E+00  0.00000000000E+00  0.58852920079E+03  0.20374912105E+04  0.19506418976E+04 0.  0.
        1    1    3    3  502    0  0.47709101170E+02  0.15756029237E+03 -0.70986396898E+03  0.72870313472E+03  0.50400001928E-02 0.  1.
       -1    1    3    3    0  502 -0.47709101170E+02 -0.15756029237E+03  0.12983931698E+04  0.13087880758E+04  0.50400001928E-02 0. -1.
</event>
<event>
 5   0  0.1258546E-04  0.2003936E+04  0.7818609E-02  0.8604783E-01
        1   -1    0    0  501    0  0.00000000000E+00  0.00000000000E+00  0.94870332783E+03  0.94870332784E+03  0.50400001928E-02 0.  1.
       -1   -1    0    0    0  501  0.00000000000E+00  0.00000000000E+00 -0.10582233443E+04  0.10582233444E+04  0.50400001928E-02 0. -1.
    10030    2    1    2    0    0  0.00000000000E+00  0.00000000000E+00 -0.10952001652E+03  0.20069266722E+04  0.20039361351E+04 0.  0.
        4    1    3    3  502    0  0.87728840358E+03  0.14012422112E+03 -0.51877492913E+03  0.10287850992E+04  0.12699999809E+01 0. -1.
       -4    1    3    3    0  502 -0.87728840358E+03 -0.14012422112E+03  0.40925491261E+03  0.97814157298E+03  0.12699999809E+01 0.  1.
</event>
<event>
 5   0  0.2540506E-04  0.2389206E+04  0.7818609E-02  0.8443556E-01
        2   -1    0    0  501    0  0.00000000000E+00  0.00000000000E+00  0.64921725394E+03  0.64921725395E+03  0.25500000920E-02 0. -1.
       -2   -1    0    0    0  501  0.00000000000E+00  0.00000000000E+00 -0.21981489469E+04  0.21981489469E+04  0.25500000920E-02 0.  1.
    10030    2    1    2    0    0  0.00000000000E+00  0.00000000000E+00 -0.15489316929E+04  0.28473662008E+04  0.23892059125E+04 0.  0.
        4    1    3    3  502    0 -0.85717168121E+03 -0.45887478586E+03  0.52728352598E+02  0.97369977520E+03  0.12699999809E+01 0. -1.
       -4    1    3    3    0  502  0.85717168121E+03  0.45887478586E+03 -0.16016600455E+04  0.18736664256E+04  0.12699999809E+01 0.  1.
</event>
<event>
 5   0  0.2540506E-04  0.1250353E+04  0.7818609E-02  0.9069889E-01
        2   -1    0    0  501    0  0.00000000000E+00  0.00000000000E+00  0.15569954573E+04  0.15569954573E+04  0.25500000920E-02 0. -1.
       -2   -1    0    0    0  501  0.00000000000E+00  0.00000000000E+00 -0.25102569238E+03  0.25102569239E+03  0.25500000920E-02 0.  1.
    10030    2    1    2    0    0  0.00000000000E+00  0.00000000000E+00  0.13059697649E+04  0.18080211496E+04  0.12503533304E+04 0.  0.
        4    1    3    3  502    0  0.42446622618E+03  0.42222476530E+03  0.91326201845E+03  0.10920139454E+04  0.12699999809E+01 0. -1.
       -4    1    3    3    0  502 -0.42446622618E+03 -0.42222476530E+03  0.39270774643E+03  0.71600720430E+03  0.12699999809E+01 0.  1.
</event>
<event>
 5   0  0.9099125E-05  0.1969015E+04  0.7818609E-02  0.8621246E-01
        4   -1    0    0  501    0  0.00000000000E+00  0.00000000000E+00  0.19375099005E+04  0.19375103167E+04  0.12699999809E+01 0.  1.
       -4   -1    0    0    0  501  0.00000000000E+00  0.00000000000E+00 -0.50025664748E+03  0.50025825954E+03  0.12699999809E+01 0. -1.
    10030    2    1    2    0    0  0.00000000000E+00  0.00000000000E+00  0.14372532530E+04  0.24377685762E+04  0.19690146566E+04 0.  0.
        3    1    3    3  502    0 -0.76216634229E+03 -0.60422063915E+03  0.90750586403E+03  0.13302432174E+04  0.10100000352E+00 0. -1.
       -3    1    3    3    0  502  0.76216634229E+03  0.60422063915E+03  0.52974738896E+03  0.11075253588E+04  0.10100000352E+00 0.  1.
</event>
<event>
 5   0  0.2540506E-04  0.1986888E+04  0.7818609E-02  0.8612775E-01
       -2   -1    0    0    0  501  0.00000000000E+00  0.00000000000E+00  0.67892916301E+03  0.67892916302E+03  0.25500000920E-02 0.  1.
        2   -1    0    0  501    0  0.00000000000E+00  0.00000000000E+00 -0.14536589209E+04  0.14536589209E+04  0.25500000920E-02 0. -1.
    10030    2    1    2    0    0  0.00000000000E+00  0.00000000000E+00 -0.77472975791E+03  0.21325880840E+04  0.19868884564E+04 0.  0.
        4    1    3    3  502    0  0.51796135495E+03 -0.22438783462E+03  0.49007608973E+03  0.74753598721E+03  0.12699999809E+01 0.  1.
       -4    1    3    3    0  502 -0.51796135495E+03  0.22438783462E+03 -0.12648058476E+04  0.13850520967E+04  0.12699999809E+01 0. -1.
</event>
<event>
 5   0  0.1324930E-04  0.1963255E+04  0.7818609E-02  0.8623995E-01
       -1   -1    0    0    0  501  0.00000000000E+00  0.00000000000E+00  0.93582965428E+03  0.93582965429E+03  0.50400001928E-02 0.  1.
        1   -1    0    0  501    0  0.00000000000E+00  0.00000000000E+00 -0.10296668291E+04  0.10296668291E+04  0.50400001928E-02 0. -1.
    10030    2    1    2    0    0  0.00000000000E+00  0.00000000000E+00 -0.93837174800E+02  0.19654964834E+04  0.19632552078E+04 0.  0.
        5    1    3    3  502    0 -0.43646028521E+02  0.97728762606E+03 -0.12809495505E+03  0.98662378208E+03  0.46999998093E+01 0. -1.
       -5    1    3    3    0  502  0.43646028521E+02 -0.97728762606E+03  0.34257780252E+02  0.97887270131E+03  0.46999998093E+01 0.  1.
</event>
<event>
 5   0  0.1324930E-04  0.2075102E+04  0.7818609E-02  0.8572291E-01
        1   -1    0    0  501    0  0.00000000000E+00  0.00000000000E+00  0.11049262670E+04  0.11049262671E+04  0.50400001928E-02 0. -1.
       -1   -1    0    0    0  501  0.00000000000E+00  0.00000000000E+00 -0.97428404977E+03  0.97428404979E+03  0.50400001928E-02 0.  1.
    10030    2    1    2    0    0  0.00000000000E+00  0.00000000000E+00  0.13064221727E+03  0.20792103168E+04  0.20751019620E+04 0.  0.
        5    1    3    3  502    0 -0.80460669789E+01 -0.60261983735E+03 -0.78090679510E+03  0.98643444800E+03  0.46999998093E+01 0.  1.
       -5    1    3    3    0  502  0.80460669789E+01  0.60261983735E+03  0.91154901237E+03  0.10927758688E+04  0.46999998093E+01 0. -1.
</event>
<event>
 5   0  0.1324930E-04  0.1984599E+04  0.7818609E-02  0.8613855E-01
       -1   -1    0    0    0  501  0.00000000000E+00  0.00000000000E+00  0.73684636966E+03  0.73684636968E+03  0.50400001928E-02 0. -1.
        1   -1    0    0  501    0  0.00000000000E+00  0.00000000000E+00 -0.13363144595E+04  0.13363144595E+04  0.50400001928E-02 0.  1.
    10030    2    1    2    0    0  0.00000000000E+00  0.00000000000E+00 -0.59946808986E+03  0.20731608292E+04  0.19845991618E+04 0.  0.
        5    1    3    3  502    0 -0.66308472890E+03  0.68965537136E+03 -0.24677304352E+02  0.95704594889E+03  0.46999998093E+01 0. -1.
       -5    1    3    3    0  502  0.66308472890E+03 -0.68965537136E+03 -0.57479078551E+03  0.11161148803E+04  0.46999998093E+01 0.  1.
</event>
<event>
 5   0  0.1210633E-04  0.1614824E+04  0.7818609E-02  0.8811492E-01
       -1   -1    0    0    0  501  0.00000000000E+00  0.00000000000E+00  0.75017579561E+03  0.75017579563E+03  0.50400001928E-02 0.  1.
        1   -1    0    0  501    0  0.00000000000E+00  0.00000000000E+00 -0.86901538667E+03  0.86901538668E+03  0.50400001928E-02 0. -1.
    10030    2    1    2    0    0  0.00000000000E+00  0.00000000000E+00 -0.11883959106E+03  0.16191911823E+04  0.16148242123E+04 0.  0.
        2    1    3    3  502    0  0.57661389378E+03  0.40905020310E+03 -0.45048560257E+03  0.83829763764E+03  0.25500000920E-02 0. -1.
       -2    1    3    3    0  502 -0.57661389378E+03 -0.40905020310E+03  0.33164601151E+03  0.78089354467E+03  0.25500000920E-02 0.  1.
</event>
<event>
 5   0  0.2488886E-04  0.2001476E+04  0.7818609E-02  0.8605931E-01
        2   -1    0    0  501    0  0.00000000000E+00  0.00000000000E+00  0.80069223030E+03  0.80069223030E+03  0.25500000920E-02 0. -1.
       -2   -1    0    0    0  501  0.00000000000E+00  0.00000000000E+00 -0.12507629242E+04  0.12507629242E+04  0.25500000920E-02 0.  1.
    10030    2    1    2    0    0  0.00000000000E+00  0.00000000000E+00 -0.45007069392E+03  0.20514551545E+04  0.20014756110E+04 0.  0.
        3    1    3    3  502    0  0.87681772875E+02 -0.34521998692E+03  0.73352452792E+03  0.81542821629E+03  0.10100000352E+00 0. -1.
       -3    1    3    3    0  502 -0.87681772875E+02  0.34521998692E+03 -0.11835952218E+04  0.12360269382E+04  0.10100000352E+00 0.  1.
</event>
<event>
 5   0  0.2596061E-04  0.1993828E+04  0.7818609E-02  0.8609512E-01
        2   -1    0    0  501    0  0.00000000000E+00  0.00000000000E+00  0.89232869507E+03  0.89232869507E+03  0.25500000920E-02 0.  1.
       -2   -1    0    0    0  501  0.00000000000E+00  0.00000000000E+00 -0.11137573558E+04  0.11137573558E+04  0.25500000920E-02 0. -1.
    10030    2    1    2    0    0  0.00000000000E+00  0.00000000000E+00 -0.22142866070E+03  0.20060860508E+04  0.19938281249E+04 0.  0.
        5    1    3    3  502    0  0.30386744286E+01  0.76176908777E+03 -0.75771844752E+03  0.10744583344E+04  0.46999998093E+01 0. -1.
       -5    1    3    3    0  502 -0.30386744286E+01 -0.76176908777E+03  0.53628978682E+03  0.93162771645E+03  0.46999998093E+01 0.  1.
</event>
<event>
 5   0  0.2463085E-04  0.1905136E+04  0.7818609E-02  0.8652304E-01
       -2   -1    0    0    0  501  0.00000000000E+00  0.00000000000E+00  0.73432478838E+03  0.73432478838E+03  0.25500000920E-02 0.  1.
        2   -1    0    0  501    0  0.00000000000E+00  0.00000000000E+00 -0.12356741425E+04  0.12356741425E+04  0.25500000920E-02 0. -1.
    10030    2    1    2    0    0  0.00000000000E+00  0.00000000000E+00 -0.50134935411E+03  0.19699989309E+04  0.19051363764E+04 0.  0.
        2    1    3    3  502    0 -0.66607410790E+03  0.23315572173E+03  0.41092890128E+03  0.81662651788E+03  0.25500000920E-02 0.  1.
       -2    1    3    3    0  502  0.66607410790E+03 -0.23315572173E+03 -0.91227825539E+03  0.11533724130E+04  0.25500000920E-02 0. -1.
</event>
<event>
 5   0  0.1210633E-04  0.2004302E+04  0.7818609E-02  0.8604612E-01
       -1   -1    0    0    0  501  0.00000000000E+00  0.00000000000E+00  0.81702467163E+03  0.81702467165E+03  0.50400001928E-02 0. -1.
        1   -1    0    0  501    0  0.00000000000E+00  0.00000000000E+00 -0.12292238275E+04  0.12292238275E+04  0.50400001928E-02 0.  1.
    10030    2    1    2    0    0  0.00000000000E+00  0.00000000000E+00 -0.41219915586E+03  0.20462484991E+04  0.20043015682E+04 0.  0.
        2    1    3    3  502    0  0.73227235382E+03 -0.17608226787E+03  0.46885569455E+03  0.88716031671E+03  0.25500000920E-02 0. -1.
       -2    1    3    3    0  502 -0.73227235382E+03  0.17608226787E+03 -0.88105485041E+03  0.11590881824E+04  0.25500000920E-02 0.  1.
</event>
<event>
 5   0  0.2421737E-04  0.2003152E+04  0.7818609E-02  0.8605148E-01
       -2   -1    0    0    0  501  0.00000000000E+00  0.00000000000E+00  0.59024180976E+03  0.59024180977E+03  0.25500000920E-02 0. -1.
        2   -1    0    0  501    0  0.00000000000E+00  0.00000000000E+00 -0.16995659306E+04  0.16995659306E+04  0.25500000920E-02 0.  1.
    10030    2    1    2    0    0  0.00000000000E+00  0.00000000000E+00 -0.11093241208E+04  0.22898077403E+04  0.20031523863E+04 0.  0.
        1    1    3    3  502    0  0.24758539353E+02  0.45326424058E+03  0.46590052011E+03  0.65048040072E+03  0.50400001928E-02 0. -1.
       -1    1    3    3    0  502 -0.24758539353E+02 -0.45326424058E+03 -0.15752246409E+04  0.16393273396E+04  0.50400001928E-02 0.  1.
</event>
<event>
 5   0  0.9099125E-05  0.1986238E+04  0.7818609E-02  0.8613082E-01
       -4   -1    0    0    0  501  0.00000000000E+00  0.00000000000E+00  0.69384833504E+03  0.69384949732E+03  0.12699999809E+01 0. -1.
        4   -1    0    0  501    0  0.00000000000E+00  0.00000000000E+00 -0.14214686845E+04  0.14214692518E+04  0.12699999809E+01 0.  1.
    10030    2    1    2    0    0  0.00000000000E+00  0.00000000000E+00 -0.72762034947E+03  0.21153187492E+04  0.19862381624E+04 0.  0.
        4    1    3    3  502    0  0.96153278815E+03 -0.76877027989E+02 -0.11217430956E+03  0.97110250166E+03  0.12699999809E+01 0. -1.
       -4    1    3    3    0  502 -0.96153278815E+03  0.76877027989E+02 -0.61544603991E+03  0.11442162475E+04  0.12699999809E+01 0.  1.
</event>
<event>
 5   0  0.1207228E-04  0.1980787E+04  0.7818609E-02  0.8615657E-01
        1   -1    0    0  501    0  0.00000000000E+00  0.00000000000E+00  0.10430550649E+04  0.10430550649E+04  0.50400001928E-02 0.  1.
       -1   -1    0    0    0  501  0.00000000000E+00  0.00000000000E+00 -0.94039025557E+03  0.94039025558E+03  0.50400001928E-02 0. -1.
    10030    2    1    2    0    0  0.00000000000E+00  0.00000000000E+00  0.10266480930E+03  0.19834453205E+04  0.19807865297E+04 0.  0.
        1    1    3    3  502    0 -0.38615872626E+03 -0.41616330451E+03  0.86394395250E+03  0.10337841220E+04  0.50400001928E-02 0.  1.
       -1    1    3    3    0  502  0.38615872626E+03  0.41616330451E+03 -0.76127914320E+03  0.94966119842E+03  0.50400001928E-02 0. -1.
</event>
<event>
 5   0  0.1231056E-04  0.1925396E+04  0.7818609E-02  0.8642318E-01
       -1   -1    0    0    0  501  0.00000000000E+00  0.00000000000E+00  0.91240639622E+03  0.91240639623E+03  0.50400001928E-02 0.  1.
        1   -1    0    0  501    0  0.00000000000E+00  0.00000000000E+00 -0.10157612072E+04  0.10157612072E+04  0.50400001928E-02 0. -1.
    10030    2    1    2    0    0  0.00000000000E+00  0.00000000000E+00 -0.10335481101E+03  0.19281676035E+04  0.19253955672E+04 0.  0.
        3    1    3    3  502    0  0.64140833962E+03 -0.11640151999E+03 -0.76109905847E+03  0.10021106521E+04  0.10100000352E+00 0. -1.
       -3    1    3    3    0  502 -0.64140833962E+03  0.11640151999E+03  0.65774424746E+03  0.92605695141E+03  0.10100000352E+00 0.  1.
</event>
<event>
 5   0  0.1210633E-04  0.1679373E+04  0.7818609E-02  0.8773217E-01
       -1   -1    0    0    0  501  0.00000000000E+00  0.00000000000E+00  0.57363891681E+03  0.57363891684E+03  0.50400001928E-02 0.  1.
        1   -1    0    0  501    0  0.00000000000E+00  0.00000000000E+00 -0.12291242716E+04  0.12291242716E+04  0.50400001928E-02 0. -1.
    10030    2    1    2    0    0  0.00000000000E+00  0.00000000000E+00 -0.65548535478E+03  0.18027631884E+04  0.16793731162E+04 0.  0.
        2    1    3    3  502    0 -0.48743753712E+03 -0.55393146289E+03 -0.75798760706E+03  0.10578188080E+04  0.25500000920E-02 0. -1.
       -2    1    3    3    0  502  0.48743753712E+03  0.55393146289E+03  0.10250225228E+03  0.74494438041E+03  0.25500000920E-02 0.  1.
</event>
<event>
 5   0  0.1231056E-04  0.2025954E+04  0.7818609E-02  0.8594582E-01
       -1   -1    0    0    0  501  0.00000000000E+00  0.00000000000E+00  0.84862728587E+03  0.84862728589E+03  0.50400001928E-02 0.  1.
        1   -1    0    0  501    0  0.00000000000E+00  0.00000000000E+00 -0.12091551145E+04  0.12091551145E+04  0.50400001928E-02 0. -1.
    10030    2    1    2    0    0  0.00000000000E+00  0.00000000000E+00 -0.36052782864E+03  0.20577824004E+04  0.20259536254E+04 0.  0.
        3    1    3    3  502    0 -0.15755393055E+03 -0.83322208822E+03  0.38255311775E+03  0.93028446586E+03  0.10100000352E+00 0.  1.
       -3    1    3    3    0  502  0.15755393055E+03  0.83322208822E+03 -0.74308094639E+03  0.11274979345E+04  0.10100000352E+00 0. -1.
</event>
<event>
 5   0  0.1258546E-04  0.1996063E+04  0.7818609E-02  0.8608464E-01
        1   -1    0    0  501    0  0.00000000000E+00  0.00000000000E+00  0.10013505616E+04  0.10013505616E+04  0.50400001928E-02 0.  1.
       -1   -1    0    0    0  501  0.00000000000E+00  0.00000000000E+00 -0.99472346098E+03  0.99472346099E+03  0.50400001928E-02 0. -1.
    10030    2    1    2    0    0  0.00000000000E+00  0.00000000000E+00  0.66271006438E+01  0.19960740226E+04  0.19960630214E+04 0.  0.
        4    1    3    3  502    0  0.60822289939E+03  0.19230307129E+03  0.77087866876E+03  0.10005853794E+04  0.12699999809E+01 0.  1.
       -4    1    3    3    0  502 -0.60822289939E+03 -0.19230307129E+03 -0.76425156811E+03  0.99548864325E+03  0.12699999809E+01 0. -1.
</event>
<event>
 5   0  0.1210633E-04  0.1981380E+04  0.7818609E-02  0.8615376E-01
        1   -1    0    0  501    0  0.00000000000E+00  0.00000000000E+00  0.18713761640E+04  0.18713761640E+04  0.50400001928E-02 0. -1.
       -1   -1    0    0    0  501  0.00000000000E+00  0.00000000000E+00 -0.52446262780E+03  0.52446262783E+03  0.50400001928E-02 0.  1.
    10030    2    1    2    0    0  0.00000000000E+00  0.00000000000E+00  0.13469135362E+04  0.23958387918E+04  0.19813801862E+04 0.  0.
        2    1    3    3  502    0  0.36600725181E+03 -0.57996909141E+03  0.15379474330E+04  0.16839262936E+04  0.25500000920E-02 0. -1.
       -2    1    3    3    0  502 -0.36600725181E+03  0.57996909141E+03 -0.19103389688E+03  0.71191249823E+03  0.25500000920E-02 0.  1.
</event>
<event>
 5   0  0.2463085E-04  0.2120594E+04  0.7818609E-02  0.8552226E-01
       -2   -1    0    0    0  501  0.00000000000E+00  0.00000000000E+00  0.68423174960E+03  0.68423174961E+03  0.25500000920E-02 0. -1.
        2   -1    0    0  501    0  0.00000000000E+00  0.00000000000E+00 -0.16430534290E+04  0.16430534290E+04  0.25500000920E-02 0.  1.
    10030    2    1    2    0    0  0.00000000000E+00  0.00000000000E+00 -0.95882167936E+03  0.23272851786E+04  0.21205936173E+04 0.  0.
        2    1    3    3  502    0 -0.29641121793E+03 -0.64684038203E+03  0.38331911523E+03  0.80820519304E+03  0.25500000920E-02 0. -1.
       -2    1    3    3    0  502  0.29641121793E+03  0.64684038203E+03 -0.13421407946E+04  0.15190799855E+04  0.25500000920E-02 0.  1.
</event>
<event>
 5   0  0.1210633E-04  0.1992303E+04  0.7818609E-02  0.8610228E-01
       -1   -1    0    0    0  501  0.00000000000E+00  0.00000000000E+00  0.47650084052E+03  0.47650084054E+03  0.50400001928E-02 0.  1.
        1   -1    0    0  501    0  0.00000000000E+00  0.00000000000E+00 -0.20825095153E+04  0.20825095153E+04  0.50400001928E-02 0. -1.
    10030    2    1    2    0    0  0.00000000000E+00  0.00000000000E+00 -0.16060086748E+04  0.25590103558E+04  0.19923027224E+04 0.  0.
        2    1    3    3  502    0  0.82992317977E+03  0.54027149639E+03 -0.94165197882E+03  0.13665190168E+04  0.25500000920E-02 0. -1.
       -2    1    3    3    0  502 -0.82992317977E+03 -0.54027149639E+03 -0.66435669594E+03  0.11924913390E+04  0.25500000920E-02 0.  1.
</event>
<event>
 5   0  0.1324930E-04  0.1968924E+04  0.7818609E-02  0.8621289E-01
       -1   -1    0    0    0  501  0.00000000000E+00  0.00000000000E+00  0.15199831127E+04  0.15199831127E+04  0.50400001928E-02 0.  1.
        1   -1    0    0  501    0  0.00000000000E+00  0.00000000000E+00 -0.63761577868E+03  0.63761577870E+03  0.50400001928E-02 0. -1.
    10030    2    1    2    0    0  0.00000000000E+00  0.00000000000E+00  0.88236733404E+03  0.21575988914E+04  0.19689237832E+04 0.  0.
        5    1    3    3  502    0  0.66975359067E+03 -0.17026488445E+03 -0.32713305846E+03  0.76459017194E+03  0.46999998093E+01 0. -1.
       -5    1    3    3    0  502 -0.66975359067E+03  0.17026488445E+03  0.12095003925E+04  0.13930087195E+04  0.46999998093E+01 0.  1.
</event>
<event>
 5   0  0.9099125E-05  0.1997840E+04  0.7818609E-02  0.8607631E-01
       -3   -1    0    0    0  501  0.00000000000E+00  0.00000000000E+00  0.13367198490E+04  0.13367198528E+04  0.10100000352E+00 0. -1.
        3   -1    0    0  501    0  0.00000000000E+00  0.00000000000E+00 -0.74648519061E+03  0.74648519744E+03  0.10100000352E+00 0.  1.
    10030    2    1    2    0    0  0.00000000000E+00  0.00000000000E+00  0.59023465836E+03  0.20832050502E+04  0.19978404164E+04 0.  0.
        3    1    3    3  502    0 -0.94671163257E+03  0.12974035630E+02  0.62717408903E+03  0.11356841942E+04  0.10100000352E+00 0. -1.
       -3    1    3    3    0  502  0.94671163257E+03 -0.12974035630E+02 -0.36939430662E+02  0.94752085601E+03  0.10100000352E+00 0.  1.
</event>
<event>
 5   0  0.2488886E-04  0.2007862E+04  0.7818609E-02  0.8602954E-01
       -2   -1    0    0    0  501  0.00000000000E+00  0.00000000000E+00  0.79637618569E+03  0.79637618569E+03  0.25500000920E-02 0.  1.
        2   -1    0    0  501    0  0.00000000000E+00  0.00000000000E+00 -0.12655799816E+04  0.12655799816E+04  0.25500000920E-02 0. -1.
    10030    2    1    2    0    0  0.00000000000E+00  0.00000000000E+00 -0.46920379589E+03  0.20619561673E+04  0.20078623045E+04 0.  0.
        3    1    3    3  502    0  0.92616141313E+03  0.32672563431E+03 -0.20778214685E+02  0.98232191653E+03  0.10100000352E+00 0.  1.
       -3    1    3    3    0  502 -0.92616141313E+03 -0.32672563431E+03 -0.44842558120E+03  0.10796342507E+04  0.10100000352E+00 0. -1.
</event>
<event>
 5   0  0.2488886E-04  0.2005576E+04  0.7818609E-02  0.8604018E-01
        2   -1    0    0  501    0  0.00000000000E+00  0.00000000000E+00  0.10522953177E+04  0.10522953177E+04  0.25500000920E-02 0. -1.
       -2   -1    0    0    0  501  0.00000000000E+00  0.00000000000E+00 -0.95560989965E+03  0.95560989966E+03  0.25500000920E-02 0.  1.
    10030    2    1    2    0    0  0.00000000000E+00  0.00000000000E+00  0.96685418073E+02  0.20079052174E+04  0.20055760499E+04 0.  0.
        3    1    3    3  502    0 -0.26719384139E+03 -0.18191508450E+03  0.99870703631E+03  0.10497149144E+04  0.10100000352E+00 0. -1.
       -3    1    3    3    0  502  0.26719384139E+03  0.18191508450E+03 -0.90202161824E+03  0.95819030303E+03  0.10100000352E+00 0.  1.
</event>
<event>
 5   0  0.2540506E-04  0.1963006E+04  0.7818609E-02  0.8624115E-01
       -2   -1    0    0    0  501  0.00000000000E+00  0.00000000000E+00  0.87862374602E+03  0.87862374602E+03  0.25500000920E-02 0. -1.
        2   -1    0    0  501    0  0.00000000000E+00  0.00000000000E+00 -0.10964281234E+04  0.10964281234E+04  0.25500000920E-02 0.  1.
    10030    2    1    2    0    0  0.00000000000E+00  0.00000000000E+00 -0.21780437739E+03  0.19750518694E+04  0.19630056394E+04 0.  0.
        4    1    3    3  502    0  0.79211689100E+02 -0.46220107621E+02  0.87430252268E+03  0.87910028103E+03  0.12699999809E+01 0. -1.
       -4    1    3    3    0  502 -0.79211689100E+02  0.46220107621E+02 -0.10921069001E+04  0.10959515884E+04  0.12699999809E+01 0.  1.
</event>
<event>
 5   0  0.2488886E-04  0.1994313E+04  0.7818609E-02  0.8609284E-01
        2   -1    0    0  501    0  0.00000000000E+00  0.00000000000E+00  0.18571717403E+04  0.18571717403E+04  0.25500000920E-02 0.  1.
       -2   -1    0    0    0  501  0.00000000000E+00  0.00000000000E+00 -0.53539537936E+03  0.53539537937E+03  0.25500000920E-02 0. -1.
    10030    2    1    2    0    0  0.00000000000E+00  0.00000000000E+00  0.13217763610E+04  0.23925671197E+04  0.19943130832E+04 0.  0.
        3    1    3    3  502    0  0.59888668041E+03  0.47371026589E+03 -0.10846564223E+03  0.77125318653E+03  0.10100000352E+00 0. -1.
       -3    1    3    3    0  502 -0.59888668041E+03 -0.47371026589E+03  0.14302420032E+04  0.16213139332E+04  0.10100000352E+00 0.  1.
</event>
<event>
 5   0  0.2421737E-04  0.2019349E+04  0.7818609E-02  0.8597627E-01
        2   -1    0    0  501    0  0.00000000000E+00  0.00000000000E+00  0.13140180624E+04  0.13140180624E+04  0.25500000920E-02 0. -1.
       -2   -1    0    0    0  501  0.00000000000E+00  0.00000000000E+00 -0.77582081832E+03  0.77582081833E+03  0.25500000920E-02 0.  1.
    10030    2    1    2    0    0  0.00000000000E+00  0.00000000000E+00  0.53819724408E+03  0.20898388807E+04  0.20193489728E+04 0.  0.
        1    1    3    3  502    0  0.21831910541E+03  0.21782483569E+03 -0.72588365603E+03  0.78868116051E+03  0.50400001928E-02 0.  1.
       -1    1    3    3    0  502 -0.21831910541E+03 -0.21782483569E+03  0.12640809001E+04  0.13011577202E+04  0.50400001928E-02 0. -1.
</event>
<event>
 5   0  0.2488886E-04  0.1443605E+04  0.7818609E-02  0.8922846E-01
        2   -1    0    0  501    0  0.00000000000E+00  0.00000000000E+00  0.13456972756E+04  0.13456972756E+04  0.25500000920E-02 0. -1.
       -2   -1    0    0    0  501  0.00000000000E+00  0.00000000000E+00 -0.38715902878E+03  0.38715902879E+03  0.25500000920E-02 0.  1.
    10030    2    1    2    0    0  0.00000000000E+00  0.00000000000E+00  0.95853824679E+03  0.17328563044E+04  0.14436050017E+04 0.  0.
        3    1    3    3  502    0 -0.23873489319E+03  0.43386049374E+02 -0.33673539064E+03  0.41505111977E+03  0.10100000352E+00 0.  1.
       -3    1    3    3    0  502  0.23873489319E+03 -0.43386049374E+02  0.12952736374E+04  0.13178051846E+04  0.10100000352E+00 0. -1.
</event>
<event>
 5   0  0.2596061E-04  0.1995114E+04  0.7818609E-02  0.8608908E-01
       -2   -1    0    0    0  501  0.00000000000E+00  0.00000000000E+00  0.52236836081E+03  0.52236836081E+03  0.25500000920E-02 0. -1.
        2   -1    0    0  501    0  0.00000000000E+00  0.00000000000E+00 -0.19050163852E+04  0.19050163852E+04  0.25500000920E-02 0.  1.
    10030    2    1    2    0    0  0.00000000000E+00  0.00000000000E+00 -0.13826480244E+04  0.24273847460E+04  0.19951143190E+04 0.  0.
        5    1    3    3  502    0 -0.58119641565E+00 -0.80574430155E+03 -0.14068571935E+04  0.16212629245E+04  0.46999998093E+01 0.  1.
       -5    1    3    3    0  502  0.58119641565E+00  0.80574430155E+03  0.24209169165E+02  0.80612182152E+03  0.46999998093E+01 0. -1.
</event>
<event>
 5   0  0.1231056E-04  0.1972783E+04  0.7818609E-02  0.8619452E-01
       -1   -1    0    0    0  501  0.00000000000E+00  0.00000000000E+00  0.67839692087E+03  0.67839692089E+03  0.50400001928E-02 0.  1.
        1   -1    0    0  501    0  0.00000000000E+00  0.00000000000E+00 -0.14342161912E+04  0.14342161912E+04  0.50400001928E-02 0. -1.
    10030    2    1    2    0    0  0.00000000000E+00  0.00000000000E+00 -0.75581927035E+03  0.21126131121E+04  0.19727826520E+04 0.  0.
        3    1    3    3  502    0 -0.13665846285E+03 -0.38085530889E+03  0.58543085299E+03  0.71165693674E+03  0.10100000352E+00 0.  1.
       -3    1    3    3    0  502  0.13665846285E+03  0.38085530889E+03 -0.13412501233E+04  0.14009561754E+04  0.10100000352E+00 0. -1.
</event>
<event>
 5   0  0.1207228E-04  0.1984835E+04  0.7818609E-02  0.8613744E-01
       -1   -1    0    0    0  501  0.00000000000E+00  0.00000000000E+00  0.46073870226E+03  0.46073870229E+03  0.50400001928E-02 0.  1.
        1   -1    0    0  501    0  0.00000000000E+00  0.00000000000E+00 -0.21376371392E+04  0.21376371393E+04  0.50400001928E-02 0. -1.
    10030    2    1    2    0    0  0.00000000000E+00  0.00000000000E+00 -0.16768984370E+04  0.25983758415E+04  0.19848346646E+04 0.  0.
        1    1    3    3  502    0 -0.64182551387E+03 -0.71021703399E+03 -0.11811871353E+04  0.15203786615E+04  0.50400001928E-02 0. -1.
       -1    1    3    3    0  502  0.64182551387E+03  0.71021703399E+03 -0.49571130169E+03  0.10779971801E+04  0.50400001928E-02 0.  1.
</event>
<event>
 5   0  0.1231056E-04  0.2007037E+04  0.7818609E-02  0.8603338E-01
       -1   -1    0    0    0  501  0.00000000000E+00  0.00000000000E+00  0.17545696098E+04  0.17545696099E+04  0.50400001928E-02 0. -1.
        1   -1    0    0  501    0  0.00000000000E+00  0.00000000000E+00 -0.57395826005E+03  0.57395826007E+03  0.50400001928E-02 0.  1.
    10030    2    1    2    0    0  0.00000000000E+00  0.00000000000E+00  0.11806113498E+04  0.23285278699E+04  0.20070373394E+04 0.  0.
        3    1    3    3  502    0  0.64758989262E+03  0.10481352581E+03 -0.29073840520E+03  0.71755653065E+03  0.10100000352E+00 0.  1.
       -3    1    3    3    0  502 -0.64758989262E+03 -0.10481352581E+03  0.14713497550E+04  0.16109713393E+04  0.10100000352E+00 0. -1.
</event>
<event>
 5   0  0.1207228E-04  0.2025529E+04  0.7818609E-02  0.8594777E-01
       -1   -1    0    0    0  501  0.00000000000E+00  0.00000000000E+00  0.76807688215E+03  0.76807688216E+03  0.50400001928E-02 0. -1.
        1   -1    0    0  501    0  0.00000000000E+00  0.00000000000E+00 -0.13354025026E+04  0.13354025026E+04  0.50400001928E-02 0.  1.
    10030    2    1    2    0    0  0.00000000000E+00  0.00000000000E+00 -0.56732562046E+03  0.21034793848E+04  0.20255288600E+04 0.  0.
        1    1    3    3  502    0  0.17018511978E+03 -0.42808074340E+03  0.65297592612E+03  0.79912055284E+03  0.50400001928E-02 0. -1.
       -1    1    3    3    0  502 -0.17018511978E+03  0.42808074340E+03 -0.12203015466E+04  0.13043588319E+04  0.50400001928E-02 0.  1.
</event>
<event>
 5   0  0.1258546E-04  0.2119035E+04  0.7818609E-02  0.8552904E-01
       -1   -1    0    0    0  501  0.00000000000E+00  0.00000000000E+00  0.77128680244E+03  0.77128680245E+03  0.50400001928E-02 0. -1.
        1   -1    0    0  501    0  0.00000000000E+00  0.00000000000E+00 -0.14554600818E+04  0.14554600818E+04  0.50400001928E-02 0.  1.
    10030    2    1    2    0    0  0.00000000000E+00  0.00000000000E+00 -0.68417327940E+03  0.22267468843E+04  0.21190348299E+04 0.  0.
        4    1    3    3  502    0  0.27114252604E+03  0.10227669700E+04 -0.39969090774E+03  0.11310724906E+04  0.12699999809E+01 0.  1.
       -4    1    3    3    0  502 -0.27114252604E+03 -0.10227669700E+04 -0.28448237167E+03  0.10956743937E+04  0.12699999809E+01 0. -1.
</event>
<event>
 5   0  0.2540506E-04  0.2005148E+04  0.7818609E-02  0.8604217E-01
       -2   -1    0    0    0  501  0.00000000000E+00  0.00000000000E+00  0.12408213931E+04  0.12408213931E+04  0.25500000920E-02 0. -1.
        2   -1    0    0  501    0  0.00000000000E+00  0.00000000000E+00 -0.81007233050E+03  0.81007233050E+03  0.25500000920E-02 0.  1.
    10030    2    1    2    0    0  0.00000000000E+00  0.00000000000E+00  0.43074906263E+03  0.20508937236E+04  0.20051484510E+04 0.  0.
        4    1    3    3  502    0  0.26706011214E+03 -0.61204312426E+03 -0.54950672825E+03  0.86479890537E+03  0.12699999809E+01 0.  1.
       -4    1    3    3    0  502 -0.26706011214E+03  0.61204312426E+03  0.98025579089E+03  0.11860948183E+04  0.12699999809E+01 0. -1.
</event>
<event>
 5   0  0.2488886E-04  0.1786841E+04  0.7818609E-02  0.8713329E-01
       -2   -1    0    0    0  501  0.00000000000E+00  0.00000000000E+00  0.58202951442E+03  0.58202951443E+03  0.25500000920E-02 0.  1.
        2   -1    0    0  501    0  0.00000000000E+00  0.00000000000E+00 -0.13714079438E+04  0.13714079438E+04  0.25500000920E-02 0. -1.
    10030    2    1    2    0    0  0.00000000000E+00  0.00000000000E+00 -0.78937842940E+03  0.19534374582E+04  0.17868406752E+04 0.  0.
        3    1    3    3  502    0 -0.46156300836E+03 -0.98319502968E+01 -0.12308983892E+04  0.13146284390E+04  0.10100000352E+00 0. -1.
       -3    1    3    3    0  502  0.46156300836E+03  0.98319502968E+01  0.44151995981E+03  0.63880901923E+03  0.10100000352E+00 0.  1.
</event>
<event>
 5   0  0.1207228E-04  0.1537401E+04  0.7818609E-02  0.8859956E-01
       -1   -1    0    0    0  501  0.00000000000E+00  0.00000000000E+00  0.40325527270E+03  0.40325527274E+03  0.50400001928E-02 0. -1.
        1   -1    0    0  501    0  0.00000000000E+00  0.00000000000E+00 -0.14653264704E+04  0.14653264704E+04  0.50400001928E-02 0.  1.
    10030    2    1    2    0    0  0.00000000000E+00  0.00000000000E+00 -0.10620711977E+04  0.18685817431E+04  0.15374012169E+04 0.  0.
        1    1    3    3  502    0  0.42327041440E+03 -0.60479503118E+03 -0.79161619026E+03  0.10824006034E+04  0.50400001928E-02 0.  1.
       -1    1    3    3    0  502 -0.42327041440E+03  0.60479503118E+03 -0.27045500739E+03  0.78618113975E+03  0.50400001928E-02 0. -1.
</event>
<event>
 5   0  0.2488886E-04  0.1995466E+04  0.7818609E-02  0.8608744E-01
       -2   -1    0    0    0  501  0.00000000000E+00  0.00000000000E+00  0.11904468993E+04  0.11904468993E+04  0.25500000920E-02 0. -1.
        2   -1    0    0  501    0  0.00000000000E+00  0.00000000000E+00 -0.83621610403E+03  0.83621610403E+03  0.25500000920E-02 0.  1.
    10030    2    1    2    0    0  0.00000000000E+00  0.00000000000E+00  0.35423079531E+03  0.20266630034E+04  0.19954657283E+04 0.  0.
        3    1    3    3  502    0 -0.81694483544E+03  0.45472776763E+02  0.75700974783E+03  0.11146884794E+04  0.10100000352E+00 0. -1.
       -3    1    3    3    0  502  0.81694483544E+03 -0.45472776763E+02 -0.40277895252E+03  0.91197452398E+03  0.10100000352E+00 0.  1.
</event>
<event>
 5   0  0.2421737E-04  0.1633407E+04  0.7818609E-02  0.8800284E-01
        2   -1    0    0  501    0  0.00000000000E+00  0.00000000000E+00  0.54283765610E+03  0.54283765611E+03  0.25500000920E-02 0. -1.
       -2   -1    0    0    0  501  0.00000000000E+00  0.00000000000E+00 -0.12287367884E+04  0.12287367884E+04  0.25500000920E-02 0.  1.
    10030    2    1    2    0    0  0.00000000000E+00  0.00000000000E+00 -0.68589913232E+03  0.17715744445E+04  0.16334069893E+04 0.  0.
        1    1    3    3  502    0 -0.62858863175E+03  0.11076753958E+03  0.20967087567E+03  0.67182958547E+03  0.50400001928E-02 0. -1.
       -1    1    3    3    0  502  0.62858863175E+03 -0.11076753958E+03 -0.89557000799E+03  0.10997448591E+04  0.50400001928E-02 0.  1.
</event>
<event>
 5   0  0.2463085E-04  0.2035209E+04  0.7818609E-02  0.8590334E-01
       -2   -1    0    0    0  501  0.00000000000E+00  0.00000000000E+00  0.62867180575E+03  0.62867180576E+03  0.25500000920E-02 0.  1.
        2   -1    0    0  501    0  0.00000000000E+00  0.00000000000E+00 -0.16471530497E+04  0.16471530497E+04  0.25500000920E-02 0. -1.
    10030    2    1    2    0    0  0.00000000000E+00  0.00000000000E+00 -0.10184812439E+04  0.22758248554E+04  0.20352087678E+04 0.  0.
        2    1    3    3  502    0 -0.52013977627E+03  0.70410827536E+03  0.70950790720E+02  0.87826412029E+03  0.25500000920E-02 0.  1.
       -2    1    3    3    0  502  0.52013977627E+03 -0.70410827536E+03 -0.10894320346E+04  0.13975607351E+04  0.25500000920E-02 0. -1.
</event>
<event>
 5   0  0.9099125E-05  0.1920429E+04  0.7818609E-02  0.8644754E-01
       -4   -1    0    0    0  501  0.00000000000E+00  0.00000000000E+00  0.12981595812E+04  0.12981602024E+04  0.12699999809E+01 0. -1.
        4   -1    0    0  501    0  0.00000000000E+00  0.00000000000E+00 -0.71024386808E+03  0.71024500353E+03  0.12699999809E+01 0.  1.
    10030    2    1    2    0    0  0.00000000000E+00  0.00000000000E+00  0.58791571309E+03  0.20084052059E+04  0.19204287504E+04 0.  0.
        1    1    3    3  502    0  0.54684672145E+03 -0.12141181604E+03  0.11095759894E+04  0.12429565729E+04  0.50400001928E-02 0. -1.
       -1    1    3    3    0  502 -0.54684672145E+03  0.12141181604E+03 -0.52166027634E+03  0.76544863300E+03  0.50400001928E-02 0.  1.
</event>
<event>
 5   0  0.1258546E-04  0.2022808E+04  0.7818609E-02  0.8596031E-01
        1   -1    0    0  501    0  0.00000000000E+00  0.00000000000E+00  0.14947123679E+04  0.14947123679E+04  0.50400001928E-02 0. -1.
       -1   -1    0    0    0  501  0.00000000000E+00  0.00000000000E+00 -0.68437133253E+03  0.68437133255E+03  0.50400001928E-02 0.  1.
    10030    2    1    2    0    0  0.00000000000E+00  0.00000000000E+00  0.81034103539E+03  0.21790837005E+04  0.20228082411E+04 0.  0.
        4    1    3    3  502    0 -0.23068293962E+02  0.93195518205E+02 -0.67945050839E+03  0.68620125113E+03  0.12699999809E+01 0.  1.
       -4    1    3    3    0  502  0.23068293962E+02 -0.93195518205E+02  0.14897915438E+04  0.14928824494E+04  0.12699999809E+01 0. -1.
</event>
<event>
 5   0  0.2596061E-04  0.1995558E+04  0.7818609E-02  0.8608700E-01
        2   -1    0    0  501    0  0.00000000000E+00  0.00000000000E+00  0.14063086480E+04  0.14063086480E+04  0.25500000920E-02 0. -1.
       -2   -1    0    0    0  501  0.00000000000E+00  0.00000000000E+00 -0.70792645369E+03  0.70792645370E+03  0.25500000920E-02 0.  1.
    10030    2    1    2    0    0  0.00000000000E+00  0.00000000000E+00  0.69838219428E+03  0.21142351017E+04  0.19955581615E+04 0.  0.
        5    1    3    3  502    0 -0.54224166625E+03  0.21704590004E+02 -0.53788625858E+03  0.76409477882E+03  0.46999998093E+01 0.  1.
       -5    1    3    3    0  502  0.54224166625E+03 -0.21704590004E+02  0.12362684529E+04  0.13501403228E+04  0.46999998093E+01 0. -1.
</event>
<event>
 5   0  0.2596061E-04  0.1996470E+04  0.7818609E-02  0.8608273E-01
        2   -1    0    0  501    0  0.00000000000E+00  0.00000000000E+00  0.16322224534E+04  0.16322224534E+04  0.25500000920E-02 0.  1.
       -2   -1    0    0    0  501  0.00000000000E+00  0.00000000000E+00 -0.61050051552E+03  0.61050051553E+03  0.25500000920E-02 0. -1.
    10030    2    1    2    0    0  0.00000000000E+00  0.00000000000E+00  0.10217219378E+04  0.22427229689E+04  0.19964695332E+04 0.  0.
        5    1    3    3  502    0  0.74087360854E+03  0.64948780073E+03  0.69102543023E+03  0.12034393804E+04  0.46999998093E+01 0. -1.
       -5    1    3    3    0  502 -0.74087360854E+03 -0.64948780073E+03  0.33069650762E+03  0.10392835885E+04  0.46999998093E+01 0.  1.
</event>
<event>
 5   0  0.1324930E-04  0.1988110E+04  0.7818609E-02  0.8612200E-01
       -1   -1    0    0    0  501  0.00000000000E+00  0.00000000000E+00  0.66908970802E+03  0.66908970804E+03  0.50400001928E-02 0.  1.
        1   -1    0    0  501    0  0.00000000000E+00  0.00000000000E+00 -0.14768499238E+04  0.14768499238E+04  0.50400001928E-02 0. -1.
    10030    2    1    2    0    0  0.00000000000E+00  0.00000000000E+00 -0.80776021574E+03  0.21459396318E+04  0.19881097397E+04 0.  0.
        5    1    3    3  502    0  0.55365045932E+03  0.37161734588E+03 -0.11996267393E+04  0.13724994304E+04  0.46999998093E+01 0. -1.
       -5    1    3    3    0  502 -0.55365045932E+03 -0.37161734588E+03  0.39186652354E+03  0.77344020140E+03  0.46999998093E+01 0.  1.
</event>
<event>
 5   0  0.1258546E-04  0.2025014E+04  0.7818609E-02  0.8595014E-01
        1   -1    0    0  501    0  0.00000000000E+00  0.00000000000E+00  0.19342079915E+04  0.19342079915E+04  0.50400001928E-02 0.  1.
       -1   -1    0    0    0  501  0.00000000000E+00  0.00000000000E+00 -0.53002071940E+03  0.53002071942E+03  0.50400001928E-02 0. -1.
    10030    2    1    2    0    0  0.00000000000E+00  0.00000000000E+00  0.14041872721E+04  0.24642287110E+04  0.20250138875E+04 0.  0.
        4    1    3    3  502    0  0.60034395670E+03 -0.66726177025E+03  0.13194558702E+03  0.90722785849E+03  0.12699999809E+01 0. -1.
       -4    1    3    3    0  502 -0.60034395670E+03  0.66726177025E+03  0.12722416851E+04  0.15570008525E+04  0.12699999809E+01 0.  1.
</event>
<event>
 5   0  0.1231056E-04  0.1954953E+04  0.7818609E-02  0.8627976E-01
       -1   -1    0    0    0  501  0.00000000000E+00  0.00000000000E+00  0.55742663548E+03  0.55742663551E+03  0.50400001928E-02 0. -1.
        1   -1    0    0  501    0  0.00000000000E+00  0.00000000000E+00 -0.17140565376E+04  0.17140565376E+04  0.50400001928E-02 0.  1.
    10030    2    1    2    0    0  0.00000000000E+00  0.00000000000E+00 -0.11566299021E+04  0.22714831731E+04  0.19549534714E+04 0.  0.
        3    1    3    3  502    0  0.19696804716E+03 -0.51417004316E+03 -0.15167292756E+04  0.16135783063E+04  0.10100000352E+00 0.  1.
       -3    1    3    3    0  502 -0.19696804716E+03  0.51417004316E+03  0.36009937344E+03  0.65790486686E+03  0.10100000352E+00 0. -1.
</event>
<event>
 5   0  0.1324930E-04  0.1977859E+04  0.7818609E-02  0.8617043E-01
       -1   -1    0    0    0  501  0.00000000000E+00  0.00000000000E+00  0.49661921210E+03  0.49661921213E+03  0.50400001928E-02 0. -1.
        1   -1    0    0  501    0  0.00000000000E+00  0.00000000000E+00 -0.19692779059E+04  0.19692779059E+04  0.50400001928E-02 0.  1.
    10030    2    1    2    0    0  0.00000000000E+00  0.00000000000E+00 -0.14726586938E+04  0.24658971180E+04  0.19778586826E+04 0.  0.
        5    1    3    3  502    0  0.23477760019E+03  0.93182921938E+03 -0.10274742132E+04  0.14068232172E+04  0.46999998093E+01 0.  1.
       -5    1    3    3    0  502 -0.23477760019E+03 -0.93182921938E+03 -0.44518448053E+03  0.10590739008E+04  0.46999998093E+01 0. -1.
</event>
<event>
 5   0  0.1207228E-04  0.1802212E+04  0.7818609E-02  0.8705124E-01
       -1   -1    0    0    0  501  0.00000000000E+00  0.00000000000E+00  0.91473377852E+03  0.91473377854E+03  0.50400001928E-02 0. -1.
        1   -1    0    0  501    0  0.00000000000E+00  0.00000000000E+00 -0.88768160963E+03  0.88768160965E+03  0.50400001928E-02 0.  1.
    10030    2    1    2    0    0  0.00000000000E+00  0.00000000000E+00  0.27052168890E+02  0.18024153882E+04  0.18022123659E+04 0.  0.
        1    1    3    3  502    0 -0.29660270884E+03 -0.26717198324E+03 -0.79442525525E+03  0.88908127959E+03  0.50400001928E-02 0.  1.
       -1    1    3    3    0  502  0.29660270884E+03  0.26717198324E+03  0.82147742414E+03  0.91333410859E+03  0.50400001928E-02 0. -1.
</event>
<event>
 5   0  0.9099125E-05  0.2018313E+04  0.7818609E-02  0.8598106E-01
       -3   -1    0    0    0  501  0.00000000000E+00  0.00000000000E+00  0.98177284693E+03  0.98177285213E+03  0.10100000352E+00 0.  1.
        3   -1    0    0  501    0  0.00000000000E+00  0.00000000000E+00 -0.10373035313E+04  0.10373035363E+04  0.10100000352E+00 0. -1.
    10030    2    1    2    0    0  0.00000000000E+00  0.00000000000E+00 -0.55530684404E+02  0.20190763884E+04  0.20183126133E+04 0.  0.
        5    1    3    3  502    0  0.45275364648E+03  0.23121409128E+03  0.84430334657E+03  0.98555367760E+03  0.46999998093E+01 0.  1.
       -5    1    3    3    0  502 -0.45275364648E+03 -0.23121409128E+03 -0.89983403097E+03  0.10335227108E+04  0.46999998093E+01 0. -1.
</event>
<event>
 5   0  0.2421737E-04  0.1955764E+04  0.7818609E-02  0.8627586E-01
       -2   -1    0    0    0  501  0.00000000000E+00  0.00000000000E+00  0.60863537853E+03  0.60863537854E+03  0.25500000920E-02 0. -1.
        2   -1    0    0  501    0  0.00000000000E+00  0.00000000000E+00 -0.15711424283E+04  0.15711424283E+04  0.25500000920E-02 0.  1.
    10030    2    1    2    0    0  0.00000000000E+00  0.00000000000E+00 -0.96250704972E+03  0.21797778068E+04  0.19557636530E+04 0.  0.
        1    1    3    3  502    0 -0.70710508513E+03 -0.67474677936E+03 -0.51600233209E+03  0.11052326562E+04  0.50400001928E-02 0. -1.
       -1    1    3    3    0  502  0.70710508513E+03  0.67474677936E+03 -0.44650471763E+03  0.10745451506E+04  0.50400001928E-02 0.  1.
</event>
<event>
 5   0  0.1207228E-04  0.2019346E+04  0.7818609E-02  0.8597629E-01
       -1   -1    0    0    0  501  0.00000000000E+00  0.00000000000E+00  0.96557009165E+03  0.96557009166E+03  0.50400001928E-02 0.  1.
        1   -1    0    0  501    0  0.00000000000E+00  0.00000000000E+00 -0.10557903749E+04  0.10557903749E+04  0.50400001928E-02 0. -1.
    10030    2    1    2    0    0  0.00000000000E+00  0.00000000000E+00 -0.90220283252E+02  0.20213604666E+04  0.20193460417E+04 0.  0.
        1    1    3    3  502    0  0.35531050057E+03  0.21417571670E+03  0.87630951225E+03  0.96955409891E+03  0.50400001928E-02 0.  1.
       -1    1    3    3    0  502 -0.35531050057E+03 -0.21417571670E+03 -0.96652979550E+03  0.10518063677E+04  0.50400001928E-02 0. -1.
</event>
<event>
 5   0  0.2540506E-04  0.2008349E+04  0.7818609E-02  0.8602727E-01
       -2   -1    0    0    0  501  0.00000000000E+00  0.00000000000E+00  0.39847352388E+03  0.39847352389E+03  0.25500000920E-02 0. -1.
        2   -1    0    0  501    0  0.00000000000E+00  0.00000000000E+00 -0.25305736201E+04  0.25305736202E+04  0.25500000920E-02 0.  1.
    10030    2    1    2    0    0  0.00000000000E+00  0.00000000000E+00 -0.21321000963E+04  0.29290471440E+04  0.20083491608E+04 0.  0.
        4    1    3    3  502    0  0.70974179172E+03 -0.15481726952E+03 -0.20771813825E+04  0.22005421846E+04  0.12699999809E+01 0.  1.
       -4    1    3    3    0  502 -0.70974179172E+03  0.15481726952E+03 -0.54918713807E+02  0.72850495940E+03  0.12699999809E+01 0. -1.
</event>
<event>
 5   0  0.2596061E-04  0.1993889E+04  0.7818609E-02  0.8609483E-01
        2   -1    0    0  501    0  0.00000000000E+00  0.00000000000E+00  0.46763801918E+03  0.46763801918E+03  0.25500000920E-02 0. -1.
       -2   -1    0    0    0  501  0.00000000000E+00  0.00000000000E+00 -0.21253575667E+04  0.21253575668E+04  0.25500000920E-02 0.  1.
    10030    2    1    2    0    0  0.00000000000E+00  0.00000000000E+00 -0.16577195476E+04  0.25929955859E+04  0.19938886655E+04 0.  0.
        5    1    3    3  502    0 -0.15944820632E+03  0.66837287636E+03 -0.17682017456E+04  0.18970254440E+04  0.46999998093E+01 0.  1.
       -5    1    3    3    0  502  0.15944820632E+03 -0.66837287636E+03  0.11048219798E+03  0.69597014190E+03  0.46999998093E+01 0. -1.
</event>
<event>
 5   0  0.1210633E-04  0.1988125E+04  0.7818609E-02  0.8612193E-01
        1   -1    0    0  501    0  0.00000000000E+00  0.00000000000E+00  0.12538700125E+04  0.12538700125E+04  0.50400001928E-02 0.  1.
       -1   -1    0    0    0  501  0.00000000000E+00  0.00000000000E+00 -0.78808830918E+03  0.78808830920E+03  0.50400001928E-02 0. -1.
    10030    2    1    2    0    0  0.00000000000E+00  0.00000000000E+00  0.46578170335E+03  0.20419583217E+04  0.19881250445E+04 0.  0.
        2    1    3    3  502    0 -0.61056371932E+03 -0.86697047093E+02  0.10336529021E+04  0.12036373023E+04  0.25500000920E-02 0.  1.
       -2    1    3    3    0  502  0.61056371932E+03  0.86697047093E+02 -0.56787119876E+03  0.83832101949E+03  0.25500000920E-02 0. -1.
</event>
<event>
 5   0  0.1207228E-04  0.1974394E+04  0.7818609E-02  0.8618687E-01
       -1   -1    0    0    0  501  0.00000000000E+00  0.00000000000E+00  0.65345767398E+03  0.65345767399E+03  0.50400001928E-02 0. -1.
        1   -1    0    0  501    0  0.00000000000E+00  0.00000000000E+00 -0.14913868826E+04  0.14913868826E+04  0.50400001928E-02 0.  1.
    10030    2    1    2    0    0  0.00000000000E+00  0.00000000000E+00 -0.83792920860E+03  0.21448445566E+04  0.19743942902E+04 0.  0.
        1    1    3    3  502    0 -0.71755222139E+03  0.10926081861E+03  0.30793501429E+03  0.78844346021E+03  0.50400001928E-02 0. -1.
       -1    1    3    3    0  502  0.71755222139E+03 -0.10926081861E+03 -0.11458642229E+04  0.13564010964E+04  0.50400001928E-02 0.  1.
</event>
<event>
 5   0  0.2463085E-04  0.2018637E+04  0.7818609E-02  0.8597956E-01
        2   -1    0    0  501    0  0.00000000000E+00  0.00000000000E+00  0.19857865164E+04  0.19857865164E+04  0.25500000920E-02 0.  1.
       -2   -1    0    0    0  501  0.00000000000E+00  0.00000000000E+00 -0.51300777320E+03  0.51300777320E+03  0.25500000920E-02 0. -1.
    10030    2    1    2    0    0  0.00000000000E+00  0.00000000000E+00  0.14727787432E+04  0.24987942896E+04  0.20186370836E+04 0.  0.
        2    1    3    3  502    0 -0.96672381433E+02 -0.70230027208E+02  0.19770002321E+04  0.19806079177E+04  0.25500000920E-02 0.  1.
       -2    1    3    3    0  502  0.96672381433E+02  0.70230027208E+02 -0.50422148893E+03  0.51818637184E+03  0.25500000920E-02 0. -1.
</event>
<event>
 5   0  0.1231056E-04  0.2017542E+04  0.7818609E-02  0.8598463E-01
        1   -1    0    0  501    0  0.00000000000E+00  0.00000000000E+00  0.59728294656E+03  0.59728294658E+03  0.50400001928E-02 0.  1.
       -1   -1    0    0    0  501  0.00000000000E+00  0.00000000000E+00 -0.17037463632E+04  0.17037463633E+04  0.50400001928E-02 0. -1.
    10030    2    1    2    0    0  0.00000000000E+00  0.00000000000E+00 -0.11064634167E+04  0.23010293098E+04  0.20175417201E+04 0.  0.
        3    1    3    3  502    0  0.68499422941E+03 -0.40222420839E+03 -0.12623851726E+04  0.14915152505E+04  0.10100000352E+00 0. -1.
       -3    1    3    3    0  502 -0.68499422941E+03  0.40222420839E+03  0.15592175592E+03  0.80951405937E+03  0.10100000352E+00 0.  1.
</event>
<event>
 5   0  0.1231056E-04  0.1663489E+04  0.7818609E-02  0.8782466E-01
       -1   -1    0    0    0  501  0.00000000000E+00  0.00000000000E+00  0.25678753170E+03  0.25678753175E+03  0.50400001928E-02 0. -1.
        1   -1    0    0  501    0  0.00000000000E+00  0.00000000000E+00 -0.26940516529E+04  0.26940516529E+04  0.50400001928E-02 0.  1.
    10030    2    1    2    0    0  0.00000000000E+00  0.00000000000E+00 -0.24372641211E+04  0.29508391846E+04  0.16634889531E+04 0.  0.
        3    1    3    3  502    0 -0.38950504236E+02  0.80863078175E+03 -0.88020563388E+03  0.11958941638E+04  0.10100000352E+00 0. -1.
       -3    1    3    3    0  502  0.38950504236E+02 -0.80863078175E+03 -0.15570584873E+04  0.17549450208E+04  0.10100000352E+00 0.  1.
</event>
<event>
 5   0  0.2463085E-04  0.1997425E+04  0.7818609E-02  0.8607825E-01
        2   -1    0    0  501    0  0.00000000000E+00  0.00000000000E+00  0.11565475603E+04  0.11565475603E+04  0.25500000920E-02 0. -1.
       -2   -1    0    0    0  501  0.00000000000E+00  0.00000000000E+00 -0.86241749169E+03  0.86241749169E+03  0.25500000920E-02 0.  1.
    10030    2    1    2    0    0  0.00000000000E+00  0.00000000000E+00  0.29413006864E+03  0.20189650520E+04  0.19974251886E+04 0.  0.
        2    1    3    3  502    0 -0.95251442878E+03  0.14805332042E+03 -0.11694760245E+03  0.97102021835E+03  0.25500000920E-02 0.  1.
       -2    1    3    3    0  502  0.95251442878E+03 -0.14805332042E+03  0.41107767109E+03  0.10479448337E+04  0.25500000920E-02 0. -1.
</event>
<event>
 5   0  0.1324930E-04  0.2198333E+04  0.7818609E-02  0.8519122E-01
        1   -1    0    0  501    0  0.00000000000E+00  0.00000000000E+00  0.11897809724E+04  0.11897809724E+04  0.50400001928E-02 0. -1.
       -1   -1    0    0    0  501  0.00000000000E+00  0.00000000000E+00 -0.10154531906E+04  0.10154531906E+04  0.50400001928E-02 0.  1.
    10030    2    1    2    0    0  0.00000000000E+00  0.00000000000E+00  0.17432778185E+03  0.22052341630E+04  0.21983328998E+04 0.  0.
        5    1    3    3  502    0 -0.76954334914E+03 -0.16131424193E+03  0.85764120003E+03  0.11635247178E+04  0.46999998093E+01 0. -1.
       -5    1    3    3    0  502  0.76954334914E+03  0.16131424193E+03 -0.68331341818E+03  0.10417094452E+04  0.46999998093E+01 0.  1.
</event>
<event>
 5   0  0.2488886E-04  0.2072643E+04  0.7818609E-02  0.8573391E-01
        2   -1    0    0  501    0  0.00000000000E+00  0.00000000000E+00  0.61780985478E+03  0.61780985478E+03  0.25500000920E-02 0. -1.
       -2   -1    0    0    0  501  0.00000000000E+00  0.00000000000E+00 -0.17383376538E+04  0.17383376538E+04  0.25500000920E-02 0.  1.
    10030    2    1    2    0    0  0.00000000000E+00  0.00000000000E+00 -0.11205277991E+04  0.23561475086E+04  0.20726428863E+04 0.  0.
        3    1    3    3  502    0  0.33619574620E+03  0.94138521466E+03 -0.87102088471E+03  0.13258623963E+04  0.10100000352E+00 0. -1.
       -3    1    3    3    0  502 -0.33619574620E+03 -0.94138521466E+03 -0.24950691436E+03  0.10302851123E+04  0.10100000352E+00 0.  1.
</event>
<event>
 5   0  0.2488886E-04  0.1951682E+04  0.7818609E-02  0.8629550E-01
        2   -1    0    0  501    0  0.00000000000E+00  0.00000000000E+00  0.92769336636E+03  0.92769336637E+03  0.25500000920E-02 0.  1.
       -2   -1    0    0    0  501  0.00000000000E+00  0.00000000000E+00 -0.10264875850E+04  0.10264875850E+04  0.25500000920E-02 0. -1.
    10030    2    1    2    0    0  0.00000000000E+00  0.00000000000E+00 -0.98794218622E+02  0.19541809514E+04  0.19516820676E+04 0.  0.
        3    1    3    3  502    0  0.86349148225E+03 -0.29150985437E+03  0.29986202681E+03  0.95943357271E+03  0.10100000352E+00 0.  1.
       -3    1    3    3    0  502 -0.86349148225E+03  0.29150985437E+03 -0.39865624543E+03  0.99474737865E+03  0.10100000352E+00 0. -1.
</event>
<event>
 5   0  0.2463085E-04  0.1962527E+04  0.7818609E-02  0.8624344E-01
       -2   -1    0    0    0  501  0.00000000000E+00  0.00000000000E+00  0.76725583736E+03  0.76725583736E+03  0.25500000920E-02 0. -1.
        2   -1    0    0  501    0  0.00000000000E+00  0.00000000000E+00 -0.12549632423E+04  0.12549632423E+04  0.25500000920E-02 0.  1.
    10030    2    1    2    0    0  0.00000000000E+00  0.00000000000E+00 -0.48770740493E+03  0.20222190796E+04  0.19625268134E+04 0.  0.
        2    1    3    3  502    0 -0.78976628440E+03 -0.44417235204E+03 -0.63195003411E+03  0.11047084266E+04  0.25500000920E-02 0.  1.
       -2    1    3    3    0  502  0.78976628440E+03  0.44417235204E+03  0.14424262918E+03  0.91751065300E+03  0.25500000920E-02 0. -1.
</event>
<event>
 5   0  0.1258546E-04  0.2028928E+04  0.7818609E-02  0.8593214E-01
       -1   -1    0    0    0  501  0.00000000000E+00  0.00000000000E+00  0.66695905023E+03  0.66695905025E+03  0.50400001928E-02 0.  1.
        1   -1    0    0  501    0  0.00000000000E+00  0.00000000000E+00 -0.15430284238E+04  0.15430284238E+04  0.50400001928E-02 0. -1.
    10030    2    1    2    0    0  0.00000000000E+00  0.00000000000E+00 -0.87606937357E+03  0.22099874741E+04  0.20289275710E+04 0.  0.
        4    1    3    3  502    0 -0.23578610038E+03  0.54037829890E+03  0.46118580062E+03  0.74853039127E+03  0.12699999809E+01 0.  1.
       -4    1    3    3    0  502  0.23578610038E+03 -0.54037829890E+03 -0.13372551742E+04  0.14614570828E+04  0.12699999809E+01 0. -1.
</event>
<event>
 5   0  0.2421737E-04  0.1957521E+04  0.7818609E-02  0.8626743E-01
       -2   -1    0    0    0  501  0.00000000000E+00  0.00000000000E+00  0.48256238112E+03  0.48256238112E+03  0.25500000920E-02 0.  1.
        2   -1    0    0  501    0  0.00000000000E+00  0.00000000000E+00 -0.19851774471E+04  0.19851774471E+04  0.25500000920E-02 0. -1.
    10030    2    1    2    0    0  0.00000000000E+00  0.00000000000E+00 -0.15026150660E+04  0.24677398283E+04  0.19575208360E+04 0.  0.
        1    1    3    3  502    0  0.41551706409E+03 -0.79181278827E+03 -0.24965610024E+03  0.92841267259E+03  0.50400001928E-02 0.  1.
       -1    1    3    3    0  502 -0.41551706409E+03  0.79181278827E+03 -0.12529589658E+04  0.15393271557E+04  0.50400001928E-02 0. -1.
</event>
<event>
 5   0  0.2463085E-04  0.2103884E+04  0.7818609E-02  0.8559534E-01
       -2   -1    0    0    0  501  0.00000000000E+00  0.00000000000E+00  0.77554935578E+03  0.77554935579E+03  0.25500000920E-02 0.  1.
        2   -1    0    0  501    0  0.00000000000E+00  0.00000000000E+00 -0.14268362321E+04  0.14268362321E+04  0.25500000920E-02 0. -1.
    10030    2    1    2    0    0  0.00000000000E+00  0.00000000000E+00 -0.65128687628E+03  0.22023855878E+04  0.21038839517E+04 0.  0.
        2    1    3    3  502    0 -0.42800766157E+03 -0.73564960811E+03 -0.97282058901E+03  0.12925752600E+04  0.25500000920E-02 0. -1.
       -2    1    3    3    0  502  0.42800766157E+03  0.73564960811E+03  0.32153371273E+03  0.90981032788E+03  0.25500000920E-02 0.  1.
</event>
<event>
 5   0  0.2540506E-04  0.2013897E+04  0.7818609E-02  0.8600151E-01
        2   -1    0    0  501    0  0.00000000000E+00  0.00000000000E+00  0.15901616799E+04  0.15901616799E+04  0.25500000920E-02 0.  1.
       -2   -1    0    0    0  501  0.00000000000E+00  0.00000000000E+00 -0.63763654248E+03  0.63763654248E+03  0.25500000920E-02 0. -1.
    10030    2    1    2    0    0  0.00000000000E+00  0.00000000000E+00  0.95252513739E+03  0.22277982223E+04  0.20138969145E+04 0.  0.
        4    1    3    3  502    0 -0.21051956855E+03  0.54410367100E+03 -0.43162487977E+03  0.72571960375E+03  0.12699999809E+01 0. -1.
       -4    1    3    3    0  502  0.21051956855E+03 -0.54410367100E+03  0.13841500172E+04  0.15020786186E+04  0.12699999809E+01 0.  1.
</event>
<event>
 5   0  0.2488886E-04  0.2056983E+04  0.7818609E-02  0.8580433E-01
        2   -1    0    0  501    0  0.00000000000E+00  0.00000000000E+00  0.13450063620E+04  0.13450063620E+04  0.25500000920E-02 0. -1.
       -2   -1    0    0    0  501  0.00000000000E+00  0.00000000000E+00 -0.78646076654E+03  0.78646076654E+03  0.25500000920E-02 0.  1.
    10030    2    1    2    0    0  0.00000000000E+00  0.00000000000E+00  0.55854559542E+03  0.21314671285E+04  0.20569829697E+04 0.  0.
        3    1    3    3  502    0  0.45431300509E+03 -0.12789888467E+03 -0.66761957659E+03  0.81760280121E+03  0.10100000352E+00 0.  1.
       -3    1    3    3    0  502 -0.45431300509E+03  0.12789888467E+03  0.12261651720E+04  0.13138643273E+04  0.10100000352E+00 0. -1.
</event>
<event>
 5   0  0.1210633E-04  0.2012485E+04  0.7818609E-02  0.8600806E-01
       -1   -1    0    0    0  501  0.00000000000E+00  0.00000000000E+00  0.64614347817E+03  0.64614347819E+03  0.50400001928E-02 0. -1.
        1   -1    0    0  501    0  0.00000000000E+00  0.00000000000E+00 -0.15670257722E+04  0.15670257723E+04  0.50400001928E-02 0.  1.
    10030    2    1    2    0    0  0.00000000000E+00  0.00000000000E+00 -0.92088229407E+03  0.22131692504E+04  0.20124845171E+04 0.  0.
        2    1    3    3  502    0 -0.73890776225E+03 -0.67525272212E+03 -0.57351761156E+03  0.11536348515E+04  0.25500000920E-02 0. -1.
       -2    1    3    3    0  502  0.73890776225E+03  0.67525272212E+03 -0.34736468252E+03  0.10595343989E+04  0.25500000920E-02 0.  1.
</event>
<event>
 5   0  0.2421737E-04  0.2025442E+04  0.7818609E-02  0.8594817E-01
        2   -1    0    0  501    0  0.00000000000E+00  0.00000000000E+00  0.91711412055E+03  0.91711412055E+03  0.25500000920E-02 0.  1.
       -2   -1    0    0    0  501  0.00000000000E+00  0.00000000000E+00 -0.11182950313E+04  0.11182950313E+04  0.25500000920E-02 0. -1.
    10030    2    1    2    0    0  0.00000000000E+00  0.00000000000E+00 -0.20118091072E+03  0.20354091518E+04  0.20254423360E+04 0.  0.
        1    1    3    3  502    0  0.28143513856E+03 -0.20074359582E+03 -0.10571676198E+04  0.11122531658E+04  0.50400001928E-02 0. -1.
       -1    1    3    3    0  502 -0.28143513856E+03  0.20074359582E+03  0.85598670904E+03  0.92315598604E+03  0.50400001928E-02 0.  1.
</event>
<event>
 5   0  0.2540506E-04  0.1990265E+04  0.7818609E-02  0.8611186E-01
        2   -1    0    0  501    0  0.00000000000E+00  0.00000000000E+00  0.29464063232E+04  0.29464063232E+04  0.25500000920E-02 0. -1.
       -2   -1    0    0    0  501  0.00000000000E+00  0.00000000000E+00 -0.33610059904E+03  0.33610059905E+03  0.25500000920E-02 0.  1.
    10030    2    1    2    0    0  0.00000000000E+00  0.00000000000E+00  0.26103057242E+04  0.32825069223E+04  0.19902652389E+04 0.  0.
        4    1    3    3  502    0  0.16538298762E+03  0.18292789735E+03 -0.28490570666E+03  0.37681165429E+03  0.12699999809E+01 0.  1.
       -4    1    3    3    0  502 -0.16538298762E+03 -0.18292789735E+03  0.28952114308E+04  0.29056952680E+04  0.12699999809E+01 0. -1.
</event>
<event>
 5   0  0.1207228E-04  0.1971615E+04  0.7818609E-02  0.8620008E-01
       -1   -1    0    0    0  501  0.00000000000E+00  0.00000000000E+00  0.10809375744E+04  0.10809375744E+04  0.50400001928E-02 0. -1.
        1   -1    0    0  501    0  0.00000000000E+00  0.00000000000E+00 -0.89904951498E+03  0.89904951500E+03  0.50400001928E-02 0.  1.
    10030    2    1    2    0    0  0.00000000000E+00  0.00000000000E+00  0.18188805941E+03  0.19799870894E+04  0.19716149746E+04 0.  0.
        1    1    3    3  502    0  0.29923595424E+03 -0.49666614028E+03  0.89157275274E+03  0.10635419055E+04  0.50400001928E-02 0. -1.
       -1    1    3    3    0  502 -0.29923595424E+03  0.49666614028E+03 -0.70968469333E+03  0.91644518395E+03  0.50400001928E-02 0.  1.
</event>
<event>
 5   0  0.1210633E-04  0.1987520E+04  0.7818609E-02  0.8612478E-01
        1   -1    0    0  501    0  0.00000000000E+00  0.00000000000E+00  0.16306208762E+04  0.16306208762E+04  0.50400001928E-02 0.  1.
       -1   -1    0    0    0  501  0.00000000000E+00  0.00000000000E+00 -0.60563386581E+03  0.60563386583E+03  0.50400001928E-02 0. -1.
    10030    2    1    2    0    0  0.00000000000E+00  0.00000000000E+00  0.10249870103E+04  0.22362547420E+04  0.19875202891E+04 0.  0.
        2    1    3    3  502    0  0.68827388143E+03  0.24628512760E+03 -0.24494258363E+03  0.77095665846E+03  0.25500000920E-02 0. -1.
       -2    1    3    3    0  502 -0.68827388143E+03 -0.24628512760E+03  0.12699295940E+04  0.14652980835E+04  0.25500000920E-02 0.  1.
</event>
<event>
 5   0  0.1324930E-04  0.1999589E+04  0.7818609E-02  0.8606813E-01
       -1   -1    0    0    0  501  0.00000000000E+00  0.00000000000E+00  0.55540487185E+03  0.55540487187E+03  0.50400001928E-02 0. -1.
        1   -1    0    0  501    0  0.00000000000E+00  0.00000000000E+00 -0.17997482341E+04  0.17997482341E+04  0.50400001928E-02 0.  1.
    10030    2    1    2    0    0  0.00000000000E+00  0.00000000000E+00 -0.12443433623E+04  0.23551531060E+04  0.19995888951E+04 0.  0.
        5    1    3    3  502    0 -0.68420561205E+03 -0.53925063341E+03 -0.44393964106E+02  0.87230813320E+03  0.46999998093E+01 0. -1.
       -5    1    3    3    0  502  0.68420561205E+03  0.53925063341E+03 -0.11999493982E+04  0.14828449728E+04  0.46999998093E+01 0.  1.
</event>
<event>
 5   0  0.9099125E-05  0.1431305E+04  0.7818609E-02  0.8931465E-01
       -3   -1    0    0    0  501  0.00000000000E+00  0.00000000000E+00  0.20151449846E+04  0.20151449872E+04  0.10100000352E+00 0. -1.
        3   -1    0    0  501    0  0.00000000000E+00  0.00000000000E+00 -0.25415457033E+03  0.25415459040E+03  0.10100000352E+00 0.  1.
    10030    2    1    2    0    0  0.00000000000E+00  0.00000000000E+00  0.17609904143E+04  0.22692995776E+04  0.14313047661E+04 0.  0.
        3    1    3    3  502    0 -0.29002504193E+02  0.60547757092E+03  0.27735938635E+03  0.66661268630E+03  0.10100000352E+00 0.  1.
       -3    1    3    3    0  502  0.29002504193E+02 -0.60547757092E+03  0.14836310280E+04  0.16026868913E+04  0.10100000352E+00 0. -1.
</event>
<event>
 5   0  0.1231056E-04  0.1945337E+04  0.7818609E-02  0.8632613E-01
        1   -1    0    0  501    0  0.00000000000E+00  0.00000000000E+00  0.99274970678E+03  0.99274970679E+03  0.50400001928E-02 0. -1.
       -1   -1    0    0    0  501  0.00000000000E+00  0.00000000000E+00 -0.95299331842E+03  0.95299331844E+03  0.50400001928E-02 0.  1.
    10030    2    1    2    0    0  0.00000000000E+00  0.00000000000E+00  0.39756388358E+02  0.19457430252E+04  0.19453368217E+04 0.  0.
        3    1    3    3  502    0  0.30711309479E+03  0.69039830080E+03  0.63247286586E+03  0.98538835135E+03  0.10100000352E+00 0. -1.
       -3    1    3    3    0  502 -0.30711309479E+03 -0.69039830080E+03 -0.59271647750E+03  0.96035467388E+03  0.10100000352E+00 0.  1.
</event>
<event>
 5   0  0.2540506E-04  0.1979001E+04  0.7818609E-02  0.8616502E-01
        2   -1    0    0  501    0  0.00000000000E+00  0.00000000000E+00  0.86856071487E+03  0.86856071487E+03  0.25500000920E-02 0. -1.
       -2   -1    0    0    0  501  0.00000000000E+00  0.00000000000E+00 -0.11272798074E+04  0.11272798074E+04  0.25500000920E-02 0.  1.
    10030    2    1    2    0    0  0.00000000000E+00  0.00000000000E+00 -0.25871909254E+03  0.19958405223E+04  0.19790007129E+04 0.  0.
        4    1    3    3  502    0  0.47566215915E+03 -0.61780484991E+03 -0.74378259756E+03  0.10775673935E+04  0.12699999809E+01 0. -1.
       -4    1    3    3    0  502 -0.47566215915E+03  0.61780484991E+03  0.48506350502E+03  0.91827312877E+03  0.12699999809E+01 0.  1.
</event>
<event>
 5   0  0.1207228E-04  0.2270413E+04  0.7818609E-02  0.8489679E-01
       -1   -1    0    0    0  501  0.00000000000E+00  0.00000000000E+00  0.17351206274E+04  0.17351206274E+04  0.50400001928E-02 0. -1.
        1   -1    0    0  501    0  0.00000000000E+00  0.00000000000E+00 -0.74271165608E+03  0.74271165610E+03  0.50400001928E-02 0.  1.
    10030    2    1    2    0    0  0.00000000000E+00  0.00000000000E+00  0.99240897131E+03  0.24778322835E+04  0.22704134555E+04 0.  0.
        1    1    3    3  502    0 -0.26876546584E+03  0.51547263592E+03 -0.56793737716E+03  0.81271137461E+03  0.50400001928E-02 0.  1.
       -1    1    3    3    0  502  0.26876546584E+03 -0.51547263592E+03  0.15603463485E+04  0.16651209089E+04  0.50400001928E-02 0. -1.
</event>
<event>
 5   0  0.2596061E-04  0.1957894E+04  0.7818609E-02  0.8626563E-01
        2   -1    0    0  501    0  0.00000000000E+00  0.00000000000E+00  0.11707794289E+04  0.11707794289E+04  0.25500000920E-02 0. -1.
       -2   -1    0    0    0  501  0.00000000000E+00  0.00000000000E+00 -0.81854666159E+03  0.81854666160E+03  0.25500000920E-02 0.  1.
    10030    2    1    2    0    0  0.00000000000E+00  0.00000000000E+00  0.35223276728E+03  0.19893260905E+04  0.19578943720E+04 0.  0.
        5    1    3    3  502    0  0.93823627835E+03 -0.20454828321E+03  0.36940227047E+03  0.10288865057E+04  0.46999998093E+01 0. -1.
       -5    1    3    3    0  502 -0.93823627835E+03  0.20454828321E+03 -0.17169503190E+02  0.96043958478E+03  0.46999998093E+01 0.  1.
</event>
<event>
 5   0  0.2596061E-04  0.2015308E+04  0.7818609E-02  0.8599497E-01
        2   -1    0    0  501    0  0.00000000000E+00  0.00000000000E+00  0.20793713559E+04  0.20793713559E+04  0.25500000920E-02 0. -1.
       -2   -1    0    0    0  501  0.00000000000E+00  0.00000000000E+00 -0.48830483338E+03  0.48830483338E+03  0.25500000920E-02 0.  1.
    10030    2    1    2    0    0  0.00000000000E+00  0.00000000000E+00  0.15910665225E+04  0.25676761893E+04  0.20153084960E+04 0.  0.
        5    1    3    3  502    0 -0.17836992489E+03 -0.62979097708E+03 -0.18053006126E+03  0.67901818674E+03  0.46999998093E+01 0.  1.
       -5    1    3    3    0  502  0.17836992489E+03  0.62979097708E+03  0.17715965838E+04  0.18886580026E+04  0.46999998093E+01 0. -1.
</event>
<event>
 5   0  0.2596061E-04  0.1970088E+04  0.7818609E-02  0.8620735E-01
       -2   -1    0    0    0  501  0.00000000000E+00  0.00000000000E+00  0.61011094527E+03  0.61011094527E+03  0.25500000920E-02 0.  1.
        2   -1    0    0  501    0  0.00000000000E+00  0.00000000000E+00 -0.15903856917E+04  0.15903856917E+04  0.25500000920E-02 0. -1.
    10030    2    1    2    0    0  0.00000000000E+00  0.00000000000E+00 -0.98027474644E+03  0.22004966370E+04  0.19700880363E+04 0.  0.
        5    1    3    3  502    0 -0.60637508000E+03 -0.26979549525E+03  0.32287069650E+03  0.73807040556E+03  0.46999998093E+01 0.  1.
       -5    1    3    3    0  502  0.60637508000E+03  0.26979549525E+03 -0.13031454429E+04  0.14624262314E+04  0.46999998093E+01 0. -1.
</event>
<event>
 5   0  0.2463085E-04  0.1972810E+04  0.7818609E-02  0.8619440E-01
       -2   -1    0    0    0  501  0.00000000000E+00  0.00000000000E+00  0.15611283256E+04  0.15611283256E+04  0.25500000920E-02 0. -1.
        2   -1    0    0  501    0  0.00000000000E+00  0.00000000000E+00 -0.62326369193E+03  0.62326369194E+03  0.25500000920E-02 0.  1.
    10030    2    1    2    0    0  0.00000000000E+00  0.00000000000E+00  0.93786463367E+03  0.21843920175E+04  0.19728097767E+04 0.  0.
        2    1    3    3  502    0  0.88181763777E+03 -0.29581223491E+03  0.83262175667E+03  0.12483453906E+04  0.25500000920E-02 0. -1.
       -2    1    3    3    0  502 -0.88181763777E+03  0.29581223491E+03  0.10524287700E+03  0.93604662692E+03  0.25500000920E-02 0.  1.
</event>
<event>
 5   0  0.1258546E-04  0.1946412E+04  0.7818609E-02  0.8632093E-01
       -1   -1    0    0    0  501  0.00000000000E+00  0.00000000000E+00  0.90062363546E+03  0.90062363547E+03  0.50400001928E-02 0. -1.
        1   -1    0    0  501    0  0.00000000000E+00  0.00000000000E+00 -0.10516378296E+04  0.10516378296E+04  0.50400001928E-02 0.  1.
    10030    2    1    2    0    0  0.00000000000E+00  0.00000000000E+00 -0.15101419410E+03  0.19522614650E+04  0.19464119659E+04 0.  0.
        4    1    3    3  502    0  0.22129387367E+03 -0.20012881093E+03 -0.10046309784E+04  0.10480016866E+04  0.12699999809E+01 0.  1.
       -4    1    3    3    0  502 -0.22129387367E+03  0.20012881093E+03  0.85361678431E+03  0.90425977841E+03  0.12699999809E+01 0. -1.
</event>
<event>
 5   0  0.2421737E-04  0.2041290E+04  0.7818609E-02  0.8587556E-01
        2   -1    0    0  501    0  0.00000000000E+00  0.00000000000E+00  0.12151188062E+04  0.12151188062E+04  0.25500000920E-02 0. -1.
       -2   -1    0    0    0  501  0.00000000000E+00  0.00000000000E+00 -0.85729567595E+03  0.85729567595E+03  0.25500000920E-02 0.  1.
    10030    2    1    2    0    0  0.00000000000E+00  0.00000000000E+00  0.35782313020E+03  0.20724144821E+04  0.20412898846E+04 0.  0.
        1    1    3    3  502    0  0.86184201211E+03  0.48709850253E+03  0.43105190476E+03  0.10797417977E+04  0.50400001928E-02 0. -1.
       -1    1    3    3    0  502 -0.86184201211E+03 -0.48709850253E+03 -0.73228774559E+02  0.99267268445E+03  0.50400001928E-02 0.  1.
</event>
<event>
 5   0  0.2596061E-04  0.2011218E+04  0.7818609E-02  0.8601394E-01
        2   -1    0    0  501    0  0.00000000000E+00  0.00000000000E+00  0.18339866843E+04  0.18339866843E+04  0.25500000920E-02 0. -1.
       -2   -1    0    0    0  501  0.00000000000E+00  0.00000000000E+00 -0.55139434161E+03  0.55139434162E+03  0.25500000920E-02 0.  1.
    10030    2    1    2    0    0  0.00000000000E+00  0.00000000000E+00  0.12825923427E+04  0.23853810259E+04  0.20112184171E+04 0.  0.
        5    1    3    3  502    0 -0.69831980225E+03 -0.66327005588E+03  0.98432584948E+03  0.13771336831E+04  0.46999998093E+01 0. -1.
       -5    1    3    3    0  502  0.69831980225E+03  0.66327005588E+03  0.29826649319E+03  0.10082473428E+04  0.46999998093E+01 0.  1.
</event>
<event>
 5   0  0.2540506E-04  0.1398763E+04  0.7818609E-02  0.8954714E-01
        2   -1    0    0  501    0  0.00000000000E+00  0.00000000000E+00  0.12819585120E+04  0.12819585120E+04  0.25500000920E-02 0. -1.
       -2   -1    0    0    0  501  0.00000000000E+00  0.00000000000E+00 -0.38155267452E+03  0.38155267453E+03  0.25500000920E-02 0.  1.
    10030    2    1    2    0    0  0.00000000000E+00  0.00000000000E+00  0.90040583750E+03  0.16635111866E+04  0.13987633094E+04 0.  0.
        4    1    3    3  502    0 -0.65733956381E+00 -0.55522539807E+03  0.95596893996E+03  0.11055106973E+04  0.12699999809E+01 0. -1.
       -4    1    3    3    0  502  0.65733956381E+00  0.55522539807E+03 -0.55563102466E+02  0.55800048926E+03  0.12699999809E+01 0.  1.
</event>
<event>
 5   0  0.2488886E-04  0.2023983E+04  0.7818609E-02  0.8595489E-01
        2   -1    0    0  501    0  0.00000000000E+00  0.00000000000E+00  0.21991605174E+04  0.21991605174E+04  0.25500000920E-02 0.  1.
       -2   -1    0    0    0  501  0.00000000000E+00  0.00000000000E+00 -0.46568969587E+03  0.46568969588E+03  0.25500000920E-02 0. -1.
    10030    2    1    2    0    0  0.00000000000E+00  0.00000000000E+00  0.17334708216E+04  0.26648502133E+04  0.20239826013E+04 0.  0.
        3    1    3    3  502    0  0.49889988983E+03  0.50722122227E+03 -0.80833382243E+02  0.71603667104E+03  0.10100000352E+00 0. -1.
       -3    1    3    3    0  502 -0.49889988983E+03 -0.50722122227E+03  0.18143042038E+04  0.19488135423E+04  0.10100000352E+00 0.  1.
</event>
<event>
 5   0  0.2596061E-04  0.1911464E+04  0.7818609E-02  0.8649171E-01
       -2   -1    0    0    0  501  0.00000000000E+00  0.00000000000E+00  0.13274736745E+04  0.13274736745E+04  0.25500000920E-02 0. -1.
        2   -1    0    0  501    0  0.00000000000E+00  0.00000000000E+00 -0.68809182119E+03  0.68809182119E+03  0.25500000920E-02 0.  1.
    10030    2    1    2    0    0  0.00000000000E+00  0.00000000000E+00  0.63938185334E+03  0.20155654957E+04  0.19114641281E+04 0.  0.
        5    1    3    3  502    0  0.35776390896E+03 -0.59774283402E+03 -0.37024464918E+03  0.78891995819E+03  0.46999998093E+01 0.  1.
       -5    1    3    3    0  502 -0.35776390896E+03  0.59774283402E+03  0.10096265025E+04  0.12266455375E+04  0.46999998093E+01 0. -1.
</event>
<event>
 5   0  0.1258546E-04  0.2026787E+04  0.7818609E-02  0.8594198E-01
        1   -1    0    0  501    0  0.00000000000E+00  0.00000000000E+00  0.28975133084E+04  0.28975133085E+04  0.50400001928E-02 0. -1.
       -1   -1    0    0    0  501  0.00000000000E+00  0.00000000000E+00 -0.35443015336E+03  0.35443015339E+03  0.50400001928E-02 0.  1.
    10030    2    1    2    0    0  0.00000000000E+00  0.00000000000E+00  0.25430831551E+04  0.32519434618E+04  0.20267867044E+04 0.  0.
        4    1    3    3  502    0  0.71887054196E+03  0.27818302481E+03  0.21598751073E+03  0.80050788196E+03  0.12699999809E+01 0.  1.
       -4    1    3    3    0  502 -0.71887054196E+03 -0.27818302481E+03  0.23270956444E+04  0.24514355799E+04  0.12699999809E+01 0. -1.
</event>
<event>
 5   0  0.1231056E-04  0.1996259E+04  0.7818609E-02  0.8608372E-01
       -1   -1    0    0    0  501  0.00000000000E+00  0.00000000000E+00  0.83006490755E+03  0.83006490756E+03  0.50400001928E-02 0.  1.
        1   -1    0    0  501    0  0.00000000000E+00  0.00000000000E+00 -0.12002218059E+04  0.12002218059E+04  0.50400001928E-02 0. -1.
    10030    2    1    2    0    0  0.00000000000E+00  0.00000000000E+00 -0.37015689833E+03  0.20302867134E+04  0.19962585027E+04 0.  0.
        3    1    3    3  502    0  0.98421815213E+03  0.28022697431E+02 -0.35154918124E+03  0.10454938927E+04  0.10100000352E+00 0.  1.
       -3    1    3    3    0  502 -0.98421815213E+03 -0.28022697431E+02 -0.18607717090E+02  0.98479282079E+03  0.10100000352E+00 0. -1.
</event>
<event>
 5   0  0.1324930E-04  0.2004517E+04  0.7818609E-02  0.8604512E-01
        1   -1    0    0  501    0  0.00000000000E+00  0.00000000000E+00  0.19123460345E+04  0.19123460345E+04  0.50400001928E-02 0. -1.
       -1   -1    0    0    0  501  0.00000000000E+00  0.00000000000E+00 -0.52528281516E+03  0.52528281518E+03  0.50400001928E-02 0.  1.
    10030    2    1    2    0    0  0.00000000000E+00  0.00000000000E+00  0.13870632193E+04  0.24376288497E+04  0.20045174069E+04 0.  0.
        5    1    3    3  502    0  0.42528469494E+03  0.80680856292E+03  0.18817787393E+03  0.93125728517E+03  0.46999998093E+01 0.  1.
       -5    1    3    3    0  502 -0.42528469494E+03 -0.80680856292E+03  0.11988853454E+04  0.15063715645E+04  0.46999998093E+01 0. -1.
</event>
<event>
 5   0  0.2421737E-04  0.2050508E+04  0.7818609E-02  0.8583364E-01
       -2   -1    0    0    0  501  0.00000000000E+00  0.00000000000E+00  0.62055856427E+03  0.62055856428E+03  0.25500000920E-02 0. -1.
        2   -1    0    0  501    0  0.00000000000E+00  0.00000000000E+00 -0.16938706803E+04  0.16938706803E+04  0.25500000920E-02 0.  1.
    10030    2    1    2    0    0  0.00000000000E+00  0.00000000000E+00 -0.10733121160E+04  0.23144292446E+04  0.20505081882E+04 0.  0.
        1    1    3    3  502    0  0.38062837735E+03  0.31112387538E+03 -0.15521626820E+04  0.16281538683E+04  0.50400001928E-02 0.  1.
       -1    1    3    3    0  502 -0.38062837735E+03 -0.31112387538E+03  0.47885056599E+03  0.68627537625E+03  0.50400001928E-02 0. -1.
</event>
<event>
 5   0  0.2596061E-04  0.2036503E+04  0.7818609E-02  0.8589742E-01
        2   -1    0    0  501    0  0.00000000000E+00  0.00000000000E+00  0.14173802472E+04  0.14173802472E+04  0.25500000920E-02 0.  1.
       -2   -1    0    0    0  501  0.00000000000E+00  0.00000000000E+00 -0.73151615297E+03  0.73151615297E+03  0.25500000920E-02 0. -1.
    10030    2    1    2    0    0  0.00000000000E+00  0.00000000000E+00  0.68586409419E+03  0.21488964001E+04  0.20365034208E+04 0.  0.
        5    1    3    3  502    0 -0.28372866052E+03 -0.25902665310E+03 -0.65209384711E+03  0.75686540102E+03  0.46999998093E+01 0. -1.
       -5    1    3    3    0  502  0.28372866052E+03  0.25902665310E+03  0.13379579413E+04  0.13920309991E+04  0.46999998093E+01 0.  1.
</event>
<event>
 5   0  0.1324930E-04  0.1696617E+04  0.7818609E-02  0.8763296E-01
       -1   -1    0    0    0  501  0.00000000000E+00  0.00000000000E+00  0.10098053645E+04  0.10098053645E+04  0.50400001928E-02 0. -1.
        1   -1    0    0  501    0  0.00000000000E+00  0.00000000000E+00 -0.71263927943E+03  0.71263927945E+03  0.50400001928E-02 0.  1.
    10030    2    1    2    0    0  0.00000000000E+00  0.00000000000E+00  0.29716608508E+03  0.17224446440E+04  0.16966165947E+04 0.  0.
        5    1    3    3  502    0 -0.61518723734E+02 -0.13157192666E+03  0.99707477161E+03  0.10076090092E+04  0.46999998093E+01 0. -1.
       -5    1    3    3    0  502  0.61518723734E+02  0.13157192666E+03 -0.69990868653E+03  0.71483563477E+03  0.46999998093E+01 0.  1.
</event>
<event>
 5   0  0.1207228E-04  0.1981030E+04  0.7818609E-02  0.8615542E-01
        1   -1    0    0  501    0  0.00000000000E+00  0.00000000000E+00  0.12014842029E+04  0.12014842029E+04  0.50400001928E-02 0. -1.
       -1   -1    0    0    0  501  0.00000000000E+00  0.00000000000E+00 -0.81658961568E+03  0.81658961570E+03  0.50400001928E-02 0.  1.
    10030    2    1    2    0    0  0.00000000000E+00  0.00000000000E+00  0.38489458725E+03  0.20180738186E+04  0.19810295541E+04 0.  0.
        1    1    3    3  502    0 -0.69023672265E+02  0.59959961588E+03 -0.60762787848E+03  0.85644357983E+03  0.50400001928E-02 0.  1.
       -1    1    3    3    0  502  0.69023672265E+02 -0.59959961588E+03  0.99252246573E+03  0.11616302388E+04  0.50400001928E-02 0. -1.
</event>
<event>
 5   0  0.2463085E-04  0.2022708E+04  0.7818609E-02  0.8596077E-01
       -2   -1    0    0    0  501  0.00000000000E+00  0.00000000000E+00  0.60166702788E+03  0.60166702789E+03  0.25500000920E-02 0. -1.
        2   -1    0    0  501    0  0.00000000000E+00  0.00000000000E+00 -0.17000052854E+04  0.17000052854E+04  0.25500000920E-02 0.  1.
    10030    2    1    2    0    0  0.00000000000E+00  0.00000000000E+00 -0.10983382575E+04  0.23016723133E+04  0.20227082117E+04 0.  0.
        2    1    3    3  502    0  0.59037007686E+03 -0.60194287114E+03  0.86400663587E+02  0.84754771101E+03  0.25500000920E-02 0. -1.
       -2    1    3    3    0  502 -0.59037007686E+03  0.60194287114E+03 -0.11847389211E+04  0.14541246023E+04  0.25500000920E-02 0.  1.
</event>
<event>
 5   0  0.1207228E-04  0.2010492E+04  0.7818609E-02  0.8601731E-01
        1   -1    0    0  501    0  0.00000000000E+00  0.00000000000E+00  0.18154164561E+04  0.18154164561E+04  0.50400001928E-02 0. -1.
       -1   -1    0    0    0  501  0.00000000000E+00  0.00000000000E+00 -0.55663207827E+03  0.55663207829E+03  0.50400001928E-02 0.  1.
    10030    2    1    2    0    0  0.00000000000E+00  0.00000000000E+00  0.12587843779E+04  0.23720485344E+04  0.20104915170E+04 0.  0.
        1    1    3    3  502    0  0.38712826998E+02 -0.79259817224E+03 -0.98680326123E+02  0.79965514593E+03  0.50400001928E-02 0.  1.
       -1    1    3    3    0  502 -0.38712826998E+02  0.79259817224E+03  0.13574647040E+04  0.15723933885E+04  0.50400001928E-02 0. -1.
</event>
<event>
 5   0  0.2540506E-04  0.2001732E+04  0.7818609E-02  0.8605811E-01
        2   -1    0    0  501    0  0.00000000000E+00  0.00000000000E+00  0.76540607617E+03  0.76540607617E+03  0.25500000920E-02 0. -1.
       -2   -1    0    0    0  501  0.00000000000E+00  0.00000000000E+00 -0.13087596984E+04  0.13087596985E+04  0.25500000920E-02 0.  1.
    10030    2    1    2    0    0  0.00000000000E+00  0.00000000000E+00 -0.54335362228E+03  0.20741657746E+04  0.20017318756E+04 0.  0.
        4    1    3    3  502    0 -0.64322211033E+03 -0.60178349977E+03 -0.76411354414E+03  0.11660828380E+04  0.12699999809E+01 0. -1.
       -4    1    3    3    0  502  0.64322211033E+03  0.60178349977E+03  0.22075992186E+03  0.90808293664E+03  0.12699999809E+01 0.  1.
</event>
<event>
 5   0  0.2421737E-04  0.1957849E+04  0.7818609E-02  0.8626585E-01
       -2   -1    0    0    0  501  0.00000000000E+00  0.00000000000E+00  0.15703790661E+04  0.15703790661E+04  0.25500000920E-02 0. -1.
        2   -1    0    0  501    0  0.00000000000E+00  0.00000000000E+00 -0.61023024623E+03  0.61023024624E+03  0.25500000920E-02 0.  1.
    10030    2    1    2    0    0  0.00000000000E+00  0.00000000000E+00  0.96014881987E+03  0.21806093123E+04  0.19578486195E+04 0.  0.
        1    1    3    3  502    0  0.43351080057E+03  0.11285286725E+03 -0.48937694554E+03  0.66344342540E+03  0.50400001928E-02 0.  1.
       -1    1    3    3    0  502 -0.43351080057E+03 -0.11285286725E+03  0.14495257654E+04  0.15171658869E+04  0.50400001928E-02 0. -1.
</event>
<event>
 5   0  0.2596061E-04  0.2006743E+04  0.7818609E-02  0.8603475E-01
       -2   -1    0    0    0  501  0.00000000000E+00  0.00000000000E+00  0.53386979379E+03  0.53386979379E+03  0.25500000920E-02 0.  1.
        2   -1    0    0  501    0  0.00000000000E+00  0.00000000000E+00 -0.18857672370E+04  0.18857672370E+04  0.25500000920E-02 0. -1.
    10030    2    1    2    0    0  0.00000000000E+00  0.00000000000E+00 -0.13518974432E+04  0.24196370308E+04  0.20067427996E+04 0.  0.
        5    1    3    3  502    0 -0.54078394452E+02 -0.15624688017E+03  0.51731748890E+03  0.54311788281E+03  0.46999998093E+01 0.  1.
       -5    1    3    3    0  502  0.54078394452E+02  0.15624688017E+03 -0.18692149321E+04  0.18765191480E+04  0.46999998093E+01 0. -1.
</event>
<event>
 5   0  0.1207228E-04  0.1991117E+04  0.7818609E-02  0.8610785E-01
       -1   -1    0    0    0  501  0.00000000000E+00  0.00000000000E+00  0.46452447964E+03  0.46452447966E+03  0.50400001928E-02 0. -1.
        1   -1    0    0  501    0  0.00000000000E+00  0.00000000000E+00 -0.21336597816E+04  0.21336597816E+04  0.50400001928E-02 0.  1.
    10030    2    1    2    0    0  0.00000000000E+00  0.00000000000E+00 -0.16691353019E+04  0.25981842612E+04  0.19911174750E+04 0.  0.
        1    1    3    3  502    0  0.39272604005E+03 -0.89449715077E+03 -0.10848146717E+04  0.14598567626E+04  0.50400001928E-02 0.  1.
       -1    1    3    3    0  502 -0.39272604005E+03  0.89449715077E+03 -0.58432063026E+03  0.11383274987E+04  0.50400001928E-02 0. -1.
</event>
<event>
 5   0  0.9099125E-05  0.2197460E+04  0.7818609E-02  0.8519486E-01
        3   -1    0    0  501    0  0.00000000000E+00  0.00000000000E+00  0.61078530650E+03  0.61078531486E+03  0.10100000352E+00 0.  1.
       -3   -1    0    0    0  501  0.00000000000E+00  0.00000000000E+00 -0.19764834912E+04  0.19764834938E+04  0.10100000352E+00 0. -1.
    10030    2    1    2    0    0  0.00000000000E+00  0.00000000000E+00 -0.13656981847E+04  0.25872688087E+04  0.21974595233E+04 0.  0.
        4    1    3    3  502    0 -0.38803782971E+03 -0.39214756795E+03  0.43589060269E+03  0.70310404831E+03  0.12699999809E+01 0.  1.
       -4    1    3    3    0  502  0.38803782971E+03  0.39214756795E+03 -0.18015887874E+04  0.18841647604E+04  0.12699999809E+01 0. -1.
</event>
<event>
 5   0  0.2540506E-04  0.2098823E+04  0.7818609E-02  0.8561762E-01
        2   -1    0    0  501    0  0.00000000000E+00  0.00000000000E+00  0.21696316048E+04  0.21696316048E+04  0.25500000920E-02 0.  1.
       -2   -1    0    0    0  501  0.00000000000E+00  0.00000000000E+00 -0.50758131847E+03  0.50758131847E+03  0.25500000920E-02 0. -1.
    10030    2    1    2    0    0  0.00000000000E+00  0.00000000000E+00  0.16620502863E+04  0.26772129232E+04  0.20988229754E+04 0.  0.
        4    1    3    3  502    0  0.93887465108E+03 -0.14291324391E+03  0.14005576897E+04  0.16921800321E+04  0.12699999809E+01 0.  1.
       -4    1    3    3    0  502 -0.93887465108E+03  0.14291324391E+03  0.26149259655E+03  0.98503289117E+03  0.12699999809E+01 0. -1.
</event>
<event>
 5   0  0.1258546E-04  0.2039439E+04  0.7818609E-02  0.8588400E-01
       -1   -1    0    0    0  501  0.00000000000E+00  0.00000000000E+00  0.55591356443E+03  0.55591356445E+03  0.50400001928E-02 0. -1.
        1   -1    0    0  501    0  0.00000000000E+00  0.00000000000E+00 -0.18704849208E+04  0.18704849208E+04  0.50400001928E-02 0.  1.
    10030    2    1    2    0    0  0.00000000000E+00  0.00000000000E+00 -0.13145713564E+04  0.24263984852E+04  0.20394390793E+04 0.  0.
        4    1    3    3  502    0  0.30036946467E+03  0.61152808958E+03 -0.15599495944E+04  0.17022434519E+04  0.12699999809E+01 0.  1.
       -4    1    3    3    0  502 -0.30036946467E+03 -0.61152808958E+03  0.24537823805E+03  0.72415503331E+03  0.12699999809E+01 0. -1.
</event>
<event>
 5   0  0.2540506E-04  0.2011226E+04  0.7818609E-02  0.8601390E-01
       -2   -1    0    0    0  501  0.00000000000E+00  0.00000000000E+00  0.71026299057E+03  0.71026299058E+03  0.25500000920E-02 0. -1.
        2   -1    0    0  501    0  0.00000000000E+00  0.00000000000E+00 -0.14237794239E+04  0.14237794239E+04  0.25500000920E-02 0.  1.
    10030    2    1    2    0    0  0.00000000000E+00  0.00000000000E+00 -0.71351643334E+03  0.21340424145E+04  0.20112263240E+04 0.  0.
        4    1    3    3  502    0 -0.76384772873E+01 -0.88798943028E+03  0.14393941274E+03  0.89961310687E+03  0.12699999809E+01 0. -1.
       -4    1    3    3    0  502  0.76384772873E+01  0.88798943028E+03 -0.85745584608E+03  0.12344293076E+04  0.12699999809E+01 0.  1.
</event>
<event>
 5   0  0.1210633E-04  0.1858030E+04  0.7818609E-02  0.8676034E-01
       -1   -1    0    0    0  501  0.00000000000E+00  0.00000000000E+00  0.13648360608E+04  0.13648360608E+04  0.50400001928E-02 0. -1.
        1   -1    0    0  501    0  0.00000000000E+00  0.00000000000E+00 -0.63236098673E+03  0.63236098675E+03  0.50400001928E-02 0.  1.
    10030    2    1    2    0    0  0.00000000000E+00  0.00000000000E+00  0.73247507407E+03  0.19971970476E+04  0.18580302238E+04 0.  0.
        2    1    3    3  502    0 -0.69774266561E+03  0.41646247967E+03  0.85028080548E+03  0.11761221334E+04  0.25500000920E-02 0.  1.
       -2    1    3    3    0  502  0.69774266561E+03 -0.41646247967E+03 -0.11780573141E+03  0.82107491421E+03  0.25500000920E-02 0. -1.
</event>
<event>
 5   0  0.2421737E-04  0.2051338E+04  0.7818609E-02  0.8582987E-01
       -2   -1    0    0    0  501  0.00000000000E+00  0.00000000000E+00  0.56949915940E+03  0.56949915941E+03  0.25500000920E-02 0.  1.
        2   -1    0    0  501    0  0.00000000000E+00  0.00000000000E+00 -0.18472321541E+04  0.18472321541E+04  0.25500000920E-02 0. -1.
    10030    2    1    2    0    0  0.00000000000E+00  0.00000000000E+00 -0.12777329947E+04  0.24167313135E+04  0.20513382549E+04 0.  0.
        1    1    3    3  502    0 -0.35088614006E+02 -0.34433454983E+03  0.49861819687E+03  0.60697413398E+03  0.50400001928E-02 0.  1.
       -1    1    3    3    0  502  0.35088614006E+02  0.34433454983E+03 -0.17763511915E+04  0.18097571795E+04  0.50400001928E-02 0. -1.
</event>
<event>
 5   0  0.1207228E-04  0.2192240E+04  0.7818609E-02  0.8521665E-01
        1   -1    0    0  501    0  0.00000000000E+00  0.00000000000E+00  0.13083157351E+04  0.13083157351E+04  0.50400001928E-02 0. -1.
       -1   -1    0    0    0  501  0.00000000000E+00  0.00000000000E+00 -0.91834029361E+03  0.91834029363E+03  0.50400001928E-02 0.  1.
    10030    2    1    2    0    0  0.00000000000E+00  0.00000000000E+00  0.38997544151E+03  0.22266560288E+04  0.21922400018E+04 0.  0.
        1    1    3    3  502    0 -0.27879582637E+02  0.96714989567E+03 -0.32819377309E+03  0.10216982649E+04  0.50400001928E-02 0.  1.
       -1    1    3    3    0  502  0.27879582637E+02 -0.96714989567E+03  0.71816921460E+03  0.12049577638E+04  0.50400001928E-02 0. -1.
</event>
<event>
 5   0  0.1207228E-04  0.1900903E+04  0.7818609E-02  0.8654407E-01
        1   -1    0    0  501    0  0.00000000000E+00  0.00000000000E+00  0.79007257664E+03  0.79007257665E+03  0.50400001928E-02 0. -1.
       -1   -1    0    0    0  501  0.00000000000E+00  0.00000000000E+00 -0.11433857121E+04  0.11433857121E+04  0.50400001928E-02 0.  1.
    10030    2    1    2    0    0  0.00000000000E+00  0.00000000000E+00 -0.35331313547E+03  0.19334582888E+04  0.19009026232E+04 0.  0.
        1    1    3    3  502    0 -0.15015087503E+03 -0.18308136574E+03  0.75959359553E+03  0.79564219480E+03  0.50400001928E-02 0. -1.
       -1    1    3    3    0  502  0.15015087503E+03  0.18308136574E+03 -0.11129067310E+04  0.11378160940E+04  0.50400001928E-02 0.  1.
</event>
<event>
 5   0  0.1231056E-04  0.1976073E+04  0.7818609E-02  0.8617890E-01
        1   -1    0    0  501    0  0.00000000000E+00  0.00000000000E+00  0.12373578273E+04  0.12373578273E+04  0.50400001928E-02 0.  1.
       -1   -1    0    0    0  501  0.00000000000E+00  0.00000000000E+00 -0.78895224729E+03  0.78895224731E+03  0.50400001928E-02 0. -1.
    10030    2    1    2    0    0  0.00000000000E+00  0.00000000000E+00  0.44840557998E+03  0.20263100746E+04  0.19760731146E+04 0.  0.
        3    1    3    3  502    0 -0.26330534892E+03 -0.61514611887E+03 -0.52124614975E+03  0.84819338194E+03  0.10100000352E+00 0. -1.
       -3    1    3    3    0  502  0.26330534892E+03  0.61514611887E+03  0.96965172973E+03  0.11781166927E+04  0.10100000352E+00 0.  1.
</event>
<event>
 5   0  0.2488886E-04  0.1977804E+04  0.7818609E-02  0.8617069E-01
       -2   -1    0    0    0  501  0.00000000000E+00  0.00000000000E+00  0.87207457689E+03  0.87207457690E+03  0.25500000920E-02 0. -1.
        2   -1    0    0  501    0  0.00000000000E+00  0.00000000000E+00 -0.11213804452E+04  0.11213804452E+04  0.25500000920E-02 0.  1.
    10030    2    1    2    0    0  0.00000000000E+00  0.00000000000E+00 -0.24930586828E+03  0.19934550221E+04  0.19778042140E+04 0.  0.
        3    1    3    3  502    0  0.20830302389E+03  0.75577366571E+03  0.48289671077E+03  0.92074601656E+03  0.10100000352E+00 0. -1.
       -3    1    3    3    0  502 -0.20830302389E+03 -0.75577366571E+03 -0.73220257905E+03  0.10727090055E+04  0.10100000352E+00 0.  1.
</event>
<event>
 5   0  0.2463085E-04  0.2075430E+04  0.7818609E-02  0.8572144E-01
       -2   -1    0    0    0  501  0.00000000000E+00  0.00000000000E+00  0.58275385940E+03  0.58275385940E+03  0.25500000920E-02 0.  1.
        2   -1    0    0  501    0  0.00000000000E+00  0.00000000000E+00 -0.18478692093E+04  0.18478692093E+04  0.25500000920E-02 0. -1.
    10030    2    1    2    0    0  0.00000000000E+00  0.00000000000E+00 -0.12651153499E+04  0.24306230687E+04  0.20754304743E+04 0.  0.
        2    1    3    3  502    0 -0.36760265240E+03 -0.67629843610E+03 -0.14476096891E+04  0.16395380742E+04  0.25500000920E-02 0. -1.
       -2    1    3    3    0  502  0.36760265240E+03  0.67629843610E+03  0.18249433918E+03  0.79108499453E+03  0.25500000920E-02 0.  1.
</event>
<event>
 5   0  0.1210633E-04  0.1919004E+04  0.7818609E-02  0.8645454E-01
       -1   -1    0    0    0  501  0.00000000000E+00  0.00000000000E+00  0.19330641461E+04  0.19330641461E+04  0.50400001928E-02 0. -1.
        1   -1    0    0  501    0  0.00000000000E+00  0.00000000000E+00 -0.47626141924E+03  0.47626141927E+03  0.50400001928E-02 0.  1.
    10030    2    1    2    0    0  0.00000000000E+00  0.00000000000E+00  0.14568027269E+04  0.24093255654E+04  0.19190037767E+04 0.  0.
        2    1    3    3  502    0  0.50714441166E+03  0.50087848091E+03 -0.78031176654E+02  0.71705200052E+03  0.25500000920E-02 0.  1.
       -2    1    3    3    0  502 -0.50714441166E+03 -0.50087848091E+03  0.15348339035E+04  0.16922735649E+04  0.25500000920E-02 0. -1.
</event>
<event>
 5   0  0.2540506E-04  0.1998037E+04  0.7818609E-02  0.8607539E-01
       -2   -1    0    0    0  501  0.00000000000E+00  0.00000000000E+00  0.44277830157E+03  0.44277830158E+03  0.25500000920E-02 0. -1.
        2   -1    0    0  501    0  0.00000000000E+00  0.00000000000E+00 -0.22540356798E+04  0.22540356798E+04  0.25500000920E-02 0.  1.
    10030    2    1    2    0    0  0.00000000000E+00  0.00000000000E+00 -0.18112573782E+04  0.26968139814E+04  0.19980371268E+04 0.  0.
        4    1    3    3  502    0 -0.70013026653E+03 -0.27235168073E+03 -0.16772587745E+02  0.75142581850E+03  0.12699999809E+01 0. -1.
       -4    1    3    3    0  502  0.70013026653E+03  0.27235168073E+03 -0.17944847905E+04  0.19453881629E+04  0.12699999809E+01 0.  1.
</event>
<event>
 5   0  0.2596061E-04  0.1996503E+04  0.7818609E-02  0.8608257E-01
        2   -1    0    0  501    0  0.00000000000E+00  0.00000000000E+00  0.15294905979E+04  0.15294905979E+04  0.25500000920E-02 0.  1.
       -2   -1    0    0    0  501  0.00000000000E+00  0.00000000000E+00 -0.65152839466E+03  0.65152839467E+03  0.25500000920E-02 0. -1.
    10030    2    1    2    0    0  0.00000000000E+00  0.00000000000E+00  0.87796220320E+03  0.21810189925E+04  0.19965034975E+04 0.  0.
        5    1    3    3  502    0 -0.21717446541E+03 -0.79786416136E+03 -0.17192698977E+03  0.84459040263E+03  0.46999998093E+01 0. -1.
       -5    1    3    3    0  502  0.21717446541E+03  0.79786416136E+03  0.10498891930E+04  0.13364285899E+04  0.46999998093E+01 0.  1.
</event>
<event>
 5   0  0.1258546E-04  0.1902030E+04  0.7818609E-02  0.8653847E-01
       -1   -1    0    0    0  501  0.00000000000E+00  0.00000000000E+00  0.60095298996E+03  0.60095298998E+03  0.50400001928E-02 0.  1.
        1   -1    0    0  501    0  0.00000000000E+00  0.00000000000E+00 -0.15049914777E+04  0.15049914777E+04  0.50400001928E-02 0. -1.
    10030    2    1    2    0    0  0.00000000000E+00  0.00000000000E+00 -0.90403848776E+03  0.21059444677E+04  0.19020295775E+04 0.  0.
        4    1    3    3  502    0  0.21975460429E+03 -0.90596694144E+03 -0.66021969450E+03  0.11423483895E+04  0.12699999809E+01 0. -1.
       -4    1    3    3    0  502 -0.21975460429E+03  0.90596694144E+03 -0.24381879326E+03  0.96359607821E+03  0.12699999809E+01 0.  1.
</event>
<event>
 5   0  0.2421737E-04  0.1990830E+04  0.7818609E-02  0.8610920E-01
        2   -1    0    0  501    0  0.00000000000E+00  0.00000000000E+00  0.15038291496E+04  0.15038291496E+04  0.25500000920E-02 0. -1.
       -2   -1    0    0    0  501  0.00000000000E+00  0.00000000000E+00 -0.65888506092E+03  0.65888506093E+03  0.25500000920E-02 0.  1.
    10030    2    1    2    0    0  0.00000000000E+00  0.00000000000E+00  0.84494408866E+03  0.21627142105E+04  0.19908295365E+04 0.  0.
        1    1    3    3  502    0  0.53026197593E+01  0.73926789155E+03  0.11465842495E+04  0.13642582506E+04  0.50400001928E-02 0. -1.
       -1    1    3    3    0  502 -0.53026197593E+01 -0.73926789155E+03 -0.30164016081E+03  0.79845595989E+03  0.50400001928E-02 0.  1.
</event>
<event>
 5   0  0.1207228E-04  0.2001963E+04  0.7818609E-02  0.8605704E-01
       -1   -1    0    0    0  501  0.00000000000E+00  0.00000000000E+00  0.94942723690E+03  0.94942723691E+03  0.50400001928E-02 0. -1.
        1   -1    0    0  501    0  0.00000000000E+00  0.00000000000E+00 -0.10553347611E+04  0.10553347611E+04  0.50400001928E-02 0.  1.
    10030    2    1    2    0    0  0.00000000000E+00  0.00000000000E+00 -0.10590752424E+03  0.20047619981E+04  0.20019626033E+04 0.  0.
        1    1    3    3  502    0 -0.55715877508E+03 -0.22764502946E+03  0.74798675836E+03  0.96006893023E+03  0.50400001928E-02 0. -1.
       -1    1    3    3    0  502  0.55715877508E+03  0.22764502946E+03 -0.85389428260E+03  0.10446930678E+04  0.50400001928E-02 0.  1.
</event>
<event>
 5   0  0.2421737E-04  0.2064021E+04  0.7818609E-02  0.8577260E-01
        2   -1    0    0  501    0  0.00000000000E+00  0.00000000000E+00  0.12588701447E+04  0.12588701447E+04  0.25500000920E-02 0.  1.
       -2   -1    0    0    0  501  0.00000000000E+00  0.00000000000E+00 -0.84603304438E+03  0.84603304439E+03  0.25500000920E-02 0. -1.
    10030    2    1    2    0    0  0.00000000000E+00  0.00000000000E+00  0.41283710035E+03  0.21049031891E+04  0.20640210668E+04 0.  0.
        1    1    3    3  502    0  0.54614643426E+03 -0.74409298496E+03 -0.26434744160E+03  0.96011971536E+03  0.50400001928E-02 0. -1.
       -1    1    3    3    0  502 -0.54614643426E+03  0.74409298496E+03  0.67718454195E+03  0.11447834738E+04  0.50400001928E-02 0.  1.
</event>
<event>
 5   0  0.1258546E-04  0.1453031E+04  0.7818609E-02  0.8916302E-01
       -1   -1    0    0    0  501  0.00000000000E+00  0.00000000000E+00  0.54335289937E+03  0.54335289940E+03  0.50400001928E-02 0.  1.
        1   -1    0    0  501    0  0.00000000000E+00  0.00000000000E+00 -0.97142198141E+03  0.97142198143E+03  0.50400001928E-02 0. -1.
    10030    2    1    2    0    0  0.00000000000E+00  0.00000000000E+00 -0.42806908204E+03  0.15147748808E+04  0.14530312456E+04 0.  0.
        4    1    3    3  502    0  0.12635494382E+03 -0.70897011755E+03 -0.31413090352E+03  0.78567425620E+03  0.12699999809E+01 0. -1.
       -4    1    3    3    0  502 -0.12635494382E+03  0.70897011755E+03 -0.11393817851E+03  0.72910062462E+03  0.12699999809E+01 0.  1.
</event>
<event>
 5   0  0.2463085E-04  0.2000161E+04  0.7818609E-02  0.8606545E-01
        2   -1    0    0  501    0  0.00000000000E+00  0.00000000000E+00  0.10984560974E+04  0.10984560974E+04  0.25500000920E-02 0.  1.
       -2   -1    0    0    0  501  0.00000000000E+00  0.00000000000E+00 -0.91051555097E+03  0.91051555097E+03  0.25500000920E-02 0. -1.
    10030    2    1    2    0    0  0.00000000000E+00  0.00000000000E+00  0.18794054646E+03  0.20089716484E+04  0.20001613523E+04 0.  0.
        2    1    3    3  502    0 -0.62927509911E+03 -0.53699236958E+03  0.65841842501E+03  0.10572902997E+04  0.25500000920E-02 0.  1.
       -2    1    3    3    0  502  0.62927509911E+03  0.53699236958E+03 -0.47047787855E+03  0.95168134875E+03  0.25500000920E-02 0. -1.
</event>
<event>
 5   0  0.2463085E-04  0.1773674E+04  0.7818609E-02  0.8720426E-01
       -2   -1    0    0    0  501  0.00000000000E+00  0.00000000000E+00  0.51429295787E+03  0.51429295788E+03  0.25500000920E-02 0.  1.
        2   -1    0    0  501    0  0.00000000000E+00  0.00000000000E+00 -0.15292450670E+04  0.15292450671E+04  0.25500000920E-02 0. -1.
    10030    2    1    2    0    0  0.00000000000E+00  0.00000000000E+00 -0.10149521092E+04  0.20435380249E+04  0.17736741176E+04 0.  0.
        2    1    3    3  502    0 -0.12026309913E+03 -0.18998633937E+03 -0.14958579279E+04  0.15126628714E+04  0.25500000920E-02 0. -1.
       -2    1    3    3    0  502  0.12026309913E+03  0.18998633937E+03  0.48090581870E+03  0.53087515352E+03  0.25500000920E-02 0.  1.
</event>
<event>
 5   0  0.1258546E-04  0.2005455E+04  0.7818609E-02  0.8604074E-01
       -1   -1    0    0    0  501  0.00000000000E+00  0.00000000000E+00  0.11956588434E+04  0.11956588434E+04  0.50400001928E-02 0.  1.
        1   -1    0    0  501    0  0.00000000000E+00  0.00000000000E+00 -0.84092774704E+03  0.84092774706E+03  0.50400001928E-02 0. -1.
    10030    2    1    2    0    0  0.00000000000E+00  0.00000000000E+00  0.35473109631E+03  0.20365865904E+04  0.20054552574E+04 0.  0.
        4    1    3    3  502    0  0.35590416666E+03  0.85895827192E+03  0.55867257649E+03  0.10847090621E+04  0.12699999809E+01 0.  1.
       -4    1    3    3    0  502 -0.35590416666E+03 -0.85895827192E+03 -0.20394148017E+03  0.95187752835E+03  0.12699999809E+01 0. -1.
</event>
<event>
 5   0  0.1324930E-04  0.2090642E+04  0.7818609E-02  0.8565377E-01
        1   -1    0    0  501    0  0.00000000000E+00  0.00000000000E+00  0.78319487690E+03  0.78319487692E+03  0.50400001928E-02 0. -1.
       -1   -1    0    0    0  501  0.00000000000E+00  0.00000000000E+00 -0.13951769997E+04  0.13951769997E+04  0.50400001928E-02 0.  1.
    10030    2    1    2    0    0  0.00000000000E+00  0.00000000000E+00 -0.61198212281E+03  0.21783718766E+04  0.20906415078E+04 0.  0.
        5    1    3    3  502    0  0.45024515367E+02  0.35624609245E+03 -0.13288865114E+04  0.13765536443E+04  0.46999998093E+01 0.  1.
       -5    1    3    3    0  502 -0.45024515367E+02 -0.35624609245E+03  0.71690438859E+03  0.80181823236E+03  0.46999998093E+01 0. -1.
</event>
<event>
 5   0  0.1210633E-04  0.1994812E+04  0.7818609E-02  0.8609050E-01
       -1   -1    0    0    0  501  0.00000000000E+00  0.00000000000E+00  0.61479231053E+03  0.61479231055E+03  0.50400001928E-02 0.  1.
        1   -1    0    0  501    0  0.00000000000E+00  0.00000000000E+00 -0.16181378568E+04  0.16181378569E+04  0.50400001928E-02 0. -1.
    10030    2    1    2    0    0  0.00000000000E+00  0.00000000000E+00 -0.10033455463E+04  0.22329301674E+04  0.19948119829E+04 0.  0.
        2    1    3    3  502    0  0.47460825977E+03 -0.79280513160E+03 -0.81311829301E+02  0.92757996449E+03  0.25500000920E-02 0.  1.
       -2    1    3    3    0  502 -0.47460825977E+03  0.79280513160E+03 -0.92203371702E+03  0.13053502029E+04  0.25500000920E-02 0. -1.
</event>
<event>
 5   0  0.2488886E-04  0.1975842E+04  0.7818609E-02  0.8617999E-01
       -2   -1    0    0    0  501  0.00000000000E+00  0.00000000000E+00  0.68875172315E+03  0.68875172315E+03  0.25500000920E-02 0. -1.
        2   -1    0    0  501    0  0.00000000000E+00  0.00000000000E+00 -0.14170394778E+04  0.14170394778E+04  0.25500000920E-02 0.  1.
    10030    2    1    2    0    0  0.00000000000E+00  0.00000000000E+00 -0.72828775463E+03  0.21057912009E+04  0.19758424857E+04 0.  0.
        3    1    3    3  502    0  0.20114987680E+03 -0.87874938790E+03 -0.79486033248E+03  0.12018588594E+04  0.10100000352E+00 0.  1.
       -3    1    3    3    0  502 -0.20114987680E+03  0.87874938790E+03  0.66572577848E+02  0.90393234149E+03  0.10100000352E+00 0. -1.
</event>
<event>
 5   0  0.1210633E-04  0.1940093E+04  0.7818609E-02  0.8635153E-01
       -1   -1    0    0    0  501  0.00000000000E+00  0.00000000000E+00  0.94213345254E+03  0.94213345255E+03  0.50400001928E-02 0. -1.
        1   -1    0    0  501    0  0.00000000000E+00  0.00000000000E+00 -0.99878658736E+03  0.99878658737E+03  0.50400001928E-02 0.  1.
    10030    2    1    2    0    0  0.00000000000E+00  0.00000000000E+00 -0.56653134825E+02  0.19409200399E+04  0.19400930451E+04 0.  0.
        2    1    3    3  502    0 -0.77324459012E+03 -0.27769627567E+03 -0.54426709927E+03  0.98551970707E+03  0.25500000920E-02 0.  1.
       -2    1    3    3    0  502  0.77324459012E+03  0.27769627567E+03  0.48761396445E+03  0.95540033285E+03  0.25500000920E-02 0. -1.
</event>
<event>
 5   0  0.1207228E-04  0.1527031E+04  0.7818609E-02  0.8866674E-01
        1   -1    0    0  501    0  0.00000000000E+00  0.00000000000E+00  0.91328462772E+03  0.91328462773E+03  0.50400001928E-02 0.  1.
       -1   -1    0    0    0  501  0.00000000000E+00  0.00000000000E+00 -0.63830692732E+03  0.63830692734E+03  0.50400001928E-02 0. -1.
    10030    2    1    2    0    0  0.00000000000E+00  0.00000000000E+00  0.27497770040E+03  0.15515915551E+04  0.15270309814E+04 0.  0.
        1    1    3    3  502    0 -0.14263229796E+03  0.46861546403E+03 -0.45760283992E+03  0.67033184668E+03  0.50400001928E-02 0. -1.
       -1    1    3    3    0  502  0.14263229796E+03 -0.46861546403E+03  0.73258054032E+03  0.88125970839E+03  0.50400001928E-02 0.  1.
</event>
<event>
 5   0  0.2421737E-04  0.1960745E+04  0.7818609E-02  0.8625197E-01
        2   -1    0    0  501    0  0.00000000000E+00  0.00000000000E+00  0.93925509671E+03  0.93925509672E+03  0.25500000920E-02 0. -1.
       -2   -1    0    0    0  501  0.00000000000E+00  0.00000000000E+00 -0.10232896824E+04  0.10232896824E+04  0.25500000920E-02 0.  1.
    10030    2    1    2    0    0  0.00000000000E+00  0.00000000000E+00 -0.84034585702E+02  0.19625447791E+04  0.19607448071E+04 0.  0.
        1    1    3    3  502    0  0.19756410779E+03  0.28175680291E+03 -0.96085324813E+03  0.10206162046E+04  0.50400001928E-02 0.  1.
       -1    1    3    3    0  502 -0.19756410779E+03 -0.28175680291E+03  0.87681866243E+03  0.94192857451E+03  0.50400001928E-02 0. -1.
</event>
<event>
 5   0  0.1324930E-04  0.2051604E+04  0.7818609E-02  0.8582867E-01
       -1   -1    0    0    0  501  0.00000000000E+00  0.00000000000E+00  0.86936819385E+03  0.86936819386E+03  0.50400001928E-02 0.  1.
        1   -1    0    0  501    0  0.00000000000E+00  0.00000000000E+00 -0.12103849650E+04  0.12103849650E+04  0.50400001928E-02 0. -1.
    10030    2    1    2    0    0  0.00000000000E+00  0.00000000000E+00 -0.34101677117E+03  0.20797531589E+04  0.20516044365E+04 0.  0.
        5    1    3    3  502    0  0.22097901747E+03  0.90179653149E+03  0.27157061806E+03  0.96738896053E+03  0.46999998093E+01 0.  1.
       -5    1    3    3    0  502 -0.22097901747E+03 -0.90179653149E+03 -0.61258738923E+03  0.11123641984E+04  0.46999998093E+01 0. -1.
</event>
<event>
 5   0  0.1324930E-04  0.1259443E+04  0.7818609E-02  0.9062360E-01
       -1   -1    0    0    0  501  0.00000000000E+00  0.00000000000E+00  0.12970307364E+04  0.12970307365E+04  0.50400001928E-02 0. -1.
        1   -1    0    0  501    0  0.00000000000E+00  0.00000000000E+00 -0.30573626526E+03  0.30573626530E+03  0.50400001928E-02 0.  1.
    10030    2    1    2    0    0  0.00000000000E+00  0.00000000000E+00  0.99129447119E+03  0.16027670018E+04  0.12594432632E+04 0.  0.
        5    1    3    3  502    0  0.40923097336E+03 -0.33933819645E+03  0.66143751754E+02  0.53574013012E+03  0.46999998093E+01 0.  1.
       -5    1    3    3    0  502 -0.40923097336E+03  0.33933819645E+03  0.92515071944E+03  0.10670268716E+04  0.46999998093E+01 0. -1.
</event>
<event>
 5   0  0.2463085E-04  0.1960571E+04  0.7818609E-02  0.8625280E-01
        2   -1    0    0  501    0  0.00000000000E+00  0.00000000000E+00  0.15702333353E+04  0.15702333353E+04  0.25500000920E-02 0. -1.
       -2   -1    0    0    0  501  0.00000000000E+00  0.00000000000E+00 -0.61198545399E+03  0.61198545399E+03  0.25500000920E-02 0.  1.
    10030    2    1    2    0    0  0.00000000000E+00  0.00000000000E+00  0.95824788127E+03  0.21822187892E+04  0.19605713051E+04 0.  0.
        2    1    3    3  502    0  0.85341240344E+03 -0.11576320153E+03 -0.42048687312E+02  0.86225398885E+03  0.25500000920E-02 0.  1.
       -2    1    3    3    0  502 -0.85341240344E+03  0.11576320153E+03  0.10002965686E+04  0.13199648004E+04  0.25500000920E-02 0. -1.
</event>
<event>
 5   0  0.2463085E-04  0.1790807E+04  0.7818609E-02  0.8711204E-01
        2   -1    0    0  501    0  0.00000000000E+00  0.00000000000E+00  0.17457255978E+04  0.17457255978E+04  0.25500000920E-02 0. -1.
       -2   -1    0    0    0  501  0.00000000000E+00  0.00000000000E+00 -0.45926307549E+03  0.45926307549E+03  0.25500000920E-02 0.  1.
    10030    2    1    2    0    0  0.00000000000E+00  0.00000000000E+00  0.12864625223E+04  0.22049886733E+04  0.17908068651E+04 0.  0.
        2    1    3    3  502    0 -0.35156436477E+03  0.28847027104E+03  0.15929440036E+04  0.16565878179E+04  0.25500000920E-02 0. -1.
       -2    1    3    3    0  502  0.35156436477E+03 -0.28847027104E+03 -0.30648148126E+03  0.54840085541E+03  0.25500000920E-02 0.  1.
</event>
<event>
 5   0  0.1231056E-04  0.1240136E+04  0.7818609E-02  0.9078433E-01
       -1   -1    0    0    0  501  0.00000000000E+00  0.00000000000E+00  0.49447217859E+03  0.49447217862E+03  0.50400001928E-02 0.  1.
        1   -1    0    0  501    0  0.00000000000E+00  0.00000000000E+00 -0.77756485985E+03  0.77756485986E+03  0.50400001928E-02 0. -1.
    10030    2    1    2    0    0  0.00000000000E+00  0.00000000000E+00 -0.28309268126E+03  0.12720370385E+04  0.12401357833E+04 0.  0.
        3    1    3    3  502    0  0.30099070280E+03  0.11280369042E+03  0.40234288459E+03  0.51497561371E+03  0.10100000352E+00 0.  1.
       -3    1    3    3    0  502 -0.30099070280E+03 -0.11280369042E+03 -0.68543556584E+03  0.75706142476E+03  0.10100000352E+00 0. -1.
</event>
<event>
 5   0  0.2596061E-04  0.1996700E+04  0.7818609E-02  0.8608165E-01
        2   -1    0    0  501    0  0.00000000000E+00  0.00000000000E+00  0.10135890072E+04  0.10135890072E+04  0.25500000920E-02 0. -1.
       -2   -1    0    0    0  501  0.00000000000E+00  0.00000000000E+00 -0.98333985720E+03  0.98333985721E+03  0.25500000920E-02 0.  1.
    10030    2    1    2    0    0  0.00000000000E+00  0.00000000000E+00  0.30249150025E+02  0.19969288644E+04  0.19966997467E+04 0.  0.
        5    1    3    3  502    0  0.90377244136E+03  0.19406357415E+03 -0.36203284941E+03  0.99275131358E+03  0.46999998093E+01 0. -1.
       -5    1    3    3    0  502 -0.90377244136E+03 -0.19406357415E+03  0.39228199944E+03  0.10041775509E+04  0.46999998093E+01 0.  1.
</event>
<event>
 5   0  0.1258546E-04  0.2060599E+04  0.7818609E-02  0.8578801E-01
       -1   -1    0    0    0  501  0.00000000000E+00  0.00000000000E+00  0.50620762306E+03  0.50620762308E+03  0.50400001928E-02 0.  1.
        1   -1    0    0  501    0  0.00000000000E+00  0.00000000000E+00 -0.20969991829E+04  0.20969991829E+04  0.50400001928E-02 0. -1.
    10030    2    1    2    0    0  0.00000000000E+00  0.00000000000E+00 -0.15907915599E+04  0.26032068060E+04  0.20605989149E+04 0.  0.
        4    1    3    3  502    0  0.26142414025E+02  0.88421115017E+03 -0.14626929916E+04  0.17093815211E+04  0.12699999809E+01 0. -1.
       -4    1    3    3    0  502 -0.26142414025E+02 -0.88421115017E+03 -0.12809856823E+03  0.89382528493E+03  0.12699999809E+01 0.  1.
</event>
<event>
 5   0  0.2463085E-04  0.2039195E+04  0.7818609E-02  0.8588512E-01
       -2   -1    0    0    0  501  0.00000000000E+00  0.00000000000E+00  0.86628718371E+03  0.86628718371E+03  0.25500000920E-02 0.  1.
        2   -1    0    0  501    0  0.00000000000E+00  0.00000000000E+00 -0.12000395569E+04  0.12000395569E+04  0.25500000920E-02 0. -1.
    10030    2    1    2    0    0  0.00000000000E+00  0.00000000000E+00 -0.33375237317E+03  0.20663267406E+04  0.20391948294E+04 0.  0.
        2    1    3    3  502    0 -0.55459498959E+02  0.22431643931E+03  0.83940540924E+03  0.87062911853E+03  0.25500000920E-02 0.  1.
       -2    1    3    3    0  502  0.55459498959E+02 -0.22431643931E+03 -0.11731577824E+04  0.11956976221E+04  0.25500000920E-02 0. -1.
</event>
<event>
 5   0  0.1231056E-04  0.1988736E+04  0.7818609E-02  0.8611905E-01
        1   -1    0    0  501    0  0.00000000000E+00  0.00000000000E+00  0.77322927680E+03  0.77322927682E+03  0.50400001928E-02 0. -1.
       -1   -1    0    0    0  501  0.00000000000E+00  0.00000000000E+00 -0.12787507786E+04  0.12787507786E+04  0.50400001928E-02 0.  1.
    10030    2    1    2    0    0  0.00000000000E+00  0.00000000000E+00 -0.50552150181E+03  0.20519800554E+04  0.19887358193E+04 0.  0.
        3    1    3    3  502    0 -0.52596566758E+02 -0.68622569315E+03 -0.99328602781E+03  0.12084242815E+04  0.10100000352E+00 0.  1.
       -3    1    3    3    0  502  0.52596566758E+02  0.68622569315E+03  0.48776452600E+03  0.84355577398E+03  0.10100000352E+00 0. -1.
</event>
<event>
 5   0  0.9099125E-05  0.1719124E+04  0.7818609E-02  0.8750532E-01
       -3   -1    0    0    0  501  0.00000000000E+00  0.00000000000E+00  0.48541747764E+03  0.48541748814E+03  0.10100000352E+00 0.  1.
        3   -1    0    0  501    0  0.00000000000E+00  0.00000000000E+00 -0.15220859173E+04  0.15220859207E+04  0.10100000352E+00 0. -1.
    10030    2    1    2    0    0  0.00000000000E+00  0.00000000000E+00 -0.10366684397E+04  0.20075034088E+04  0.17191243360E+04 0.  0.
        2    1    3    3  502    0 -0.29851634993E+03  0.13945265289E+03  0.40874862679E+03  0.52500904133E+03  0.25500000920E-02 0.  1.
       -2    1    3    3    0  502  0.29851634993E+03 -0.13945265289E+03 -0.14454170665E+04  0.14824943675E+04  0.25500000920E-02 0. -1.
</event>
<event>
 5   0  0.1210633E-04  0.1963220E+04  0.7818609E-02  0.8624012E-01
        1   -1    0    0  501    0  0.00000000000E+00  0.00000000000E+00  0.48504125755E+03  0.48504125757E+03  0.50400001928E-02 0.  1.
       -1   -1    0    0    0  501  0.00000000000E+00  0.00000000000E+00 -0.19865480646E+04  0.19865480646E+04  0.50400001928E-02 0. -1.
    10030    2    1    2    0    0  0.00000000000E+00  0.00000000000E+00 -0.15015068071E+04  0.24715893222E+04  0.19632195715E+04 0.  0.
        2    1    3    3  502    0  0.90237267075E+03 -0.18136307849E+03 -0.32125359801E+03  0.97487069779E+03  0.25500000920E-02 0.  1.
       -2    1    3    3    0  502 -0.90237267075E+03  0.18136307849E+03 -0.11802532091E+04  0.14967186244E+04  0.25500000920E-02 0. -1.
</event>
<event>
 5   0  0.1324930E-04  0.1995286E+04  0.7818609E-02  0.8608828E-01
        1   -1    0    0  501    0  0.00000000000E+00  0.00000000000E+00  0.13321831861E+04  0.13321831861E+04  0.50400001928E-02 0.  1.
       -1   -1    0    0    0  501  0.00000000000E+00  0.00000000000E+00 -0.74711323352E+03  0.74711323353E+03  0.50400001928E-02 0. -1.
    10030    2    1    2    0    0  0.00000000000E+00  0.00000000000E+00  0.58506995260E+03  0.20792964197E+04  0.19952861327E+04 0.  0.
        5    1    3    3  502    0  0.48017798215E+03 -0.86604504884E+03  0.41873152209E+03  0.10751572437E+04  0.46999998093E+01 0. -1.
       -5    1    3    3    0  502 -0.48017798215E+03  0.86604504884E+03  0.16633843052E+03  0.10041391759E+04  0.46999998093E+01 0.  1.
</event>
<event>
 5   0  0.2463085E-04  0.1999359E+04  0.7818609E-02  0.8606921E-01
        2   -1    0    0  501    0  0.00000000000E+00  0.00000000000E+00  0.99538397226E+03  0.99538397226E+03  0.25500000920E-02 0. -1.
       -2   -1    0    0    0  501  0.00000000000E+00  0.00000000000E+00 -0.10039932857E+04  0.10039932857E+04  0.25500000920E-02 0.  1.
    10030    2    1    2    0    0  0.00000000000E+00  0.00000000000E+00 -0.86093134526E+01  0.19993772580E+04  0.19993587220E+04 0.  0.
        2    1    3    3  502    0 -0.10389227029E+03 -0.98351440830E+03 -0.15012997682E+03  0.10003165524E+04  0.25500000920E-02 0.  1.
       -2    1    3    3    0  502  0.10389227029E+03  0.98351440830E+03  0.14152066337E+03  0.99906070552E+03  0.25500000920E-02 0. -1.
</event>
<event>
 5   0  0.2463085E-04  0.1988052E+04  0.7818609E-02  0.8612227E-01
        2   -1    0    0  501    0  0.00000000000E+00  0.00000000000E+00  0.10819850908E+04  0.10819850908E+04  0.25500000920E-02 0. -1.
       -2   -1    0    0    0  501  0.00000000000E+00  0.00000000000E+00 -0.91321760958E+03  0.91321760959E+03  0.25500000920E-02 0.  1.
    10030    2    1    2    0    0  0.00000000000E+00  0.00000000000E+00  0.16876748123E+03  0.19952027004E+04  0.19880521505E+04 0.  0.
        2    1    3    3  502    0 -0.36528769838E+03  0.65761217084E+03 -0.56772171748E+03  0.94244194427E+03  0.25500000920E-02 0. -1.
       -2    1    3    3    0  502  0.36528769838E+03 -0.65761217084E+03  0.73648919870E+03  0.10527607561E+04  0.25500000920E-02 0.  1.
</event>
<event>
 5   0  0.1210633E-04  0.1999958E+04  0.7818609E-02  0.8606640E-01
       -1   -1    0    0    0  501  0.00000000000E+00  0.00000000000E+00  0.87698760709E+03  0.87698760711E+03  0.50400001928E-02 0.  1.
        1   -1    0    0  501    0  0.00000000000E+00  0.00000000000E+00 -0.11402190911E+04  0.11402190911E+04  0.50400001928E-02 0. -1.
    10030    2    1    2    0    0  0.00000000000E+00  0.00000000000E+00 -0.26323148404E+03  0.20172066982E+04  0.19999580119E+04 0.  0.
        2    1    3    3  502    0 -0.14466618052E+03  0.84009747933E+03  0.39564115673E+03  0.93979998056E+03  0.25500000920E-02 0.  1.
       -2    1    3    3    0  502  0.14466618052E+03 -0.84009747933E+03 -0.65887264077E+03  0.10774067177E+04  0.25500000920E-02 0. -1.
</event>
<event>
 5   0  0.2540506E-04  0.1993231E+04  0.7818609E-02  0.8609792E-01
       -2   -1    0    0    0  501  0.00000000000E+00  0.00000000000E+00  0.64195523650E+03  0.64195523651E+03  0.25500000920E-02 0.  1.
        2   -1    0    0  501    0  0.00000000000E+00  0.00000000000E+00 -0.15472142760E+04  0.15472142760E+04  0.25500000920E-02 0. -1.
    10030    2    1    2    0    0  0.00000000000E+00  0.00000000000E+00 -0.90525903946E+03  0.21891695125E+04  0.19932308511E+04 0.  0.
        4    1    3    3  502    0  0.66272610797E+03  0.73717015119E+03 -0.33947259753E+03  0.10477924333E+04  0.12699999809E+01 0.  1.
       -4    1    3    3    0  502 -0.66272610797E+03 -0.73717015119E+03 -0.56578644192E+03  0.11413770791E+04  0.12699999809E+01 0. -1.
</event>
<event>
 5   0  0.9099125E-05  0.1953695E+04  0.7818609E-02  0.8628581E-01
        3   -1    0    0  501    0  0.00000000000E+00  0.00000000000E+00  0.50163492837E+03  0.50163493854E+03  0.10100000352E+00 0.  1.
       -3   -1    0    0    0  501  0.00000000000E+00  0.00000000000E+00 -0.19022422992E+04  0.19022423019E+04  0.10100000352E+00 0. -1.
    10030    2    1    2    0    0  0.00000000000E+00  0.00000000000E+00 -0.14006073708E+04  0.24038772404E+04  0.19536951604E+04 0.  0.
        1    1    3    3  502    0 -0.31232627983E+03  0.55509599114E+03  0.21100258564E+03  0.67097045808E+03  0.50400001928E-02 0. -1.
       -1    1    3    3    0  502  0.31232627983E+03 -0.55509599114E+03 -0.16116099565E+04  0.17329067823E+04  0.50400001928E-02 0.  1.
</event>
<event>
 5   0  0.9099125E-05  0.1826313E+04  0.7818609E-02  0.8692430E-01
        3   -1    0    0  501    0  0.00000000000E+00  0.00000000000E+00  0.87905153263E+03  0.87905153843E+03  0.10100000352E+00 0.  1.
       -3   -1    0    0    0  501  0.00000000000E+00  0.00000000000E+00 -0.94858476272E+03  0.94858476810E+03  0.10100000352E+00 0. -1.
    10030    2    1    2    0    0  0.00000000000E+00  0.00000000000E+00 -0.69533230090E+02  0.18276363065E+04  0.18263131163E+04 0.  0.
        2    1    3    3  502    0  0.80470410757E+03  0.36565457287E+03 -0.26428607627E+03  0.92255032249E+03  0.25500000920E-02 0. -1.
       -2    1    3    3    0  502 -0.80470410757E+03 -0.36565457287E+03  0.19475284618E+03  0.90508598404E+03  0.25500000920E-02 0.  1.
</event>
<event>
 5   0  0.1231056E-04  0.1974419E+04  0.7818609E-02  0.8618675E-01
        1   -1    0    0  501    0  0.00000000000E+00  0.00000000000E+00  0.76934073539E+03  0.76934073540E+03  0.50400001928E-02 0. -1.
       -1   -1    0    0    0  501  0.00000000000E+00  0.00000000000E+00 -0.12667762689E+04  0.12667762689E+04  0.50400001928E-02 0.  1.
    10030    2    1    2    0    0  0.00000000000E+00  0.00000000000E+00 -0.49743553350E+03  0.20361170043E+04  0.19744189893E+04 0.  0.
        3    1    3    3  502    0 -0.93890316167E+02  0.13400188493E+03  0.75526026610E+03  0.77278067807E+03  0.10100000352E+00 0. -1.
       -3    1    3    3    0  502  0.93890316167E+02 -0.13400188493E+03 -0.12526957996E+04  0.12633363262E+04  0.10100000352E+00 0.  1.
</event>
<event>
 5   0  0.2463085E-04  0.1984107E+04  0.7818609E-02  0.8614087E-01
        2   -1    0    0  501    0  0.00000000000E+00  0.00000000000E+00  0.97732551439E+03  0.97732551439E+03  0.25500000920E-02 0.  1.
       -2   -1    0    0    0  501  0.00000000000E+00  0.00000000000E+00 -0.10070038886E+04  0.10070038886E+04  0.25500000920E-02 0. -1.
    10030    2    1    2    0    0  0.00000000000E+00  0.00000000000E+00 -0.29678374200E+02  0.19843294030E+04  0.19841074501E+04 0.  0.
        2    1    3    3  502    0 -0.40306878271E+03 -0.36480629298E+03 -0.84476484222E+03  0.10045773806E+04  0.25500000920E-02 0. -1.
       -2    1    3    3    0  502  0.40306878271E+03  0.36480629298E+03  0.81508646802E+03  0.97975202237E+03  0.25500000920E-02 0.  1.
</event>
<event>
 5   0  0.1207228E-04  0.1997449E+04  0.7818609E-02  0.8607814E-01
        1   -1    0    0  501    0  0.00000000000E+00  0.00000000000E+00  0.12977129318E+04  0.12977129318E+04  0.50400001928E-02 0.  1.
       -1   -1    0    0    0  501  0.00000000000E+00  0.00000000000E+00 -0.76862183406E+03  0.76862183408E+03  0.50400001928E-02 0. -1.
    10030    2    1    2    0    0  0.00000000000E+00  0.00000000000E+00  0.52909109774E+03  0.20663347659E+04  0.19974488667E+04 0.  0.
        1    1    3    3  502    0 -0.37390524858E+03 -0.71427705980E+01 -0.69345545723E+03  0.78786840607E+03  0.50400001928E-02 0. -1.
       -1    1    3    3    0  502  0.37390524858E+03  0.71427705980E+01  0.12225465550E+04  0.12784663598E+04  0.50400001928E-02 0.  1.
</event>
<event>
 5   0  0.2463085E-04  0.1981623E+04  0.7818609E-02  0.8615261E-01
        2   -1    0    0  501    0  0.00000000000E+00  0.00000000000E+00  0.14431579128E+04  0.14431579128E+04  0.25500000920E-02 0.  1.
       -2   -1    0    0    0  501  0.00000000000E+00  0.00000000000E+00 -0.68024937539E+03  0.68024937539E+03  0.25500000920E-02 0. -1.
    10030    2    1    2    0    0  0.00000000000E+00  0.00000000000E+00  0.76290853742E+03  0.21234072882E+04  0.19816228388E+04 0.  0.
        2    1    3    3  502    0 -0.77605971868E+03  0.57469382364E+03  0.14385618358E+03  0.97633819931E+03  0.25500000920E-02 0. -1.
       -2    1    3    3    0  502  0.77605971868E+03 -0.57469382364E+03  0.61905235384E+03  0.11470690889E+04  0.25500000920E-02 0.  1.
</event>
<event>
 5   0  0.2463085E-04  0.1955294E+04  0.7818609E-02  0.8627812E-01
        2   -1    0    0  501    0  0.00000000000E+00  0.00000000000E+00  0.34190310810E+04  0.34190310810E+04  0.25500000920E-02 0. -1.
       -2   -1    0    0    0  501  0.00000000000E+00  0.00000000000E+00 -0.27955114938E+03  0.27955114939E+03  0.25500000920E-02 0.  1.
    10030    2    1    2    0    0  0.00000000000E+00  0.00000000000E+00  0.31394799316E+04  0.36985822303E+04  0.19552944213E+04 0.  0.
        2    1    3    3  502    0 -0.19419988906E+03  0.88556274594E+03  0.87767469009E+03  0.12618430313E+04  0.25500000920E-02 0.  1.
       -2    1    3    3    0  502  0.19419988906E+03 -0.88556274594E+03  0.22618052415E+04  0.24367391991E+04  0.25500000920E-02 0. -1.
</event>
<event>
 5   0  0.1231056E-04  0.1983217E+04  0.7818609E-02  0.8614508E-01
        1   -1    0    0  501    0  0.00000000000E+00  0.00000000000E+00  0.16027157366E+04  0.16027157366E+04  0.50400001928E-02 0.  1.
       -1   -1    0    0    0  501  0.00000000000E+00  0.00000000000E+00 -0.61351351043E+03  0.61351351045E+03  0.50400001928E-02 0. -1.
    10030    2    1    2    0    0  0.00000000000E+00  0.00000000000E+00  0.98920222618E+03  0.22162292471E+04  0.19832173434E+04 0.  0.
        3    1    3    3  502    0 -0.74861659953E+03  0.36540097336E+03  0.10957068981E+04  0.13764150178E+04  0.10100000352E+00 0. -1.
       -3    1    3    3    0  502  0.74861659953E+03 -0.36540097336E+03 -0.10650467189E+03  0.83981422931E+03  0.10100000352E+00 0.  1.
</event>
<event>
 5   0  0.1207228E-04  0.1968016E+04  0.7818609E-02  0.8621722E-01
       -1   -1    0    0    0  501  0.00000000000E+00  0.00000000000E+00  0.39868132867E+03  0.39868132870E+03  0.50400001928E-02 0. -1.
        1   -1    0    0  501    0  0.00000000000E+00  0.00000000000E+00 -0.24286857615E+04  0.24286857616E+04  0.50400001928E-02 0.  1.
    10030    2    1    2    0    0  0.00000000000E+00  0.00000000000E+00 -0.20300044329E+04  0.28273670902E+04  0.19680159211E+04 0.  0.
        1    1    3    3  502    0  0.66716940180E+03  0.19517001653E+03 -0.14417870574E+02  0.69527995877E+03  0.50400001928E-02 0. -1.
       -1    1    3    3    0  502 -0.66716940180E+03 -0.19517001653E+03 -0.20155865623E+04  0.21320871315E+04  0.50400001928E-02 0.  1.
</event>
<event>
 5   0  0.1231056E-04  0.2027697E+04  0.7818609E-02  0.8593780E-01
        1   -1    0    0  501    0  0.00000000000E+00  0.00000000000E+00  0.10153575170E+04  0.10153575170E+04  0.50400001928E-02 0. -1.
       -1   -1    0    0    0  501  0.00000000000E+00  0.00000000000E+00 -0.10123418992E+04  0.10123418992E+04  0.50400001928E-02 0.  1.
    10030    2    1    2    0    0  0.00000000000E+00  0.00000000000E+00  0.30156177503E+01  0.20276994162E+04  0.20276971738E+04 0.  0.
        3    1    3    3  502    0 -0.87403299991E+03 -0.44798995485E+03  0.25302401570E+03  0.10142237659E+04  0.10100000352E+00 0. -1.
       -3    1    3    3    0  502  0.87403299991E+03  0.44798995485E+03 -0.25000839795E+03  0.10134756503E+04  0.10100000352E+00 0.  1.
</event>
<event>
 5   0  0.9099125E-05  0.1984762E+04  0.7818609E-02  0.8613778E-01
        3   -1    0    0  501    0  0.00000000000E+00  0.00000000000E+00  0.16777823925E+04  0.16777823956E+04  0.10100000352E+00 0. -1.
       -3   -1    0    0    0  501  0.00000000000E+00  0.00000000000E+00 -0.58697732929E+03  0.58697733798E+03  0.10100000352E+00 0.  1.
    10030    2    1    2    0    0  0.00000000000E+00  0.00000000000E+00  0.10908050632E+04  0.22647597335E+04  0.19847621935E+04 0.  0.
        4    1    3    3  502    0  0.22372102092E+02  0.63227719655E+03 -0.32701048125E+03  0.71218848065E+03  0.12699999809E+01 0.  1.
       -4    1    3    3    0  502 -0.22372102092E+02 -0.63227719655E+03  0.14178155445E+04  0.15525712529E+04  0.12699999809E+01 0. -1.
</event>
<event>
 5   0  0.1258546E-04  0.2025632E+04  0.7818609E-02  0.8594730E-01
       -1   -1    0    0    0  501  0.00000000000E+00  0.00000000000E+00  0.81654479743E+03  0.81654479744E+03  0.50400001928E-02 0.  1.
        1   -1    0    0  501    0  0.00000000000E+00  0.00000000000E+00 -0.12562639041E+04  0.12562639041E+04  0.50400001928E-02 0. -1.
    10030    2    1    2    0    0  0.00000000000E+00  0.00000000000E+00 -0.43971910670E+03  0.20728087016E+04  0.20256315115E+04 0.  0.
        4    1    3    3  502    0 -0.32837769777E+03  0.92631665699E+03  0.30584678025E+02  0.98327590067E+03  0.12699999809E+01 0.  1.
       -4    1    3    3    0  502  0.32837769777E+03 -0.92631665699E+03 -0.47030378472E+03  0.10895328009E+04  0.12699999809E+01 0. -1.
</event>
<event>
 5   0  0.1258546E-04  0.1797057E+04  0.7818609E-02  0.8707866E-01
        1   -1    0    0  501    0  0.00000000000E+00  0.00000000000E+00  0.60810399986E+03  0.60810399988E+03  0.50400001928E-02 0.  1.
       -1   -1    0    0    0  501  0.00000000000E+00  0.00000000000E+00 -0.13276574406E+04  0.13276574406E+04  0.50400001928E-02 0. -1.
    10030    2    1    2    0    0  0.00000000000E+00  0.00000000000E+00 -0.71955344074E+03  0.19357614405E+04  0.17970573726E+04 0.  0.
        4    1    3    3  502    0  0.44027995092E+03 -0.66696233779E+03  0.82612913521E+02  0.80343742855E+03  0.12699999809E+01 0.  1.
       -4    1    3    3    0  502 -0.44027995092E+03  0.66696233779E+03 -0.80216635426E+03  0.11323240119E+04  0.12699999809E+01 0. -1.
</event>
<event>
 5   0  0.2421737E-04  0.1953521E+04  0.7818609E-02  0.8628665E-01
        2   -1    0    0  501    0  0.00000000000E+00  0.00000000000E+00  0.17920386295E+04  0.17920386295E+04  0.25500000920E-02 0. -1.
       -2   -1    0    0    0  501  0.00000000000E+00  0.00000000000E+00 -0.53238859846E+03  0.53238859846E+03  0.25500000920E-02 0.  1.
    10030    2    1    2    0    0  0.00000000000E+00  0.00000000000E+00  0.12596500311E+04  0.23244272280E+04  0.19535208567E+04 0.  0.
        1    1    3    3  502    0 -0.54175777820E+03 -0.57273135517E+03 -0.56324400372E+02  0.79037657705E+03  0.50400001928E-02 0.  1.
       -1    1    3    3    0  502  0.54175777820E+03  0.57273135517E+03  0.13159744314E+04  0.15340506509E+04  0.50400001928E-02 0. -1.
</event>
<event>
 5   0  0.2488886E-04  0.2035159E+04  0.7818609E-02  0.8590357E-01
       -2   -1    0    0    0  501  0.00000000000E+00  0.00000000000E+00  0.86694582180E+03  0.86694582180E+03  0.25500000920E-02 0. -1.
        2   -1    0    0  501    0  0.00000000000E+00  0.00000000000E+00 -0.11943861611E+04  0.11943861611E+04  0.25500000920E-02 0.  1.
    10030    2    1    2    0    0  0.00000000000E+00  0.00000000000E+00 -0.32744033928E+03  0.20613319829E+04  0.20351590522E+04 0.  0.
        3    1    3    3  502    0 -0.35182362589E+03 -0.87321713290E+03 -0.55492568577E+03  0.10928085614E+04  0.10100000352E+00 0.  1.
       -3    1    3    3    0  502  0.35182362589E+03  0.87321713290E+03  0.22748534648E+03  0.96852342150E+03  0.10100000352E+00 0. -1.
</event>
<event>
 5   0  0.9099125E-05  0.1593955E+04  0.7818609E-02  0.8824270E-01
       -3   -1    0    0    0  501  0.00000000000E+00  0.00000000000E+00  0.10081236761E+04  0.10081236812E+04  0.10100000352E+00 0. -1.
        3   -1    0    0  501    0  0.00000000000E+00  0.00000000000E+00 -0.63005462726E+03  0.63005463535E+03  0.10100000352E+00 0.  1.
    10030    2    1    2    0    0  0.00000000000E+00  0.00000000000E+00  0.37806904884E+03  0.16381783165E+04  0.15939548272E+04 0.  0.
        2    1    3    3  502    0 -0.60943729871E+03  0.28756096214E+03  0.62636109042E+03  0.92001812135E+03  0.25500000920E-02 0. -1.
       -2    1    3    3    0  502  0.60943729871E+03 -0.28756096214E+03 -0.24829204157E+03  0.71816019517E+03  0.25500000920E-02 0.  1.
</event>
<event>
 5   0  0.2463085E-04  0.1977860E+04  0.7818609E-02  0.8617042E-01
        2   -1    0    0  501    0  0.00000000000E+00  0.00000000000E+00  0.92244929077E+03  0.92244929077E+03  0.25500000920E-02 0. -1.
       -2   -1    0    0    0  501  0.00000000000E+00  0.00000000000E+00 -0.10602023621E+04  0.10602023621E+04  0.25500000920E-02 0.  1.
    10030    2    1    2    0    0  0.00000000000E+00  0.00000000000E+00 -0.13775307133E+03  0.19826516529E+04  0.19778603763E+04 0.  0.
        2    1    3    3  502    0  0.63860356857E+03 -0.73047854237E+03 -0.26057131602E+03  0.10046446284E+04  0.25500000920E-02 0. -1.
       -2    1    3    3    0  502 -0.63860356857E+03  0.73047854237E+03  0.12281824469E+03  0.97800702446E+03  0.25500000920E-02 0.  1.
</event>
<event>
 5   0  0.2540506E-04  0.2070643E+04  0.7818609E-02  0.8574287E-01
        2   -1    0    0  501    0  0.00000000000E+00  0.00000000000E+00  0.23699471266E+04  0.23699471266E+04  0.25500000920E-02 0.  1.
       -2   -1    0    0    0  501  0.00000000000E+00  0.00000000000E+00 -0.45228458307E+03  0.45228458308E+03  0.25500000920E-02 0. -1.
    10030    2    1    2    0    0  0.00000000000E+00  0.00000000000E+00  0.19176625435E+04  0.28222317096E+04  0.20706429417E+04 0.  0.
        4    1    3    3  502    0  0.25737509323E+03  0.99911925322E+03  0.10761397943E+04  0.14908251710E+04  0.12699999809E+01 0. -1.
       -4    1    3    3    0  502 -0.25737509323E+03 -0.99911925322E+03  0.84152274917E+03  0.13314065386E+04  0.12699999809E+01 0.  1.
</event>
<event>
 5   0  0.1258546E-04  0.1990183E+04  0.7818609E-02  0.8611224E-01
       -1   -1    0    0    0  501  0.00000000000E+00  0.00000000000E+00  0.63506704795E+03  0.63506704797E+03  0.50400001928E-02 0.  1.
        1   -1    0    0  501    0  0.00000000000E+00  0.00000000000E+00 -0.15592161113E+04  0.15592161113E+04  0.50400001928E-02 0. -1.
    10030    2    1    2    0    0  0.00000000000E+00  0.00000000000E+00 -0.92414906336E+03  0.21942831593E+04  0.19901826780E+04 0.  0.
        4    1    3    3  502    0 -0.44034614595E+02  0.90790127861E+03 -0.15599683839E+02  0.90910326257E+03  0.12699999809E+01 0.  1.
       -4    1    3    3    0  502  0.44034614595E+02 -0.90790127861E+03 -0.90854937953E+03  0.12851798967E+04  0.12699999809E+01 0. -1.
</event>
<event>
 5   0  0.2596061E-04  0.1393458E+04  0.7818609E-02  0.8958567E-01
       -2   -1    0    0    0  501  0.00000000000E+00  0.00000000000E+00  0.24222906333E+03  0.24222906334E+03  0.25500000920E-02 0.  1.
        2   -1    0    0  501    0  0.00000000000E+00  0.00000000000E+00 -0.20040189665E+04  0.20040189665E+04  0.25500000920E-02 0. -1.
    10030    2    1    2    0    0  0.00000000000E+00  0.00000000000E+00 -0.17617899032E+04  0.22462480299E+04  0.13934584847E+04 0.  0.
        5    1    3    3  502    0  0.16412756977E+03 -0.53568672262E+03 -0.21330437113E+03  0.59951561172E+03  0.46999998093E+01 0.  1.
       -5    1    3    3    0  502 -0.16412756977E+03  0.53568672262E+03 -0.15484855321E+04  0.16467324181E+04  0.46999998093E+01 0. -1.
</event>
<event>
 5   0  0.2421737E-04  0.2102592E+04  0.7818609E-02  0.8560102E-01
       -2   -1    0    0    0  501  0.00000000000E+00  0.00000000000E+00  0.13148954466E+04  0.13148954466E+04  0.25500000920E-02 0.  1.
        2   -1    0    0  501    0  0.00000000000E+00  0.00000000000E+00 -0.84054077447E+03  0.84054077448E+03  0.25500000920E-02 0. -1.
    10030    2    1    2    0    0  0.00000000000E+00  0.00000000000E+00  0.47435467216E+03  0.21554362211E+04  0.21025919595E+04 0.  0.
        1    1    3    3  502    0 -0.19477943762E+03  0.10199748353E+04  0.40542267643E+03  0.11147444732E+04  0.50400001928E-02 0.  1.
       -1    1    3    3    0  502  0.19477943762E+03 -0.10199748353E+04  0.68931995724E+02  0.10406917479E+04  0.50400001928E-02 0. -1.
</event>
<event>
 5   0  0.1258546E-04  0.2061894E+04  0.7818609E-02  0.8578218E-01
       -1   -1    0    0    0  501  0.00000000000E+00  0.00000000000E+00  0.56502609239E+03  0.56502609241E+03  0.50400001928E-02 0.  1.
        1   -1    0    0  501    0  0.00000000000E+00  0.00000000000E+00 -0.18810661356E+04  0.18810661356E+04  0.50400001928E-02 0. -1.
    10030    2    1    2    0    0  0.00000000000E+00  0.00000000000E+00 -0.13160400432E+04  0.24460922280E+04  0.20618937394E+04 0.  0.
        4    1    3    3  502    0 -0.55430570197E+02  0.91892167939E+03 -0.10747948062E+03  0.92684575449E+03  0.12699999809E+01 0.  1.
       -4    1    3    3    0  502  0.55430570197E+02 -0.91892167939E+03 -0.12085605626E+04  0.15192464735E+04  0.12699999809E+01 0. -1.
</event>
<event>
 5   0  0.1231056E-04  0.1973959E+04  0.7818609E-02  0.8618893E-01
       -1   -1    0    0    0  501  0.00000000000E+00  0.00000000000E+00  0.86504803463E+03  0.86504803464E+03  0.50400001928E-02 0. -1.
        1   -1    0    0  501    0  0.00000000000E+00  0.00000000000E+00 -0.11260972868E+04  0.11260972868E+04  0.50400001928E-02 0.  1.
    10030    2    1    2    0    0  0.00000000000E+00  0.00000000000E+00 -0.26104925214E+03  0.19911453214E+04  0.19739587075E+04 0.  0.
        3    1    3    3  502    0  0.34211785839E+03 -0.89859663079E+03 -0.35519170716E+03  0.10250276547E+04  0.10100000352E+00 0.  1.
       -3    1    3    3    0  502 -0.34211785839E+03  0.89859663079E+03  0.94142455020E+02  0.96611766671E+03  0.10100000352E+00 0. -1.
</event>
<event>
 5   0  0.2540506E-04  0.1985391E+04  0.7818609E-02  0.8613481E-01
       -2   -1    0    0    0  501  0.00000000000E+00  0.00000000000E+00  0.69773231864E+03  0.69773231864E+03  0.25500000920E-02 0.  1.
        2   -1    0    0  501    0  0.00000000000E+00  0.00000000000E+00 -0.14123530201E+04  0.14123530201E+04  0.25500000920E-02 0. -1.
    10030    2    1    2    0    0  0.00000000000E+00  0.00000000000E+00 -0.71462070148E+03  0.21100853388E+04  0.19853909917E+04 0.  0.
        4    1    3    3  502    0  0.74146423615E+03  0.47729323782E+03 -0.84186674610E+03  0.12191469474E+04  0.12699999809E+01 0. -1.
       -4    1    3    3    0  502 -0.74146423615E+03 -0.47729323782E+03  0.12724604462E+03  0.89093839133E+03  0.12699999809E+01 0.  1.
</event>
<event>
 5   0  0.2488886E-04  0.1918709E+04  0.7818609E-02  0.8645599E-01
       -2   -1    0    0    0  501  0.00000000000E+00  0.00000000000E+00  0.60578768286E+03  0.60578768286E+03  0.25500000920E-02 0. -1.
        2   -1    0    0  501    0  0.00000000000E+00  0.00000000000E+00 -0.15192804964E+04  0.15192804964E+04  0.25500000920E-02 0.  1.
    10030    2    1    2    0    0  0.00000000000E+00  0.00000000000E+00 -0.91349281351E+03  0.21250681792E+04  0.19187093699E+04 0.  0.
        3    1    3    3  502    0  0.26641579207E+03  0.58965009214E+03  0.32773803612E+03  0.72531154406E+03  0.10100000352E+00 0. -1.
       -3    1    3    3    0  502 -0.26641579207E+03 -0.58965009214E+03 -0.12412308496E+04  0.13997566352E+04  0.10100000352E+00 0.  1.
</event>
<event>
 5   0  0.2463085E-04  0.1889574E+04  0.7818609E-02  0.8660064E-01
        2   -1    0    0  501    0  0.00000000000E+00  0.00000000000E+00  0.20050066151E+04  0.20050066151E+04  0.25500000920E-02 0.  1.
       -2   -1    0    0    0  501  0.00000000000E+00  0.00000000000E+00 -0.44519678599E+03  0.44519678600E+03  0.25500000920E-02 0. -1.
    10030    2    1    2    0    0  0.00000000000E+00  0.00000000000E+00  0.15598098291E+04  0.24502034011E+04  0.18895740270E+04 0.  0.
        2    1    3    3  502    0  0.17097028866E+03 -0.91234678083E+03  0.55154271883E+03  0.10797253627E+04  0.25500000920E-02 0. -1.
       -2    1    3    3    0  502 -0.17097028866E+03  0.91234678083E+03  0.10082671102E+04  0.13704780384E+04  0.25500000920E-02 0.  1.
</event>
<event>
 5   0  0.2463085E-04  0.1962899E+04  0.7818609E-02  0.8624166E-01
        2   -1    0    0  501    0  0.00000000000E+00  0.00000000000E+00  0.17124885230E+04  0.17124885230E+04  0.25500000920E-02 0.  1.
       -2   -1    0    0    0  501  0.00000000000E+00  0.00000000000E+00 -0.56248167245E+03  0.56248167245E+03  0.25500000920E-02 0. -1.
    10030    2    1    2    0    0  0.00000000000E+00  0.00000000000E+00  0.11500068505E+04  0.22749701954E+04  0.19628992928E+04 0.  0.
        2    1    3    3  502    0 -0.58072460258E+03 -0.64785060182E+03  0.11014069941E+04  0.14035842807E+04  0.25500000920E-02 0.  1.
       -2    1    3    3    0  502  0.58072460258E+03  0.64785060182E+03  0.48599856387E+02  0.87138591472E+03  0.25500000920E-02 0. -1.
</event>
<event>
 5   0  0.2540506E-04  0.1875854E+04  0.7818609E-02  0.8666970E-01
       -2   -1    0    0    0  501  0.00000000000E+00  0.00000000000E+00  0.17284720281E+04  0.17284720281E+04  0.25500000920E-02 0.  1.
        2   -1    0    0  501    0  0.00000000000E+00  0.00000000000E+00 -0.50895054640E+03  0.50895054640E+03  0.25500000920E-02 0. -1.
    10030    2    1    2    0    0  0.00000000000E+00  0.00000000000E+00  0.12195214817E+04  0.22374225745E+04  0.18758537077E+04 0.  0.
        4    1    3    3  502    0 -0.23457285823E+03  0.30914022633E+03  0.16282266341E+04  0.16738326351E+04  0.12699999809E+01 0.  1.
       -4    1    3    3    0  502  0.23457285823E+03 -0.30914022633E+03 -0.40870515238E+03  0.56358993944E+03  0.12699999809E+01 0. -1.
</event>
<event>
 5   0  0.2596061E-04  0.2040782E+04  0.7818609E-02  0.8587788E-01
        2   -1    0    0  501    0  0.00000000000E+00  0.00000000000E+00  0.16159293815E+04  0.16159293815E+04  0.25500000920E-02 0.  1.
       -2   -1    0    0    0  501  0.00000000000E+00  0.00000000000E+00 -0.64433376917E+03  0.64433376918E+03  0.25500000920E-02 0. -1.
    10030    2    1    2    0    0  0.00000000000E+00  0.00000000000E+00  0.97159561235E+03  0.22602631507E+04  0.20407820747E+04 0.  0.
        5    1    3    3  502    0  0.13451004677E+03 -0.54959409607E+03 -0.45465885531E+03  0.72586733487E+03  0.46999998093E+01 0. -1.
       -5    1    3    3    0  502 -0.13451004677E+03  0.54959409607E+03  0.14262544677E+04  0.15343958158E+04  0.46999998093E+01 0.  1.
</event>
<event>
 5   0  0.2596061E-04  0.2094001E+04  0.7818609E-02  0.8563891E-01
        2   -1    0    0  501    0  0.00000000000E+00  0.00000000000E+00  0.84897964397E+03  0.84897964397E+03  0.25500000920E-02 0. -1.
       -2   -1    0    0    0  501  0.00000000000E+00  0.00000000000E+00 -0.12912087025E+04  0.12912087025E+04  0.25500000920E-02 0.  1.
    10030    2    1    2    0    0  0.00000000000E+00  0.00000000000E+00 -0.44222905855E+03  0.21401883465E+04  0.20940008639E+04 0.  0.
        5    1    3    3  502    0 -0.23935713057E+03 -0.80343616372E+03 -0.86215398239E+03  0.12025527367E+04  0.46999998093E+01 0.  1.
       -5    1    3    3    0  502  0.23935713057E+03  0.80343616372E+03  0.41992492384E+03  0.93763560981E+03  0.46999998093E+01 0. -1.
</event>
<event>
 5   0  0.2488886E-04  0.1995123E+04  0.7818609E-02  0.8608904E-01
       -2   -1    0    0    0  501  0.00000000000E+00  0.00000000000E+00  0.97120012867E+03  0.97120012868E+03  0.25500000920E-02 0. -1.
        2   -1    0    0  501    0  0.00000000000E+00  0.00000000000E+00 -0.10246378872E+04  0.10246378872E+04  0.25500000920E-02 0.  1.
    10030    2    1    2    0    0  0.00000000000E+00  0.00000000000E+00 -0.53437758508E+02  0.19958380159E+04  0.19951225004E+04 0.  0.
        3    1    3    3  502    0  0.68749213732E+03  0.88834915748E+02 -0.74432637709E+03  0.10171326595E+04  0.10100000352E+00 0.  1.
       -3    1    3    3    0  502 -0.68749213732E+03 -0.88834915748E+02  0.69088861859E+03  0.97870535639E+03  0.10100000352E+00 0. -1.
</event>
<event>
 5   0  0.1207228E-04  0.2025457E+04  0.7818609E-02  0.8594810E-01
        1   -1    0    0  501    0  0.00000000000E+00  0.00000000000E+00  0.96711976574E+03  0.96711976576E+03  0.50400001928E-02 0. -1.
       -1   -1    0    0    0  501  0.00000000000E+00  0.00000000000E+00 -0.10604880482E+04  0.10604880482E+04  0.50400001928E-02 0.  1.
    10030    2    1    2    0    0  0.00000000000E+00  0.00000000000E+00 -0.93368282491E+02  0.20276078140E+04  0.20254569389E+04 0.  0.
        1    1    3    3  502    0 -0.90411481851E+03 -0.10381014977E+03 -0.49147432715E+03  0.10342858244E+04  0.50400001928E-02 0.  1.
       -1    1    3    3    0  502  0.90411481851E+03  0.10381014977E+03  0.39810604466E+03  0.99332198962E+03  0.50400001928E-02 0. -1.
</event>
<event>
 5   0  0.1207228E-04  0.2001429E+04  0.7818609E-02  0.8605953E-01
        1   -1    0    0  501    0  0.00000000000E+00  0.00000000000E+00  0.13392914319E+04  0.13392914319E+04  0.50400001928E-02 0. -1.
       -1   -1    0    0    0  501  0.00000000000E+00  0.00000000000E+00 -0.74773118728E+03  0.74773118730E+03  0.50400001928E-02 0.  1.
    10030    2    1    2    0    0  0.00000000000E+00  0.00000000000E+00  0.59156024459E+03  0.20870226192E+04  0.20014294617E+04 0.  0.
        1    1    3    3  502    0 -0.75317169354E+03 -0.91105503186E+02 -0.38470932335E+03  0.85062863587E+03  0.50400001928E-02 0.  1.
       -1    1    3    3    0  502  0.75317169354E+03  0.91105503186E+02  0.97626956794E+03  0.12363939833E+04  0.50400001928E-02 0. -1.
</event>
<event>
 5   0  0.2463085E-04  0.2008878E+04  0.7818609E-02  0.8602481E-01
       -2   -1    0    0    0  501  0.00000000000E+00  0.00000000000E+00  0.78052079069E+03  0.78052079070E+03  0.25500000920E-02 0. -1.
        2   -1    0    0  501    0  0.00000000000E+00  0.00000000000E+00 -0.12925953225E+04  0.12925953225E+04  0.25500000920E-02 0.  1.
    10030    2    1    2    0    0  0.00000000000E+00  0.00000000000E+00 -0.51207453180E+03  0.20731161132E+04  0.20088778192E+04 0.  0.
        2    1    3    3  502    0  0.69527115650E+03 -0.11039234843E+03  0.48332890060E+03  0.85392931664E+03  0.25500000920E-02 0. -1.
       -2    1    3    3    0  502 -0.69527115650E+03  0.11039234843E+03 -0.99540343240E+03  0.12191867966E+04  0.25500000920E-02 0.  1.
</event>
<event>
 5   0  0.2540506E-04  0.2016165E+04  0.7818609E-02  0.8599100E-01
       -2   -1    0    0    0  501  0.00000000000E+00  0.00000000000E+00  0.10351973183E+04  0.10351973183E+04  0.25500000920E-02 0.  1.
        2   -1    0    0  501    0  0.00000000000E+00  0.00000000000E+00 -0.98167776585E+03  0.98167776586E+03  0.25500000920E-02 0. -1.
    10030    2    1    2    0    0  0.00000000000E+00  0.00000000000E+00  0.53519552432E+02  0.20168750841E+04  0.20161648649E+04 0.  0.
        4    1    3    3  502    0  0.25856155806E+03 -0.82694070212E+03  0.54225050225E+03  0.10221165414E+04  0.12699999809E+01 0.  1.
       -4    1    3    3    0  502 -0.25856155806E+03  0.82694070212E+03 -0.48873094982E+03  0.99475854273E+03  0.12699999809E+01 0. -1.
</event>
<event>
 5   0  0.1324930E-04  0.1987757E+04  0.7818609E-02  0.8612366E-01
       -1   -1    0    0    0  501  0.00000000000E+00  0.00000000000E+00  0.12881461407E+04  0.12881461407E+04  0.50400001928E-02 0. -1.
        1   -1    0    0  501    0  0.00000000000E+00  0.00000000000E+00 -0.76683449618E+03  0.76683449620E+03  0.50400001928E-02 0.  1.
    10030    2    1    2    0    0  0.00000000000E+00  0.00000000000E+00  0.52131164448E+03  0.20549806369E+04  0.19877574267E+04 0.  0.
        5    1    3    3  502    0  0.76624245916E+03  0.24663515665E+03  0.86330770367E+03  0.11803722667E+04  0.46999998093E+01 0. -1.
       -5    1    3    3    0  502 -0.76624245916E+03 -0.24663515665E+03 -0.34199605919E+03  0.87460837020E+03  0.46999998093E+01 0.  1.
</event>
<event>
 5   0  0.2540506E-04  0.1988299E+04  0.7818609E-02  0.8612111E-01
       -2   -1    0    0    0  501  0.00000000000E+00  0.00000000000E+00  0.70029898945E+03  0.70029898946E+03  0.25500000920E-02 0.  1.
        2   -1    0    0  501    0  0.00000000000E+00  0.00000000000E+00 -0.14113023799E+04  0.14113023799E+04  0.25500000920E-02 0. -1.
    10030    2    1    2    0    0  0.00000000000E+00  0.00000000000E+00 -0.71100339047E+03  0.21116013694E+04  0.19882994045E+04 0.  0.
        4    1    3    3  502    0 -0.66557481475E+03 -0.27208994686E+02  0.42823415010E+03  0.79190672660E+03  0.12699999809E+01 0.  1.
       -4    1    3    3    0  502  0.66557481475E+03  0.27208994686E+02 -0.11392375406E+04  0.13196946428E+04  0.12699999809E+01 0. -1.
</event>
<event>
 5   0  0.1324930E-04  0.2003761E+04  0.7818609E-02  0.8604864E-01
       -1   -1    0    0    0  501  0.00000000000E+00  0.00000000000E+00  0.80950160679E+03  0.80950160681E+03  0.50400001928E-02 0. -1.
        1   -1    0    0  501    0  0.00000000000E+00  0.00000000000E+00 -0.12399782377E+04  0.12399782377E+04  0.50400001928E-02 0.  1.
    10030    2    1    2    0    0  0.00000000000E+00  0.00000000000E+00 -0.43047663089E+03  0.20494798445E+04  0.20037608398E+04 0.  0.
        5    1    3    3  502    0  0.54092643314E+03  0.86244932975E+02  0.64277173058E+03  0.84452186601E+03  0.46999998093E+01 0. -1.
       -5    1    3    3    0  502 -0.54092643314E+03 -0.86244932975E+02 -0.10732483615E+04  0.12049579785E+04  0.46999998093E+01 0.  1.
</event>
<event>
 5   0  0.1258546E-04  0.2023261E+04  0.7818609E-02  0.8595822E-01
       -1   -1    0    0    0  501  0.00000000000E+00  0.00000000000E+00  0.92075425647E+03  0.92075425649E+03  0.50400001928E-02 0. -1.
        1   -1    0    0  501    0  0.00000000000E+00  0.00000000000E+00 -0.11114762678E+04  0.11114762678E+04  0.50400001928E-02 0.  1.
    10030    2    1    2    0    0  0.00000000000E+00  0.00000000000E+00 -0.19072201134E+03  0.20322305243E+04  0.20232612333E+04 0.  0.
        4    1    3    3  502    0 -0.21675886130E+03  0.43215891600E+03  0.79720038865E+03  0.93234961533E+03  0.12699999809E+01 0. -1.
       -4    1    3    3    0  502  0.21675886130E+03 -0.43215891600E+03 -0.98792240000E+03  0.10998809090E+04  0.12699999809E+01 0.  1.
</event>
<event>
 5   0  0.1207228E-04  0.1652747E+04  0.7818609E-02  0.8788783E-01
       -1   -1    0    0    0  501  0.00000000000E+00  0.00000000000E+00  0.89866243937E+03  0.89866243939E+03  0.50400001928E-02 0.  1.
        1   -1    0    0  501    0  0.00000000000E+00  0.00000000000E+00 -0.75989991225E+03  0.75989991227E+03  0.50400001928E-02 0. -1.
    10030    2    1    2    0    0  0.00000000000E+00  0.00000000000E+00  0.13876252713E+03  0.16585623517E+04  0.16527474203E+04 0.  0.
        1    1    3    3  502    0 -0.72910078296E+03  0.38806762624E+03  0.42659121288E+02  0.82704548539E+03  0.50400001928E-02 0. -1.
       -1    1    3    3    0  502  0.72910078296E+03 -0.38806762624E+03  0.96103405838E+02  0.83151686627E+03  0.50400001928E-02 0.  1.
</event>
<event>
 5   0  0.1207228E-04  0.1884477E+04  0.7818609E-02  0.8662622E-01
       -1   -1    0    0    0  501  0.00000000000E+00  0.00000000000E+00  0.12891483825E+04  0.12891483825E+04  0.50400001928E-02 0.  1.
        1   -1    0    0  501    0  0.00000000000E+00  0.00000000000E+00 -0.68868233150E+03  0.68868233152E+03  0.50400001928E-02 0. -1.
    10030    2    1    2    0    0  0.00000000000E+00  0.00000000000E+00  0.60046605096E+03  0.19778307140E+04  0.18844773426E+04 0.  0.
        1    1    3    3  502    0 -0.15869927185E+03  0.53819355423E+03  0.10946827054E+04  0.12301089327E+04  0.50400001928E-02 0.  1.
       -1    1    3    3    0  502  0.15869927185E+03 -0.53819355423E+03 -0.49421665445E+03  0.74772178132E+03  0.50400001928E-02 0. -1.
</event>
<event>
 5   0  0.1207228E-04  0.1923864E+04  0.7818609E-02  0.8643068E-01
        1   -1    0    0  501    0  0.00000000000E+00  0.00000000000E+00  0.28202076452E+04  0.28202076452E+04  0.50400001928E-02 0. -1.
       -1   -1    0    0    0  501  0.00000000000E+00  0.00000000000E+00 -0.32810120509E+03  0.32810120513E+03  0.50400001928E-02 0.  1.
    10030    2    1    2    0    0  0.00000000000E+00  0.00000000000E+00  0.24921064401E+04  0.31483088504E+04  0.19238643685E+04 0.  0.
        1    1    3    3  502    0  0.58366716046E+01  0.92121156157E+03  0.79299362766E+03  0.12155261007E+04  0.50400001928E-02 0.  1.
       -1    1    3    3    0  502 -0.58366716046E+01 -0.92121156157E+03  0.16991128125E+04  0.19327827497E+04  0.50400001928E-02 0. -1.
</event>
<event>
 5   0  0.9099125E-05  0.1993906E+04  0.7818609E-02  0.8609475E-01
       -4   -1    0    0    0  501  0.00000000000E+00  0.00000000000E+00  0.95803077257E+03  0.95803161435E+03  0.12699999809E+01 0.  1.
        4   -1    0    0  501    0  0.00000000000E+00  0.00000000000E+00 -0.10374548004E+04  0.10374555778E+04  0.12699999809E+01 0. -1.
    10030    2    1    2    0    0  0.00000000000E+00  0.00000000000E+00 -0.79424027877E+02  0.19954871921E+04  0.19939059551E+04 0.  0.
        3    1    3    3  502    0  0.15649230597E+03  0.10670218270E+03  0.93985939873E+03  0.95875486815E+03  0.10100000352E+00 0.  1.
       -3    1    3    3    0  502 -0.15649230597E+03 -0.10670218270E+03 -0.10192834266E+04  0.10367323240E+04  0.10100000352E+00 0. -1.
</event>
<event>
 5   0  0.1324930E-04  0.1982628E+04  0.7818609E-02  0.8614786E-01
        1   -1    0    0  501    0  0.00000000000E+00  0.00000000000E+00  0.15441276547E+04  0.15441276547E+04  0.50400001928E-02 0. -1.
       -1   -1    0    0    0  501  0.00000000000E+00  0.00000000000E+00 -0.63641317355E+03  0.63641317357E+03  0.50400001928E-02 0.  1.
    10030    2    1    2    0    0  0.00000000000E+00  0.00000000000E+00  0.90771448114E+03  0.21805408283E+04  0.19826277322E+04 0.  0.
        5    1    3    3  502    0 -0.55216089713E+03 -0.23844366499E+03  0.13205182979E+04  0.14510436598E+04  0.46999998093E+01 0. -1.
       -5    1    3    3    0  502  0.55216089713E+03  0.23844366499E+03 -0.41280381672E+03  0.72949716846E+03  0.46999998093E+01 0.  1.
</event>
<event>
 5   0  0.2488886E-04  0.1942027E+04  0.7818609E-02  0.8634215E-01
        2   -1    0    0  501    0  0.00000000000E+00  0.00000000000E+00  0.88807631497E+03  0.88807631497E+03  0.25500000920E-02 0. -1.
       -2   -1    0    0    0  501  0.00000000000E+00  0.00000000000E+00 -0.10616961423E+04  0.10616961423E+04  0.25500000920E-02 0.  1.
    10030    2    1    2    0    0  0.00000000000E+00  0.00000000000E+00 -0.17361982734E+03  0.19497724573E+04  0.19420269799E+04 0.  0.
        3    1    3    3  502    0 -0.30435077699E+03 -0.58717883655E+03  0.62698188818E+03  0.91132578140E+03  0.10100000352E+00 0. -1.
       -3    1    3    3    0  502  0.30435077699E+03  0.58717883655E+03 -0.80060171552E+03  0.10384466759E+04  0.10100000352E+00 0.  1.
</event>
<event>
 5   0  0.1231056E-04  0.2005227E+04  0.7818609E-02  0.8604181E-01
        1   -1    0    0  501    0  0.00000000000E+00  0.00000000000E+00  0.10151725464E+04  0.10151725464E+04  0.50400001928E-02 0. -1.
       -1   -1    0    0    0  501  0.00000000000E+00  0.00000000000E+00 -0.99021015406E+03  0.99021015407E+03  0.50400001928E-02 0.  1.
    10030    2    1    2    0    0  0.00000000000E+00  0.00000000000E+00  0.24962392300E+02  0.20053827004E+04  0.20052273323E+04 0.  0.
        3    1    3    3  502    0 -0.34426437732E+02 -0.44617539106E+03  0.90975553583E+03  0.10138603476E+04  0.10100000352E+00 0. -1.
       -3    1    3    3    0  502  0.34426437732E+02  0.44617539106E+03 -0.88479314353E+03  0.99152235287E+03  0.10100000352E+00 0.  1.
</event>
<event>
 5   0  0.1210633E-04  0.2067501E+04  0.7818609E-02  0.8575696E-01
       -1   -1    0    0    0  501  0.00000000000E+00  0.00000000000E+00  0.16660991474E+04  0.16660991474E+04  0.50400001928E-02 0. -1.
        1   -1    0    0  501    0  0.00000000000E+00  0.00000000000E+00 -0.64140226193E+03  0.64140226195E+03  0.50400001928E-02 0.  1.
    10030    2    1    2    0    0  0.00000000000E+00  0.00000000000E+00  0.10246968854E+04  0.23075014093E+04  0.20675006764E+04 0.  0.
        2    1    3    3  502    0 -0.19104879506E+03  0.45394676322E+03 -0.50204255266E+03  0.70328801399E+03  0.25500000920E-02 0.  1.
       -2    1    3    3    0  502  0.19104879506E+03 -0.45394676322E+03  0.15267394381E+04  0.16042133953E+04  0.25500000920E-02 0. -1.
</event>
<event>
 5   0  0.2596061E-04  0.1999079E+04  0.7818609E-02  0.8607051E-01
       -2   -1    0    0    0  501  0.00000000000E+00  0.00000000000E+00  0.57535568545E+03  0.57535568546E+03  0.25500000920E-02 0. -1.
        2   -1    0    0  501    0  0.00000000000E+00  0.00000000000E+00 -0.17364556223E+04  0.17364556223E+04  0.25500000920E-02 0.  1.
    10030    2    1    2    0    0  0.00000000000E+00  0.00000000000E+00 -0.11610999368E+04  0.23118113077E+04  0.19990794029E+04 0.  0.
        5    1    3    3  502    0 -0.24189062502E+03  0.55256504062E+03 -0.15022377891E+04  0.16188204544E+04  0.46999998093E+01 0.  1.
       -5    1    3    3    0  502  0.24189062502E+03 -0.55256504062E+03  0.34113785225E+03  0.69299085335E+03  0.46999998093E+01 0. -1.
</event>
<event>
 5   0  0.2488886E-04  0.2029242E+04  0.7818609E-02  0.8593070E-01
       -2   -1    0    0    0  501  0.00000000000E+00  0.00000000000E+00  0.31344840215E+03  0.31344840216E+03  0.25500000920E-02 0. -1.
        2   -1    0    0  501    0  0.00000000000E+00  0.00000000000E+00 -0.32842896409E+04  0.32842896409E+04  0.25500000920E-02 0.  1.
    10030    2    1    2    0    0  0.00000000000E+00  0.00000000000E+00 -0.29708412387E+04  0.35977380431E+04  0.20292415728E+04 0.  0.
        3    1    3    3  502    0  0.61914172246E+03  0.69746105111E+03 -0.21938609679E+04  0.23838654214E+04  0.10100000352E+00 0.  1.
       -3    1    3    3    0  502 -0.61914172246E+03 -0.69746105111E+03 -0.77698027080E+03  0.12138726217E+04  0.10100000352E+00 0. -1.
</event>
<event>
 5   0  0.1207228E-04  0.1950766E+04  0.7818609E-02  0.8629992E-01
        1   -1    0    0  501    0  0.00000000000E+00  0.00000000000E+00  0.86617106856E+03  0.86617106857E+03  0.50400001928E-02 0. -1.
       -1   -1    0    0    0  501  0.00000000000E+00  0.00000000000E+00 -0.10983646017E+04  0.10983646017E+04  0.50400001928E-02 0.  1.
    10030    2    1    2    0    0  0.00000000000E+00  0.00000000000E+00 -0.23219353311E+03  0.19645356702E+04  0.19507656350E+04 0.  0.
        1    1    3    3  502    0 -0.75591791277E+03  0.11569469323E+02 -0.73674726506E+03  0.10556241168E+04  0.50400001928E-02 0.  1.
       -1    1    3    3    0  502  0.75591791277E+03 -0.11569469323E+02  0.50455373195E+03  0.90891155341E+03  0.50400001928E-02 0. -1.
</event>
<event>
 5   0  0.2540506E-04  0.2005393E+04  0.7818609E-02  0.8604103E-01
        2   -1    0    0  501    0  0.00000000000E+00  0.00000000000E+00  0.16931819529E+04  0.16931819529E+04  0.25500000920E-02 0.  1.
       -2   -1    0    0    0  501  0.00000000000E+00  0.00000000000E+00 -0.59379339488E+03  0.59379339489E+03  0.25500000920E-02 0. -1.
    10030    2    1    2    0    0  0.00000000000E+00  0.00000000000E+00  0.10993885580E+04  0.22869753477E+04  0.20053929889E+04 0.  0.
        4    1    3    3  502    0  0.78062927636E+02  0.44141861381E+03 -0.47315752571E+03  0.65178514123E+03  0.12699999809E+01 0. -1.
       -4    1    3    3    0  502 -0.78062927636E+02 -0.44141861381E+03  0.15725460837E+04  0.16351902065E+04  0.12699999809E+01 0.  1.
</event>
<event>
 5   0  0.2421737E-04  0.2050144E+04  0.7818609E-02  0.8583529E-01
       -2   -1    0    0    0  501  0.00000000000E+00  0.00000000000E+00  0.92025309488E+03  0.92025309488E+03  0.25500000920E-02 0. -1.
        2   -1    0    0  501    0  0.00000000000E+00  0.00000000000E+00 -0.11418302634E+04  0.11418302634E+04  0.25500000920E-02 0.  1.
    10030    2    1    2    0    0  0.00000000000E+00  0.00000000000E+00 -0.22157716854E+03  0.20620833583E+04  0.20501442230E+04 0.  0.
        1    1    3    3  502    0 -0.45028615825E+03  0.25917848448E+03  0.77800990764E+03  0.93553756073E+03  0.50400001928E-02 0. -1.
       -1    1    3    3    0  502  0.45028615825E+03 -0.25917848448E+03 -0.99958707618E+03  0.11265457976E+04  0.50400001928E-02 0.  1.
</event>
<event>
 5   0  0.2488886E-04  0.1898644E+04  0.7818609E-02  0.8655532E-01
       -2   -1    0    0    0  501  0.00000000000E+00  0.00000000000E+00  0.69962915678E+03  0.69962915678E+03  0.25500000920E-02 0.  1.
        2   -1    0    0  501    0  0.00000000000E+00  0.00000000000E+00 -0.12881286084E+04  0.12881286084E+04  0.25500000920E-02 0. -1.
    10030    2    1    2    0    0  0.00000000000E+00  0.00000000000E+00 -0.58849945164E+03  0.19877577652E+04  0.18986440763E+04 0.  0.
        3    1    3    3  502    0 -0.15350660149E+02 -0.50723617406E+03  0.54570843644E+03  0.74519922628E+03  0.10100000352E+00 0.  1.
       -3    1    3    3    0  502  0.15350660149E+02  0.50723617406E+03 -0.11342078881E+04  0.12425585389E+04  0.10100000352E+00 0. -1.
</event>
<event>
 5   0  0.1324930E-04  0.1709667E+04  0.7818609E-02  0.8755870E-01
        1   -1    0    0  501    0  0.00000000000E+00  0.00000000000E+00  0.16587981954E+04  0.16587981954E+04  0.50400001928E-02 0.  1.
       -1   -1    0    0    0  501  0.00000000000E+00  0.00000000000E+00 -0.44052396222E+03  0.44052396225E+03  0.50400001928E-02 0. -1.
    10030    2    1    2    0    0  0.00000000000E+00  0.00000000000E+00  0.12182742332E+04  0.20993221577E+04  0.17096670478E+04 0.  0.
        5    1    3    3  502    0  0.58489768195E+03  0.12133664939E+03  0.13599637951E+04  0.14853792428E+04  0.46999998093E+01 0.  1.
       -5    1    3    3    0  502 -0.58489768195E+03 -0.12133664939E+03 -0.14168956190E+03  0.61394291492E+03  0.46999998093E+01 0. -1.
</event>
<event>
 5   0  0.1210633E-04  0.2027286E+04  0.7818609E-02  0.8593969E-01
       -1   -1    0    0    0  501  0.00000000000E+00  0.00000000000E+00  0.17300462609E+04  0.17300462609E+04  0.50400001928E-02 0.  1.
        1   -1    0    0  501    0  0.00000000000E+00  0.00000000000E+00 -0.59389857061E+03  0.59389857063E+03  0.50400001928E-02 0. -1.
    10030    2    1    2    0    0  0.00000000000E+00  0.00000000000E+00  0.11361476903E+04  0.23239448315E+04  0.20272858718E+04 0.  0.
        2    1    3    3  502    0  0.42653619632E+03  0.43725534839E+03  0.14953620957E+04  0.16153120948E+04  0.25500000920E-02 0.  1.
       -2    1    3    3    0  502 -0.42653619632E+03 -0.43725534839E+03 -0.35921440540E+03  0.70863273670E+03  0.25500000920E-02 0. -1.
</event>
<event>
 5   0  0.1207228E-04  0.2010558E+04  0.7818609E-02  0.8601700E-01
        1   -1    0    0  501    0  0.00000000000E+00  0.00000000000E+00  0.13076855215E+04  0.13076855215E+04  0.50400001928E-02 0.  1.
       -1   -1    0    0    0  501  0.00000000000E+00  0.00000000000E+00 -0.77280487013E+03  0.77280487015E+03  0.50400001928E-02 0. -1.
    10030    2    1    2    0    0  0.00000000000E+00  0.00000000000E+00  0.53488065138E+03  0.20804903917E+04  0.20105578725E+04 0.  0.
        1    1    3    3  502    0 -0.50432431203E+03  0.26305506051E+03 -0.59027200322E+03  0.81973289209E+03  0.50400001928E-02 0. -1.
       -1    1    3    3    0  502  0.50432431203E+03 -0.26305506051E+03  0.11251526546E+04  0.12607574996E+04  0.50400001928E-02 0.  1.
</event>
<event>
 5   0  0.2463085E-04  0.1954540E+04  0.7818609E-02  0.8628174E-01
       -2   -1    0    0    0  501  0.00000000000E+00  0.00000000000E+00  0.53724271474E+03  0.53724271475E+03  0.25500000920E-02 0.  1.
        2   -1    0    0  501    0  0.00000000000E+00  0.00000000000E+00 -0.17777012264E+04  0.17777012264E+04  0.25500000920E-02 0. -1.
    10030    2    1    2    0    0  0.00000000000E+00  0.00000000000E+00 -0.12404585117E+04  0.23149439412E+04  0.19545403888E+04 0.  0.
        2    1    3    3  502    0  0.78521619254E+03 -0.23993081857E+03  0.75278196993E+01  0.82108948038E+03  0.25500000920E-02 0.  1.
       -2    1    3    3    0  502 -0.78521619254E+03  0.23993081857E+03 -0.12479863314E+04  0.14938544608E+04  0.25500000920E-02 0. -1.
</event>
<event>
 5   0  0.2540506E-04  0.1316671E+04  0.7818609E-02  0.9016449E-01
       -2   -1    0    0    0  501  0.00000000000E+00  0.00000000000E+00  0.22897834762E+03  0.22897834764E+03  0.25500000920E-02 0.  1.
        2   -1    0    0  501    0  0.00000000000E+00  0.00000000000E+00 -0.18927792901E+04  0.18927792901E+04  0.25500000920E-02 0. -1.
    10030    2    1    2    0    0  0.00000000000E+00  0.00000000000E+00 -0.16638009425E+04  0.21217576377E+04  0.13166707626E+04 0.  0.
        4    1    3    3  502    0  0.10333754095E+03  0.39055399136E+03 -0.16695367201E+04  0.17177210310E+04  0.12699999809E+01 0. -1.
       -4    1    3    3    0  502 -0.10333754095E+03 -0.39055399136E+03  0.57357776677E+01  0.40403660674E+03  0.12699999809E+01 0.  1.
</event>
<event>
 5   0  0.1210633E-04  0.2051109E+04  0.7818609E-02  0.8583091E-01
        1   -1    0    0  501    0  0.00000000000E+00  0.00000000000E+00  0.83817204331E+03  0.83817204332E+03  0.50400001928E-02 0. -1.
       -1   -1    0    0    0  501  0.00000000000E+00  0.00000000000E+00 -0.12548289138E+04  0.12548289138E+04  0.50400001928E-02 0.  1.
    10030    2    1    2    0    0  0.00000000000E+00  0.00000000000E+00 -0.41665687052E+03  0.20930009572E+04  0.20511094702E+04 0.  0.
        2    1    3    3  502    0  0.34325625055E+03 -0.43617659449E+03 -0.10883146500E+04  0.12216806671E+04  0.25500000920E-02 0.  1.
       -2    1    3    3    0  502 -0.34325625055E+03  0.43617659449E+03  0.67165777944E+03  0.87132029003E+03  0.25500000920E-02 0. -1.
</event>
<event>
 5   0  0.1324930E-04  0.2006872E+04  0.7818609E-02  0.8603414E-01
        1   -1    0    0  501    0  0.00000000000E+00  0.00000000000E+00  0.11531000425E+04  0.11531000425E+04  0.50400001928E-02 0. -1.
       -1   -1    0    0    0  501  0.00000000000E+00  0.00000000000E+00 -0.87319745246E+03  0.87319745247E+03  0.50400001928E-02 0.  1.
    10030    2    1    2    0    0  0.00000000000E+00  0.00000000000E+00  0.27990259005E+03  0.20262974950E+04  0.20068722127E+04 0.  0.
        5    1    3    3  502    0 -0.16260943835E+03 -0.25628630926E+03 -0.82572531517E+03  0.87975501582E+03  0.46999998093E+01 0.  1.
       -5    1    3    3    0  502  0.16260943835E+03  0.25628630926E+03  0.11056279052E+04  0.11465424792E+04  0.46999998093E+01 0. -1.
</event>
<event>
 5   0  0.1210633E-04  0.1995016E+04  0.7818609E-02  0.8608955E-01
        1   -1    0    0  501    0  0.00000000000E+00  0.00000000000E+00  0.92508505392E+03  0.92508505393E+03  0.50400001928E-02 0. -1.
       -1   -1    0    0    0  501  0.00000000000E+00  0.00000000000E+00 -0.10756002560E+04  0.10756002560E+04  0.50400001928E-02 0.  1.
    10030    2    1    2    0    0  0.00000000000E+00  0.00000000000E+00 -0.15051520209E+03  0.20006853100E+04  0.19950155096E+04 0.  0.
        2    1    3    3  502    0 -0.19275192242E+03 -0.44442096374E+03 -0.94972110351E+03  0.10661301380E+04  0.25500000920E-02 0.  1.
       -2    1    3    3    0  502  0.19275192242E+03  0.44442096374E+03  0.79920590143E+03  0.93455517199E+03  0.25500000920E-02 0. -1.
</event>
<event>
 5   0  0.2463085E-04  0.1955210E+04  0.7818609E-02  0.8627852E-01
        2   -1    0    0  501    0  0.00000000000E+00  0.00000000000E+00  0.13709901554E+04  0.13709901554E+04  0.25500000920E-02 0.  1.
       -2   -1    0    0    0  501  0.00000000000E+00  0.00000000000E+00 -0.69709593695E+03  0.69709593696E+03  0.25500000920E-02 0. -1.
    10030    2    1    2    0    0  0.00000000000E+00  0.00000000000E+00  0.67389421845E+03  0.20680860924E+04  0.19552101339E+04 0.  0.
        2    1    3    3  502    0  0.45786564443E+03 -0.82611023506E+03  0.60372309994E+03  0.11209730818E+04  0.25500000920E-02 0. -1.
       -2    1    3    3    0  502 -0.45786564443E+03  0.82611023506E+03  0.70171118511E+02  0.94711301052E+03  0.25500000920E-02 0.  1.
</event>
<event>
 5   0  0.2488886E-04  0.1985519E+04  0.7818609E-02  0.8613421E-01
        2   -1    0    0  501    0  0.00000000000E+00  0.00000000000E+00  0.94806679091E+03  0.94806679091E+03  0.25500000920E-02 0. -1.
       -2   -1    0    0    0  501  0.00000000000E+00  0.00000000000E+00 -0.10395588618E+04  0.10395588618E+04  0.25500000920E-02 0.  1.
    10030    2    1    2    0    0  0.00000000000E+00  0.00000000000E+00 -0.91492070904E+02  0.19876256527E+04  0.19855188079E+04 0.  0.
        3    1    3    3  502    0  0.87545281372E+03  0.50329344663E+02 -0.51166503089E+03  0.10152594673E+04  0.10100000352E+00 0.  1.
       -3    1    3    3    0  502 -0.87545281372E+03 -0.50329344663E+02  0.42017295999E+03  0.97236618539E+03  0.10100000352E+00 0. -1.
</event>
<event>
 5   0  0.2463085E-04  0.2007078E+04  0.7818609E-02  0.8603319E-01
       -2   -1    0    0    0  501  0.00000000000E+00  0.00000000000E+00  0.49409284688E+03  0.49409284688E+03  0.25500000920E-02 0.  1.
        2   -1    0    0  501    0  0.00000000000E+00  0.00000000000E+00 -0.20382613227E+04  0.20382613227E+04  0.25500000920E-02 0. -1.
    10030    2    1    2    0    0  0.00000000000E+00  0.00000000000E+00 -0.15441684758E+04  0.25323541696E+04  0.20070778158E+04 0.  0.
        2    1    3    3  502    0 -0.48896860104E+03 -0.45704141563E+03  0.17134667783E+03  0.69089567404E+03  0.25500000920E-02 0.  1.
       -2    1    3    3    0  502  0.48896860104E+03  0.45704141563E+03 -0.17155151537E+04  0.18414584956E+04  0.25500000920E-02 0. -1.
</event>
<event>
 5   0  0.1231056E-04  0.1477428E+04  0.7818609E-02  0.8899604E-01
        1   -1    0    0  501    0  0.00000000000E+00  0.00000000000E+00  0.22324308789E+04  0.22324308789E+04  0.50400001928E-02 0. -1.
       -1   -1    0    0    0  501  0.00000000000E+00  0.00000000000E+00 -0.24444123191E+03  0.24444123196E+03  0.50400001928E-02 0.  1.
    10030    2    1    2    0    0  0.00000000000E+00  0.00000000000E+00  0.19879896470E+04  0.24768721109E+04  0.14774277028E+04 0.  0.
        3    1    3    3  502    0 -0.14347637025E+03  0.72443180636E+03  0.96441876539E+03  0.12146976892E+04  0.10100000352E+00 0.  1.
       -3    1    3    3    0  502  0.14347637025E+03 -0.72443180636E+03  0.10235708816E+04  0.12621744217E+04  0.10100000352E+00 0. -1.
</event>
<event>
 5   0  0.1324930E-04  0.1972165E+04  0.7818609E-02  0.8619746E-01
       -1   -1    0    0    0  501  0.00000000000E+00  0.00000000000E+00  0.10167012234E+04  0.10167012234E+04  0.50400001928E-02 0. -1.
        1   -1    0    0  501    0  0.00000000000E+00  0.00000000000E+00 -0.95638566962E+03  0.95638566963E+03  0.50400001928E-02 0.  1.
    10030    2    1    2    0    0  0.00000000000E+00  0.00000000000E+00  0.60315553735E+02  0.19730868930E+04  0.19721647805E+04 0.  0.
        5    1    3    3  502    0  0.28251027915E+03  0.86586229268E+03 -0.34791681417E+03  0.97498603441E+03  0.46999998093E+01 0.  1.
       -5    1    3    3    0  502 -0.28251027915E+03 -0.86586229268E+03  0.40823236791E+03  0.99810085859E+03  0.46999998093E+01 0. -1.
</event>
<event>
 5   0  0.2488886E-04  0.2003865E+04  0.7818609E-02  0.8604816E-01
       -2   -1    0    0    0  501  0.00000000000E+00  0.00000000000E+00  0.72684121480E+03  0.72684121481E+03  0.25500000920E-02 0. -1.
        2   -1    0    0  501    0  0.00000000000E+00  0.00000000000E+00 -0.13811387848E+04  0.13811387848E+04  0.25500000920E-02 0.  1.
    10030    2    1    2    0    0  0.00000000000E+00  0.00000000000E+00 -0.65429756998E+03  0.21079799996E+04  0.20038648579E+04 0.  0.
        3    1    3    3  502    0 -0.47780105097E+01 -0.67255066947E+03  0.45408177098E+03  0.81150323310E+03  0.10100000352E+00 0. -1.
       -3    1    3    3    0  502  0.47780105097E+01  0.67255066947E+03 -0.11083793410E+04  0.12964767665E+04  0.10100000352E+00 0.  1.
</event>
<event>
 5   0  0.1324930E-04  0.1770649E+04  0.7818609E-02  0.8722065E-01
        1   -1    0    0  501    0  0.00000000000E+00  0.00000000000E+00  0.12039594545E+04  0.12039594546E+04  0.50400001928E-02 0.  1.
       -1   -1    0    0    0  501  0.00000000000E+00  0.00000000000E+00 -0.65101852492E+03  0.65101852494E+03  0.50400001928E-02 0. -1.
    10030    2    1    2    0    0  0.00000000000E+00  0.00000000000E+00  0.55294092962E+03  0.18549779795E+04  0.17706494946E+04 0.  0.
        5    1    3    3  502    0  0.73077510875E+03  0.41723209211E+03  0.56463980008E+03  0.10133879179E+04  0.46999998093E+01 0. -1.
       -5    1    3    3    0  502 -0.73077510875E+03 -0.41723209211E+03 -0.11698870456E+02  0.84159006162E+03  0.46999998093E+01 0.  1.
</event>
<event>
 5   0  0.1210633E-04  0.2028283E+04  0.7818609E-02  0.8593510E-01
        1   -1    0    0  501    0  0.00000000000E+00  0.00000000000E+00  0.86038955022E+03  0.86038955023E+03  0.50400001928E-02 0. -1.
       -1   -1    0    0    0  501  0.00000000000E+00  0.00000000000E+00 -0.11953692276E+04  0.11953692276E+04  0.50400001928E-02 0.  1.
    10030    2    1    2    0    0  0.00000000000E+00  0.00000000000E+00 -0.33497967735E+03  0.20557587778E+04  0.20282832071E+04 0.  0.
        2    1    3    3  502    0  0.17029868239E+03  0.67852874934E+03 -0.91165662700E+03  0.11491391171E+04  0.25500000920E-02 0.  1.
       -2    1    3    3    0  502 -0.17029868239E+03 -0.67852874934E+03  0.57667694965E+03  0.90661966070E+03  0.25500000920E-02 0. -1.
</event>
<event>
 5   0  0.2596061E-04  0.1954187E+04  0.7818609E-02  0.8628344E-01
        2   -1    0    0  501    0  0.00000000000E+00  0.00000000000E+00  0.11819917615E+04  0.11819917615E+04  0.25500000920E-02 0. -1.
       -2   -1    0    0    0  501  0.00000000000E+00  0.00000000000E+00 -0.80771461678E+03  0.80771461679E+03  0.25500000920E-02 0.  1.
    10030    2    1    2    0    0  0.00000000000E+00  0.00000000000E+00  0.37427714472E+03  0.19897063783E+04  0.19541873223E+04 0.  0.
        5    1    3    3  502    0  0.58761785741E+03 -0.77626764546E+03  0.10315462125E+03  0.97905524340E+03  0.46999998093E+01 0.  1.
       -5    1    3    3    0  502 -0.58761785741E+03  0.77626764546E+03  0.27112252348E+03  0.10106511349E+04  0.46999998093E+01 0. -1.
</event>
<event>
 5   0  0.1207228E-04  0.2108837E+04  0.7818609E-02  0.8557361E-01
       -1   -1    0    0    0  501  0.00000000000E+00  0.00000000000E+00  0.97291564867E+03  0.97291564869E+03  0.50400001928E-02 0.  1.
        1   -1    0    0  501    0  0.00000000000E+00  0.00000000000E+00 -0.11427484521E+04  0.11427484521E+04  0.50400001928E-02 0. -1.
    10030    2    1    2    0    0  0.00000000000E+00  0.00000000000E+00 -0.16983280342E+03  0.21156641008E+04  0.21088365053E+04 0.  0.
        1    1    3    3  502    0  0.19302366765E+03 -0.10323549048E+04 -0.17893783694E+03  0.10653795264E+04  0.50400001928E-02 0. -1.
       -1    1    3    3    0  502 -0.19302366765E+03  0.10323549048E+04  0.91050335151E+01  0.10502845744E+04  0.50400001928E-02 0.  1.
</event>
<event>
 5   0  0.2488886E-04  0.1988144E+04  0.7818609E-02  0.8612184E-01
       -2   -1    0    0    0  501  0.00000000000E+00  0.00000000000E+00  0.86441035113E+03  0.86441035114E+03  0.25500000920E-02 0.  1.
        2   -1    0    0  501    0  0.00000000000E+00  0.00000000000E+00 -0.11431832734E+04  0.11431832734E+04  0.25500000920E-02 0. -1.
    10030    2    1    2    0    0  0.00000000000E+00  0.00000000000E+00 -0.27877292227E+03  0.20075936245E+04  0.19881443155E+04 0.  0.
        3    1    3    3  502    0 -0.26208279538E+03  0.28570129210E+03 -0.10636916679E+04  0.11321451296E+04  0.10100000352E+00 0. -1.
       -3    1    3    3    0  502  0.26208279538E+03 -0.28570129210E+03  0.78491874560E+03  0.87544849496E+03  0.10100000352E+00 0.  1.
</event>
<event>
 5   0  0.2540506E-04  0.1994471E+04  0.7818609E-02  0.8609210E-01
        2   -1    0    0  501    0  0.00000000000E+00  0.00000000000E+00  0.99456338787E+03  0.99456338788E+03  0.25500000920E-02 0.  1.
       -2   -1    0    0    0  501  0.00000000000E+00  0.00000000000E+00 -0.99991464574E+03  0.99991464574E+03  0.25500000920E-02 0. -1.
    10030    2    1    2    0    0  0.00000000000E+00  0.00000000000E+00 -0.53512578639E+01  0.19944780336E+04  0.19944708548E+04 0.  0.
        4    1    3    3  502    0 -0.41722458730E+03 -0.62090593676E+03  0.65677829422E+03  0.99546967770E+03  0.12699999809E+01 0.  1.
       -4    1    3    3    0  502  0.41722458730E+03  0.62090593676E+03 -0.66212955208E+03  0.99900835592E+03  0.12699999809E+01 0. -1.
</event>
<event>
 5   0  0.2488886E-04  0.1503958E+04  0.7818609E-02  0.8881825E-01
       -2   -1    0    0    0  501  0.00000000000E+00  0.00000000000E+00  0.10546472523E+04  0.10546472523E+04  0.25500000920E-02 0. -1.
        2   -1    0    0  501    0  0.00000000000E+00  0.00000000000E+00 -0.53617187578E+03  0.53617187578E+03  0.25500000920E-02 0.  1.
    10030    2    1    2    0    0  0.00000000000E+00  0.00000000000E+00  0.51847537651E+03  0.15908191281E+04  0.15039577062E+04 0.  0.
        3    1    3    3  502    0  0.12027342225E+03  0.72121807770E+03  0.44502652617E+03  0.85596134895E+03  0.10100000352E+00 0.  1.
       -3    1    3    3    0  502 -0.12027342225E+03 -0.72121807770E+03  0.73448850332E+02  0.73485777911E+03  0.10100000352E+00 0. -1.
</event>
<event>
 5   0  0.9099125E-05  0.2211025E+04  0.7818609E-02  0.8513853E-01
        4   -1    0    0  501    0  0.00000000000E+00  0.00000000000E+00  0.72665155398E+03  0.72665266380E+03  0.12699999809E+01 0. -1.
       -4   -1    0    0    0  501  0.00000000000E+00  0.00000000000E+00 -0.16819013883E+04  0.16819018678E+04  0.12699999809E+01 0.  1.
    10030    2    1    2    0    0  0.00000000000E+00  0.00000000000E+00 -0.95524983431E+03  0.24085545316E+04  0.22110252567E+04 0.  0.
        5    1    3    3  502    0  0.99827145437E+03  0.24102520899E+03 -0.31797944653E+02  0.10274591219E+04  0.46999998093E+01 0. -1.
       -5    1    3    3    0  502 -0.99827145437E+03 -0.24102520899E+03 -0.92345188966E+03  0.13810954096E+04  0.46999998093E+01 0.  1.
</event>
<event>
 5   0  0.2540506E-04  0.1991475E+04  0.7818609E-02  0.8610617E-01
        2   -1    0    0  501    0  0.00000000000E+00  0.00000000000E+00  0.25685780379E+04  0.25685780379E+04  0.25500000920E-02 0.  1.
       -2   -1    0    0    0  501  0.00000000000E+00  0.00000000000E+00 -0.38600841849E+03  0.38600841850E+03  0.25500000920E-02 0. -1.
    10030    2    1    2    0    0  0.00000000000E+00  0.00000000000E+00  0.21825696194E+04  0.29545864564E+04  0.19914745755E+04 0.  0.
        4    1    3    3  502    0  0.66594875700E+03 -0.60439436052E+03  0.17254524792E+04  0.19457564495E+04  0.12699999809E+01 0.  1.
       -4    1    3    3    0  502 -0.66594875700E+03  0.60439436052E+03  0.45711714019E+03  0.10088300069E+04  0.12699999809E+01 0. -1.
</event>
<event>
 5   0  0.1324930E-04  0.2069381E+04  0.7818609E-02  0.8574852E-01
        1   -1    0    0  501    0  0.00000000000E+00  0.00000000000E+00  0.10047529796E+04  0.10047529797E+04  0.50400001928E-02 0.  1.
       -1   -1    0    0    0  501  0.00000000000E+00  0.00000000000E+00 -0.10655205198E+04  0.10655205198E+04  0.50400001928E-02 0. -1.
    10030    2    1    2    0    0  0.00000000000E+00  0.00000000000E+00 -0.60767540108E+02  0.20702734994E+04  0.20693814700E+04 0.  0.
        5    1    3    3  502    0  0.29306615571E+03 -0.94681820352E+03 -0.32751406038E+03  0.10438582432E+04  0.46999998093E+01 0. -1.
       -5    1    3    3    0  502 -0.29306615571E+03  0.94681820352E+03  0.26674652027E+03  0.10264152562E+04  0.46999998093E+01 0.  1.
</event>
<event>
 5   0  0.2596061E-04  0.1997215E+04  0.7818609E-02  0.8607924E-01
        2   -1    0    0  501    0  0.00000000000E+00  0.00000000000E+00  0.15412913512E+04  0.15412913512E+04  0.25500000920E-02 0.  1.
       -2   -1    0    0    0  501  0.00000000000E+00  0.00000000000E+00 -0.64700119060E+03  0.64700119061E+03  0.25500000920E-02 0. -1.
    10030    2    1    2    0    0  0.00000000000E+00  0.00000000000E+00  0.89429016060E+03  0.21882925418E+04  0.19972154008E+04 0.  0.
        5    1    3    3  502    0  0.22394310369E+03  0.87509582313E+03  0.91361314952E+03  0.12847779148E+04  0.46999998093E+01 0.  1.
       -5    1    3    3    0  502 -0.22394310369E+03 -0.87509582313E+03 -0.19322988917E+02  0.90351462703E+03  0.46999998093E+01 0. -1.
</event>
<event>
 5   0  0.9099125E-05  0.2021526E+04  0.7818609E-02  0.8596622E-01
        3   -1    0    0  501    0  0.00000000000E+00  0.00000000000E+00  0.52465624750E+03  0.52465625722E+03  0.10100000352E+00 0.  1.
       -3   -1    0    0    0  501  0.00000000000E+00  0.00000000000E+00 -0.19472590241E+04  0.19472590267E+04  0.10100000352E+00 0. -1.
    10030    2    1    2    0    0  0.00000000000E+00  0.00000000000E+00 -0.14226027766E+04  0.24719152839E+04  0.20215257878E+04 0.  0.
        3    1    3    3  502    0 -0.62264008716E+03 -0.30990015913E+03 -0.16081399748E+04  0.17520938832E+04  0.10100000352E+00 0. -1.
       -3    1    3    3    0  502  0.62264008716E+03  0.30990015913E+03  0.18553719825E+03  0.71982140070E+03  0.10100000352E+00 0.  1.
</event>
<event>
 5   0  0.1210633E-04  0.2060126E+04  0.7818609E-02  0.8579015E-01
       -1   -1    0    0    0  501  0.00000000000E+00  0.00000000000E+00  0.11132491694E+04  0.11132491694E+04  0.50400001928E-02 0. -1.
        1   -1    0    0  501    0  0.00000000000E+00  0.00000000000E+00 -0.95309256157E+03  0.95309256158E+03  0.50400001928E-02 0.  1.
    10030    2    1    2    0    0  0.00000000000E+00  0.00000000000E+00  0.16015660781E+03  0.20663417310E+04  0.20601257268E+04 0.  0.
        2    1    3    3  502    0 -0.18574259434E+03 -0.84275771092E+03 -0.48401404909E+03  0.98944957951E+03  0.25500000920E-02 0.  1.
       -2    1    3    3    0  502  0.18574259434E+03  0.84275771092E+03  0.64417065690E+03  0.10768921515E+04  0.25500000920E-02 0. -1.
</event>
<event>
 5   0  0.1231056E-04  0.1815611E+04  0.7818609E-02  0.8698041E-01
       -1   -1    0    0    0  501  0.00000000000E+00  0.00000000000E+00  0.28897771872E+03  0.28897771876E+03  0.50400001928E-02 0. -1.
        1   -1    0    0  501    0  0.00000000000E+00  0.00000000000E+00 -0.28518159351E+04  0.28518159351E+04  0.50400001928E-02 0.  1.
    10030    2    1    2    0    0  0.00000000000E+00  0.00000000000E+00 -0.25628382164E+04  0.31407936539E+04  0.18156114818E+04 0.  0.
        3    1    3    3  502    0  0.28886055606E+03  0.35770529070E+03  0.72668356302E+02  0.46548275591E+03  0.10100000352E+00 0. -1.
       -3    1    3    3    0  502 -0.28886055606E+03 -0.35770529070E+03 -0.26355065727E+04  0.26753108980E+04  0.10100000352E+00 0.  1.
</event>
<event>
 5   0  0.1324930E-04  0.1989632E+04  0.7818609E-02  0.8611484E-01
        1   -1    0    0  501    0  0.00000000000E+00  0.00000000000E+00  0.17192043271E+04  0.17192043271E+04  0.50400001928E-02 0.  1.
       -1   -1    0    0    0  501  0.00000000000E+00  0.00000000000E+00 -0.57564909186E+03  0.57564909189E+03  0.50400001928E-02 0. -1.
    10030    2    1    2    0    0  0.00000000000E+00  0.00000000000E+00  0.11435552352E+04  0.22948534190E+04  0.19896315334E+04 0.  0.
        5    1    3    3  502    0  0.25062273826E+03  0.77706217792E+03 -0.83737693461E+02  0.82077492444E+03  0.46999998093E+01 0. -1.
       -5    1    3    3    0  502 -0.25062273826E+03 -0.77706217792E+03  0.12272929287E+04  0.14740784946E+04  0.46999998093E+01 0.  1.
</event>
<event>
 5   0  0.2596061E-04  0.2022145E+04  0.7818609E-02  0.8596337E-01
       -2   -1    0    0    0  501  0.00000000000E+00  0.00000000000E+00  0.55031271423E+03  0.55031271423E+03  0.25500000920E-02 0. -1.
        2   -1    0    0  501    0  0.00000000000E+00  0.00000000000E+00 -0.18576119427E+04  0.18576119427E+04  0.25500000920E-02 0.  1.
    10030    2    1    2    0    0  0.00000000000E+00  0.00000000000E+00 -0.13072992285E+04  0.24079246570E+04  0.20221448714E+04 0.  0.
        5    1    3    3  502    0  0.79579571365E+03  0.41493188737E+03 -0.99220107989E+02  0.90295404581E+03  0.46999998093E+01 0. -1.
       -5    1    3    3    0  502 -0.79579571365E+03 -0.41493188737E+03 -0.12080791205E+04  0.15049706112E+04  0.46999998093E+01 0.  1.
</event>
<event>
 5   0  0.1207228E-04  0.2015106E+04  0.7818609E-02  0.8599591E-01
        1   -1    0    0  501    0  0.00000000000E+00  0.00000000000E+00  0.97414975742E+03  0.97414975744E+03  0.50400001928E-02 0. -1.
       -1   -1    0    0    0  501  0.00000000000E+00  0.00000000000E+00 -0.10421016681E+04  0.10421016681E+04  0.50400001928E-02 0.  1.
    10030    2    1    2    0    0  0.00000000000E+00  0.00000000000E+00 -0.67951910647E+02  0.20162514255E+04  0.20151060391E+04 0.  0.
        1    1    3    3  502    0  0.65245878469E+03  0.72679703441E+03 -0.28155688050E+03  0.10164697103E+04  0.50400001928E-02 0.  1.
       -1    1    3    3    0  502 -0.65245878469E+03 -0.72679703441E+03  0.21360496986E+03  0.99978171523E+03  0.50400001928E-02 0. -1.
</event>
<event>
 5   0  0.1324930E-04  0.2019762E+04  0.7818609E-02  0.8597436E-01
        1   -1    0    0  501    0  0.00000000000E+00  0.00000000000E+00  0.10542257645E+04  0.10542257646E+04  0.50400001928E-02 0. -1.
       -1   -1    0    0    0  501  0.00000000000E+00  0.00000000000E+00 -0.96740201841E+03  0.96740201843E+03  0.50400001928E-02 0.  1.
    10030    2    1    2    0    0  0.00000000000E+00  0.00000000000E+00  0.86823746126E+02  0.20216277830E+04  0.20197624935E+04 0.  0.
        5    1    3    3  502    0 -0.14707886394E+03  0.98509193638E+03 -0.12347460948E+03  0.10036465436E+04  0.46999998093E+01 0.  1.
       -5    1    3    3    0  502  0.14707886394E+03 -0.98509193638E+03  0.21029835560E+03  0.10179812394E+04  0.46999998093E+01 0. -1.
</event>
<event>
 5   0  0.1258546E-04  0.1974245E+04  0.7818609E-02  0.8618758E-01
       -1   -1    0    0    0  501  0.00000000000E+00  0.00000000000E+00  0.57914407562E+03  0.57914407564E+03  0.50400001928E-02 0.  1.
        1   -1    0    0  501    0  0.00000000000E+00  0.00000000000E+00 -0.16825010565E+04  0.16825010565E+04  0.50400001928E-02 0. -1.
    10030    2    1    2    0    0  0.00000000000E+00  0.00000000000E+00 -0.11033569809E+04  0.22616451322E+04  0.19742446851E+04 0.  0.
        4    1    3    3  502    0  0.54023354165E+03 -0.68764646929E+03 -0.10762704416E+04  0.13867478583E+04  0.12699999809E+01 0. -1.
       -4    1    3    3    0  502 -0.54023354165E+03  0.68764646929E+03 -0.27086539324E+02  0.87489727384E+03  0.12699999809E+01 0.  1.
</event>
<event>
 5   0  0.1210633E-04  0.1997379E+04  0.7818609E-02  0.8607847E-01
        1   -1    0    0  501    0  0.00000000000E+00  0.00000000000E+00  0.14838483063E+04  0.14838483063E+04  0.50400001928E-02 0.  1.
       -1   -1    0    0    0  501  0.00000000000E+00  0.00000000000E+00 -0.67215783422E+03  0.67215783424E+03  0.50400001928E-02 0. -1.
    10030    2    1    2    0    0  0.00000000000E+00  0.00000000000E+00  0.81169047210E+03  0.21560061406E+04  0.19973785459E+04 0.  0.
        2    1    3    3  502    0  0.42617993985E+03 -0.39335358108E+03  0.12834484159E+04  0.14084020084E+04  0.25500000920E-02 0.  1.
       -2    1    3    3    0  502 -0.42617993985E+03  0.39335358108E+03 -0.47175794383E+03  0.74760413218E+03  0.25500000920E-02 0. -1.
</event>
<event>
 5   0  0.2463085E-04  0.2033499E+04  0.7818609E-02  0.8591117E-01
       -2   -1    0    0    0  501  0.00000000000E+00  0.00000000000E+00  0.83205433367E+03  0.83205433367E+03  0.25500000920E-02 0.  1.
        2   -1    0    0  501    0  0.00000000000E+00  0.00000000000E+00 -0.12424426314E+04  0.12424426314E+04  0.25500000920E-02 0. -1.
    10030    2    1    2    0    0  0.00000000000E+00  0.00000000000E+00 -0.41038829776E+03  0.20744969651E+04  0.20334992263E+04 0.  0.
        2    1    3    3  502    0  0.22482433034E+03 -0.99061332322E+03 -0.24988419712E+03  0.10460893115E+04  0.25500000920E-02 0. -1.
       -2    1    3    3    0  502 -0.22482433034E+03  0.99061332322E+03 -0.16050410064E+03  0.10284076536E+04  0.25500000920E-02 0.  1.
</event>
<event>
 5   0  0.2488886E-04  0.1947174E+04  0.7818609E-02  0.8631725E-01
        2   -1    0    0  501    0  0.00000000000E+00  0.00000000000E+00  0.19073258476E+04  0.19073258476E+04  0.25500000920E-02 0. -1.
       -2   -1    0    0    0  501  0.00000000000E+00  0.00000000000E+00 -0.49696357890E+03  0.49696357890E+03  0.25500000920E-02 0.  1.
    10030    2    1    2    0    0  0.00000000000E+00  0.00000000000E+00  0.14103622687E+04  0.24042894265E+04  0.19471738283E+04 0.  0.
        3    1    3    3  502    0 -0.53699876461E+03 -0.63523470882E+03  0.13299014090E+04  0.15686072090E+04  0.10100000352E+00 0. -1.
       -3    1    3    3    0  502  0.53699876461E+03  0.63523470882E+03  0.80460859769E+02  0.83568221750E+03  0.10100000352E+00 0.  1.
</event>
<event>
 5   0  0.2540506E-04  0.2006047E+04  0.7818609E-02  0.8603799E-01
        2   -1    0    0  501    0  0.00000000000E+00  0.00000000000E+00  0.99423771900E+03  0.99423771900E+03  0.25500000920E-02 0.  1.
       -2   -1    0    0    0  501  0.00000000000E+00  0.00000000000E+00 -0.10118872277E+04  0.10118872277E+04  0.25500000920E-02 0. -1.
    10030    2    1    2    0    0  0.00000000000E+00  0.00000000000E+00 -0.17649508725E+02  0.20061249467E+04  0.20060473067E+04 0.  0.
        4    1    3    3  502    0  0.16256496800E+03 -0.84875026047E+03 -0.51801089984E+03  0.10075421970E+04  0.12699999809E+01 0. -1.
       -4    1    3    3    0  502 -0.16256496800E+03  0.84875026047E+03  0.50036139111E+03  0.99858274974E+03  0.12699999809E+01 0.  1.
</event>
<event>
 5   0  0.1324930E-04  0.2025315E+04  0.7818609E-02  0.8594876E-01
       -1   -1    0    0    0  501  0.00000000000E+00  0.00000000000E+00  0.11268964620E+04  0.11268964620E+04  0.50400001928E-02 0. -1.
        1   -1    0    0  501    0  0.00000000000E+00  0.00000000000E+00 -0.90999911381E+03  0.90999911382E+03  0.50400001928E-02 0.  1.
    10030    2    1    2    0    0  0.00000000000E+00  0.00000000000E+00  0.21689734815E+03  0.20368955758E+04  0.20253145748E+04 0.  0.
        5    1    3    3  502    0 -0.11660227649E+03 -0.76729121824E+03 -0.54574818983E+03  0.94878610929E+03  0.46999998093E+01 0.  1.
       -5    1    3    3    0  502  0.11660227649E+03  0.76729121824E+03  0.76264553798E+03  0.10881094665E+04  0.46999998093E+01 0. -1.
</event>
<event>
 5   0  0.2421737E-04  0.1885940E+04  0.7818609E-02  0.8661887E-01
        2   -1    0    0  501    0  0.00000000000E+00  0.00000000000E+00  0.77212744585E+03  0.77212744585E+03  0.25500000920E-02 0. -1.
       -2   -1    0    0    0  501  0.00000000000E+00  0.00000000000E+00 -0.11516133179E+04  0.11516133179E+04  0.25500000920E-02 0.  1.
    10030    2    1    2    0    0  0.00000000000E+00  0.00000000000E+00 -0.37948587209E+03  0.19237407638E+04  0.18859398185E+04 0.  0.
        1    1    3    3  502    0 -0.25804984264E+03  0.31846271320E+03 -0.10559899845E+04  0.11327502233E+04  0.50400001928E-02 0.  1.
       -1    1    3    3    0  502  0.25804984264E+03 -0.31846271320E+03  0.67650411242E+03  0.79099054048E+03  0.50400001928E-02 0. -1.
</event>
<event>
 5   0  0.2596061E-04  0.1987079E+04  0.7818609E-02  0.8612685E-01
        2   -1    0    0  501    0  0.00000000000E+00  0.00000000000E+00  0.17549981182E+04  0.17549981182E+04  0.25500000920E-02 0. -1.
       -2   -1    0    0    0  501  0.00000000000E+00  0.00000000000E+00 -0.56246265466E+03  0.56246265466E+03  0.25500000920E-02 0.  1.
    10030    2    1    2    0    0  0.00000000000E+00  0.00000000000E+00  0.11925354635E+04  0.23174607728E+04  0.19870791635E+04 0.  0.
        5    1    3    3  502    0 -0.46961057120E+03  0.76622390224E+03  0.10219840247E+03  0.90448867346E+03  0.46999998093E+01 0.  1.
       -5    1    3    3    0  502  0.46961057120E+03 -0.76622390224E+03  0.10903370610E+04  0.14129720994E+04  0.46999998093E+01 0. -1.
</event>
<event>
 5   0  0.1258546E-04  0.1983114E+04  0.7818609E-02  0.8614556E-01
        1   -1    0    0  501    0  0.00000000000E+00  0.00000000000E+00  0.81158469541E+03  0.81158469542E+03  0.50400001928E-02 0.  1.
       -1   -1    0    0    0  501  0.00000000000E+00  0.00000000000E+00 -0.12114389374E+04  0.12114389374E+04  0.50400001928E-02 0. -1.
    10030    2    1    2    0    0  0.00000000000E+00  0.00000000000E+00 -0.39985424199E+03  0.20230236328E+04  0.19831140169E+04 0.  0.
        4    1    3    3  502    0 -0.85576729525E+03  0.29781789277E+03  0.21085587173E+03  0.93031982265E+03  0.12699999809E+01 0.  1.
       -4    1    3    3    0  502  0.85576729525E+03 -0.29781789277E+03 -0.61071011372E+03  0.10927038102E+04  0.12699999809E+01 0. -1.
</event>
<event>
 5   0  0.1210633E-04  0.2033186E+04  0.7818609E-02  0.8591261E-01
       -1   -1    0    0    0  501  0.00000000000E+00  0.00000000000E+00  0.53480116252E+03  0.53480116255E+03  0.50400001928E-02 0. -1.
        1   -1    0    0  501    0  0.00000000000E+00  0.00000000000E+00 -0.19324210807E+04  0.19324210807E+04  0.50400001928E-02 0.  1.
    10030    2    1    2    0    0  0.00000000000E+00  0.00000000000E+00 -0.13976199182E+04  0.24672222433E+04  0.20331857175E+04 0.  0.
        2    1    3    3  502    0 -0.51823542976E+03 -0.22100499934E+03  0.32803022678E+03  0.65193174496E+03  0.25500000920E-02 0. -1.
       -2    1    3    3    0  502  0.51823542976E+03  0.22100499934E+03 -0.17256501450E+04  0.18152904983E+04  0.25500000920E-02 0.  1.
</event>
<event>
 5   0  0.1210633E-04  0.2003031E+04  0.7818609E-02  0.8605205E-01
       -1   -1    0    0    0  501  0.00000000000E+00  0.00000000000E+00  0.13875154169E+04  0.13875154169E+04  0.50400001928E-02 0.  1.
        1   -1    0    0  501    0  0.00000000000E+00  0.00000000000E+00 -0.72289873220E+03  0.72289873222E+03  0.50400001928E-02 0. -1.
    10030    2    1    2    0    0  0.00000000000E+00  0.00000000000E+00  0.66461668471E+03  0.21104141491E+04  0.20030308393E+04 0.  0.
        2    1    3    3  502    0 -0.77195506383E+03 -0.26472469026E+03 -0.27936613650E+03  0.86257708087E+03  0.25500000920E-02 0. -1.
       -2    1    3    3    0  502  0.77195506383E+03  0.26472469026E+03  0.94398282121E+03  0.12478370683E+04  0.25500000920E-02 0.  1.
</event>
<event>
 5   0  0.1231056E-04  0.1941450E+04  0.7818609E-02  0.8634495E-01
        1   -1    0    0  501    0  0.00000000000E+00  0.00000000000E+00  0.87651400841E+03  0.87651400843E+03  0.50400001928E-02 0.  1.
       -1   -1    0    0    0  501  0.00000000000E+00  0.00000000000E+00 -0.10750618395E+04  0.10750618396E+04  0.50400001928E-02 0. -1.
    10030    2    1    2    0    0  0.00000000000E+00  0.00000000000E+00 -0.19854783113E+03  0.19515758480E+04  0.19414497287E+04 0.  0.
        3    1    3    3  502    0  0.80275080286E+03  0.27522640901E+03  0.37451053819E+03  0.92758642784E+03  0.10100000352E+00 0.  1.
       -3    1    3    3    0  502 -0.80275080286E+03 -0.27522640901E+03 -0.57305836931E+03  0.10239894201E+04  0.10100000352E+00 0. -1.
</event>
<event>
 5   0  0.1210633E-04  0.1962322E+04  0.7818609E-02  0.8624442E-01
       -1   -1    0    0    0  501  0.00000000000E+00  0.00000000000E+00  0.56924791234E+03  0.56924791237E+03  0.50400001928E-02 0. -1.
        1   -1    0    0  501    0  0.00000000000E+00  0.00000000000E+00 -0.16911382415E+04  0.16911382415E+04  0.50400001928E-02 0.  1.
    10030    2    1    2    0    0  0.00000000000E+00  0.00000000000E+00 -0.11218903291E+04  0.22603861538E+04  0.19623220057E+04 0.  0.
        2    1    3    3  502    0  0.66324972090E+03 -0.64349452421E+03 -0.18118431318E+03  0.94170757155E+03  0.25500000920E-02 0. -1.
       -2    1    3    3    0  502 -0.66324972090E+03  0.64349452421E+03 -0.94070601594E+03  0.13186785823E+04  0.25500000920E-02 0.  1.
</event>
<event>
 5   0  0.2463085E-04  0.1954238E+04  0.7818609E-02  0.8628320E-01
        2   -1    0    0  501    0  0.00000000000E+00  0.00000000000E+00  0.10658936216E+04  0.10658936216E+04  0.25500000920E-02 0.  1.
       -2   -1    0    0    0  501  0.00000000000E+00  0.00000000000E+00 -0.89573766607E+03  0.89573766608E+03  0.25500000920E-02 0. -1.
    10030    2    1    2    0    0  0.00000000000E+00  0.00000000000E+00  0.17015595556E+03  0.19616312877E+04  0.19542375136E+04 0.  0.
        2    1    3    3  502    0 -0.97039529501E+03  0.95753575091E+02  0.14796714790E+03  0.98627078056E+03  0.25500000920E-02 0.  1.
       -2    1    3    3    0  502  0.97039529501E+03 -0.95753575091E+02  0.22188807658E+02  0.97536050716E+03  0.25500000920E-02 0. -1.
</event>
<event>
 5   0  0.2463085E-04  0.2048476E+04  0.7818609E-02  0.8584286E-01
        2   -1    0    0  501    0  0.00000000000E+00  0.00000000000E+00  0.11438853760E+04  0.11438853760E+04  0.25500000920E-02 0. -1.
       -2   -1    0    0    0  501  0.00000000000E+00  0.00000000000E+00 -0.91710585661E+03  0.91710585661E+03  0.25500000920E-02 0.  1.
    10030    2    1    2    0    0  0.00000000000E+00  0.00000000000E+00  0.22677951943E+03  0.20609912327E+04  0.20484764853E+04 0.  0.
        2    1    3    3  502    0  0.43085315607E+03  0.88955384960E+03  0.38358861875E+03  0.10602267314E+04  0.25500000920E-02 0.  1.
       -2    1    3    3    0  502 -0.43085315607E+03 -0.88955384960E+03 -0.15680909933E+03  0.10007645013E+04  0.25500000920E-02 0. -1.
</event>
<event>
 5   0  0.2488886E-04  0.2019478E+04  0.7818609E-02  0.8597568E-01
       -2   -1    0    0    0  501  0.00000000000E+00  0.00000000000E+00  0.58927716852E+03  0.58927716852E+03  0.25500000920E-02 0.  1.
        2   -1    0    0  501    0  0.00000000000E+00  0.00000000000E+00 -0.17302100673E+04  0.17302100673E+04  0.25500000920E-02 0. -1.
    10030    2    1    2    0    0  0.00000000000E+00  0.00000000000E+00 -0.11409328988E+04  0.23194872359E+04  0.20194784370E+04 0.  0.
        3    1    3    3  502    0  0.74248401240E+03 -0.16472675882E+03 -0.13333333912E+04  0.15349903440E+04  0.10100000352E+00 0. -1.
       -3    1    3    3    0  502 -0.74248401240E+03  0.16472675882E+03  0.19240049238E+03  0.78449689191E+03  0.10100000352E+00 0.  1.
</event>
<event>
 5   0  0.1207228E-04  0.2045195E+04  0.7818609E-02  0.8585777E-01
       -1   -1    0    0    0  501  0.00000000000E+00  0.00000000000E+00  0.83077931048E+03  0.83077931050E+03  0.50400001928E-02 0. -1.
        1   -1    0    0  501    0  0.00000000000E+00  0.00000000000E+00 -0.12587042794E+04  0.12587042794E+04  0.50400001928E-02 0.  1.
    10030    2    1    2    0    0  0.00000000000E+00  0.00000000000E+00 -0.42792496894E+03  0.20894835899E+04  0.20451948302E+04 0.  0.
        1    1    3    3  502    0 -0.21537517337E+03  0.85747592045E+03 -0.73895208204E+03  0.11522593454E+04  0.50400001928E-02 0.  1.
       -1    1    3    3    0  502  0.21537517337E+03 -0.85747592045E+03  0.31102711311E+03  0.93722424455E+03  0.50400001928E-02 0. -1.
</event>
<event>
 5   0  0.1210633E-04  0.2090591E+04  0.7818609E-02  0.8565399E-01
        1   -1    0    0  501    0  0.00000000000E+00  0.00000000000E+00  0.15478162131E+04  0.15478162131E+04  0.50400001928E-02 0.  1.
       -1   -1    0    0    0  501  0.00000000000E+00  0.00000000000E+00 -0.70592549627E+03  0.70592549629E+03  0.50400001928E-02 0. -1.
    10030    2    1    2    0    0  0.00000000000E+00  0.00000000000E+00  0.84189071686E+03  0.22537417094E+04  0.20905912354E+04 0.  0.
        2    1    3    3  502    0  0.49470239825E+03  0.71335943918E+03 -0.20675818275E+03  0.89239066470E+03  0.25500000920E-02 0. -1.
       -2    1    3    3    0  502 -0.49470239825E+03 -0.71335943918E+03  0.10486488996E+04  0.13613510447E+04  0.25500000920E-02 0.  1.
</event>
<event>
 5   0  0.1210633E-04  0.2002888E+04  0.7818609E-02  0.8605272E-01
       -1   -1    0    0    0  501  0.00000000000E+00  0.00000000000E+00  0.43242388444E+03  0.43242388447E+03  0.50400001928E-02 0.  1.
        1   -1    0    0  501    0  0.00000000000E+00  0.00000000000E+00 -0.23192281441E+04  0.23192281441E+04  0.50400001928E-02 0. -1.
    10030    2    1    2    0    0  0.00000000000E+00  0.00000000000E+00 -0.18868042597E+04  0.27516520286E+04  0.20028875585E+04 0.  0.
        2    1    3    3  502    0  0.61540520248E+03 -0.65864803419E+03 -0.34400857494E+03  0.96482262402E+03  0.25500000920E-02 0.  1.
       -2    1    3    3    0  502 -0.61540520248E+03  0.65864803419E+03 -0.15427956847E+04  0.17868294046E+04  0.25500000920E-02 0. -1.
</event>
<event>
 5   0  0.2488886E-04  0.1997545E+04  0.7818609E-02  0.8607769E-01
       -2   -1    0    0    0  501  0.00000000000E+00  0.00000000000E+00  0.14853244855E+04  0.14853244855E+04  0.25500000920E-02 0.  1.
        2   -1    0    0  501    0  0.00000000000E+00  0.00000000000E+00 -0.67160158378E+03  0.67160158378E+03  0.25500000920E-02 0. -1.
    10030    2    1    2    0    0  0.00000000000E+00  0.00000000000E+00  0.81372290176E+03  0.21569260693E+04  0.19975447699E+04 0.  0.
        3    1    3    3  502    0  0.76842068196E+03 -0.60895872715E+03  0.61243343779E+03  0.11560172152E+04  0.10100000352E+00 0.  1.
       -3    1    3    3    0  502 -0.76842068196E+03  0.60895872715E+03  0.20128946397E+03  0.10009088542E+04  0.10100000352E+00 0. -1.
</event>
<event>
 5   0  0.2463085E-04  0.2213016E+04  0.7818609E-02  0.8513030E-01
        2   -1    0    0  501    0  0.00000000000E+00  0.00000000000E+00  0.10545194811E+04  0.10545194811E+04  0.25500000920E-02 0. -1.
       -2   -1    0    0    0  501  0.00000000000E+00  0.00000000000E+00 -0.11610598099E+04  0.11610598099E+04  0.25500000920E-02 0.  1.
    10030    2    1    2    0    0  0.00000000000E+00  0.00000000000E+00 -0.10654032882E+03  0.22155792911E+04  0.22130162117E+04 0.  0.
        2    1    3    3  502    0  0.69110974109E+03 -0.84162797606E+03  0.14289007756E+03  0.10983569086E+04  0.25500000920E-02 0. -1.
       -2    1    3    3    0  502 -0.69110974109E+03  0.84162797606E+03 -0.24943040639E+03  0.11172223825E+04  0.25500000920E-02 0.  1.
</event>
<event>
 5   0  0.2463085E-04  0.1963822E+04  0.7818609E-02  0.8623724E-01
        2   -1    0    0  501    0  0.00000000000E+00  0.00000000000E+00  0.20583590037E+04  0.20583590037E+04  0.25500000920E-02 0.  1.
       -2   -1    0    0    0  501  0.00000000000E+00  0.00000000000E+00 -0.46840691288E+03  0.46840691288E+03  0.25500000920E-02 0. -1.
    10030    2    1    2    0    0  0.00000000000E+00  0.00000000000E+00  0.15899520909E+04  0.25267659166E+04  0.19638223815E+04 0.  0.
        2    1    3    3  502    0  0.40768703313E+03  0.78731491524E+03  0.25201882231E+03  0.92173042672E+03  0.25500000920E-02 0. -1.
       -2    1    3    3    0  502 -0.40768703313E+03 -0.78731491524E+03  0.13379332685E+04  0.16050354899E+04  0.25500000920E-02 0.  1.
</event>
<event>
 5   0  0.1258546E-04  0.1900066E+04  0.7818609E-02  0.8654824E-01
       -1   -1    0    0    0  501  0.00000000000E+00  0.00000000000E+00  0.21387564558E+04  0.21387564558E+04  0.50400001928E-02 0. -1.
        1   -1    0    0  501    0  0.00000000000E+00  0.00000000000E+00 -0.42200349860E+03  0.42200349863E+03  0.50400001928E-02 0.  1.
    10030    2    1    2    0    0  0.00000000000E+00  0.00000000000E+00  0.17167529572E+04  0.25607599544E+04  0.19000660062E+04 0.  0.
        4    1    3    3  502    0  0.63423158922E+03  0.33893548275E+03  0.16950870620E+04  0.18413171185E+04  0.12699999809E+01 0. -1.
       -4    1    3    3    0  502 -0.63423158922E+03 -0.33893548275E+03  0.21665895189E+02  0.71944283591E+03  0.12699999809E+01 0.  1.
</event>
<event>
 5   0  0.9099125E-05  0.2047495E+04  0.7818609E-02  0.8584731E-01
       -3   -1    0    0    0  501  0.00000000000E+00  0.00000000000E+00  0.14130672156E+04  0.14130672192E+04  0.10100000352E+00 0.  1.
        3   -1    0    0  501    0  0.00000000000E+00  0.00000000000E+00 -0.74169104313E+03  0.74169105001E+03  0.10100000352E+00 0. -1.
    10030    2    1    2    0    0  0.00000000000E+00  0.00000000000E+00  0.67137617242E+03  0.21547582692E+04  0.20474953562E+04 0.  0.
        4    1    3    3  502    0 -0.44147893678E+03 -0.24999748765E+03 -0.60008214200E+03  0.78581332738E+03  0.12699999809E+01 0. -1.
       -4    1    3    3    0  502  0.44147893678E+03  0.24999748765E+03  0.12714583144E+04  0.13689449418E+04  0.12699999809E+01 0.  1.
</event>
<event>
 5   0  0.2421737E-04  0.1987743E+04  0.7818609E-02  0.8612373E-01
        2   -1    0    0  501    0  0.00000000000E+00  0.00000000000E+00  0.76217180069E+03  0.76217180069E+03  0.25500000920E-02 0.  1.
       -2   -1    0    0    0  501  0.00000000000E+00  0.00000000000E+00 -0.12960072253E+04  0.12960072253E+04  0.25500000920E-02 0. -1.
    10030    2    1    2    0    0  0.00000000000E+00  0.00000000000E+00 -0.53383542465E+03  0.20581790260E+04  0.19877425997E+04 0.  0.
        1    1    3    3  502    0  0.75851424071E+02  0.72466634056E+03  0.43296723174E+03  0.84755847436E+03  0.50400001928E-02 0.  1.
       -1    1    3    3    0  502 -0.75851424071E+02 -0.72466634056E+03 -0.96680265639E+03  0.12106205517E+04  0.50400001928E-02 0. -1.
</event>
<event>
 5   0  0.2488886E-04  0.1989993E+04  0.7818609E-02  0.8611313E-01
        2   -1    0    0  501    0  0.00000000000E+00  0.00000000000E+00  0.18319345286E+04  0.18319345287E+04  0.25500000920E-02 0. -1.
       -2   -1    0    0    0  501  0.00000000000E+00  0.00000000000E+00 -0.54042240599E+03  0.54042240600E+03  0.25500000920E-02 0.  1.
    10030    2    1    2    0    0  0.00000000000E+00  0.00000000000E+00  0.12915121227E+04  0.23723569347E+04  0.19899934328E+04 0.  0.
        3    1    3    3  502    0  0.53146021519E+03  0.71076880077E+03  0.11820564533E+04  0.14781406285E+04  0.10100000352E+00 0. -1.
       -3    1    3    3    0  502 -0.53146021519E+03 -0.71076880077E+03  0.10945566931E+03  0.89421630617E+03  0.10100000352E+00 0.  1.
</event>
<event>
 5   0  0.9099125E-05  0.2018828E+04  0.7818609E-02  0.8597868E-01
        4   -1    0    0  501    0  0.00000000000E+00  0.00000000000E+00  0.75405429076E+03  0.75405536024E+03  0.12699999809E+01 0.  1.
       -4   -1    0    0    0  501  0.00000000000E+00  0.00000000000E+00 -0.13512483723E+04  0.13512489691E+04  0.12699999809E+01 0. -1.
    10030    2    1    2    0    0  0.00000000000E+00  0.00000000000E+00 -0.59719408153E+03  0.21053043293E+04  0.20188277658E+04 0.  0.
        1    1    3    3  502    0 -0.77627882290E+02  0.40151766633E+03  0.66379555700E+03  0.77965830080E+03  0.50400001928E-02 0.  1.
       -1    1    3    3    0  502  0.77627882290E+02 -0.40151766633E+03 -0.12609896385E+04  0.13256460285E+04  0.50400001928E-02 0. -1.
</event>
<event>
 5   0  0.2488886E-04  0.1857917E+04  0.7818609E-02  0.8676092E-01
       -2   -1    0    0    0  501  0.00000000000E+00  0.00000000000E+00  0.63805069327E+03  0.63805069328E+03  0.25500000920E-02 0.  1.
        2   -1    0    0  501    0  0.00000000000E+00  0.00000000000E+00 -0.13525000859E+04  0.13525000859E+04  0.25500000920E-02 0. -1.
    10030    2    1    2    0    0  0.00000000000E+00  0.00000000000E+00 -0.71444939261E+03  0.19905507792E+04  0.18579167015E+04 0.  0.
        3    1    3    3  502    0 -0.65659242524E+03 -0.27607335630E+02 -0.10606693012E+04  0.12477560477E+04  0.10100000352E+00 0. -1.
       -3    1    3    3    0  502  0.65659242524E+03  0.27607335630E+02  0.34621990855E+03  0.74279473150E+03  0.10100000352E+00 0.  1.
</event>
<event>
 5   0  0.2463085E-04  0.1965981E+04  0.7818609E-02  0.8622693E-01
        2   -1    0    0  501    0  0.00000000000E+00  0.00000000000E+00  0.20243217573E+04  0.20243217573E+04  0.25500000920E-02 0. -1.
       -2   -1    0    0    0  501  0.00000000000E+00  0.00000000000E+00 -0.47733024570E+03  0.47733024571E+03  0.25500000920E-02 0.  1.
    10030    2    1    2    0    0  0.00000000000E+00  0.00000000000E+00  0.15469915116E+04  0.25016520030E+04  0.19659806732E+04 0.  0.
        2    1    3    3  502    0  0.30787733262E+03 -0.62630396706E+02 -0.41171929441E+03  0.51790326890E+03  0.25500000920E-02 0.  1.
       -2    1    3    3    0  502 -0.30787733262E+03  0.62630396706E+02  0.19587108060E+04  0.19837487341E+04  0.25500000920E-02 0. -1.
</event>
<event>
 5   0  0.2488886E-04  0.1685806E+04  0.7818609E-02  0.8769501E-01
        2   -1    0    0  501    0  0.00000000000E+00  0.00000000000E+00  0.79745584211E+03  0.79745584211E+03  0.25500000920E-02 0.  1.
       -2   -1    0    0    0  501  0.00000000000E+00  0.00000000000E+00 -0.89093998305E+03  0.89093998305E+03  0.25500000920E-02 0. -1.
    10030    2    1    2    0    0  0.00000000000E+00  0.00000000000E+00 -0.93484140940E+02  0.16883958252E+04  0.16858057948E+04 0.  0.
        3    1    3    3  502    0  0.24106519488E+03 -0.74747534928E+03 -0.35324077042E+03  0.86116832155E+03  0.10100000352E+00 0. -1.
       -3    1    3    3    0  502 -0.24106519488E+03  0.74747534928E+03  0.25975662948E+03  0.82722750361E+03  0.10100000352E+00 0.  1.
</event>
<event>
 5   0  0.1231056E-04  0.2083386E+04  0.7818609E-02  0.8568598E-01
        1   -1    0    0  501    0  0.00000000000E+00  0.00000000000E+00  0.11110640770E+04  0.11110640770E+04  0.50400001928E-02 0.  1.
       -1   -1    0    0    0  501  0.00000000000E+00  0.00000000000E+00 -0.97665275132E+03  0.97665275134E+03  0.50400001928E-02 0. -1.
    10030    2    1    2    0    0  0.00000000000E+00  0.00000000000E+00  0.13441132565E+03  0.20877168283E+04  0.20833855022E+04 0.  0.
        3    1    3    3  502    0  0.68647165467E+03  0.21952305454E+03  0.82089302515E+03  0.10923822926E+04  0.10100000352E+00 0.  1.
       -3    1    3    3    0  502 -0.68647165467E+03 -0.21952305454E+03 -0.68648169950E+03  0.99533453577E+03  0.10100000352E+00 0. -1.
</event>
<event>
 5   0  0.1324930E-04  0.1917790E+04  0.7818609E-02  0.8646052E-01
       -1   -1    0    0    0  501  0.00000000000E+00  0.00000000000E+00  0.23873154014E+04  0.23873154014E+04  0.50400001928E-02 0. -1.
        1   -1    0    0  501    0  0.00000000000E+00  0.00000000000E+00 -0.38515210787E+03  0.38515210790E+03  0.50400001928E-02 0.  1.
    10030    2    1    2    0    0  0.00000000000E+00  0.00000000000E+00  0.20021632935E+04  0.27724675093E+04  0.19177899354E+04 0.  0.
        5    1    3    3  502    0 -0.69773541677E+03 -0.60138107530E+02  0.19479665600E+04  0.20700355341E+04  0.46999998093E+01 0. -1.
       -5    1    3    3    0  502  0.69773541677E+03  0.60138107530E+02  0.54196733536E+02  0.70243197516E+03  0.46999998093E+01 0.  1.
</event>
<event>
 5   0  0.2421737E-04  0.1885541E+04  0.7818609E-02  0.8662087E-01
        2   -1    0    0  501    0  0.00000000000E+00  0.00000000000E+00  0.78867695074E+03  0.78867695075E+03  0.25500000920E-02 0.  1.
       -2   -1    0    0    0  501  0.00000000000E+00  0.00000000000E+00 -0.11269711738E+04  0.11269711738E+04  0.25500000920E-02 0. -1.
    10030    2    1    2    0    0  0.00000000000E+00  0.00000000000E+00 -0.33829422303E+03  0.19156481245E+04  0.18855409716E+04 0.  0.
        1    1    3    3  502    0 -0.22408656779E+03 -0.52821831323E+03  0.59085272802E+03  0.82361175473E+03  0.50400001928E-02 0.  1.
       -1    1    3    3    0  502  0.22408656779E+03  0.52821831323E+03 -0.92914695104E+03  0.10920363698E+04  0.50400001928E-02 0. -1.
</event>
<event>
 5   0  0.1210633E-04  0.2017494E+04  0.7818609E-02  0.8598485E-01
        1   -1    0    0  501    0  0.00000000000E+00  0.00000000000E+00  0.11934738550E+04  0.11934738550E+04  0.50400001928E-02 0.  1.
       -1   -1    0    0    0  501  0.00000000000E+00  0.00000000000E+00 -0.85261233469E+03  0.85261233470E+03  0.50400001928E-02 0. -1.
    10030    2    1    2    0    0  0.00000000000E+00  0.00000000000E+00  0.34086152032E+03  0.20460861897E+04  0.20174940198E+04 0.  0.
        2    1    3    3  502    0  0.92128357809E+03  0.45489852502E+01 -0.24622788768E+03  0.95363111170E+03  0.25500000920E-02 0. -1.
       -2    1    3    3    0  502 -0.92128357809E+03 -0.45489852502E+01  0.58708940800E+03  0.10924550780E+04  0.25500000920E-02 0.  1.
</event>
<event>
 5   0  0.2463085E-04  0.1996435E+04  0.7818609E-02  0.8608289E-01
        2   -1    0    0  501    0  0.00000000000E+00  0.00000000000E+00  0.12773093303E+04  0.12773093303E+04  0.25500000920E-02 0.  1.
       -2   -1    0    0    0  501  0.00000000000E+00  0.00000000000E+00 -0.78010711191E+03  0.78010711192E+03  0.25500000920E-02 0. -1.
    10030    2    1    2    0    0  0.00000000000E+00  0.00000000000E+00  0.49720221839E+03  0.20574164422E+04  0.19964349152E+04 0.  0.
        2    1    3    3  502    0 -0.47334510725E+03 -0.63807323522E+03 -0.37421411260E+03  0.87819658741E+03  0.25500000920E-02 0. -1.
       -2    1    3    3    0  502  0.47334510725E+03  0.63807323522E+03  0.87141633099E+03  0.11792198548E+04  0.25500000920E-02 0.  1.
</event>
<event>
 5   0  0.1207228E-04  0.2005674E+04  0.7818609E-02  0.8603972E-01
       -1   -1    0    0    0  501  0.00000000000E+00  0.00000000000E+00  0.12072886176E+04  0.12072886176E+04  0.50400001928E-02 0. -1.
        1   -1    0    0  501    0  0.00000000000E+00  0.00000000000E+00 -0.83300914792E+03  0.83300914793E+03  0.50400001928E-02 0.  1.
    10030    2    1    2    0    0  0.00000000000E+00  0.00000000000E+00  0.37427946968E+03  0.20402977655E+04  0.20056744129E+04 0.  0.
        1    1    3    3  502    0 -0.87349866452E+03  0.82353368961E+02  0.68122001594E+03  0.11107847246E+04  0.50400001928E-02 0. -1.
       -1    1    3    3    0  502  0.87349866452E+03 -0.82353368961E+02 -0.30694054625E+03  0.92951304093E+03  0.50400001928E-02 0.  1.
</event>
<event>
 5   0  0.2540506E-04  0.1999984E+04  0.7818609E-02  0.8606628E-01
       -2   -1    0    0    0  501  0.00000000000E+00  0.00000000000E+00  0.94892311757E+03  0.94892311757E+03  0.25500000920E-02 0. -1.
        2   -1    0    0  501    0  0.00000000000E+00  0.00000000000E+00 -0.10538090137E+04  0.10538090137E+04  0.25500000920E-02 0.  1.
    10030    2    1    2    0    0  0.00000000000E+00  0.00000000000E+00 -0.10488589617E+03  0.20027321313E+04  0.19999837346E+04 0.  0.
        4    1    3    3  502    0 -0.22937826230E+03 -0.81965307543E+03  0.47319417082E+03  0.97383771106E+03  0.12699999809E+01 0. -1.
       -4    1    3    3    0  502  0.22937826230E+03  0.81965307543E+03 -0.57808006699E+03  0.10288944203E+04  0.12699999809E+01 0.  1.
</event>
<event>
 5   0  0.1258546E-04  0.1993502E+04  0.7818609E-02  0.8609664E-01
        1   -1    0    0  501    0  0.00000000000E+00  0.00000000000E+00  0.17572035327E+04  0.17572035327E+04  0.50400001928E-02 0. -1.
       -1   -1    0    0    0  501  0.00000000000E+00  0.00000000000E+00 -0.56539439158E+03  0.56539439160E+03  0.50400001928E-02 0.  1.
    10030    2    1    2    0    0  0.00000000000E+00  0.00000000000E+00  0.11918091411E+04  0.23225979243E+04  0.19935024678E+04 0.  0.
        4    1    3    3  502    0 -0.63057446536E+03  0.36240806803E+03 -0.19819029405E+03  0.75382011760E+03  0.12699999809E+01 0.  1.
       -4    1    3    3    0  502  0.63057446536E+03 -0.36240806803E+03  0.13899994352E+04  0.15687778067E+04  0.12699999809E+01 0. -1.
</event>
<event>
 5   0  0.2596061E-04  0.1441307E+04  0.7818609E-02  0.8924449E-01
        2   -1    0    0  501    0  0.00000000000E+00  0.00000000000E+00  0.99999815926E+03  0.99999815926E+03  0.25500000920E-02 0. -1.
       -2   -1    0    0    0  501  0.00000000000E+00  0.00000000000E+00 -0.51934254559E+03  0.51934254560E+03  0.25500000920E-02 0.  1.
    10030    2    1    2    0    0  0.00000000000E+00  0.00000000000E+00  0.48065561367E+03  0.15193407049E+04  0.14413071701E+04 0.  0.
        5    1    3    3  502    0  0.13443183828E+03 -0.19378087010E+03 -0.47749220339E+03  0.53258223689E+03  0.46999998093E+01 0.  1.
       -5    1    3    3    0  502 -0.13443183828E+03  0.19378087010E+03  0.95814781706E+03  0.98675846796E+03  0.46999998093E+01 0. -1.
</event>
<event>
 5   0  0.1210633E-04  0.1987023E+04  0.7818609E-02  0.8612712E-01
        1   -1    0    0  501    0  0.00000000000E+00  0.00000000000E+00  0.88891233824E+03  0.88891233826E+03  0.50400001928E-02 0. -1.
       -1   -1    0    0    0  501  0.00000000000E+00  0.00000000000E+00 -0.11104185090E+04  0.11104185090E+04  0.50400001928E-02 0.  1.
    10030    2    1    2    0    0  0.00000000000E+00  0.00000000000E+00 -0.22150617075E+03  0.19993308473E+04  0.19870226101E+04 0.  0.
        2    1    3    3  502    0 -0.11542491250E+03 -0.39101104751E+03  0.80086793641E+03  0.89866679102E+03  0.25500000920E-02 0. -1.
       -2    1    3    3    0  502  0.11542491250E+03  0.39101104751E+03 -0.10223741072E+04  0.11006640562E+04  0.25500000920E-02 0.  1.
</event>
<event>
 5   0  0.1324930E-04  0.1985444E+04  0.7818609E-02  0.8613457E-01
       -1   -1    0    0    0  501  0.00000000000E+00  0.00000000000E+00  0.12310680668E+04  0.12310680668E+04  0.50400001928E-02 0. -1.
        1   -1    0    0  501    0  0.00000000000E+00  0.00000000000E+00 -0.80052173336E+03  0.80052173338E+03  0.50400001928E-02 0.  1.
    10030    2    1    2    0    0  0.00000000000E+00  0.00000000000E+00  0.43054633340E+03  0.20315898001E+04  0.19854437718E+04 0.  0.
        5    1    3    3  502    0 -0.75075532419E+02  0.26805406555E+03 -0.75975654192E+03  0.80916092998E+03  0.46999998093E+01 0.  1.
       -5    1    3    3    0  502  0.75075532419E+02 -0.26805406555E+03  0.11903028753E+04  0.12224288702E+04  0.46999998093E+01 0. -1.
</event>
<event>
 5   0  0.2421737E-04  0.1915414E+04  0.7818609E-02  0.8647222E-01
       -2   -1    0    0    0  501  0.00000000000E+00  0.00000000000E+00  0.44168403984E+03  0.44168403985E+03  0.25500000920E-02 0. -1.
        2   -1    0    0  501    0  0.00000000000E+00  0.00000000000E+00 -0.20766025922E+04  0.20766025922E+04  0.25500000920E-02 0.  1.
    10030    2    1    2    0    0  0.00000000000E+00  0.00000000000E+00 -0.16349185523E+04  0.25182866320E+04  0.19154135032E+04 0.  0.
        1    1    3    3  502    0 -0.65771529183E+03  0.60223854573E+03 -0.12765334430E+04  0.15571828095E+04  0.50400001928E-02 0.  1.
       -1    1    3    3    0  502  0.65771529183E+03 -0.60223854573E+03 -0.35838510934E+03  0.96110382253E+03  0.50400001928E-02 0. -1.
</event>
<event>
 5   0  0.1231056E-04  0.2203767E+04  0.7818609E-02  0.8516862E-01
        1   -1    0    0  501    0  0.00000000000E+00  0.00000000000E+00  0.64957400083E+03  0.64957400085E+03  0.50400001928E-02 0. -1.
       -1   -1    0    0    0  501  0.00000000000E+00  0.00000000000E+00 -0.18691444222E+04  0.18691444222E+04  0.50400001928E-02 0.  1.
    10030    2    1    2    0    0  0.00000000000E+00  0.00000000000E+00 -0.12195704213E+04  0.25187184230E+04  0.22037673384E+04 0.  0.
        3    1    3    3  502    0 -0.23025222128E+03  0.10160077799E+04 -0.10200577615E+04  0.14580143145E+04  0.10100000352E+00 0.  1.
       -3    1    3    3    0  502  0.23025222128E+03 -0.10160077799E+04 -0.19951265986E+03  0.10607041086E+04  0.10100000352E+00 0. -1.
</event>
<event>
 5   0  0.2421737E-04  0.1663148E+04  0.7818609E-02  0.8782666E-01
        2   -1    0    0  501    0  0.00000000000E+00  0.00000000000E+00  0.11001699726E+04  0.11001699726E+04  0.25500000920E-02 0. -1.
       -2   -1    0    0    0  501  0.00000000000E+00  0.00000000000E+00 -0.62855323997E+03  0.62855323997E+03  0.25500000920E-02 0.  1.
    10030    2    1    2    0    0  0.00000000000E+00  0.00000000000E+00  0.47161673261E+03  0.17287232125E+04  0.16631481002E+04 0.  0.
        1    1    3    3  502    0 -0.33107625538E+03  0.75542610685E+03  0.34598438838E+03  0.89441896604E+03  0.50400001928E-02 0. -1.
       -1    1    3    3    0  502  0.33107625538E+03 -0.75542610685E+03  0.12563234422E+03  0.83430424650E+03  0.50400001928E-02 0.  1.
</event>
<event>
 5   0  0.1231056E-04  0.1499133E+04  0.7818609E-02  0.8885029E-01
        1   -1    0    0  501    0  0.00000000000E+00  0.00000000000E+00  0.76182643969E+03  0.76182643970E+03  0.50400001928E-02 0. -1.
       -1   -1    0    0    0  501  0.00000000000E+00  0.00000000000E+00 -0.73750424983E+03  0.73750424985E+03  0.50400001928E-02 0.  1.
    10030    2    1    2    0    0  0.00000000000E+00  0.00000000000E+00  0.24322189857E+02  0.14993306895E+04  0.14991333989E+04 0.  0.
        3    1    3    3  502    0  0.52828846191E+02  0.61486060224E+02 -0.73310729069E+03  0.73757557746E+03  0.10100000352E+00 0.  1.
       -3    1    3    3    0  502 -0.52828846191E+02 -0.61486060224E+02  0.75742948055E+03  0.76175511209E+03  0.10100000352E+00 0. -1.
</event>
<event>
 5   0  0.1324930E-04  0.1778591E+04  0.7818609E-02  0.8717768E-01
       -1   -1    0    0    0  501  0.00000000000E+00  0.00000000000E+00  0.58387723827E+03  0.58387723830E+03  0.50400001928E-02 0.  1.
        1   -1    0    0  501    0  0.00000000000E+00  0.00000000000E+00 -0.13544745515E+04  0.13544745515E+04  0.50400001928E-02 0. -1.
    10030    2    1    2    0    0  0.00000000000E+00  0.00000000000E+00 -0.77059731326E+03  0.19383517898E+04  0.17785914208E+04 0.  0.
        5    1    3    3  502    0 -0.43566183098E+03  0.77977769420E+01  0.45955245059E+03  0.63330291420E+03  0.46999998093E+01 0.  1.
       -5    1    3    3    0  502  0.43566183098E+03 -0.77977769420E+01 -0.12301497639E+04  0.13050488756E+04  0.46999998093E+01 0. -1.
</event>
<event>
 5   0  0.2540506E-04  0.2001656E+04  0.7818609E-02  0.8605847E-01
        2   -1    0    0  501    0  0.00000000000E+00  0.00000000000E+00  0.56123540902E+03  0.56123540902E+03  0.25500000920E-02 0.  1.
       -2   -1    0    0    0  501  0.00000000000E+00  0.00000000000E+00 -0.17847357484E+04  0.17847357484E+04  0.25500000920E-02 0. -1.
    10030    2    1    2    0    0  0.00000000000E+00  0.00000000000E+00 -0.12235003394E+04  0.23459711574E+04  0.20016562120E+04 0.  0.
        4    1    3    3  502    0 -0.55083631716E+03 -0.27621313977E+02  0.36705549683E+03  0.66250655539E+03  0.12699999809E+01 0.  1.
       -4    1    3    3    0  502  0.55083631716E+03  0.27621313977E+02 -0.15905558362E+04  0.16834646020E+04  0.12699999809E+01 0. -1.
</event>
<event>
 5   0  0.2463085E-04  0.1991470E+04  0.7818609E-02  0.8610619E-01
        2   -1    0    0  501    0  0.00000000000E+00  0.00000000000E+00  0.20607720428E+04  0.20607720428E+04  0.25500000920E-02 0. -1.
       -2   -1    0    0    0  501  0.00000000000E+00  0.00000000000E+00 -0.48112478031E+03  0.48112478032E+03  0.25500000920E-02 0.  1.
    10030    2    1    2    0    0  0.00000000000E+00  0.00000000000E+00  0.15796472625E+04  0.25418968231E+04  0.19914703075E+04 0.  0.
        2    1    3    3  502    0  0.62662940608E+03 -0.20107390635E+03  0.17436168022E+04  0.18636777300E+04  0.25500000920E-02 0. -1.
       -2    1    3    3    0  502 -0.62662940608E+03  0.20107390635E+03 -0.16396953967E+03  0.67821909316E+03  0.25500000920E-02 0.  1.
</event>
<event>
 5   0  0.1258546E-04  0.2110834E+04  0.7818609E-02  0.8556486E-01
       -1   -1    0    0    0  501  0.00000000000E+00  0.00000000000E+00  0.59626635538E+03  0.59626635540E+03  0.50400001928E-02 0. -1.
        1   -1    0    0  501    0  0.00000000000E+00  0.00000000000E+00 -0.18681328986E+04  0.18681328986E+04  0.50400001928E-02 0.  1.
    10030    2    1    2    0    0  0.00000000000E+00  0.00000000000E+00 -0.12718665432E+04  0.24643992540E+04  0.21108337640E+04 0.  0.
        4    1    3    3  502    0  0.13171984419E+03 -0.29152732760E+03 -0.18101652624E+04  0.18382160347E+04  0.12699999809E+01 0.  1.
       -4    1    3    3    0  502 -0.13171984419E+03  0.29152732760E+03  0.53829871922E+03  0.62618321927E+03  0.12699999809E+01 0. -1.
</event>
<event>
 5   0  0.2596061E-04  0.1881176E+04  0.7818609E-02  0.8664283E-01
       -2   -1    0    0    0  501  0.00000000000E+00  0.00000000000E+00  0.74839583054E+03  0.74839583054E+03  0.25500000920E-02 0.  1.
        2   -1    0    0  501    0  0.00000000000E+00  0.00000000000E+00 -0.11821363189E+04  0.11821363189E+04  0.25500000920E-02 0. -1.
    10030    2    1    2    0    0  0.00000000000E+00  0.00000000000E+00 -0.43374048834E+03  0.19305321494E+04  0.18811761132E+04 0.  0.
        5    1    3    3  502    0 -0.47184171361E+03 -0.48441909817E+03 -0.88777119590E+03  0.11160001127E+04  0.46999998093E+01 0. -1.
       -5    1    3    3    0  502  0.47184171361E+03  0.48441909817E+03  0.45403070756E+03  0.81453203668E+03  0.46999998093E+01 0.  1.
</event>
<event>
 5   0  0.1207228E-04  0.1969462E+04  0.7818609E-02  0.8621033E-01
       -1   -1    0    0    0  501  0.00000000000E+00  0.00000000000E+00  0.11733952412E+04  0.11733952412E+04  0.50400001928E-02 0. -1.
        1   -1    0    0  501    0  0.00000000000E+00  0.00000000000E+00 -0.82640125856E+03  0.82640125858E+03  0.50400001928E-02 0.  1.
    10030    2    1    2    0    0  0.00000000000E+00  0.00000000000E+00  0.34699398261E+03  0.19997964998E+04  0.19694621643E+04 0.  0.
        1    1    3    3  502    0  0.39862697960E+03  0.33041130558E+03 -0.67703216401E+03  0.85231898421E+03  0.50400001928E-02 0.  1.
       -1    1    3    3    0  502 -0.39862697960E+03 -0.33041130558E+03  0.10240261466E+04  0.11474775155E+04  0.50400001928E-02 0. -1.
</event>
<event>
 5   0  0.2540506E-04  0.1989122E+04  0.7818609E-02  0.8611723E-01
       -2   -1    0    0    0  501  0.00000000000E+00  0.00000000000E+00  0.91795363237E+03  0.91795363237E+03  0.25500000920E-02 0. -1.
        2   -1    0    0  501    0  0.00000000000E+00  0.00000000000E+00 -0.10775615686E+04  0.10775615686E+04  0.25500000920E-02 0.  1.
    10030    2    1    2    0    0  0.00000000000E+00  0.00000000000E+00 -0.15960793623E+03  0.19955152010E+04  0.19891219731E+04 0.  0.
        4    1    3    3  502    0  0.27043489672E+03  0.38904896123E+03 -0.95706052594E+03  0.10679234948E+04  0.12699999809E+01 0.  1.
       -4    1    3    3    0  502 -0.27043489672E+03 -0.38904896123E+03  0.79745258971E+03  0.92759170615E+03  0.12699999809E+01 0. -1.
</event>
<event>
 5   0  0.1210633E-04  0.1993538E+04  0.7818609E-02  0.8609648E-01
       -1   -1    0    0    0  501  0.00000000000E+00  0.00000000000E+00  0.39797885827E+03  0.39797885830E+03  0.50400001928E-02 0.  1.
        1   -1    0    0  501    0  0.00000000000E+00  0.00000000000E+00 -0.24964863526E+04  0.24964863526E+04  0.50400001928E-02 0. -1.
    10030    2    1    2    0    0  0.00000000000E+00  0.00000000000E+00 -0.20985074943E+04  0.28944652109E+04  0.19935383501E+04 0.  0.
        2    1    3    3  502    0 -0.96590237559E+03 -0.24522177797E+03 -0.10799738129E+04  0.14695048677E+04  0.25500000920E-02 0. -1.
       -2    1    3    3    0  502  0.96590237559E+03  0.24522177797E+03 -0.10185336814E+04  0.14249603432E+04  0.25500000920E-02 0.  1.
</event>
<event>
 5   0  0.1210633E-04  0.2004197E+04  0.7818609E-02  0.8604661E-01
       -1   -1    0    0    0  501  0.00000000000E+00  0.00000000000E+00  0.12260073451E+04  0.12260073451E+04  0.50400001928E-02 0.  1.
        1   -1    0    0  501    0  0.00000000000E+00  0.00000000000E+00 -0.81908308781E+03  0.81908308783E+03  0.50400001928E-02 0. -1.
    10030    2    1    2    0    0  0.00000000000E+00  0.00000000000E+00  0.40692425725E+03  0.20450904329E+04  0.20041974772E+04 0.  0.
        2    1    3    3  502    0  0.26953573500E+03  0.40306253971E+03 -0.69141090995E+03  0.84448680852E+03  0.25500000920E-02 0. -1.
       -2    1    3    3    0  502 -0.26953573500E+03 -0.40306253971E+03  0.10983351672E+04  0.12006036244E+04  0.25500000920E-02 0.  1.
</event>
<event>
 5   0  0.2463085E-04  0.1715644E+04  0.7818609E-02  0.8752492E-01
        2   -1    0    0  501    0  0.00000000000E+00  0.00000000000E+00  0.96529410161E+03  0.96529410161E+03  0.25500000920E-02 0.  1.
       -2   -1    0    0    0  501  0.00000000000E+00  0.00000000000E+00 -0.76231529834E+03  0.76231529834E+03  0.25500000920E-02 0. -1.
    10030    2    1    2    0    0  0.00000000000E+00  0.00000000000E+00  0.20297880327E+03  0.17276094000E+04  0.17156438571E+04 0.  0.
        2    1    3    3  502    0  0.80242303052E+03  0.89579628793E+02  0.39325356918E+03  0.89808440555E+03  0.25500000920E-02 0. -1.
       -2    1    3    3    0  502 -0.80242303052E+03 -0.89579628793E+02 -0.19027476592E+03  0.82952499441E+03  0.25500000920E-02 0.  1.
</event>
<event>
 5   0  0.1324930E-04  0.1967385E+04  0.7818609E-02  0.8622023E-01
       -1   -1    0    0    0  501  0.00000000000E+00  0.00000000000E+00  0.67917405235E+03  0.67917405237E+03  0.50400001928E-02 0. -1.
        1   -1    0    0  501    0  0.00000000000E+00  0.00000000000E+00 -0.14247460028E+04  0.14247460028E+04  0.50400001928E-02 0.  1.
    10030    2    1    2    0    0  0.00000000000E+00  0.00000000000E+00 -0.74557195041E+03  0.21039200551E+04  0.19673845748E+04 0.  0.
        5    1    3    3  502    0  0.36674734438E+03 -0.72888674119E+03 -0.96032239422E+03  0.12601669282E+04  0.46999998093E+01 0.  1.
       -5    1    3    3    0  502 -0.36674734438E+03  0.72888674119E+03  0.21475044381E+03  0.84375312693E+03  0.46999998093E+01 0. -1.
</event>
<event>
 5   0  0.1258546E-04  0.1965133E+04  0.7818609E-02  0.8623098E-01
        1   -1    0    0  501    0  0.00000000000E+00  0.00000000000E+00  0.81375775541E+03  0.81375775542E+03  0.50400001928E-02 0.  1.
       -1   -1    0    0    0  501  0.00000000000E+00  0.00000000000E+00 -0.11863940138E+04  0.11863940138E+04  0.50400001928E-02 0. -1.
    10030    2    1    2    0    0  0.00000000000E+00  0.00000000000E+00 -0.37263625834E+03  0.20001517692E+04  0.19651334099E+04 0.  0.
        4    1    3    3  502    0  0.97584233790E+03 -0.11474844830E+03 -0.18581747455E+03  0.99998261064E+03  0.12699999809E+01 0.  1.
       -4    1    3    3    0  502 -0.97584233790E+03  0.11474844830E+03 -0.18681878379E+03  0.10001691585E+04  0.12699999809E+01 0. -1.
</event>
<event>
 5   0  0.1324930E-04  0.1998644E+04  0.7818609E-02  0.8607255E-01
       -1   -1    0    0    0  501  0.00000000000E+00  0.00000000000E+00  0.96580801927E+03  0.96580801928E+03  0.50400001928E-02 0. -1.
        1   -1    0    0  501    0  0.00000000000E+00  0.00000000000E+00 -0.10339985649E+04  0.10339985649E+04  0.50400001928E-02 0.  1.
    10030    2    1    2    0    0  0.00000000000E+00  0.00000000000E+00 -0.68190545649E+02  0.19998065842E+04  0.19986436460E+04 0.  0.
        5    1    3    3  502    0 -0.49268339745E+03 -0.54971685326E+03  0.63986659529E+03  0.97692215588E+03  0.46999998093E+01 0. -1.
       -5    1    3    3    0  502  0.49268339745E+03  0.54971685326E+03 -0.70805714094E+03  0.10228844283E+04  0.46999998093E+01 0.  1.
</event>
<event>
 5   0  0.2463085E-04  0.1985591E+04  0.7818609E-02  0.8613387E-01
       -2   -1    0    0    0  501  0.00000000000E+00  0.00000000000E+00  0.87947565160E+03  0.87947565160E+03  0.25500000920E-02 0.  1.
        2   -1    0    0  501    0  0.00000000000E+00  0.00000000000E+00 -0.11207166446E+04  0.11207166446E+04  0.25500000920E-02 0. -1.
    10030    2    1    2    0    0  0.00000000000E+00  0.00000000000E+00 -0.24124099301E+03  0.20001922962E+04  0.19855910972E+04 0.  0.
        2    1    3    3  502    0  0.46880759746E+03  0.46310603093E+03 -0.86864089367E+03  0.10903140655E+04  0.25500000920E-02 0. -1.
       -2    1    3    3    0  502 -0.46880759746E+03 -0.46310603093E+03  0.62739990066E+03  0.90987823069E+03  0.25500000920E-02 0.  1.
</event>
<event>
 5   0  0.2463085E-04  0.2004038E+04  0.7818609E-02  0.8604735E-01
        2   -1    0    0  501    0  0.00000000000E+00  0.00000000000E+00  0.11638375166E+04  0.11638375166E+04  0.25500000920E-02 0.  1.
       -2   -1    0    0    0  501  0.00000000000E+00  0.00000000000E+00 -0.86269956033E+03  0.86269956034E+03  0.25500000920E-02 0. -1.
    10030    2    1    2    0    0  0.00000000000E+00  0.00000000000E+00  0.30113795624E+03  0.20265370769E+04  0.20040380374E+04 0.  0.
        2    1    3    3  502    0 -0.86021082669E+03  0.33049802327E+03  0.54849735026E+03  0.10723996237E+04  0.25500000920E-02 0.  1.
       -2    1    3    3    0  502  0.86021082669E+03 -0.33049802327E+03 -0.24735939402E+03  0.95413745318E+03  0.25500000920E-02 0. -1.
</event>
<event>
 5   0  0.1207228E-04  0.1938178E+04  0.7818609E-02  0.8636083E-01
        1   -1    0    0  501    0  0.00000000000E+00  0.00000000000E+00  0.77365131682E+03  0.77365131684E+03  0.50400001928E-02 0. -1.
       -1   -1    0    0    0  501  0.00000000000E+00  0.00000000000E+00 -0.12138975031E+04  0.12138975031E+04  0.50400001928E-02 0.  1.
    10030    2    1    2    0    0  0.00000000000E+00  0.00000000000E+00 -0.44024618628E+03  0.19875488200E+04  0.19381779091E+04 0.  0.
        1    1    3    3  502    0  0.20330913747E+03  0.41072834649E+03 -0.10957478240E+04  0.11877271041E+04  0.50400001928E-02 0.  1.
       -1    1    3    3    0  502 -0.20330913747E+03 -0.41072834649E+03  0.65550163775E+03  0.79982171583E+03  0.50400001928E-02 0. -1.
</event>
<event>
 5   0  0.2488886E-04  0.2026036E+04  0.7818609E-02  0.8594544E-01
        2   -1    0    0  501    0  0.00000000000E+00  0.00000000000E+00  0.17625857951E+04  0.17625857951E+04  0.25500000920E-02 0.  1.
       -2   -1    0    0    0  501  0.00000000000E+00  0.00000000000E+00 -0.58221590157E+03  0.58221590158E+03  0.25500000920E-02 0. -1.
    10030    2    1    2    0    0  0.00000000000E+00  0.00000000000E+00  0.11803698935E+04  0.23448016967E+04  0.20260360093E+04 0.  0.
        3    1    3    3  502    0 -0.60003751713E+03 -0.22160322968E+03  0.14993024132E+04  0.16300493090E+04  0.10100000352E+00 0.  1.
       -3    1    3    3    0  502  0.60003751713E+03  0.22160322968E+03 -0.31893251968E+03  0.71475238767E+03  0.10100000352E+00 0. -1.
</event>
<event>
 5   0  0.2488886E-04  0.2005128E+04  0.7818609E-02  0.8604227E-01
        2   -1    0    0  501    0  0.00000000000E+00  0.00000000000E+00  0.68523551816E+03  0.68523551816E+03  0.25500000920E-02 0.  1.
       -2   -1    0    0    0  501  0.00000000000E+00  0.00000000000E+00 -0.14668460833E+04  0.14668460833E+04  0.25500000920E-02 0. -1.
    10030    2    1    2    0    0  0.00000000000E+00  0.00000000000E+00 -0.78161056513E+03  0.21520816014E+04  0.20051284607E+04 0.  0.
        3    1    3    3  502    0 -0.18887381758E+03 -0.59696494515E+03  0.44958353503E+03  0.77082152920E+03  0.10100000352E+00 0.  1.
       -3    1    3    3    0  502  0.18887381758E+03  0.59696494515E+03 -0.12311941002E+04  0.13812600722E+04  0.10100000352E+00 0. -1.
</event>
<event>
 5   0  0.2540506E-04  0.2016216E+04  0.7818609E-02  0.8599076E-01
        2   -1    0    0  501    0  0.00000000000E+00  0.00000000000E+00  0.22568985190E+04  0.22568985190E+04  0.25500000920E-02 0. -1.
       -2   -1    0    0    0  501  0.00000000000E+00  0.00000000000E+00 -0.45030025265E+03  0.45030025266E+03  0.25500000920E-02 0.  1.
    10030    2    1    2    0    0  0.00000000000E+00  0.00000000000E+00  0.18065982664E+04  0.27071987717E+04  0.20162162318E+04 0.  0.
        4    1    3    3  502    0  0.27178912349E+03  0.69632911360E+03 -0.49313035981E+01  0.74750885798E+03  0.12699999809E+01 0.  1.
       -4    1    3    3    0  502 -0.27178912349E+03 -0.69632911360E+03  0.18115295700E+04  0.19596899137E+04  0.12699999809E+01 0. -1.
</event>
<event>
 5   0  0.1258546E-04  0.1988884E+04  0.7818609E-02  0.8611836E-01
       -1   -1    0    0    0  501  0.00000000000E+00  0.00000000000E+00  0.47910879343E+03  0.47910879346E+03  0.50400001928E-02 0. -1.
        1   -1    0    0  501    0  0.00000000000E+00  0.00000000000E+00 -0.20640712747E+04  0.20640712747E+04  0.50400001928E-02 0.  1.
    10030    2    1    2    0    0  0.00000000000E+00  0.00000000000E+00 -0.15849624813E+04  0.25431800682E+04  0.19888838056E+04 0.  0.
        4    1    3    3  502    0  0.55039572752E+03  0.25681986475E+03  0.21438310956E+03  0.64409132145E+03  0.12699999809E+01 0. -1.
       -4    1    3    3    0  502 -0.55039572752E+03 -0.25681986475E+03 -0.17993455908E+04  0.18990887467E+04  0.12699999809E+01 0.  1.
</event>
<event>
 5   0  0.1258546E-04  0.2068181E+04  0.7818609E-02  0.8575391E-01
        1   -1    0    0  501    0  0.00000000000E+00  0.00000000000E+00  0.10559518698E+04  0.10559518698E+04  0.50400001928E-02 0. -1.
       -1   -1    0    0    0  501  0.00000000000E+00  0.00000000000E+00 -0.10126820633E+04  0.10126820633E+04  0.50400001928E-02 0.  1.
    10030    2    1    2    0    0  0.00000000000E+00  0.00000000000E+00  0.43269806550E+02  0.20686339331E+04  0.20681813443E+04 0.  0.
        4    1    3    3  502    0 -0.78558536987E+03  0.63482604681E+03  0.24347934212E+03  0.10389573071E+04  0.12699999809E+01 0. -1.
       -4    1    3    3    0  502  0.78558536987E+03 -0.63482604681E+03 -0.20020953557E+03  0.10296766260E+04  0.12699999809E+01 0.  1.
</event>
<event>
 5   0  0.2488886E-04  0.2104215E+04  0.7818609E-02  0.8559389E-01
        2   -1    0    0  501    0  0.00000000000E+00  0.00000000000E+00  0.14717051605E+04  0.14717051605E+04  0.25500000920E-02 0. -1.
       -2   -1    0    0    0  501  0.00000000000E+00  0.00000000000E+00 -0.75214114882E+03  0.75214114882E+03  0.25500000920E-02 0.  1.
    10030    2    1    2    0    0  0.00000000000E+00  0.00000000000E+00  0.71956401169E+03  0.22238463093E+04  0.21042148276E+04 0.  0.
        3    1    3    3  502    0 -0.46744001540E+03 -0.89897646293E+03  0.60352606983E+02  0.10150375837E+04  0.10100000352E+00 0.  1.
       -3    1    3    3    0  502  0.46744001540E+03  0.89897646293E+03  0.65921140470E+03  0.12088087256E+04  0.10100000352E+00 0. -1.
</event>
<event>
 5   0  0.1258546E-04  0.1928487E+04  0.7818609E-02  0.8640805E-01
        1   -1    0    0  501    0  0.00000000000E+00  0.00000000000E+00  0.10620487711E+04  0.10620487711E+04  0.50400001928E-02 0. -1.
       -1   -1    0    0    0  501  0.00000000000E+00  0.00000000000E+00 -0.87544513740E+03  0.87544513742E+03  0.50400001928E-02 0.  1.
    10030    2    1    2    0    0  0.00000000000E+00  0.00000000000E+00  0.18660363367E+03  0.19374939085E+04  0.19284869015E+04 0.  0.
        4    1    3    3  502    0  0.13333637740E+03  0.44037120586E+02 -0.86511696482E+03  0.87643986289E+03  0.12699999809E+01 0.  1.
       -4    1    3    3    0  502 -0.13333637740E+03 -0.44037120586E+02  0.10517205985E+04  0.10610540456E+04  0.12699999809E+01 0. -1.
</event>
<event>
 5   0  0.2488886E-04  0.1982830E+04  0.7818609E-02  0.8614691E-01
       -2   -1    0    0    0  501  0.00000000000E+00  0.00000000000E+00  0.51174907864E+03  0.51174907865E+03  0.25500000920E-02 0. -1.
        2   -1    0    0  501    0  0.00000000000E+00  0.00000000000E+00 -0.19206748150E+04  0.19206748150E+04  0.25500000920E-02 0.  1.
    10030    2    1    2    0    0  0.00000000000E+00  0.00000000000E+00 -0.14089257364E+04  0.24324238937E+04  0.19828298636E+04 0.  0.
        3    1    3    3  502    0 -0.59225413414E+02 -0.53397580507E+03 -0.17266176838E+04  0.18082716737E+04  0.10100000352E+00 0.  1.
       -3    1    3    3    0  502  0.59225413414E+02  0.53397580507E+03  0.31769194739E+03  0.62415221992E+03  0.10100000352E+00 0. -1.
</event>
<event>
 5   0  0.2488886E-04  0.2006067E+04  0.7818609E-02  0.8603789E-01
        2   -1    0    0  501    0  0.00000000000E+00  0.00000000000E+00  0.86525277565E+03  0.86525277566E+03  0.25500000920E-02 0. -1.
       -2   -1    0    0    0  501  0.00000000000E+00  0.00000000000E+00 -0.11627541905E+04  0.11627541905E+04  0.25500000920E-02 0.  1.
    10030    2    1    2    0    0  0.00000000000E+00  0.00000000000E+00 -0.29750141481E+03  0.20280069661E+04  0.20060670883E+04 0.  0.
        3    1    3    3  502    0  0.47843559763E+03  0.30857191697E+03  0.68608906728E+03  0.89153545496E+03  0.10100000352E+00 0. -1.
       -3    1    3    3    0  502 -0.47843559763E+03 -0.30857191697E+03 -0.98359048209E+03  0.11364715112E+04  0.10100000352E+00 0.  1.
</event>
<event>
 5   0  0.1258546E-04  0.2019704E+04  0.7818609E-02  0.8597464E-01
       -1   -1    0    0    0  501  0.00000000000E+00  0.00000000000E+00  0.66589914089E+03  0.66589914091E+03  0.50400001928E-02 0.  1.
        1   -1    0    0  501    0  0.00000000000E+00  0.00000000000E+00 -0.15314643539E+04  0.15314643540E+04  0.50400001928E-02 0. -1.
    10030    2    1    2    0    0  0.00000000000E+00  0.00000000000E+00 -0.86556521306E+03  0.21973634949E+04  0.20197037383E+04 0.  0.
        4    1    3    3  502    0  0.25840751440E+02  0.64634127889E+03  0.41091477481E+03  0.76634023664E+03  0.12699999809E+01 0.  1.
       -4    1    3    3    0  502 -0.25840751440E+02 -0.64634127889E+03 -0.12764799879E+04  0.14310232582E+04  0.12699999809E+01 0. -1.
</event>
<event>
 5   0  0.1231056E-04  0.2007299E+04  0.7818609E-02  0.8603216E-01
        1   -1    0    0  501    0  0.00000000000E+00  0.00000000000E+00  0.16359228235E+04  0.16359228235E+04  0.50400001928E-02 0. -1.
       -1   -1    0    0    0  501  0.00000000000E+00  0.00000000000E+00 -0.61574538199E+03  0.61574538201E+03  0.50400001928E-02 0.  1.
    10030    2    1    2    0    0  0.00000000000E+00  0.00000000000E+00  0.10201774415E+04  0.22516682055E+04  0.20072986065E+04 0.  0.
        3    1    3    3  502    0 -0.37628876768E+02 -0.48438933206E+02  0.16338183823E+04  0.16349693511E+04  0.10100000352E+00 0. -1.
       -3    1    3    3    0  502  0.37628876768E+02  0.48438933206E+02 -0.61364094077E+03  0.61669885439E+03  0.10100000352E+00 0.  1.
</event>
<event>
 5   0  0.1258546E-04  0.2028540E+04  0.7818609E-02  0.8593393E-01
       -1   -1    0    0    0  501  0.00000000000E+00  0.00000000000E+00  0.10125062937E+04  0.10125062937E+04  0.50400001928E-02 0.  1.
        1   -1    0    0  501    0  0.00000000000E+00  0.00000000000E+00 -0.10160362842E+04  0.10160362843E+04  0.50400001928E-02 0. -1.
    10030    2    1    2    0    0  0.00000000000E+00  0.00000000000E+00 -0.35299905819E+01  0.20285425779E+04  0.20285395066E+04 0.  0.
        4    1    3    3  502    0  0.12176952498E+03 -0.93081593578E+03  0.38228687966E+03  0.10136029769E+04  0.12699999809E+01 0.  1.
       -4    1    3    3    0  502 -0.12176952498E+03  0.93081593578E+03 -0.38581687024E+03  0.10149396010E+04  0.12699999809E+01 0. -1.
</event>
<event>
 5   0  0.2596061E-04  0.1830370E+04  0.7818609E-02  0.8690314E-01
        2   -1    0    0  501    0  0.00000000000E+00  0.00000000000E+00  0.54609325033E+03  0.54609325034E+03  0.25500000920E-02 0.  1.
       -2   -1    0    0    0  501  0.00000000000E+00  0.00000000000E+00 -0.15337375286E+04  0.15337375286E+04  0.25500000920E-02 0. -1.
    10030    2    1    2    0    0  0.00000000000E+00  0.00000000000E+00 -0.98764427823E+03  0.20798307789E+04  0.18303701398E+04 0.  0.
        5    1    3    3  502    0  0.14774408738E+03 -0.85217610351E+03 -0.15386598667E+03  0.87848122268E+03  0.46999998093E+01 0.  1.
       -5    1    3    3    0  502 -0.14774408738E+03  0.85217610351E+03 -0.83377829156E+03  0.12013495562E+04  0.46999998093E+01 0. -1.
</event>
<event>
 5   0  0.1258546E-04  0.1935312E+04  0.7818609E-02  0.8637476E-01
        1   -1    0    0  501    0  0.00000000000E+00  0.00000000000E+00  0.11879696664E+04  0.11879696664E+04  0.50400001928E-02 0. -1.
       -1   -1    0    0    0  501  0.00000000000E+00  0.00000000000E+00 -0.78820019679E+03  0.78820019681E+03  0.50400001928E-02 0.  1.
    10030    2    1    2    0    0  0.00000000000E+00  0.00000000000E+00  0.39976946961E+03  0.19761698632E+04  0.19353117835E+04 0.  0.
        4    1    3    3  502    0  0.23373893006E+02 -0.54805652789E+03  0.10138614433E+04  0.11527484269E+04  0.12699999809E+01 0. -1.
       -4    1    3    3    0  502 -0.23373893006E+02  0.54805652789E+03 -0.61409197372E+03  0.82342143628E+03  0.12699999809E+01 0.  1.
</event>
<event>
 5   0  0.1210633E-04  0.2023109E+04  0.7818609E-02  0.8595892E-01
        1   -1    0    0  501    0  0.00000000000E+00  0.00000000000E+00  0.19005346037E+04  0.19005346037E+04  0.50400001928E-02 0.  1.
       -1   -1    0    0    0  501  0.00000000000E+00  0.00000000000E+00 -0.53839727264E+03  0.53839727266E+03  0.50400001928E-02 0. -1.
    10030    2    1    2    0    0  0.00000000000E+00  0.00000000000E+00  0.13621373310E+04  0.24389318763E+04  0.20231091391E+04 0.  0.
        2    1    3    3  502    0  0.21809970614E+03  0.91658916151E+03  0.23724213796E+03  0.97158993657E+03  0.25500000920E-02 0. -1.
       -2    1    3    3    0  502 -0.21809970614E+03 -0.91658916151E+03  0.11248951931E+04  0.14673419398E+04  0.25500000920E-02 0.  1.
</event>
<event>
 5   0  0.1324930E-04  0.1966887E+04  0.7818609E-02  0.8622260E-01
       -1   -1    0    0    0  501  0.00000000000E+00  0.00000000000E+00  0.52888642406E+03  0.52888642408E+03  0.50400001928E-02 0. -1.
        1   -1    0    0  501    0  0.00000000000E+00  0.00000000000E+00 -0.18286746220E+04  0.18286746220E+04  0.50400001928E-02 0.  1.
    10030    2    1    2    0    0  0.00000000000E+00  0.00000000000E+00 -0.12997881979E+04  0.23575610461E+04  0.19668870650E+04 0.  0.
        5    1    3    3  502    0 -0.57615435049E+03 -0.60878674513E+03 -0.12664164984E+04  0.15186862658E+04  0.46999998093E+01 0.  1.
       -5    1    3    3    0  502  0.57615435049E+03  0.60878674513E+03 -0.33371699566E+02  0.83887478026E+03  0.46999998093E+01 0. -1.
</event>
<event>
 5   0  0.2463085E-04  0.1981007E+04  0.7818609E-02  0.8615552E-01
       -2   -1    0    0    0  501  0.00000000000E+00  0.00000000000E+00  0.13930842155E+04  0.13930842155E+04  0.25500000920E-02 0.  1.
        2   -1    0    0  501    0  0.00000000000E+00  0.00000000000E+00 -0.70426242691E+03  0.70426242691E+03  0.25500000920E-02 0. -1.
    10030    2    1    2    0    0  0.00000000000E+00  0.00000000000E+00  0.68882178863E+03  0.20973466425E+04  0.19810066840E+04 0.  0.
        2    1    3    3  502    0  0.70834269981E+03  0.56124335925E+03  0.77362461508E+03  0.11896379843E+04  0.25500000920E-02 0.  1.
       -2    1    3    3    0  502 -0.70834269981E+03 -0.56124335925E+03 -0.84802826454E+02  0.90770865813E+03  0.25500000920E-02 0. -1.
</event>
<event>
 5   0  0.2540506E-04  0.1983876E+04  0.7818609E-02  0.8614197E-01
        2   -1    0    0  501    0  0.00000000000E+00  0.00000000000E+00  0.90443789732E+03  0.90443789733E+03  0.25500000920E-02 0.  1.
       -2   -1    0    0    0  501  0.00000000000E+00  0.00000000000E+00 -0.10879030998E+04  0.10879030998E+04  0.25500000920E-02 0. -1.
    10030    2    1    2    0    0  0.00000000000E+00  0.00000000000E+00 -0.18346520250E+03  0.19923409972E+04  0.19838757946E+04 0.  0.
        4    1    3    3  502    0  0.81553562485E+03 -0.26880049782E+03  0.40696167528E+03  0.95024811553E+03  0.12699999809E+01 0.  1.
       -4    1    3    3    0  502 -0.81553562485E+03  0.26880049782E+03 -0.59042687778E+03  0.10420928816E+04  0.12699999809E+01 0. -1.
</event>
<event>
 5   0  0.2488886E-04  0.1963280E+04  0.7818609E-02  0.8623983E-01
       -2   -1    0    0    0  501  0.00000000000E+00  0.00000000000E+00  0.46836942654E+03  0.46836942655E+03  0.25500000920E-02 0.  1.
        2   -1    0    0  501    0  0.00000000000E+00  0.00000000000E+00 -0.20573871492E+04  0.20573871492E+04  0.25500000920E-02 0. -1.
    10030    2    1    2    0    0  0.00000000000E+00  0.00000000000E+00 -0.15890177227E+04  0.25257565758E+04  0.19632801525E+04 0.  0.
        3    1    3    3  502    0  0.66391706516E+02 -0.65917852819E+03 -0.17263928871E+04  0.18491502377E+04  0.10100000352E+00 0. -1.
       -3    1    3    3    0  502 -0.66391706516E+02  0.65917852819E+03  0.13737516443E+03  0.67660633807E+03  0.10100000352E+00 0.  1.
</event>
<event>
 5   0  0.1258546E-04  0.1984001E+04  0.7818609E-02  0.8614137E-01
        1   -1    0    0  501    0  0.00000000000E+00  0.00000000000E+00  0.86702481310E+03  0.86702481311E+03  0.50400001928E-02 0. -1.
       -1   -1    0    0    0  501  0.00000000000E+00  0.00000000000E+00 -0.11349905122E+04  0.11349905122E+04  0.50400001928E-02 0.  1.
    10030    2    1    2    0    0  0.00000000000E+00  0.00000000000E+00 -0.26796569909E+03  0.20020153253E+04  0.19840009443E+04 0.  0.
        4    1    3    3  502    0  0.10244008714E+03  0.29571399651E+03  0.81590520446E+03  0.87386706926E+03  0.12699999809E+01 0. -1.
       -4    1    3    3    0  502 -0.10244008714E+03 -0.29571399651E+03 -0.10838709035E+04  0.11281482561E+04  0.12699999809E+01 0.  1.
</event>
<event>
 5   0  0.1231056E-04  0.1999813E+04  0.7818609E-02  0.8606708E-01
       -1   -1    0    0    0  501  0.00000000000E+00  0.00000000000E+00  0.52732590503E+03  0.52732590506E+03  0.50400001928E-02 0.  1.
        1   -1    0    0  501    0  0.00000000000E+00  0.00000000000E+00 -0.18960066534E+04  0.18960066534E+04  0.50400001928E-02 0. -1.
    10030    2    1    2    0    0  0.00000000000E+00  0.00000000000E+00 -0.13686807483E+04  0.24233325584E+04  0.19998134158E+04 0.  0.
        3    1    3    3  502    0  0.28221395944E+03  0.53331024636E+02 -0.18449469730E+04  0.18671685142E+04  0.10100000352E+00 0. -1.
       -3    1    3    3    0  502 -0.28221395944E+03 -0.53331024636E+02  0.47626622468E+03  0.55616404420E+03  0.10100000352E+00 0.  1.
</event>
<event>
 5   0  0.1324930E-04  0.2008615E+04  0.7818609E-02  0.8602603E-01
       -1   -1    0    0    0  501  0.00000000000E+00  0.00000000000E+00  0.12192120443E+04  0.12192120443E+04  0.50400001928E-02 0.  1.
        1   -1    0    0  501    0  0.00000000000E+00  0.00000000000E+00 -0.82728339178E+03  0.82728339179E+03  0.50400001928E-02 0. -1.
    10030    2    1    2    0    0  0.00000000000E+00  0.00000000000E+00  0.39192865254E+03  0.20464954361E+04  0.20086153194E+04 0.  0.
        5    1    3    3  502    0 -0.28221859176E+03 -0.10770476047E+03  0.11718184207E+04  0.12101355916E+04  0.46999998093E+01 0.  1.
       -5    1    3    3    0  502  0.28221859176E+03  0.10770476047E+03 -0.77988976819E+03  0.83635984450E+03  0.46999998093E+01 0. -1.
</event>
<event>
 5   0  0.1324930E-04  0.2026664E+04  0.7818609E-02  0.8594255E-01
        1   -1    0    0  501    0  0.00000000000E+00  0.00000000000E+00  0.75104308272E+03  0.75104308274E+03  0.50400001928E-02 0.  1.
       -1   -1    0    0    0  501  0.00000000000E+00  0.00000000000E+00 -0.13672207530E+04  0.13672207530E+04  0.50400001928E-02 0. -1.
    10030    2    1    2    0    0  0.00000000000E+00  0.00000000000E+00 -0.61617767029E+03  0.21182638358E+04  0.20266639476E+04 0.  0.
        5    1    3    3  502    0 -0.38400413990E+02 -0.10113876620E+04 -0.35971782506E+03  0.10741501749E+04  0.46999998093E+01 0. -1.
       -5    1    3    3    0  502  0.38400413990E+02  0.10113876620E+04 -0.25645984524E+03  0.10441136609E+04  0.46999998093E+01 0.  1.
</event>
<event>
 5   0  0.2463085E-04  0.1991409E+04  0.7818609E-02  0.8610648E-01
        2   -1    0    0  501    0  0.00000000000E+00  0.00000000000E+00  0.24937306786E+04  0.24937306786E+04  0.25500000920E-02 0. -1.
       -2   -1    0    0    0  501  0.00000000000E+00  0.00000000000E+00 -0.39756798526E+03  0.39756798527E+03  0.25500000920E-02 0.  1.
    10030    2    1    2    0    0  0.00000000000E+00  0.00000000000E+00  0.20961626933E+04  0.28912986638E+04  0.19914090305E+04 0.  0.
        2    1    3    3  502    0 -0.67234090634E+02  0.92723172857E+03  0.53036974267E+03  0.10703135827E+04  0.25500000920E-02 0.  1.
       -2    1    3    3    0  502  0.67234090634E+02 -0.92723172857E+03  0.15657929506E+04  0.18209850811E+04  0.25500000920E-02 0. -1.
</event>
<event>
 5   0  0.2463085E-04  0.2006507E+04  0.7818609E-02  0.8603585E-01
        2   -1    0    0  501    0  0.00000000000E+00  0.00000000000E+00  0.15968658367E+04  0.15968658367E+04  0.25500000920E-02 0. -1.
       -2   -1    0    0    0  501  0.00000000000E+00  0.00000000000E+00 -0.63030800433E+03  0.63030800433E+03  0.25500000920E-02 0.  1.
    10030    2    1    2    0    0  0.00000000000E+00  0.00000000000E+00  0.96655783232E+03  0.22271738410E+04  0.20065067343E+04 0.  0.
        2    1    3    3  502    0 -0.32368383466E+03 -0.85462965967E+03  0.23804937351E+02  0.91418256112E+03  0.25500000920E-02 0.  1.
       -2    1    3    3    0  502  0.32368383466E+03  0.85462965967E+03  0.94275289497E+03  0.13129912799E+04  0.25500000920E-02 0. -1.
</event>
<event>
 5   0  0.1231056E-04  0.1960783E+04  0.7818609E-02  0.8625178E-01
       -1   -1    0    0    0  501  0.00000000000E+00  0.00000000000E+00  0.56826397291E+03  0.56826397293E+03  0.50400001928E-02 0.  1.
        1   -1    0    0  501    0  0.00000000000E+00  0.00000000000E+00 -0.16914108927E+04  0.16914108927E+04  0.50400001928E-02 0. -1.
    10030    2    1    2    0    0  0.00000000000E+00  0.00000000000E+00 -0.11231469197E+04  0.22596748656E+04  0.19607833880E+04 0.  0.
        3    1    3    3  502    0  0.30605877979E+03  0.74030094759E+03 -0.12129289080E+04  0.14535866041E+04  0.10100000352E+00 0. -1.
       -3    1    3    3    0  502 -0.30605877979E+03 -0.74030094759E+03  0.89781988214E+02  0.80608826148E+03  0.10100000352E+00 0.  1.
</event>
<event>
 5   0  0.1207228E-04  0.2030638E+04  0.7818609E-02  0.8592429E-01
        1   -1    0    0  501    0  0.00000000000E+00  0.00000000000E+00  0.14604850471E+04  0.14604850471E+04  0.50400001928E-02 0. -1.
       -1   -1    0    0    0  501  0.00000000000E+00  0.00000000000E+00 -0.70584237600E+03  0.70584237602E+03  0.50400001928E-02 0.  1.
    10030    2    1    2    0    0  0.00000000000E+00  0.00000000000E+00  0.75464267109E+03  0.21663274231E+04  0.20306375706E+04 0.  0.
        1    1    3    3  502    0  0.47239228601E+03  0.12958774996E+03 -0.57144501006E+03  0.75265985437E+03  0.50400001928E-02 0.  1.
       -1    1    3    3    0  502 -0.47239228601E+03 -0.12958774996E+03  0.13260876812E+04  0.14136675688E+04  0.50400001928E-02 0. -1.
</event>
<event>
 5   0  0.2421737E-04  0.1368392E+04  0.7818609E-02  0.8977021E-01
       -2   -1    0    0    0  501  0.00000000000E+00  0.00000000000E+00  0.23191826604E+03  0.23191826605E+03  0.25500000920E-02 0. -1.
        2   -1    0    0  501    0  0.00000000000E+00  0.00000000000E+00 -0.20184880716E+04  0.20184880716E+04  0.25500000920E-02 0.  1.
    10030    2    1    2    0    0  0.00000000000E+00  0.00000000000E+00 -0.17865698056E+04  0.22504063377E+04  0.13683921274E+04 0.  0.
        1    1    3    3  502    0 -0.66061369632E+03  0.12162880405E+03 -0.11072059570E+04  0.12950324525E+04  0.50400001928E-02 0. -1.
       -1    1    3    3    0  502  0.66061369632E+03 -0.12162880405E+03 -0.67936384859E+03  0.95537388521E+03  0.50400001928E-02 0.  1.
</event>
<event>
 5   0  0.2596061E-04  0.1941907E+04  0.7818609E-02  0.8634273E-01
       -2   -1    0    0    0  501  0.00000000000E+00  0.00000000000E+00  0.64052295612E+03  0.64052295612E+03  0.25500000920E-02 0.  1.
        2   -1    0    0  501    0  0.00000000000E+00  0.00000000000E+00 -0.14718448657E+04  0.14718448657E+04  0.25500000920E-02 0. -1.
    10030    2    1    2    0    0  0.00000000000E+00  0.00000000000E+00 -0.83132190960E+03  0.21123678218E+04  0.19419067170E+04 0.  0.
        5    1    3    3  502    0  0.17688077214E+03  0.89960854554E+03 -0.68003262085E+02  0.91936329947E+03  0.46999998093E+01 0. -1.
       -5    1    3    3    0  502 -0.17688077214E+03 -0.89960854554E+03 -0.76331864752E+03  0.11930045224E+04  0.46999998093E+01 0.  1.
</event>
<event>
 5   0  0.1210633E-04  0.1967656E+04  0.7818609E-02  0.8621894E-01
        1   -1    0    0  501    0  0.00000000000E+00  0.00000000000E+00  0.14487458467E+04  0.14487458467E+04  0.50400001928E-02 0. -1.
       -1   -1    0    0    0  501  0.00000000000E+00  0.00000000000E+00 -0.66810696277E+03  0.66810696279E+03  0.50400001928E-02 0.  1.
    10030    2    1    2    0    0  0.00000000000E+00  0.00000000000E+00  0.78063888389E+03  0.21168528095E+04  0.19676556482E+04 0.  0.
        2    1    3    3  502    0 -0.74439701564E+03  0.54469725144E+02  0.10798747543E+04  0.13127160214E+04  0.25500000920E-02 0. -1.
       -2    1    3    3    0  502  0.74439701564E+03 -0.54469725144E+02 -0.29923587038E+03  0.80413678810E+03  0.25500000920E-02 0.  1.
</event>
<event>
 5   0  0.1210633E-04  0.2021639E+04  0.7818609E-02  0.8596570E-01
       -1   -1    0    0    0  501  0.00000000000E+00  0.00000000000E+00  0.59335018474E+03  0.59335018476E+03  0.50400001928E-02 0. -1.
        1   -1    0    0  501    0  0.00000000000E+00  0.00000000000E+00 -0.17220113806E+04  0.17220113806E+04  0.50400001928E-02 0.  1.
    10030    2    1    2    0    0  0.00000000000E+00  0.00000000000E+00 -0.11286611959E+04  0.23153615654E+04  0.20216387124E+04 0.  0.
        2    1    3    3  502    0 -0.29958423066E+03  0.94347743361E+03 -0.33002051345E+03  0.10434624662E+04  0.25500000920E-02 0.  1.
       -2    1    3    3    0  502  0.29958423066E+03 -0.94347743361E+03 -0.79864068246E+03  0.12718990992E+04  0.25500000920E-02 0. -1.
</event>
<event>
 5   0  0.1231056E-04  0.1989913E+04  0.7818609E-02  0.8611351E-01
        1   -1    0    0  501    0  0.00000000000E+00  0.00000000000E+00  0.54878623164E+03  0.54878623166E+03  0.50400001928E-02 0.  1.
       -1   -1    0    0    0  501  0.00000000000E+00  0.00000000000E+00 -0.18038686627E+04  0.18038686627E+04  0.50400001928E-02 0. -1.
    10030    2    1    2    0    0  0.00000000000E+00  0.00000000000E+00 -0.12550824311E+04  0.23526548944E+04  0.19899128482E+04 0.  0.
        3    1    3    3  502    0 -0.66694625178E+03  0.19702355328E+03 -0.14687993729E+04  0.16251175931E+04  0.10100000352E+00 0. -1.
       -3    1    3    3    0  502  0.66694625178E+03 -0.19702355328E+03  0.21371694185E+03  0.72753730128E+03  0.10100000352E+00 0.  1.
</event>
<event>
 5   0  0.2488886E-04  0.1994993E+04  0.7818609E-02  0.8608965E-01
       -2   -1    0    0    0  501  0.00000000000E+00  0.00000000000E+00  0.10355806334E+04  0.10355806334E+04  0.25500000920E-02 0.  1.
        2   -1    0    0  501    0  0.00000000000E+00  0.00000000000E+00 -0.96081268640E+03  0.96081268640E+03  0.25500000920E-02 0. -1.
    10030    2    1    2    0    0  0.00000000000E+00  0.00000000000E+00  0.74767946980E+02  0.19963933198E+04  0.19949927422E+04 0.  0.
        3    1    3    3  502    0 -0.93194995183E+03 -0.29135121232E+03  0.24144564325E+03  0.10058390778E+04  0.10100000352E+00 0.  1.
       -3    1    3    3    0  502  0.93194995183E+03  0.29135121232E+03 -0.16667769627E+03  0.99055424196E+03  0.10100000352E+00 0. -1.
</event>
<event>
 5   0  0.1324930E-04  0.1885387E+04  0.7818609E-02  0.8662165E-01
        1   -1    0    0  501    0  0.00000000000E+00  0.00000000000E+00  0.12847149819E+04  0.12847149819E+04  0.50400001928E-02 0.  1.
       -1   -1    0    0    0  501  0.00000000000E+00  0.00000000000E+00 -0.69172593439E+03  0.69172593441E+03  0.50400001928E-02 0. -1.
    10030    2    1    2    0    0  0.00000000000E+00  0.00000000000E+00  0.59298904754E+03  0.19764409164E+04  0.18853866143E+04 0.  0.
        5    1    3    3  502    0  0.65731864968E+02  0.58544877567E+03  0.10679551707E+04  0.12196808122E+04  0.46999998093E+01 0.  1.
       -5    1    3    3    0  502 -0.65731864968E+02 -0.58544877567E+03 -0.47496612320E+03  0.75676010412E+03  0.46999998093E+01 0. -1.
</event>
<event>
 5   0  0.1210633E-04  0.1980184E+04  0.7818609E-02  0.8615942E-01
       -1   -1    0    0    0  501  0.00000000000E+00  0.00000000000E+00  0.99792361192E+03  0.99792361194E+03  0.50400001928E-02 0. -1.
        1   -1    0    0  501    0  0.00000000000E+00  0.00000000000E+00 -0.98232193337E+03  0.98232193339E+03  0.50400001928E-02 0.  1.
    10030    2    1    2    0    0  0.00000000000E+00  0.00000000000E+00  0.15601678550E+02  0.19802455453E+04  0.19801840842E+04 0.  0.
        2    1    3    3  502    0  0.19180491734E+03  0.92189760660E+03 -0.29814644172E+03  0.98771231849E+03  0.25500000920E-02 0.  1.
       -2    1    3    3    0  502 -0.19180491734E+03 -0.92189760660E+03  0.31374812027E+03  0.99253322683E+03  0.25500000920E-02 0. -1.
</event>
<event>
 5   0  0.2421737E-04  0.1999516E+04  0.7818609E-02  0.8606847E-01
        2   -1    0    0  501    0  0.00000000000E+00  0.00000000000E+00  0.14091956840E+04  0.14091956840E+04  0.25500000920E-02 0. -1.
       -2   -1    0    0    0  501  0.00000000000E+00  0.00000000000E+00 -0.70928095065E+03  0.70928095065E+03  0.25500000920E-02 0.  1.
    10030    2    1    2    0    0  0.00000000000E+00  0.00000000000E+00  0.69991473333E+03  0.21184766346E+04  0.19995155957E+04 0.  0.
        1    1    3    3  502    0  0.42925037693E+03 -0.79927577284E+03  0.79496794894E+03  0.12062635230E+04  0.50400001928E-02 0. -1.
       -1    1    3    3    0  502 -0.42925037693E+03  0.79927577284E+03 -0.95053215610E+02  0.91221311159E+03  0.50400001928E-02 0.  1.
</event>
<event>
 5   0  0.2596061E-04  0.2002318E+04  0.7818609E-02  0.8605538E-01
       -2   -1    0    0    0  501  0.00000000000E+00  0.00000000000E+00  0.46450145352E+03  0.46450145353E+03  0.25500000920E-02 0. -1.
        2   -1    0    0  501    0  0.00000000000E+00  0.00000000000E+00 -0.21578396504E+04  0.21578396504E+04  0.25500000920E-02 0.  1.
    10030    2    1    2    0    0  0.00000000000E+00  0.00000000000E+00 -0.16933381969E+04  0.26223411040E+04  0.20023183105E+04 0.  0.
        5    1    3    3  502    0 -0.57178821265E+03  0.75608590163E+03 -0.42494898053E+03  0.10388509887E+04  0.46999998093E+01 0.  1.
       -5    1    3    3    0  502  0.57178821265E+03 -0.75608590163E+03 -0.12683892164E+04  0.15834901152E+04  0.46999998093E+01 0. -1.
</event>
<event>
 5   0  0.2596061E-04  0.1998386E+04  0.7818609E-02  0.8607376E-01
        2   -1    0    0  501    0  0.00000000000E+00  0.00000000000E+00  0.54040941760E+03  0.54040941760E+03  0.25500000920E-02 0. -1.
       -2   -1    0    0    0  501  0.00000000000E+00  0.00000000000E+00 -0.18474639363E+04  0.18474639363E+04  0.25500000920E-02 0.  1.
    10030    2    1    2    0    0  0.00000000000E+00  0.00000000000E+00 -0.13070545187E+04  0.23878733539E+04  0.19983862588E+04 0.  0.
        5    1    3    3  502    0  0.11934487729E+03  0.86276028508E+03 -0.68432868222E+02  0.87367251112E+03  0.46999998093E+01 0. -1.
       -5    1    3    3    0  502 -0.11934487729E+03 -0.86276028508E+03 -0.12386216505E+04  0.15142008428E+04  0.46999998093E+01 0.  1.
</event>
<event>
 5   0  0.2596061E-04  0.2051514E+04  0.7818609E-02  0.8582908E-01
        2   -1    0    0  501    0  0.00000000000E+00  0.00000000000E+00  0.13896241341E+04  0.13896241341E+04  0.25500000920E-02 0. -1.
       -2   -1    0    0    0  501  0.00000000000E+00  0.00000000000E+00 -0.75716661905E+03  0.75716661906E+03  0.25500000920E-02 0.  1.
    10030    2    1    2    0    0  0.00000000000E+00  0.00000000000E+00  0.63245751509E+03  0.21467907532E+04  0.20515135948E+04 0.  0.
        5    1    3    3  502    0  0.82101697190E+02 -0.97434646408E+03 -0.81062549306E+01  0.97784432406E+03  0.46999998093E+01 0.  1.
       -5    1    3    3    0  502 -0.82101697190E+02  0.97434646408E+03  0.64056377002E+03  0.11689464291E+04  0.46999998093E+01 0. -1.
</event>
<event>
 5   0  0.2463085E-04  0.2005581E+04  0.7818609E-02  0.8604016E-01
       -2   -1    0    0    0  501  0.00000000000E+00  0.00000000000E+00  0.18194255212E+04  0.18194255212E+04  0.25500000920E-02 0. -1.
        2   -1    0    0  501    0  0.00000000000E+00  0.00000000000E+00 -0.55269599262E+03  0.55269599262E+03  0.25500000920E-02 0.  1.
    10030    2    1    2    0    0  0.00000000000E+00  0.00000000000E+00  0.12667295286E+04  0.23721215138E+04  0.20055814064E+04 0.  0.
        2    1    3    3  502    0  0.78591962413E+03 -0.45808308524E+03  0.11324830846E+04  0.14525934412E+04  0.25500000920E-02 0.  1.
       -2    1    3    3    0  502 -0.78591962413E+03  0.45808308524E+03  0.13424644400E+03  0.91952807261E+03  0.25500000920E-02 0. -1.
</event>
<event>
 5   0  0.2540506E-04  0.1901669E+04  0.7818609E-02  0.8654026E-01
       -2   -1    0    0    0  501  0.00000000000E+00  0.00000000000E+00  0.56522709607E+03  0.56522709607E+03  0.25500000920E-02 0.  1.
        2   -1    0    0  501    0  0.00000000000E+00  0.00000000000E+00 -0.15995092657E+04  0.15995092657E+04  0.25500000920E-02 0. -1.
    10030    2    1    2    0    0  0.00000000000E+00  0.00000000000E+00 -0.10342821697E+04  0.21647363618E+04  0.19016687171E+04 0.  0.
        4    1    3    3  502    0  0.15820861830E+03  0.16429757232E+03  0.53362348000E+03  0.58032688244E+03  0.12699999809E+01 0.  1.
       -4    1    3    3    0  502 -0.15820861830E+03 -0.16429757232E+03 -0.15679056497E+04  0.15844094794E+04  0.12699999809E+01 0. -1.
</event>
<event>
 5   0  0.2488886E-04  0.1992725E+04  0.7818609E-02  0.8610030E-01
       -2   -1    0    0    0  501  0.00000000000E+00  0.00000000000E+00  0.43431903064E+03  0.43431903064E+03  0.25500000920E-02 0.  1.
        2   -1    0    0  501    0  0.00000000000E+00  0.00000000000E+00 -0.22857345182E+04  0.22857345182E+04  0.25500000920E-02 0. -1.
    10030    2    1    2    0    0  0.00000000000E+00  0.00000000000E+00 -0.18514154875E+04  0.27200535488E+04  0.19927247680E+04 0.  0.
        3    1    3    3  502    0  0.44354371986E+03  0.32668896293E+03 -0.20589646570E+04  0.21313826918E+04  0.10100000352E+00 0. -1.
       -3    1    3    3    0  502 -0.44354371986E+03 -0.32668896293E+03  0.20754916948E+03  0.58867085700E+03  0.10100000352E+00 0.  1.
</event>
<event>
 5   0  0.2596061E-04  0.1998578E+04  0.7818609E-02  0.8607286E-01
       -2   -1    0    0    0  501  0.00000000000E+00  0.00000000000E+00  0.88111729460E+03  0.88111729461E+03  0.25500000920E-02 0.  1.
        2   -1    0    0  501    0  0.00000000000E+00  0.00000000000E+00 -0.11333097713E+04  0.11333097713E+04  0.25500000920E-02 0. -1.
    10030    2    1    2    0    0  0.00000000000E+00  0.00000000000E+00 -0.25219247669E+03  0.20144270659E+04  0.19985783344E+04 0.  0.
        5    1    3    3  502    0  0.67373133770E+03  0.71079488873E+03 -0.32619880355E+03  0.10322650041E+04  0.46999998093E+01 0. -1.
       -5    1    3    3    0  502 -0.67373133770E+03 -0.71079488873E+03  0.74006326865E+02  0.98216206181E+03  0.46999998093E+01 0.  1.
</event>
<event>
 5   0  0.2540506E-04  0.2022883E+04  0.7818609E-02  0.8595996E-01
       -2   -1    0    0    0  501  0.00000000000E+00  0.00000000000E+00  0.49083658638E+03  0.49083658639E+03  0.25500000920E-02 0. -1.
        2   -1    0    0  501    0  0.00000000000E+00  0.00000000000E+00 -0.20842243837E+04  0.20842243837E+04  0.25500000920E-02 0.  1.
    10030    2    1    2    0    0  0.00000000000E+00  0.00000000000E+00 -0.15933877973E+04  0.25750609701E+04  0.20228826775E+04 0.  0.
        4    1    3    3  502    0  0.18122036993E+03  0.49786624575E+03 -0.18934413981E+04  0.19661723124E+04  0.12699999809E+01 0.  1.
       -4    1    3    3    0  502 -0.18122036993E+03 -0.49786624575E+03  0.30005360083E+03  0.60888865764E+03  0.12699999809E+01 0. -1.
</event>
<event>
 5   0  0.9099125E-05  0.1906369E+04  0.7818609E-02  0.8651692E-01
        3   -1    0    0  501    0  0.00000000000E+00  0.00000000000E+00  0.10153841532E+04  0.10153841582E+04  0.10100000352E+00 0. -1.
       -3   -1    0    0    0  501  0.00000000000E+00  0.00000000000E+00 -0.89479526381E+03  0.89479526951E+03  0.10100000352E+00 0.  1.
    10030    2    1    2    0    0  0.00000000000E+00  0.00000000000E+00  0.12058888935E+03  0.19101794277E+04  0.19063692627E+04 0.  0.
        3    1    3    3  502    0 -0.22058166041E+03  0.21626697086E+03  0.96383572509E+03  0.10121299258E+04  0.10100000352E+00 0. -1.
       -3    1    3    3    0  502  0.22058166041E+03 -0.21626697086E+03 -0.84324683574E+03  0.89804950186E+03  0.10100000352E+00 0.  1.
</event>
<event>
 5   0  0.2421737E-04  0.1952399E+04  0.7818609E-02  0.8629205E-01
        2   -1    0    0  501    0  0.00000000000E+00  0.00000000000E+00  0.10381134179E+04  0.10381134179E+04  0.25500000920E-02 0. -1.
       -2   -1    0    0    0  501  0.00000000000E+00  0.00000000000E+00 -0.91797834507E+03  0.91797834507E+03  0.25500000920E-02 0.  1.
    10030    2    1    2    0    0  0.00000000000E+00  0.00000000000E+00  0.12013507288E+03  0.19560917630E+04  0.19523991778E+04 0.  0.
        1    1    3    3  502    0 -0.68278336871E+03 -0.25015556501E+03 -0.59246658819E+03  0.93796993206E+03  0.50400001928E-02 0.  1.
       -1    1    3    3    0  502  0.68278336871E+03  0.25015556501E+03  0.71260166107E+03  0.10181218310E+04  0.50400001928E-02 0. -1.
</event>
<event>
 5   0  0.1210633E-04  0.1966882E+04  0.7818609E-02  0.8622263E-01
        1   -1    0    0  501    0  0.00000000000E+00  0.00000000000E+00  0.13083685972E+04  0.13083685972E+04  0.50400001928E-02 0. -1.
       -1   -1    0    0    0  501  0.00000000000E+00  0.00000000000E+00 -0.73920753762E+03  0.73920753764E+03  0.50400001928E-02 0.  1.
    10030    2    1    2    0    0  0.00000000000E+00  0.00000000000E+00  0.56916105959E+03  0.20475761349E+04  0.19668817240E+04 0.  0.
        2    1    3    3  502    0 -0.39585221765E+03 -0.33673837077E+03 -0.58457642543E+03  0.78219007009E+03  0.25500000920E-02 0.  1.
       -2    1    3    3    0  502  0.39585221765E+03  0.33673837077E+03  0.11537374850E+04  0.12653860648E+04  0.25500000920E-02 0. -1.
</event>
<event>
 5   0  0.2488886E-04  0.1985775E+04  0.7818609E-02  0.8613300E-01
       -2   -1    0    0    0  501  0.00000000000E+00  0.00000000000E+00  0.83640668757E+03  0.83640668757E+03  0.25500000920E-02 0. -1.
        2   -1    0    0  501    0  0.00000000000E+00  0.00000000000E+00 -0.11786433937E+04  0.11786433937E+04  0.25500000920E-02 0.  1.
    10030    2    1    2    0    0  0.00000000000E+00  0.00000000000E+00 -0.34223670617E+03  0.20150500813E+04  0.19857746265E+04 0.  0.
        3    1    3    3  502    0 -0.64842901653E+03 -0.12264057357E+03  0.58165672898E+03  0.87967349644E+03  0.10100000352E+00 0. -1.
       -3    1    3    3    0  502  0.64842901653E+03  0.12264057357E+03 -0.92389343515E+03  0.11353765849E+04  0.10100000352E+00 0.  1.
</event>
<event>
 5   0  0.1258546E-04  0.2301231E+04  0.7818609E-02  0.8477436E-01
        1   -1    0    0  501    0  0.00000000000E+00  0.00000000000E+00  0.12992582796E+04  0.12992582796E+04  0.50400001928E-02 0. -1.
       -1   -1    0    0    0  501  0.00000000000E+00  0.00000000000E+00 -0.10189783361E+04  0.10189783361E+04  0.50400001928E-02 0.  1.
    10030    2    1    2    0    0  0.00000000000E+00  0.00000000000E+00  0.28027994348E+03  0.23182366158E+04  0.23012310097E+04 0.  0.
        4    1    3    3  502    0 -0.82462744525E+03  0.75057092506E+03 -0.14576585763E+03  0.11245516596E+04  0.12699999809E+01 0.  1.
       -4    1    3    3    0  502  0.82462744525E+03 -0.75057092506E+03  0.42604580111E+03  0.11936849562E+04  0.12699999809E+01 0. -1.
</event>
<event>
 5   0  0.1207228E-04  0.1988882E+04  0.7818609E-02  0.8611836E-01
        1   -1    0    0  501    0  0.00000000000E+00  0.00000000000E+00  0.19156092719E+04  0.19156092719E+04  0.50400001928E-02 0. -1.
       -1   -1    0    0    0  501  0.00000000000E+00  0.00000000000E+00 -0.51623953988E+03  0.51623953990E+03  0.50400001928E-02 0.  1.
    10030    2    1    2    0    0  0.00000000000E+00  0.00000000000E+00  0.13993697320E+04  0.24318488118E+04  0.19888823486E+04 0.  0.
        1    1    3    3  502    0 -0.24521156035E+03  0.20123724201E+03  0.18520879264E+04  0.18790568975E+04  0.50400001928E-02 0. -1.
       -1    1    3    3    0  502  0.24521156035E+03 -0.20123724201E+03 -0.45271819442E+03  0.55279191427E+03  0.50400001928E-02 0.  1.
</event>
<event>
 5   0  0.1324930E-04  0.2113860E+04  0.7818609E-02  0.8555163E-01
        1   -1    0    0  501    0  0.00000000000E+00  0.00000000000E+00  0.13839284513E+04  0.13839284513E+04  0.50400001928E-02 0. -1.
       -1   -1    0    0    0  501  0.00000000000E+00  0.00000000000E+00 -0.80719544194E+03  0.80719544195E+03  0.50400001928E-02 0.  1.
    10030    2    1    2    0    0  0.00000000000E+00  0.00000000000E+00  0.57673300938E+03  0.21911238933E+04  0.21138597285E+04 0.  0.
        5    1    3    3  502    0  0.11989537139E+03  0.11246901058E+03 -0.79385178584E+03  0.81070767007E+03  0.46999998093E+01 0.  1.
       -5    1    3    3    0  502 -0.11989537139E+03 -0.11246901058E+03  0.13705847952E+04  0.13804162232E+04  0.46999998093E+01 0. -1.
</event>
<event>
 5   0  0.2540506E-04  0.1964720E+04  0.7818609E-02  0.8623295E-01
       -2   -1    0    0    0  501  0.00000000000E+00  0.00000000000E+00  0.54721224015E+03  0.54721224016E+03  0.25500000920E-02 0. -1.
        2   -1    0    0  501    0  0.00000000000E+00  0.00000000000E+00 -0.17635401003E+04  0.17635401003E+04  0.25500000920E-02 0.  1.
    10030    2    1    2    0    0  0.00000000000E+00  0.00000000000E+00 -0.12163278601E+04  0.23107523404E+04  0.19647195514E+04 0.  0.
        4    1    3    3  502    0  0.47695740473E+03 -0.70812220124E+03 -0.11796481322E+04  0.14561925513E+04  0.12699999809E+01 0.  1.
       -4    1    3    3    0  502 -0.47695740473E+03  0.70812220124E+03 -0.36679727908E+02  0.85455978910E+03  0.12699999809E+01 0. -1.
</event>
<event>
 5   0  0.1210633E-04  0.2032746E+04  0.7818609E-02  0.8591462E-01
       -1   -1    0    0    0  501  0.00000000000E+00  0.00000000000E+00  0.82365907236E+03  0.82365907238E+03  0.50400001928E-02 0. -1.
        1   -1    0    0  501    0  0.00000000000E+00  0.00000000000E+00 -0.12541764085E+04  0.12541764085E+04  0.50400001928E-02 0.  1.
    10030    2    1    2    0    0  0.00000000000E+00  0.00000000000E+00 -0.43051733609E+03  0.20778354808E+04  0.20327457069E+04 0.  0.
        2    1    3    3  502    0  0.71258106339E+03  0.70564845972E+03 -0.46359551758E+02  0.10039226707E+04  0.25500000920E-02 0. -1.
       -2    1    3    3    0  502 -0.71258106339E+03 -0.70564845972E+03 -0.38415778433E+03  0.10739128102E+04  0.25500000920E-02 0.  1.
</event>
<event>
 5   0  0.2463085E-04  0.2009932E+04  0.7818609E-02  0.8601991E-01
        2   -1    0    0  501    0  0.00000000000E+00  0.00000000000E+00  0.14026123155E+04  0.14026123155E+04  0.25500000920E-02 0.  1.
       -2   -1    0    0    0  501  0.00000000000E+00  0.00000000000E+00 -0.72005374172E+03  0.72005374173E+03  0.25500000920E-02 0. -1.
    10030    2    1    2    0    0  0.00000000000E+00  0.00000000000E+00  0.68255857374E+03  0.21226660572E+04  0.20099315868E+04 0.  0.
        2    1    3    3  502    0  0.17193251595E+03  0.12105970775E+03 -0.69656096521E+03  0.72760801339E+03  0.25500000920E-02 0. -1.
       -2    1    3    3    0  502 -0.17193251595E+03 -0.12105970775E+03  0.13791195389E+04  0.13950580438E+04  0.25500000920E-02 0.  1.
</event>
<event>
 5   0  0.2421737E-04  0.1890002E+04  0.7818609E-02  0.8659849E-01
        2   -1    0    0  501    0  0.00000000000E+00  0.00000000000E+00  0.13154153989E+04  0.13154153989E+04  0.25500000920E-02 0. -1.
       -2   -1    0    0    0  501  0.00000000000E+00  0.00000000000E+00 -0.67889349335E+03  0.67889349335E+03  0.25500000920E-02 0.  1.
    10030    2    1    2    0    0  0.00000000000E+00  0.00000000000E+00  0.63652190554E+03  0.19943088922E+04  0.18900020692E+04 0.  0.
        1    1    3    3  502    0  0.46909528527E+03 -0.64648828976E+03  0.85113592328E+03  0.11672317060E+04  0.50400001928E-02 0. -1.
       -1    1    3    3    0  502 -0.46909528527E+03  0.64648828976E+03 -0.21461401774E+03  0.82707718630E+03  0.50400001928E-02 0.  1.
</event>
<event>
 5   0  0.2596061E-04  0.2062087E+04  0.7818609E-02  0.8578131E-01
       -2   -1    0    0    0  501  0.00000000000E+00  0.00000000000E+00  0.60352325616E+03  0.60352325616E+03  0.25500000920E-02 0.  1.
        2   -1    0    0  501    0  0.00000000000E+00  0.00000000000E+00 -0.17614080976E+04  0.17614080976E+04  0.25500000920E-02 0. -1.
    10030    2    1    2    0    0  0.00000000000E+00  0.00000000000E+00 -0.11578848414E+04  0.23649313537E+04  0.20620870500E+04 0.  0.
        5    1    3    3  502    0  0.21062956874E+03 -0.32956355967E+03  0.51512624046E+03  0.64680297518E+03  0.46999998093E+01 0.  1.
       -5    1    3    3    0  502 -0.21062956874E+03  0.32956355967E+03 -0.16730110819E+04  0.17181283786E+04  0.46999998093E+01 0. -1.
</event>
<event>
 5   0  0.1210633E-04  0.2019891E+04  0.7818609E-02  0.8597377E-01
        1   -1    0    0  501    0  0.00000000000E+00  0.00000000000E+00  0.11018953363E+04  0.11018953364E+04  0.50400001928E-02 0. -1.
       -1   -1    0    0    0  501  0.00000000000E+00  0.00000000000E+00 -0.92566890523E+03  0.92566890524E+03  0.50400001928E-02 0.  1.
    10030    2    1    2    0    0  0.00000000000E+00  0.00000000000E+00  0.17622643112E+03  0.20275642416E+04  0.20198913334E+04 0.  0.
        2    1    3    3  502    0  0.98020624330E+03 -0.22252679847E+03 -0.10585230938E+02  0.10052037120E+04  0.25500000920E-02 0.  1.
       -2    1    3    3    0  502 -0.98020624330E+03  0.22252679847E+03  0.18681166205E+03  0.10223605296E+04  0.25500000920E-02 0. -1.
</event>
<event>
 5   0  0.1258546E-04  0.1972999E+04  0.7818609E-02  0.8619350E-01
       -1   -1    0    0    0  501  0.00000000000E+00  0.00000000000E+00  0.59278337345E+03  0.59278337347E+03  0.50400001928E-02 0. -1.
        1   -1    0    0  501    0  0.00000000000E+00  0.00000000000E+00 -0.16417141522E+04  0.16417141522E+04  0.50400001928E-02 0.  1.
    10030    2    1    2    0    0  0.00000000000E+00  0.00000000000E+00 -0.10489307787E+04  0.22344975256E+04  0.19729985843E+04 0.  0.
        4    1    3    3  502    0 -0.18178419746E+03  0.45080494696E+03  0.44774426721E+03  0.66086847131E+03  0.12699999809E+01 0. -1.
       -4    1    3    3    0  502  0.18178419746E+03 -0.45080494696E+03 -0.14966750459E+04  0.15736290543E+04  0.12699999809E+01 0.  1.
</event>
<event>
 5   0  0.2540506E-04  0.2015577E+04  0.7818609E-02  0.8599372E-01
        2   -1    0    0  501    0  0.00000000000E+00  0.00000000000E+00  0.96165566832E+03  0.96165566832E+03  0.25500000920E-02 0. -1.
       -2   -1    0    0    0  501  0.00000000000E+00  0.00000000000E+00 -0.10561343414E+04  0.10561343414E+04  0.25500000920E-02 0.  1.
    10030    2    1    2    0    0  0.00000000000E+00  0.00000000000E+00 -0.94478673079E+02  0.20177900097E+04  0.20155769158E+04 0.  0.
        4    1    3    3  502    0 -0.33541166757E+03  0.49614942781E+03 -0.85866660689E+03  0.10468883399E+04  0.12699999809E+01 0.  1.
       -4    1    3    3    0  502  0.33541166757E+03 -0.49614942781E+03  0.76418793381E+03  0.97090166986E+03  0.12699999809E+01 0. -1.
</event>
<event>
 5   0  0.2488886E-04  0.1907876E+04  0.7818609E-02  0.8650946E-01
       -2   -1    0    0    0  501  0.00000000000E+00  0.00000000000E+00  0.16709062102E+04  0.16709062102E+04  0.25500000920E-02 0. -1.
        2   -1    0    0  501    0  0.00000000000E+00  0.00000000000E+00 -0.54461335767E+03  0.54461335768E+03  0.25500000920E-02 0.  1.
    10030    2    1    2    0    0  0.00000000000E+00  0.00000000000E+00  0.11262928525E+04  0.22155195679E+04  0.19078761401E+04 0.  0.
        3    1    3    3  502    0  0.29521482888E+03 -0.43938153518E+03  0.14847056708E+04  0.15762483522E+04  0.10100000352E+00 0. -1.
       -3    1    3    3    0  502 -0.29521482888E+03  0.43938153518E+03 -0.35841281831E+03  0.63927121566E+03  0.10100000352E+00 0.  1.
</event>
<event>
 5   0  0.1207228E-04  0.1962598E+04  0.7818609E-02  0.8624310E-01
        1   -1    0    0  501    0  0.00000000000E+00  0.00000000000E+00  0.14787882112E+04  0.14787882112E+04  0.50400001928E-02 0.  1.
       -1   -1    0    0    0  501  0.00000000000E+00  0.00000000000E+00 -0.65117379767E+03  0.65117379769E+03  0.50400001928E-02 0. -1.
    10030    2    1    2    0    0  0.00000000000E+00  0.00000000000E+00  0.82761441354E+03  0.21299620089E+04  0.19625984159E+04 0.  0.
        1    1    3    3  502    0  0.89012983916E+01  0.66387688285E+03  0.11980172375E+04  0.13696923195E+04  0.50400001928E-02 0.  1.
       -1    1    3    3    0  502 -0.89012983916E+01 -0.66387688285E+03 -0.37040282393E+03  0.76026968945E+03  0.50400001928E-02 0. -1.
</event>
<event>
 5   0  0.1207228E-04  0.1419913E+04  0.7818609E-02  0.8939529E-01
       -1   -1    0    0    0  501  0.00000000000E+00  0.00000000000E+00  0.47037534608E+03  0.47037534611E+03  0.50400001928E-02 0.  1.
        1   -1    0    0  501    0  0.00000000000E+00  0.00000000000E+00 -0.10715666201E+04  0.10715666201E+04  0.50400001928E-02 0. -1.
    10030    2    1    2    0    0  0.00000000000E+00  0.00000000000E+00 -0.60119127404E+03  0.15419419662E+04  0.14199134056E+04 0.  0.
        1    1    3    3  502    0 -0.43177948609E+01 -0.11505794744E+03  0.46016893705E+03  0.47435474623E+03  0.50400001928E-02 0.  1.
       -1    1    3    3    0  502  0.43177948609E+01  0.11505794744E+03 -0.10613602111E+04  0.10675872200E+04  0.50400001928E-02 0. -1.
</event>
<event>
 5   0  0.1210633E-04  0.1973173E+04  0.7818609E-02  0.8619267E-01
       -1   -1    0    0    0  501  0.00000000000E+00  0.00000000000E+00  0.10667319882E+04  0.10667319882E+04  0.50400001928E-02 0.  1.
        1   -1    0    0  501    0  0.00000000000E+00  0.00000000000E+00 -0.91246239318E+03  0.91246239319E+03  0.50400001928E-02 0. -1.
    10030    2    1    2    0    0  0.00000000000E+00  0.00000000000E+00  0.15426959503E+03  0.19791943814E+04  0.19731728995E+04 0.  0.
        2    1    3    3  502    0  0.39785849012E+02  0.92100690867E+03  0.42965599683E+03  0.10170746852E+04  0.25500000920E-02 0.  1.
       -2    1    3    3    0  502 -0.39785849012E+02 -0.92100690867E+03 -0.27538640180E+03  0.96211969624E+03  0.25500000920E-02 0. -1.
</event>
<event>
 5   0  0.1210633E-04  0.1921890E+04  0.7818609E-02  0.8644036E-01
        1   -1    0    0  501    0  0.00000000000E+00  0.00000000000E+00  0.10067544957E+04  0.10067544957E+04  0.50400001928E-02 0. -1.
       -1   -1    0    0    0  501  0.00000000000E+00  0.00000000000E+00 -0.91721988313E+03  0.91721988314E+03  0.50400001928E-02 0.  1.
    10030    2    1    2    0    0  0.00000000000E+00  0.00000000000E+00  0.89534612532E+02  0.19239743788E+04  0.19218899457E+04 0.  0.
        2    1    3    3  502    0 -0.80434329933E+02 -0.93342663436E+03  0.25868171760E+03  0.97194197059E+03  0.25500000920E-02 0.  1.
       -2    1    3    3    0  502  0.80434329933E+02  0.93342663436E+03 -0.16914710507E+03  0.95203240823E+03  0.25500000920E-02 0. -1.
</event>
<event>
 5   0  0.2596061E-04  0.2004761E+04  0.7818609E-02  0.8604398E-01
        2   -1    0    0  501    0  0.00000000000E+00  0.00000000000E+00  0.16441505160E+04  0.16441505160E+04  0.25500000920E-02 0.  1.
       -2   -1    0    0    0  501  0.00000000000E+00  0.00000000000E+00 -0.61111591255E+03  0.61111591255E+03  0.25500000920E-02 0. -1.
    10030    2    1    2    0    0  0.00000000000E+00  0.00000000000E+00  0.10330346035E+04  0.22552664286E+04  0.20047608765E+04 0.  0.
        5    1    3    3  502    0 -0.10213659998E+03  0.95494109642E+03  0.83944036826E+03  0.12755495304E+04  0.46999998093E+01 0.  1.
       -5    1    3    3    0  502  0.10213659998E+03 -0.95494109642E+03  0.19359423524E+03  0.97971689819E+03  0.46999998093E+01 0. -1.
</event>
<event>
 5   0  0.1324930E-04  0.1940502E+04  0.7818609E-02  0.8634955E-01
       -1   -1    0    0    0  501  0.00000000000E+00  0.00000000000E+00  0.16761420352E+04  0.16761420352E+04  0.50400001928E-02 0. -1.
        1   -1    0    0  501    0  0.00000000000E+00  0.00000000000E+00 -0.56163891541E+03  0.56163891543E+03  0.50400001928E-02 0.  1.
    10030    2    1    2    0    0  0.00000000000E+00  0.00000000000E+00  0.11145031198E+04  0.22377809506E+04  0.19405015792E+04 0.  0.
        5    1    3    3  502    0  0.73638038549E+03  0.50495885179E+02  0.12834532535E+04  0.14805675433E+04  0.46999998093E+01 0. -1.
       -5    1    3    3    0  502 -0.73638038549E+03 -0.50495885179E+02 -0.16895013366E+03  0.75721340731E+03  0.46999998093E+01 0.  1.
</event>
<event>
 5   0  0.1231056E-04  0.1961154E+04  0.7818609E-02  0.8625001E-01
       -1   -1    0    0    0  501  0.00000000000E+00  0.00000000000E+00  0.60869706593E+03  0.60869706595E+03  0.50400001928E-02 0.  1.
        1   -1    0    0  501    0  0.00000000000E+00  0.00000000000E+00 -0.15796555069E+04  0.15796555069E+04  0.50400001928E-02 0. -1.
    10030    2    1    2    0    0  0.00000000000E+00  0.00000000000E+00 -0.97095844096E+03  0.21883525728E+04  0.19611544276E+04 0.  0.
        3    1    3    3  502    0  0.78803823127E+03  0.58121425863E+03 -0.42731153525E+03  0.10683676459E+04  0.10100000352E+00 0.  1.
       -3    1    3    3    0  502 -0.78803823127E+03 -0.58121425863E+03 -0.54364690570E+03  0.11199849270E+04  0.10100000352E+00 0. -1.
</event>
<event>
 5   0  0.1324930E-04  0.2123120E+04  0.7818609E-02  0.8551127E-01
       -1   -1    0    0    0  501  0.00000000000E+00  0.00000000000E+00  0.82952543135E+03  0.82952543137E+03  0.50400001928E-02 0. -1.
        1   -1    0    0  501    0  0.00000000000E+00  0.00000000000E+00 -0.13584987889E+04  0.13584987889E+04  0.50400001928E-02 0.  1.
    10030    2    1    2    0    0  0.00000000000E+00  0.00000000000E+00 -0.52897335755E+03  0.21880242203E+04  0.21231196800E+04 0.  0.
        5    1    3    3  502    0 -0.62584698904E+03  0.16332381823E+03 -0.11319601109E+04  0.13037311478E+04  0.46999998093E+01 0.  1.
       -5    1    3    3    0  502  0.62584698904E+03 -0.16332381823E+03  0.60298675331E+03  0.88429307243E+03  0.46999998093E+01 0. -1.
</event>
<event>
 5   0  0.1258546E-04  0.2335559E+04  0.7818609E-02  0.8464031E-01
        1   -1    0    0  501    0  0.00000000000E+00  0.00000000000E+00  0.25495648799E+04  0.25495648799E+04  0.50400001928E-02 0.  1.
       -1   -1    0    0    0  501  0.00000000000E+00  0.00000000000E+00 -0.53487924261E+03  0.53487924263E+03  0.50400001928E-02 0. -1.
    10030    2    1    2    0    0  0.00000000000E+00  0.00000000000E+00  0.20146856373E+04  0.30844441226E+04  0.23355593180E+04 0.  0.
        4    1    3    3  502    0 -0.63022775612E+03 -0.55906272502E+03 -0.60641247901E+02  0.84464023639E+03  0.12699999809E+01 0. -1.
       -4    1    3    3    0  502  0.63022775612E+03  0.55906272502E+03  0.20753268852E+04  0.22398038862E+04  0.12699999809E+01 0.  1.
</event>
<event>
 5   0  0.2463085E-04  0.2130842E+04  0.7818609E-02  0.8547778E-01
       -2   -1    0    0    0  501  0.00000000000E+00  0.00000000000E+00  0.98765215120E+03  0.98765215121E+03  0.25500000920E-02 0. -1.
        2   -1    0    0  501    0  0.00000000000E+00  0.00000000000E+00 -0.11493134202E+04  0.11493134202E+04  0.25500000920E-02 0.  1.
    10030    2    1    2    0    0  0.00000000000E+00  0.00000000000E+00 -0.16166126901E+03  0.21369655714E+04  0.21308419668E+04 0.  0.
        2    1    3    3  502    0 -0.84078784970E+03  0.52550185314E+03 -0.47188129229E+03  0.10980657357E+04  0.25500000920E-02 0.  1.
       -2    1    3    3    0  502  0.84078784970E+03 -0.52550185314E+03  0.31022002328E+03  0.10388998357E+04  0.25500000920E-02 0. -1.
</event>
<event>
 5   0  0.2421737E-04  0.2068035E+04  0.7818609E-02  0.8575456E-01
        2   -1    0    0  501    0  0.00000000000E+00  0.00000000000E+00  0.12791980240E+04  0.12791980240E+04  0.25500000920E-02 0. -1.
       -2   -1    0    0    0  501  0.00000000000E+00  0.00000000000E+00 -0.83583002289E+03  0.83583002290E+03  0.25500000920E-02 0.  1.
    10030    2    1    2    0    0  0.00000000000E+00  0.00000000000E+00  0.44336800111E+03  0.21150280469E+04  0.20680349259E+04 0.  0.
        1    1    3    3  502    0 -0.44749181846E+03 -0.67353452386E+02  0.11725456326E+04  0.12568407519E+04  0.50400001928E-02 0. -1.
       -1    1    3    3    0  502  0.44749181846E+03  0.67353452386E+02 -0.72917763144E+03  0.85818729503E+03  0.50400001928E-02 0.  1.
</event>
<event>
 5   0  0.1324930E-04  0.1998141E+04  0.7818609E-02  0.8607490E-01
       -1   -1    0    0    0  501  0.00000000000E+00  0.00000000000E+00  0.10966273542E+04  0.10966273542E+04  0.50400001928E-02 0. -1.
        1   -1    0    0  501    0  0.00000000000E+00  0.00000000000E+00 -0.91019233642E+03  0.91019233644E+03  0.50400001928E-02 0.  1.
    10030    2    1    2    0    0  0.00000000000E+00  0.00000000000E+00  0.18643501779E+03  0.20068196907E+04  0.19981409497E+04 0.  0.
        5    1    3    3  502    0  0.30840500370E+03 -0.86560981811E+03  0.48699918353E+03  0.10399924511E+04  0.46999998093E+01 0.  1.
       -5    1    3    3    0  502 -0.30840500370E+03  0.86560981811E+03 -0.30056416574E+03  0.96682723960E+03  0.46999998093E+01 0. -1.
</event>
<event>
 5   0  0.1210633E-04  0.1981045E+04  0.7818609E-02  0.8615534E-01
        1   -1    0    0  501    0  0.00000000000E+00  0.00000000000E+00  0.21834778514E+04  0.21834778514E+04  0.50400001928E-02 0. -1.
       -1   -1    0    0    0  501  0.00000000000E+00  0.00000000000E+00 -0.44934511071E+03  0.44934511074E+03  0.50400001928E-02 0.  1.
    10030    2    1    2    0    0  0.00000000000E+00  0.00000000000E+00  0.17341327407E+04  0.26328229621E+04  0.19810452765E+04 0.  0.
        2    1    3    3  502    0 -0.32456703157E+03 -0.75873954888E+03  0.13901113141E+03  0.83687128979E+03  0.25500000920E-02 0.  1.
       -2    1    3    3    0  502  0.32456703157E+03  0.75873954888E+03  0.15951216093E+04  0.17959516723E+04  0.25500000920E-02 0. -1.
</event>
<event>
 5   0  0.1231056E-04  0.1981113E+04  0.7818609E-02  0.8615502E-01
       -1   -1    0    0    0  501  0.00000000000E+00  0.00000000000E+00  0.62504256478E+03  0.62504256480E+03  0.50400001928E-02 0. -1.
        1   -1    0    0  501    0  0.00000000000E+00  0.00000000000E+00 -0.15698171889E+04  0.15698171889E+04  0.50400001928E-02 0.  1.
    10030    2    1    2    0    0  0.00000000000E+00  0.00000000000E+00 -0.94477462415E+03  0.21948597537E+04  0.19811133860E+04 0.  0.
        3    1    3    3  502    0 -0.28341220938E+03 -0.24209445839E+03  0.54438379729E+03  0.65976202995E+03  0.10100000352E+00 0. -1.
       -3    1    3    3    0  502  0.28341220938E+03  0.24209445839E+03 -0.14891584214E+04  0.15350977238E+04  0.10100000352E+00 0.  1.
</event>
<event>
 5   0  0.2463085E-04  0.1995831E+04  0.7818609E-02  0.8608572E-01
        2   -1    0    0  501    0  0.00000000000E+00  0.00000000000E+00  0.14196283975E+04  0.14196283975E+04  0.25500000920E-02 0.  1.
       -2   -1    0    0    0  501  0.00000000000E+00  0.00000000000E+00 -0.70147637863E+03  0.70147637863E+03  0.25500000920E-02 0. -1.
    10030    2    1    2    0    0  0.00000000000E+00  0.00000000000E+00  0.71815201890E+03  0.21211047762E+04  0.19958314431E+04 0.  0.
        2    1    3    3  502    0 -0.16009937104E+03 -0.86564467839E+03 -0.14038318213E+03  0.89144823499E+03  0.25500000920E-02 0. -1.
       -2    1    3    3    0  502  0.16009937104E+03  0.86564467839E+03  0.85853520102E+03  0.12296565412E+04  0.25500000920E-02 0.  1.
</event>
<event>
 5   0  0.2421737E-04  0.2003834E+04  0.7818609E-02  0.8604830E-01
        2   -1    0    0  501    0  0.00000000000E+00  0.00000000000E+00  0.12733875232E+04  0.12733875232E+04  0.25500000920E-02 0.  1.
       -2   -1    0    0    0  501  0.00000000000E+00  0.00000000000E+00 -0.78832079210E+03  0.78832079211E+03  0.25500000920E-02 0. -1.
    10030    2    1    2    0    0  0.00000000000E+00  0.00000000000E+00  0.48506673110E+03  0.20617083153E+04  0.20038341857E+04 0.  0.
        1    1    3    3  502    0 -0.43343499861E+02  0.66889002288E+03  0.10087189398E+04  0.12111178396E+04  0.50400001928E-02 0.  1.
       -1    1    3    3    0  502  0.43343499861E+02 -0.66889002288E+03 -0.52365220874E+03  0.85059047575E+03  0.50400001928E-02 0. -1.
</event>
<event>
 5   0  0.1207228E-04  0.2063884E+04  0.7818609E-02  0.8577322E-01
       -1   -1    0    0    0  501  0.00000000000E+00  0.00000000000E+00  0.66353260556E+03  0.66353260557E+03  0.50400001928E-02 0.  1.
        1   -1    0    0  501    0  0.00000000000E+00  0.00000000000E+00 -0.16049005383E+04  0.16049005384E+04  0.50400001928E-02 0. -1.
    10030    2    1    2    0    0  0.00000000000E+00  0.00000000000E+00 -0.94136793279E+03  0.22684331439E+04  0.20638835586E+04 0.  0.
        1    1    3    3  502    0 -0.82169220251E+03  0.71614486038E+02  0.21093836402E+03  0.85135286675E+03  0.50400001928E-02 0.  1.
       -1    1    3    3    0  502  0.82169220251E+03 -0.71614486038E+02 -0.11523062968E+04  0.14170802772E+04  0.50400001928E-02 0. -1.
</event>
<event>
 5   0  0.2463085E-04  0.1436607E+04  0.7818609E-02  0.8927739E-01
       -2   -1    0    0    0  501  0.00000000000E+00  0.00000000000E+00  0.28767684782E+03  0.28767684783E+03  0.25500000920E-02 0.  1.
        2   -1    0    0  501    0  0.00000000000E+00  0.00000000000E+00 -0.17935390394E+04  0.17935390394E+04  0.25500000920E-02 0. -1.
    10030    2    1    2    0    0  0.00000000000E+00  0.00000000000E+00 -0.15058621916E+04  0.20812158872E+04  0.14366066369E+04 0.  0.
        2    1    3    3  502    0  0.38631759895E+02 -0.19090174541E+03  0.24869126047E+03  0.31588484027E+03  0.25500000920E-02 0.  1.
       -2    1    3    3    0  502 -0.38631759895E+02  0.19090174541E+03 -0.17545534520E+04  0.17653310470E+04  0.25500000920E-02 0. -1.
</event>
<event>
 5   0  0.1258546E-04  0.1976564E+04  0.7818609E-02  0.8617657E-01
       -1   -1    0    0    0  501  0.00000000000E+00  0.00000000000E+00  0.11340871383E+04  0.11340871383E+04  0.50400001928E-02 0. -1.
        1   -1    0    0  501    0  0.00000000000E+00  0.00000000000E+00 -0.86122269072E+03  0.86122269074E+03  0.50400001928E-02 0.  1.
    10030    2    1    2    0    0  0.00000000000E+00  0.00000000000E+00  0.27286444758E+03  0.19953098290E+04  0.19765642684E+04 0.  0.
        4    1    3    3  502    0 -0.94327777952E+03  0.29472055977E+03  0.12818243625E+03  0.99652673198E+03  0.12699999809E+01 0.  1.
       -4    1    3    3    0  502  0.94327777952E+03 -0.29472055977E+03  0.14468201132E+03  0.99878309707E+03  0.12699999809E+01 0. -1.
</event>
<event>
 5   0  0.1231056E-04  0.1998261E+04  0.7818609E-02  0.8607434E-01
        1   -1    0    0  501    0  0.00000000000E+00  0.00000000000E+00  0.51898256410E+03  0.51898256413E+03  0.50400001928E-02 0. -1.
       -1   -1    0    0    0  501  0.00000000000E+00  0.00000000000E+00 -0.19234972526E+04  0.19234972526E+04  0.50400001928E-02 0.  1.
    10030    2    1    2    0    0  0.00000000000E+00  0.00000000000E+00 -0.14045146885E+04  0.24424798167E+04  0.19982607800E+04 0.  0.
        3    1    3    3  502    0  0.27315478439E+03  0.28154459282E+03 -0.18254336954E+04  0.18671071422E+04  0.10100000352E+00 0.  1.
       -3    1    3    3    0  502 -0.27315478439E+03 -0.28154459282E+03  0.42091900692E+03  0.57537267451E+03  0.10100000352E+00 0. -1.
</event>
<event>
 5   0  0.2596061E-04  0.2007535E+04  0.7818609E-02  0.8603106E-01
       -2   -1    0    0    0  501  0.00000000000E+00  0.00000000000E+00  0.11550217399E+04  0.11550217399E+04  0.25500000920E-02 0.  1.
        2   -1    0    0  501    0  0.00000000000E+00  0.00000000000E+00 -0.87232033517E+03  0.87232033518E+03  0.25500000920E-02 0. -1.
    10030    2    1    2    0    0  0.00000000000E+00  0.00000000000E+00  0.28270140475E+03  0.20273420751E+04  0.20075347582E+04 0.  0.
        5    1    3    3  502    0  0.19321585473E+03  0.42316564528E+03 -0.75687733228E+03  0.88841821007E+03  0.46999998093E+01 0. -1.
       -5    1    3    3    0  502 -0.19321585473E+03 -0.42316564528E+03  0.10395787370E+04  0.11389238650E+04  0.46999998093E+01 0.  1.
</event>
<event>
 5   0  0.2463085E-04  0.1932610E+04  0.7818609E-02  0.8638793E-01
        2   -1    0    0  501    0  0.00000000000E+00  0.00000000000E+00  0.19600588403E+04  0.19600588403E+04  0.25500000920E-02 0.  1.
       -2   -1    0    0    0  501  0.00000000000E+00  0.00000000000E+00 -0.47638628966E+03  0.47638628967E+03  0.25500000920E-02 0. -1.
    10030    2    1    2    0    0  0.00000000000E+00  0.00000000000E+00  0.14836725507E+04  0.24364451300E+04  0.19326097987E+04 0.  0.
        2    1    3    3  502    0  0.28951109439E+03  0.87266571667E+03  0.11166339651E+04  0.14464555088E+04  0.25500000920E-02 0.  1.
       -2    1    3    3    0  502 -0.28951109439E+03 -0.87266571667E+03  0.36703858556E+03  0.98998962122E+03  0.25500000920E-02 0. -1.
</event>
<event>
 5   0  0.9099125E-05  0.1884131E+04  0.7818609E-02  0.8662796E-01
        3   -1    0    0  501    0  0.00000000000E+00  0.00000000000E+00  0.22557653495E+04  0.22557653518E+04  0.10100000352E+00 0. -1.
       -3   -1    0    0    0  501  0.00000000000E+00  0.00000000000E+00 -0.39343079259E+03  0.39343080555E+03  0.10100000352E+00 0.  1.
    10030    2    1    2    0    0  0.00000000000E+00  0.00000000000E+00  0.18623345570E+04  0.26491961574E+04  0.18841311733E+04 0.  0.
        1    1    3    3  502    0 -0.87943695282E+03 -0.33663697697E+03  0.89256438244E+03  0.12974609763E+04  0.50400001928E-02 0. -1.
       -1    1    3    3    0  502  0.87943695282E+03  0.33663697697E+03  0.96977017452E+03  0.13517351810E+04  0.50400001928E-02 0.  1.
</event>
<event>
 5   0  0.1324930E-04  0.1994457E+04  0.7818609E-02  0.8609217E-01
       -1   -1    0    0    0  501  0.00000000000E+00  0.00000000000E+00  0.10517992568E+04  0.10517992568E+04  0.50400001928E-02 0.  1.
        1   -1    0    0  501    0  0.00000000000E+00  0.00000000000E+00 -0.94548916668E+03  0.94548916669E+03  0.50400001928E-02 0. -1.
    10030    2    1    2    0    0  0.00000000000E+00  0.00000000000E+00  0.10631009015E+03  0.19972884235E+04  0.19944571220E+04 0.  0.
        5    1    3    3  502    0 -0.28064609655E+03 -0.95129756001E+03 -0.50497608196E+02  0.99312707023E+03  0.46999998093E+01 0.  1.
       -5    1    3    3    0  502  0.28064609655E+03  0.95129756001E+03  0.15680769834E+03  0.10041613533E+04  0.46999998093E+01 0. -1.
</event>
<event>
 5   0  0.1210633E-04  0.1938883E+04  0.7818609E-02  0.8635740E-01
        1   -1    0    0  501    0  0.00000000000E+00  0.00000000000E+00  0.89286860715E+03  0.89286860716E+03  0.50400001928E-02 0.  1.
       -1   -1    0    0    0  501  0.00000000000E+00  0.00000000000E+00 -0.10525808506E+04  0.10525808506E+04  0.50400001928E-02 0. -1.
    10030    2    1    2    0    0  0.00000000000E+00  0.00000000000E+00 -0.15971224348E+03  0.19454494578E+04  0.19388825628E+04 0.  0.
        2    1    3    3  502    0  0.90573539488E+03  0.70075577517E+02 -0.41945362535E+03  0.10006040855E+04  0.25500000920E-02 0. -1.
       -2    1    3    3    0  502 -0.90573539488E+03 -0.70075577517E+02  0.25974138186E+03  0.94484537230E+03  0.25500000920E-02 0.  1.
</event>
<event>
 5   0  0.1207228E-04  0.2017984E+04  0.7818609E-02  0.8598258E-01
        1   -1    0    0  501    0  0.00000000000E+00  0.00000000000E+00  0.16523053892E+04  0.16523053892E+04  0.50400001928E-02 0. -1.
       -1   -1    0    0    0  501  0.00000000000E+00  0.00000000000E+00 -0.61614839332E+03  0.61614839334E+03  0.50400001928E-02 0.  1.
    10030    2    1    2    0    0  0.00000000000E+00  0.00000000000E+00  0.10361569959E+04  0.22684537825E+04  0.20179844507E+04 0.  0.
        1    1    3    3  502    0  0.65200016962E+03  0.49241725396E+03 -0.14742089941E+03  0.83024809231E+03  0.50400001928E-02 0.  1.
       -1    1    3    3    0  502 -0.65200016962E+03 -0.49241725396E+03  0.11835778953E+04  0.14382056902E+04  0.50400001928E-02 0. -1.
</event>
<event>
 5   0  0.2463085E-04  0.1942406E+04  0.7818609E-02  0.8634031E-01
       -2   -1    0    0    0  501  0.00000000000E+00  0.00000000000E+00  0.59973739134E+03  0.59973739135E+03  0.25500000920E-02 0.  1.
        2   -1    0    0  501    0  0.00000000000E+00  0.00000000000E+00 -0.15727470414E+04  0.15727470414E+04  0.25500000920E-02 0. -1.
    10030    2    1    2    0    0  0.00000000000E+00  0.00000000000E+00 -0.97300965009E+03  0.21724844328E+04  0.19424059389E+04 0.  0.
        2    1    3    3  502    0 -0.25579698308E+03  0.85019584645E+03 -0.46212940950E+02  0.88904483002E+03  0.25500000920E-02 0. -1.
       -2    1    3    3    0  502  0.25579698308E+03 -0.85019584645E+03 -0.92679670914E+03  0.12834396028E+04  0.25500000920E-02 0.  1.
</event>
<event>
 5   0  0.1207228E-04  0.1989697E+04  0.7818609E-02  0.8611453E-01
        1   -1    0    0  501    0  0.00000000000E+00  0.00000000000E+00  0.13334997430E+04  0.13334997431E+04  0.50400001928E-02 0.  1.
       -1   -1    0    0    0  501  0.00000000000E+00  0.00000000000E+00 -0.74220008898E+03  0.74220008900E+03  0.50400001928E-02 0. -1.
    10030    2    1    2    0    0  0.00000000000E+00  0.00000000000E+00  0.59129965407E+03  0.20756998321E+04  0.19896970905E+04 0.  0.
        1    1    3    3  502    0 -0.35211108764E+03 -0.88064809110E+03  0.60896519372E+03  0.11271033163E+04  0.50400001928E-02 0.  1.
       -1    1    3    3    0  502  0.35211108764E+03  0.88064809110E+03 -0.17665539656E+02  0.94859651576E+03  0.50400001928E-02 0. -1.
</event>
<event>
 5   0  0.2596061E-04  0.2030424E+04  0.7818609E-02  0.8592527E-01
        2   -1    0    0  501    0  0.00000000000E+00  0.00000000000E+00  0.53162282245E+03  0.53162282246E+03  0.25500000920E-02 0. -1.
       -2   -1    0    0    0  501  0.00000000000E+00  0.00000000000E+00 -0.19386969239E+04  0.19386969239E+04  0.25500000920E-02 0.  1.
    10030    2    1    2    0    0  0.00000000000E+00  0.00000000000E+00 -0.14070741015E+04  0.24703197464E+04  0.20304241237E+04 0.  0.
        5    1    3    3  502    0 -0.86876265818E+03  0.50163454270E+03 -0.89299001752E+03  0.13430707472E+04  0.46999998093E+01 0.  1.
       -5    1    3    3    0  502  0.86876265818E+03 -0.50163454270E+03 -0.51408408394E+03  0.11272489991E+04  0.46999998093E+01 0. -1.
</event>
<event>
 5   0  0.1231056E-04  0.1979276E+04  0.7818609E-02  0.8616371E-01
       -1   -1    0    0    0  501  0.00000000000E+00  0.00000000000E+00  0.65032980989E+03  0.65032980991E+03  0.50400001928E-02 0.  1.
        1   -1    0    0  501    0  0.00000000000E+00  0.00000000000E+00 -0.15059800214E+04  0.15059800214E+04  0.50400001928E-02 0. -1.
    10030    2    1    2    0    0  0.00000000000E+00  0.00000000000E+00 -0.85565021153E+03  0.21563098313E+04  0.19792763335E+04 0.  0.
        3    1    3    3  502    0 -0.15714163744E+03  0.72719262279E+03  0.28314101763E+03  0.79603483022E+03  0.10100000352E+00 0.  1.
       -3    1    3    3    0  502  0.15714163744E+03 -0.72719262279E+03 -0.11387912292E+04  0.13602750011E+04  0.10100000352E+00 0. -1.
</event>
<event>
 5   0  0.9099125E-05  0.2340723E+04  0.7818609E-02  0.8462036E-01
        3   -1    0    0  501    0  0.00000000000E+00  0.00000000000E+00  0.11183138289E+04  0.11183138335E+04  0.10100000352E+00 0. -1.
       -3   -1    0    0    0  501  0.00000000000E+00  0.00000000000E+00 -0.12248312686E+04  0.12248312727E+04  0.10100000352E+00 0.  1.
    10030    2    1    2    0    0  0.00000000000E+00  0.00000000000E+00 -0.10651743963E+03  0.23431451062E+04  0.23407227567E+04 0.  0.
        4    1    3    3  502    0 -0.98872983064E+03  0.55749367489E+03 -0.33878760719E+03  0.11845524603E+04  0.12699999809E+01 0. -1.
       -4    1    3    3    0  502  0.98872983064E+03 -0.55749367489E+03  0.23227016756E+03  0.11585926459E+04  0.12699999809E+01 0.  1.
</event>
<event>
 5   0  0.1324930E-04  0.2011452E+04  0.7818609E-02  0.8601285E-01
       -1   -1    0    0    0  501  0.00000000000E+00  0.00000000000E+00  0.39153693842E+03  0.39153693845E+03  0.50400001928E-02 0. -1.
        1   -1    0    0  501    0  0.00000000000E+00  0.00000000000E+00 -0.25833708474E+04  0.25833708474E+04  0.50400001928E-02 0.  1.
    10030    2    1    2    0    0  0.00000000000E+00  0.00000000000E+00 -0.21918339090E+04  0.29749077858E+04  0.20114523235E+04 0.  0.
        5    1    3    3  502    0  0.13126113322E+03 -0.91399929593E+03 -0.16853603381E+04  0.19217402939E+04  0.46999998093E+01 0. -1.
       -5    1    3    3    0  502 -0.13126113322E+03  0.91399929593E+03 -0.50647357088E+03  0.10531674919E+04  0.46999998093E+01 0.  1.
</event>
<event>
 5   0  0.2463085E-04  0.1987104E+04  0.7818609E-02  0.8612674E-01
        2   -1    0    0  501    0  0.00000000000E+00  0.00000000000E+00  0.67614024709E+03  0.67614024709E+03  0.25500000920E-02 0. -1.
       -2   -1    0    0    0  501  0.00000000000E+00  0.00000000000E+00 -0.14599714154E+04  0.14599714154E+04  0.25500000920E-02 0.  1.
    10030    2    1    2    0    0  0.00000000000E+00  0.00000000000E+00 -0.78383116836E+03  0.21361116625E+04  0.19871038559E+04 0.  0.
        2    1    3    3  502    0  0.15984516217E+03 -0.74844057590E+03  0.28918177567E+03  0.81813193979E+03  0.25500000920E-02 0. -1.
       -2    1    3    3    0  502 -0.15984516217E+03  0.74844057590E+03 -0.10730129440E+04  0.13179797227E+04  0.25500000920E-02 0.  1.
</event>
<event>
 5   0  0.9099125E-05  0.1925218E+04  0.7818609E-02  0.8642404E-01
        3   -1    0    0  501    0  0.00000000000E+00  0.00000000000E+00  0.78406213557E+03  0.78406214207E+03  0.10100000352E+00 0. -1.
       -3   -1    0    0    0  501  0.00000000000E+00  0.00000000000E+00 -0.11818148766E+04  0.11818148809E+04  0.10100000352E+00 0.  1.
    10030    2    1    2    0    0  0.00000000000E+00  0.00000000000E+00 -0.39775274106E+03  0.19658770230E+04  0.19252182283E+04 0.  0.
        1    1    3    3  502    0  0.52333940561E+03  0.36055650983E+03  0.53939424502E+03  0.83356540345E+03  0.50400001928E-02 0. -1.
       -1    1    3    3    0  502 -0.52333940561E+03 -0.36055650983E+03 -0.93714698609E+03  0.11323116196E+04  0.50400001928E-02 0.  1.
</event>
<event>
 5   0  0.1207228E-04  0.1581895E+04  0.7818609E-02  0.8831748E-01
       -1   -1    0    0    0  501  0.00000000000E+00  0.00000000000E+00  0.58421802898E+03  0.58421802900E+03  0.50400001928E-02 0. -1.
        1   -1    0    0  501    0  0.00000000000E+00  0.00000000000E+00 -0.10708297450E+04  0.10708297451E+04  0.50400001928E-02 0.  1.
    10030    2    1    2    0    0  0.00000000000E+00  0.00000000000E+00 -0.48661171606E+03  0.16550477741E+04  0.15818951205E+04 0.  0.
        1    1    3    3  502    0  0.17131982608E+03  0.32536302325E+03  0.48935347243E+03  0.61210979465E+03  0.50400001928E-02 0. -1.
       -1    1    3    3    0  502 -0.17131982608E+03 -0.32536302325E+03 -0.97596518849E+03  0.10429379794E+04  0.50400001928E-02 0.  1.
</event>
<event>
 5   0  0.2463085E-04  0.1992696E+04  0.7818609E-02  0.8610043E-01
        2   -1    0    0  501    0  0.00000000000E+00  0.00000000000E+00  0.12322673631E+04  0.12322673631E+04  0.25500000920E-02 0.  1.
       -2   -1    0    0    0  501  0.00000000000E+00  0.00000000000E+00 -0.80559565799E+03  0.80559565799E+03  0.25500000920E-02 0. -1.
    10030    2    1    2    0    0  0.00000000000E+00  0.00000000000E+00  0.42667170511E+03  0.20378630211E+04  0.19926958997E+04 0.  0.
        2    1    3    3  502    0 -0.23313403055E+03  0.10637984505E+03  0.11979894082E+04  0.12250905149E+04  0.25500000920E-02 0.  1.
       -2    1    3    3    0  502  0.23313403055E+03 -0.10637984505E+03 -0.77131770309E+03  0.81277250614E+03  0.25500000920E-02 0. -1.
</event>
<event>
 5   0  0.1210633E-04  0.1966995E+04  0.7818609E-02  0.8622209E-01
       -1   -1    0    0    0  501  0.00000000000E+00  0.00000000000E+00  0.80138464922E+03  0.80138464923E+03  0.50400001928E-02 0.  1.
        1   -1    0    0  501    0  0.00000000000E+00  0.00000000000E+00 -0.12069947662E+04  0.12069947662E+04  0.50400001928E-02 0. -1.
    10030    2    1    2    0    0  0.00000000000E+00  0.00000000000E+00 -0.40561011698E+03  0.20083794154E+04  0.19669947406E+04 0.  0.
        2    1    3    3  502    0  0.58313325963E+03 -0.73253331700E+03  0.10455602936E+03  0.94211539754E+03  0.25500000920E-02 0.  1.
       -2    1    3    3    0  502 -0.58313325963E+03  0.73253331700E+03 -0.51016614634E+03  0.10662640179E+04  0.25500000920E-02 0. -1.
</event>
<event>
 5   0  0.1210633E-04  0.1971364E+04  0.7818609E-02  0.8620127E-01
       -1   -1    0    0    0  501  0.00000000000E+00  0.00000000000E+00  0.97920663519E+03  0.97920663520E+03  0.50400001928E-02 0. -1.
        1   -1    0    0  501    0  0.00000000000E+00  0.00000000000E+00 -0.99220012549E+03  0.99220012550E+03  0.50400001928E-02 0.  1.
    10030    2    1    2    0    0  0.00000000000E+00  0.00000000000E+00 -0.12993490296E+02  0.19714067607E+04  0.19713639404E+04 0.  0.
        2    1    3    3  502    0  0.23928549064E+03  0.83446618687E+03 -0.47338758124E+03  0.98878064562E+03  0.25500000920E-02 0.  1.
       -2    1    3    3    0  502 -0.23928549064E+03 -0.83446618687E+03  0.46039409094E+03  0.98262611509E+03  0.25500000920E-02 0. -1.
</event>
<event>
 5   0  0.1258546E-04  0.2077702E+04  0.7818609E-02  0.8571130E-01
        1   -1    0    0  501    0  0.00000000000E+00  0.00000000000E+00  0.15826383925E+04  0.15826383925E+04  0.50400001928E-02 0. -1.
       -1   -1    0    0    0  501  0.00000000000E+00  0.00000000000E+00 -0.68190670304E+03  0.68190670306E+03  0.50400001928E-02 0.  1.
    10030    2    1    2    0    0  0.00000000000E+00  0.00000000000E+00  0.90073168945E+03  0.22645450956E+04  0.20777023159E+04 0.  0.
        4    1    3    3  502    0  0.86970010600E+03 -0.94499435512E+02  0.10610188264E+04  0.13751621652E+04  0.12699999809E+01 0. -1.
       -4    1    3    3    0  502 -0.86970010600E+03  0.94499435512E+02 -0.16028713694E+03  0.88938293038E+03  0.12699999809E+01 0.  1.
</event>
<event>
 5   0  0.1258546E-04  0.1954044E+04  0.7818609E-02  0.8628413E-01
       -1   -1    0    0    0  501  0.00000000000E+00  0.00000000000E+00  0.62397085323E+03  0.62397085325E+03  0.50400001928E-02 0.  1.
        1   -1    0    0  501    0  0.00000000000E+00  0.00000000000E+00 -0.15298349458E+04  0.15298349458E+04  0.50400001928E-02 0. -1.
    10030    2    1    2    0    0  0.00000000000E+00  0.00000000000E+00 -0.90586409255E+03  0.21538057990E+04  0.19540444380E+04 0.  0.
        4    1    3    3  502    0  0.61567236738E+03 -0.50536310070E+03 -0.10765705242E+04  0.13391975336E+04  0.12699999809E+01 0. -1.
       -4    1    3    3    0  502 -0.61567236738E+03  0.50536310070E+03  0.17070643161E+03  0.81460826549E+03  0.12699999809E+01 0.  1.
</event>
<event>
 5   0  0.1324930E-04  0.1764309E+04  0.7818609E-02  0.8725513E-01
       -1   -1    0    0    0  501  0.00000000000E+00  0.00000000000E+00  0.33255492484E+03  0.33255492487E+03  0.50400001928E-02 0.  1.
        1   -1    0    0  501    0  0.00000000000E+00  0.00000000000E+00 -0.23400540439E+04  0.23400540439E+04  0.50400001928E-02 0. -1.
    10030    2    1    2    0    0  0.00000000000E+00  0.00000000000E+00 -0.20074991191E+04  0.26726089688E+04  0.17643089262E+04 0.  0.
        5    1    3    3  502    0 -0.73963441105E+03  0.47962514424E+03 -0.95408137276E+03  0.12989968040E+04  0.46999998093E+01 0. -1.
       -5    1    3    3    0  502  0.73963441105E+03 -0.47962514424E+03 -0.10534177463E+04  0.13736121648E+04  0.46999998093E+01 0.  1.
</event>
<event>
 5   0  0.1231056E-04  0.1965299E+04  0.7818609E-02  0.8623019E-01
        1   -1    0    0  501    0  0.00000000000E+00  0.00000000000E+00  0.13419449880E+04  0.13419449880E+04  0.50400001928E-02 0. -1.
       -1   -1    0    0    0  501  0.00000000000E+00  0.00000000000E+00 -0.71955234284E+03  0.71955234286E+03  0.50400001928E-02 0.  1.
    10030    2    1    2    0    0  0.00000000000E+00  0.00000000000E+00  0.62239264511E+03  0.20614973308E+04  0.19652986135E+04 0.  0.
        3    1    3    3  502    0  0.34746652540E+03  0.91631983999E+03  0.23537674644E+03  0.10078577570E+04  0.10100000352E+00 0. -1.
       -3    1    3    3    0  502 -0.34746652540E+03 -0.91631983999E+03  0.38701589867E+03  0.10536395738E+04  0.10100000352E+00 0.  1.
</event>
<event>
 5   0  0.2488886E-04  0.2042093E+04  0.7818609E-02  0.8587190E-01
       -2   -1    0    0    0  501  0.00000000000E+00  0.00000000000E+00  0.51721126879E+03  0.51721126879E+03  0.25500000920E-02 0.  1.
        2   -1    0    0  501    0  0.00000000000E+00  0.00000000000E+00 -0.20156863736E+04  0.20156863736E+04  0.25500000920E-02 0. -1.
    10030    2    1    2    0    0  0.00000000000E+00  0.00000000000E+00 -0.14984751048E+04  0.25328976424E+04  0.20420927567E+04 0.  0.
        3    1    3    3  502    0  0.49504362221E+03  0.53917030903E+01  0.35838236764E+03  0.61117525309E+03  0.10100000352E+00 0.  1.
       -3    1    3    3    0  502 -0.49504362221E+03 -0.53917030903E+01 -0.18568574725E+04  0.19217223893E+04  0.10100000352E+00 0. -1.
</event>
<event>
 5   0  0.1324930E-04  0.1881392E+04  0.7818609E-02  0.8664175E-01
        1   -1    0    0  501    0  0.00000000000E+00  0.00000000000E+00  0.94950896890E+03  0.94950896891E+03  0.50400001928E-02 0. -1.
       -1   -1    0    0    0  501  0.00000000000E+00  0.00000000000E+00 -0.93196499283E+03  0.93196499285E+03  0.50400001928E-02 0.  1.
    10030    2    1    2    0    0  0.00000000000E+00  0.00000000000E+00  0.17543976067E+02  0.18814739618E+04  0.18813921648E+04 0.  0.
        5    1    3    3  502    0  0.85834811361E+02 -0.18387278950E+03  0.92734891849E+03  0.94930233550E+03  0.46999998093E+01 0. -1.
       -5    1    3    3    0  502 -0.85834811361E+02  0.18387278950E+03 -0.90980494242E+03  0.93217162626E+03  0.46999998093E+01 0.  1.
</event>
<event>
 5   0  0.2421737E-04  0.1990185E+04  0.7818609E-02  0.8611223E-01
       -2   -1    0    0    0  501  0.00000000000E+00  0.00000000000E+00  0.76861726472E+03  0.76861726472E+03  0.25500000920E-02 0. -1.
        2   -1    0    0  501    0  0.00000000000E+00  0.00000000000E+00 -0.12882993617E+04  0.12882993617E+04  0.25500000920E-02 0.  1.
    10030    2    1    2    0    0  0.00000000000E+00  0.00000000000E+00 -0.51968209698E+03  0.20569166264E+04  0.19901850482E+04 0.  0.
        1    1    3    3  502    0  0.65156876765E+03  0.48061757614E+03 -0.85774886138E+03  0.11795203359E+04  0.50400001928E-02 0.  1.
       -1    1    3    3    0  502 -0.65156876765E+03 -0.48061757614E+03  0.33806676440E+03  0.87739629056E+03  0.50400001928E-02 0. -1.
</event>
<event>
 5   0  0.1231056E-04  0.1886426E+04  0.7818609E-02  0.8661642E-01
       -1   -1    0    0    0  501  0.00000000000E+00  0.00000000000E+00  0.72882401530E+03  0.72882401531E+03  0.50400001928E-02 0.  1.
        1   -1    0    0  501    0  0.00000000000E+00  0.00000000000E+00 -0.12206667395E+04  0.12206667395E+04  0.50400001928E-02 0. -1.
    10030    2    1    2    0    0  0.00000000000E+00  0.00000000000E+00 -0.49184272416E+03  0.19494907548E+04  0.18864264994E+04 0.  0.
        3    1    3    3  502    0  0.12402803072E+03  0.40258256455E+03 -0.11180507468E+04  0.11947774506E+04  0.10100000352E+00 0. -1.
       -3    1    3    3    0  502 -0.12402803072E+03 -0.40258256455E+03  0.62620802268E+03  0.75471330421E+03  0.10100000352E+00 0.  1.
</event>
<event>
 5   0  0.1210633E-04  0.1986297E+04  0.7818609E-02  0.8613054E-01
        1   -1    0    0  501    0  0.00000000000E+00  0.00000000000E+00  0.88623919108E+03  0.88623919110E+03  0.50400001928E-02 0.  1.
       -1   -1    0    0    0  501  0.00000000000E+00  0.00000000000E+00 -0.11129546370E+04  0.11129546370E+04  0.50400001928E-02 0. -1.
    10030    2    1    2    0    0  0.00000000000E+00  0.00000000000E+00 -0.22671544596E+03  0.19991938281E+04  0.19862970747E+04 0.  0.
        2    1    3    3  502    0  0.78719485193E+03  0.31028117983E+03  0.41001263463E+03  0.94024491811E+03  0.25500000920E-02 0.  1.
       -2    1    3    3    0  502 -0.78719485193E+03 -0.31028117983E+03 -0.63672808058E+03  0.10589489100E+04  0.25500000920E-02 0. -1.
</event>
<event>
 5   0  0.2421737E-04  0.1969666E+04  0.7818609E-02  0.8620936E-01
       -2   -1    0    0    0  501  0.00000000000E+00  0.00000000000E+00  0.10963483495E+04  0.10963483495E+04  0.25500000920E-02 0. -1.
        2   -1    0    0  501    0  0.00000000000E+00  0.00000000000E+00 -0.88466052212E+03  0.88466052213E+03  0.25500000920E-02 0.  1.
    10030    2    1    2    0    0  0.00000000000E+00  0.00000000000E+00  0.21168782741E+03  0.19810088717E+04  0.19696660664E+04 0.  0.
        1    1    3    3  502    0 -0.39724660391E+03 -0.48226706809E+01 -0.80049371484E+03  0.89365446901E+03  0.50400001928E-02 0.  1.
       -1    1    3    3    0  502  0.39724660391E+03  0.48226706809E+01  0.10121815422E+04  0.10873544026E+04  0.50400001928E-02 0. -1.
</event>
<event>
 5   0  0.2488886E-04  0.1979190E+04  0.7818609E-02  0.8616412E-01
       -2   -1    0    0    0  501  0.00000000000E+00  0.00000000000E+00  0.93437475342E+03  0.93437475342E+03  0.25500000920E-02 0.  1.
        2   -1    0    0  501    0  0.00000000000E+00  0.00000000000E+00 -0.10480784483E+04  0.10480784483E+04  0.25500000920E-02 0. -1.
    10030    2    1    2    0    0  0.00000000000E+00  0.00000000000E+00 -0.11370369485E+03  0.19824532017E+04  0.19791897753E+04 0.  0.
        3    1    3    3  502    0  0.23819208088E+03  0.49848600995E+03  0.76552216486E+03  0.94405930143E+03  0.10100000352E+00 0.  1.
       -3    1    3    3    0  502 -0.23819208088E+03 -0.49848600995E+03 -0.87922585972E+03  0.10383939003E+04  0.10100000352E+00 0. -1.
</event>
<event>
 5   0  0.2421737E-04  0.1999570E+04  0.7818609E-02  0.8606822E-01
        2   -1    0    0  501    0  0.00000000000E+00  0.00000000000E+00  0.16116523211E+04  0.16116523211E+04  0.25500000920E-02 0. -1.
       -2   -1    0    0    0  501  0.00000000000E+00  0.00000000000E+00 -0.62021429695E+03  0.62021429695E+03  0.25500000920E-02 0.  1.
    10030    2    1    2    0    0  0.00000000000E+00  0.00000000000E+00  0.99143802416E+03  0.22318666181E+04  0.19995697650E+04 0.  0.
        1    1    3    3  502    0  0.31423283575E+03  0.35190508791E+03  0.14795930176E+04  0.15529890417E+04  0.50400001928E-02 0. -1.
       -1    1    3    3    0  502 -0.31423283575E+03 -0.35190508791E+03 -0.48815499346E+03  0.67887757632E+03  0.50400001928E-02 0.  1.
</event>
<event>
 5   0  0.2488886E-04  0.2098430E+04  0.7818609E-02  0.8561935E-01
        2   -1    0    0  501    0  0.00000000000E+00  0.00000000000E+00  0.18176389570E+04  0.18176389570E+04  0.25500000920E-02 0.  1.
       -2   -1    0    0    0  501  0.00000000000E+00  0.00000000000E+00 -0.60564965727E+03  0.60564965727E+03  0.25500000920E-02 0. -1.
    10030    2    1    2    0    0  0.00000000000E+00  0.00000000000E+00  0.12119892997E+04  0.24232886143E+04  0.20984302813E+04 0.  0.
        3    1    3    3  502    0  0.73255240006E+03  0.75102604369E+03  0.59053295340E+03  0.12039112577E+04  0.10100000352E+00 0. -1.
       -3    1    3    3    0  502 -0.73255240006E+03 -0.75102604369E+03  0.62145634632E+03  0.12193773566E+04  0.10100000352E+00 0.  1.
</event>
<event>
 5   0  0.2463085E-04  0.1993660E+04  0.7818609E-02  0.8609591E-01
        2   -1    0    0  501    0  0.00000000000E+00  0.00000000000E+00  0.10758916842E+04  0.10758916842E+04  0.25500000920E-02 0. -1.
       -2   -1    0    0    0  501  0.00000000000E+00  0.00000000000E+00 -0.92357803561E+03  0.92357803561E+03  0.25500000920E-02 0.  1.
    10030    2    1    2    0    0  0.00000000000E+00  0.00000000000E+00  0.15231364854E+03  0.19994697198E+04  0.19936598789E+04 0.  0.
        2    1    3    3  502    0 -0.78647779967E+03  0.42699135925E+03  0.51652748686E+03  0.10332809855E+04  0.25500000920E-02 0.  1.
       -2    1    3    3    0  502  0.78647779967E+03 -0.42699135925E+03 -0.36421383832E+03  0.96618873429E+03  0.25500000920E-02 0. -1.
</event>
<event>
 5   0  0.2421737E-04  0.1602080E+04  0.7818609E-02  0.8819271E-01
        2   -1    0    0  501    0  0.00000000000E+00  0.00000000000E+00  0.16246193593E+04  0.16246193593E+04  0.25500000920E-02 0.  1.
       -2   -1    0    0    0  501  0.00000000000E+00  0.00000000000E+00 -0.39496331330E+03  0.39496331331E+03  0.25500000920E-02 0. -1.
    10030    2    1    2    0    0  0.00000000000E+00  0.00000000000E+00  0.12296560460E+04  0.20195826726E+04  0.16020799543E+04 0.  0.
        1    1    3    3  502    0  0.49376178711E+03  0.39931480587E+03  0.12303471186E+04  0.13845602367E+04  0.50400001928E-02 0.  1.
       -1    1    3    3    0  502 -0.49376178711E+03 -0.39931480587E+03 -0.69107259667E+00  0.63502243598E+03  0.50400001928E-02 0. -1.
</event>
<event>
 5   0  0.1324930E-04  0.1883370E+04  0.7818609E-02  0.8663179E-01
       -1   -1    0    0    0  501  0.00000000000E+00  0.00000000000E+00  0.13549780285E+04  0.13549780285E+04  0.50400001928E-02 0. -1.
        1   -1    0    0  501    0  0.00000000000E+00  0.00000000000E+00 -0.65445370126E+03  0.65445370128E+03  0.50400001928E-02 0.  1.
    10030    2    1    2    0    0  0.00000000000E+00  0.00000000000E+00  0.70052432724E+03  0.20094317298E+04  0.18833697310E+04 0.  0.
        5    1    3    3  502    0 -0.67067675377E+03  0.22831160133E+03 -0.31159390159E+03  0.77398084269E+03  0.46999998093E+01 0.  1.
       -5    1    3    3    0  502  0.67067675377E+03 -0.22831160133E+03  0.10121182288E+04  0.12354508871E+04  0.46999998093E+01 0. -1.
</event>
<event>
 5   0  0.1324930E-04  0.1974594E+04  0.7818609E-02  0.8618592E-01
       -1   -1    0    0    0  501  0.00000000000E+00  0.00000000000E+00  0.93228342228E+03  0.93228342229E+03  0.50400001928E-02 0. -1.
        1   -1    0    0  501    0  0.00000000000E+00  0.00000000000E+00 -0.10455565156E+04  0.10455565156E+04  0.50400001928E-02 0.  1.
    10030    2    1    2    0    0  0.00000000000E+00  0.00000000000E+00 -0.11327309328E+03  0.19778399379E+04  0.19745936357E+04 0.  0.
        5    1    3    3  502    0  0.22276577724E+03 -0.23600539120E+03 -0.99059094137E+03  0.10424085760E+04  0.46999998093E+01 0.  1.
       -5    1    3    3    0  502 -0.22276577724E+03  0.23600539120E+03  0.87731784809E+03  0.93543136187E+03  0.46999998093E+01 0. -1.
</event>
<event>
 5   0  0.2463085E-04  0.2009249E+04  0.7818609E-02  0.8602309E-01
        2   -1    0    0  501    0  0.00000000000E+00  0.00000000000E+00  0.11263576371E+04  0.11263576371E+04  0.25500000920E-02 0.  1.
       -2   -1    0    0    0  501  0.00000000000E+00  0.00000000000E+00 -0.89604783277E+03  0.89604783277E+03  0.25500000920E-02 0. -1.
    10030    2    1    2    0    0  0.00000000000E+00  0.00000000000E+00  0.23030980430E+03  0.20224054698E+04  0.20092489339E+04 0.  0.
        2    1    3    3  502    0  0.19205343850E+02  0.98408992770E+03 -0.87330154042E+02  0.98814390999E+03  0.25500000920E-02 0. -1.
       -2    1    3    3    0  502 -0.19205343850E+02 -0.98408992770E+03  0.31763995834E+03  0.10342615598E+04  0.25500000920E-02 0.  1.
</event>
<event>
 5   0  0.1231056E-04  0.2028771E+04  0.7818609E-02  0.8593286E-01
       -1   -1    0    0    0  501  0.00000000000E+00  0.00000000000E+00  0.20064107353E+04  0.20064107353E+04  0.50400001928E-02 0. -1.
        1   -1    0    0  501    0  0.00000000000E+00  0.00000000000E+00 -0.51284497036E+03  0.51284497039E+03  0.50400001928E-02 0.  1.
    10030    2    1    2    0    0  0.00000000000E+00  0.00000000000E+00  0.14935657650E+04  0.25192557057E+04  0.20287707156E+04 0.  0.
        3    1    3    3  502    0  0.10691814877E+02 -0.28782217501E+02 -0.51226780764E+03  0.51318714704E+03  0.10100000352E+00 0.  1.
       -3    1    3    3    0  502 -0.10691814877E+02  0.28782217501E+02  0.20058335726E+04  0.20060685587E+04  0.10100000352E+00 0. -1.
</event>
<event>
 5   0  0.1324930E-04  0.1993255E+04  0.7818609E-02  0.8609780E-01
       -1   -1    0    0    0  501  0.00000000000E+00  0.00000000000E+00  0.90345945470E+03  0.90345945471E+03  0.50400001928E-02 0. -1.
        1   -1    0    0  501    0  0.00000000000E+00  0.00000000000E+00 -0.10994037940E+04  0.10994037940E+04  0.50400001928E-02 0.  1.
    10030    2    1    2    0    0  0.00000000000E+00  0.00000000000E+00 -0.19594433930E+03  0.20028632487E+04  0.19932553798E+04 0.  0.
        5    1    3    3  502    0 -0.61998120332E+03  0.59968750295E+03  0.40367656735E+03  0.95235426953E+03  0.46999998093E+01 0. -1.
       -5    1    3    3    0  502  0.61998120332E+03 -0.59968750295E+03 -0.59962090665E+03  0.10505089792E+04  0.46999998093E+01 0.  1.
</event>
<event>
 5   0  0.2596061E-04  0.1998698E+04  0.7818609E-02  0.8607230E-01
       -2   -1    0    0    0  501  0.00000000000E+00  0.00000000000E+00  0.99496251845E+03  0.99496251845E+03  0.25500000920E-02 0.  1.
        2   -1    0    0  501    0  0.00000000000E+00  0.00000000000E+00 -0.10037545975E+04  0.10037545975E+04  0.25500000920E-02 0. -1.
    10030    2    1    2    0    0  0.00000000000E+00  0.00000000000E+00 -0.87920790733E+01  0.19987171160E+04  0.19986977783E+04 0.  0.
        5    1    3    3  502    0 -0.83237517665E+03 -0.54837602969E+03  0.67098761156E+02  0.99904406229E+03  0.46999998093E+01 0.  1.
       -5    1    3    3    0  502  0.83237517665E+03  0.54837602969E+03 -0.75890840229E+02  0.99967305369E+03  0.46999998093E+01 0. -1.
</event>
<event>
 5   0  0.2488886E-04  0.2123223E+04  0.7818609E-02  0.8551082E-01
        2   -1    0    0  501    0  0.00000000000E+00  0.00000000000E+00  0.83046113122E+03  0.83046113122E+03  0.25500000920E-02 0.  1.
       -2   -1    0    0    0  501  0.00000000000E+00  0.00000000000E+00 -0.13571001982E+04  0.13571001982E+04  0.25500000920E-02 0. -1.
    10030    2    1    2    0    0  0.00000000000E+00  0.00000000000E+00 -0.52663906701E+03  0.21875613295E+04  0.21232229895E+04 0.  0.
        3    1    3    3  502    0 -0.51278528530E+03  0.45042916842E+03 -0.11010913037E+04  0.12954679672E+04  0.10100000352E+00 0. -1.
       -3    1    3    3    0  502  0.51278528530E+03 -0.45042916842E+03  0.57445223671E+03  0.89209336230E+03  0.10100000352E+00 0.  1.
</event>
<event>
 5   0  0.1324930E-04  0.1974604E+04  0.7818609E-02  0.8618587E-01
       -1   -1    0    0    0  501  0.00000000000E+00  0.00000000000E+00  0.74525376513E+03  0.74525376515E+03  0.50400001928E-02 0. -1.
        1   -1    0    0  501    0  0.00000000000E+00  0.00000000000E+00 -0.13079644583E+04  0.13079644583E+04  0.50400001928E-02 0.  1.
    10030    2    1    2    0    0  0.00000000000E+00  0.00000000000E+00 -0.56271069316E+03  0.20532182234E+04  0.19746042006E+04 0.  0.
        5    1    3    3  502    0  0.31887081363E+02 -0.16487196108E+03 -0.12929939904E+04  0.13038616103E+04  0.46999998093E+01 0.  1.
       -5    1    3    3    0  502 -0.31887081363E+02  0.16487196108E+03  0.73028329723E+03  0.74935661319E+03  0.46999998093E+01 0. -1.
</event>
<event>
 5   0  0.2463085E-04  0.2058808E+04  0.7818609E-02  0.8579609E-01
       -2   -1    0    0    0  501  0.00000000000E+00  0.00000000000E+00  0.49003724550E+03  0.49003724551E+03  0.25500000920E-02 0.  1.
        2   -1    0    0  501    0  0.00000000000E+00  0.00000000000E+00 -0.21624323641E+04  0.21624323641E+04  0.25500000920E-02 0. -1.
    10030    2    1    2    0    0  0.00000000000E+00  0.00000000000E+00 -0.16723951186E+04  0.26524696096E+04  0.20588078097E+04 0.  0.
        2    1    3    3  502    0  0.19046994002E+03  0.10096699172E+04 -0.75512079091E+03  0.12751155041E+04  0.25500000920E-02 0.  1.
       -2    1    3    3    0  502 -0.19046994002E+03 -0.10096699172E+04 -0.91727432772E+03  0.13773541056E+04  0.25500000920E-02 0. -1.
</event>
<event>
 5   0  0.1207228E-04  0.1891871E+04  0.7818609E-02  0.8658913E-01
       -1   -1    0    0    0  501  0.00000000000E+00  0.00000000000E+00  0.12146070334E+04  0.12146070334E+04  0.50400001928E-02 0.  1.
        1   -1    0    0  501    0  0.00000000000E+00  0.00000000000E+00 -0.73669401044E+03  0.73669401046E+03  0.50400001928E-02 0. -1.
    10030    2    1    2    0    0  0.00000000000E+00  0.00000000000E+00  0.47791302293E+03  0.19513010438E+04  0.18918707425E+04 0.  0.
        1    1    3    3  502    0  0.28160263340E+03 -0.55908266890E+03 -0.49248967249E+03  0.79650458337E+03  0.50400001928E-02 0. -1.
       -1    1    3    3    0  502 -0.28160263340E+03  0.55908266890E+03  0.97040269542E+03  0.11547964605E+04  0.50400001928E-02 0.  1.
</event>
<event>
 5   0  0.2421737E-04  0.2028218E+04  0.7818609E-02  0.8593540E-01
        2   -1    0    0  501    0  0.00000000000E+00  0.00000000000E+00  0.25172533494E+04  0.25172533494E+04  0.25500000920E-02 0.  1.
       -2   -1    0    0    0  501  0.00000000000E+00  0.00000000000E+00 -0.40854716128E+03  0.40854716129E+03  0.25500000920E-02 0. -1.
    10030    2    1    2    0    0  0.00000000000E+00  0.00000000000E+00  0.21087061881E+04  0.29258005107E+04  0.20282176512E+04 0.  0.
        1    1    3    3  502    0  0.53673441085E+03 -0.36608576946E+03  0.21776097079E+04  0.22724626858E+04  0.50400001928E-02 0.  1.
       -1    1    3    3    0  502 -0.53673441085E+03  0.36608576946E+03 -0.68903519766E+02  0.65333782491E+03  0.50400001928E-02 0. -1.
</event>
<event>
 5   0  0.1210633E-04  0.1931380E+04  0.7818609E-02  0.8639392E-01
        1   -1    0    0  501    0  0.00000000000E+00  0.00000000000E+00  0.90235030372E+03  0.90235030373E+03  0.50400001928E-02 0. -1.
       -1   -1    0    0    0  501  0.00000000000E+00  0.00000000000E+00 -0.10334754396E+04  0.10334754396E+04  0.50400001928E-02 0.  1.
    10030    2    1    2    0    0  0.00000000000E+00  0.00000000000E+00 -0.13112513586E+03  0.19358257433E+04  0.19313796901E+04 0.  0.
        2    1    3    3  502    0  0.85532336757E+03 -0.13148025109E+03 -0.49514195620E+03  0.99701087072E+03  0.25500000920E-02 0.  1.
       -2    1    3    3    0  502 -0.85532336757E+03  0.13148025109E+03  0.36401682034E+03  0.93881487261E+03  0.25500000920E-02 0. -1.
</event>
<event>
 5   0  0.1231056E-04  0.2000885E+04  0.7818609E-02  0.8606207E-01
        1   -1    0    0  501    0  0.00000000000E+00  0.00000000000E+00  0.14816893562E+04  0.14816893562E+04  0.50400001928E-02 0.  1.
       -1   -1    0    0    0  501  0.00000000000E+00  0.00000000000E+00 -0.67550266422E+03  0.67550266424E+03  0.50400001928E-02 0. -1.
    10030    2    1    2    0    0  0.00000000000E+00  0.00000000000E+00  0.80618669196E+03  0.21571920204E+04  0.20008849119E+04 0.  0.
        3    1    3    3  502    0  0.55618804937E+03 -0.82608760448E+03  0.50604790068E+03  0.11170722289E+04  0.10100000352E+00 0.  1.
       -3    1    3    3    0  502 -0.55618804937E+03  0.82608760448E+03  0.30013879129E+03  0.10401197916E+04  0.10100000352E+00 0. -1.
</event>
<event>
 5   0  0.1324930E-04  0.2020085E+04  0.7818609E-02  0.8597287E-01
       -1   -1    0    0    0  501  0.00000000000E+00  0.00000000000E+00  0.14616991236E+04  0.14616991236E+04  0.50400001928E-02 0. -1.
        1   -1    0    0  501    0  0.00000000000E+00  0.00000000000E+00 -0.69794523614E+03  0.69794523616E+03  0.50400001928E-02 0.  1.
    10030    2    1    2    0    0  0.00000000000E+00  0.00000000000E+00  0.76375388743E+03  0.21596443597E+04  0.20200850873E+04 0.  0.
        5    1    3    3  502    0 -0.77507093277E+03  0.32815817075E+03 -0.21503410604E+03  0.86872578678E+03  0.46999998093E+01 0.  1.
       -5    1    3    3    0  502  0.77507093277E+03 -0.32815817075E+03  0.97878799347E+03  0.12909185730E+04  0.46999998093E+01 0. -1.
</event>
<event>
 5   0  0.1210633E-04  0.1952845E+04  0.7818609E-02  0.8628990E-01
        1   -1    0    0  501    0  0.00000000000E+00  0.00000000000E+00  0.16251501900E+04  0.16251501900E+04  0.50400001928E-02 0. -1.
       -1   -1    0    0    0  501  0.00000000000E+00  0.00000000000E+00 -0.58665377824E+03  0.58665377826E+03  0.50400001928E-02 0.  1.
    10030    2    1    2    0    0  0.00000000000E+00  0.00000000000E+00  0.10384964117E+04  0.22118039682E+04  0.19528445910E+04 0.  0.
        2    1    3    3  502    0  0.50859797619E+03 -0.73200015963E+03  0.97073688191E+03  0.13178870320E+04  0.25500000920E-02 0. -1.
       -2    1    3    3    0  502 -0.50859797619E+03  0.73200015963E+03  0.67759529796E+02  0.89391693627E+03  0.25500000920E-02 0.  1.
</event>
<event>
 5   0  0.2540506E-04  0.1943622E+04  0.7818609E-02  0.8633442E-01
       -2   -1    0    0    0  501  0.00000000000E+00  0.00000000000E+00  0.10960926803E+04  0.10960926803E+04  0.25500000920E-02 0. -1.
        2   -1    0    0  501    0  0.00000000000E+00  0.00000000000E+00 -0.86162128717E+03  0.86162128717E+03  0.25500000920E-02 0.  1.
    10030    2    1    2    0    0  0.00000000000E+00  0.00000000000E+00  0.23447139315E+03  0.19577139675E+04  0.19436221712E+04 0.  0.
        4    1    3    3  502    0 -0.29707097818E+03 -0.75885054089E+03 -0.41604588580E+03  0.91498694060E+03  0.12699999809E+01 0.  1.
       -4    1    3    3    0  502  0.29707097818E+03  0.75885054089E+03  0.65051727895E+03  0.10427270269E+04  0.12699999809E+01 0. -1.
</event>
<event>
 5   0  0.1258546E-04  0.1983691E+04  0.7818609E-02  0.8614284E-01
       -1   -1    0    0    0  501  0.00000000000E+00  0.00000000000E+00  0.22832488404E+04  0.22832488404E+04  0.50400001928E-02 0.  1.
        1   -1    0    0  501    0  0.00000000000E+00  0.00000000000E+00 -0.43085882380E+03  0.43085882383E+03  0.50400001928E-02 0. -1.
    10030    2    1    2    0    0  0.00000000000E+00  0.00000000000E+00  0.18523900166E+04  0.27141076642E+04  0.19836914174E+04 0.  0.
        4    1    3    3  502    0 -0.67637886368E+02 -0.89777972927E+03  0.35682706591E+03  0.96845779146E+03  0.12699999809E+01 0. -1.
       -4    1    3    3    0  502  0.67637886368E+02  0.89777972927E+03  0.14955629507E+04  0.17456498728E+04  0.12699999809E+01 0.  1.
</event>
<event>
 5   0  0.1324930E-04  0.1946542E+04  0.7818609E-02  0.8632030E-01
       -1   -1    0    0    0  501  0.00000000000E+00  0.00000000000E+00  0.97606705093E+03  0.97606705094E+03  0.50400001928E-02 0. -1.
        1   -1    0    0  501    0  0.00000000000E+00  0.00000000000E+00 -0.97048342548E+03  0.97048342549E+03  0.50400001928E-02 0.  1.
    10030    2    1    2    0    0  0.00000000000E+00  0.00000000000E+00  0.55836254507E+01  0.19465504764E+04  0.19465424682E+04 0.  0.
        5    1    3    3  502    0 -0.72021142019E+03  0.61367137159E+03  0.23069133092E+03  0.97392896160E+03  0.46999998093E+01 0. -1.
       -5    1    3    3    0  502  0.72021142019E+03 -0.61367137159E+03 -0.22510770547E+03  0.97262151484E+03  0.46999998093E+01 0.  1.
</event>
<event>
 5   0  0.9099125E-05  0.1715677E+04  0.7818609E-02  0.8752473E-01
       -4   -1    0    0    0  501  0.00000000000E+00  0.00000000000E+00  0.13948270821E+04  0.13948276602E+04  0.12699999809E+01 0. -1.
        4   -1    0    0  501    0  0.00000000000E+00  0.00000000000E+00 -0.52758133616E+03  0.52758286474E+03  0.12699999809E+01 0.  1.
    10030    2    1    2    0    0  0.00000000000E+00  0.00000000000E+00  0.86724574590E+03  0.19224105250E+04  0.17156768468E+04 0.  0.
        2    1    3    3  502    0  0.51979037053E+03  0.58389007700E+03  0.82942498309E+03  0.11397611390E+04  0.25500000920E-02 0. -1.
       -2    1    3    3    0  502 -0.51979037053E+03 -0.58389007700E+03  0.37820762806E+02  0.78264938601E+03  0.25500000920E-02 0.  1.
</event>
<event>
 5   0  0.2421737E-04  0.1971165E+04  0.7818609E-02  0.8620222E-01
       -2   -1    0    0    0  501  0.00000000000E+00  0.00000000000E+00  0.52772822888E+03  0.52772822889E+03  0.25500000920E-02 0.  1.
        2   -1    0    0  501    0  0.00000000000E+00  0.00000000000E+00 -0.18406689406E+04  0.18406689406E+04  0.25500000920E-02 0. -1.
    10030    2    1    2    0    0  0.00000000000E+00  0.00000000000E+00 -0.13129407117E+04  0.23683971695E+04  0.19711650971E+04 0.  0.
        1    1    3    3  502    0 -0.27022901590E+03  0.24267600876E+03  0.44438665808E+03  0.57392932332E+03  0.50400001928E-02 0.  1.
       -1    1    3    3    0  502  0.27022901590E+03 -0.24267600876E+03 -0.17573273698E+04  0.17944678462E+04  0.50400001928E-02 0. -1.
</event>
<event>
 5   0  0.2488886E-04  0.1769181E+04  0.7818609E-02  0.8722863E-01
        2   -1    0    0  501    0  0.00000000000E+00  0.00000000000E+00  0.11882030757E+04  0.11882030757E+04  0.25500000920E-02 0. -1.
       -2   -1    0    0    0  501  0.00000000000E+00  0.00000000000E+00 -0.65855774775E+03  0.65855774776E+03  0.25500000920E-02 0.  1.
    10030    2    1    2    0    0  0.00000000000E+00  0.00000000000E+00  0.52964532797E+03  0.18467608235E+04  0.17691809873E+04 0.  0.
        3    1    3    3  502    0  0.19192196422E+03 -0.84681409955E+03  0.88377396262E+02  0.87277645128E+03  0.10100000352E+00 0. -1.
       -3    1    3    3    0  502 -0.19192196422E+03  0.84681409955E+03  0.44126793171E+03  0.97398437220E+03  0.10100000352E+00 0.  1.
</event>
<event>
 5   0  0.2488886E-04  0.1990940E+04  0.7818609E-02  0.8610868E-01
        2   -1    0    0  501    0  0.00000000000E+00  0.00000000000E+00  0.15313742350E+04  0.15313742350E+04  0.25500000920E-02 0.  1.
       -2   -1    0    0    0  501  0.00000000000E+00  0.00000000000E+00 -0.64710543574E+03  0.64710543574E+03  0.25500000920E-02 0. -1.
    10030    2    1    2    0    0  0.00000000000E+00  0.00000000000E+00  0.88426879928E+03  0.21784796708E+04  0.19909400711E+04 0.  0.
        3    1    3    3  502    0 -0.19153983322E+03 -0.46522952806E+03  0.13820196207E+04  0.14707495584E+04  0.10100000352E+00 0.  1.
       -3    1    3    3    0  502  0.19153983322E+03  0.46522952806E+03 -0.49775082140E+03  0.70773011233E+03  0.10100000352E+00 0. -1.
</event>
<event>
 5   0  0.1258546E-04  0.1998891E+04  0.7818609E-02  0.8607139E-01
        1   -1    0    0  501    0  0.00000000000E+00  0.00000000000E+00  0.16259307853E+04  0.16259307853E+04  0.50400001928E-02 0.  1.
       -1   -1    0    0    0  501  0.00000000000E+00  0.00000000000E+00 -0.61435031014E+03  0.61435031016E+03  0.50400001928E-02 0. -1.
    10030    2    1    2    0    0  0.00000000000E+00  0.00000000000E+00  0.10115804752E+04  0.22402810955E+04  0.19988907747E+04 0.  0.
        4    1    3    3  502    0  0.59156036353E+03 -0.57295121252E+03  0.11404550991E+04  0.14067182381E+04  0.12699999809E+01 0.  1.
       -4    1    3    3    0  502 -0.59156036353E+03  0.57295121252E+03 -0.12887462385E+03  0.83356285738E+03  0.12699999809E+01 0. -1.
</event>
<event>
 5   0  0.2421737E-04  0.1883174E+04  0.7818609E-02  0.8663277E-01
        2   -1    0    0  501    0  0.00000000000E+00  0.00000000000E+00  0.26510709584E+04  0.26510709584E+04  0.25500000920E-02 0. -1.
       -2   -1    0    0    0  501  0.00000000000E+00  0.00000000000E+00 -0.33442570163E+03  0.33442570164E+03  0.25500000920E-02 0.  1.
    10030    2    1    2    0    0  0.00000000000E+00  0.00000000000E+00  0.23166452568E+04  0.29854966601E+04  0.18831741984E+04 0.  0.
        1    1    3    3  502    0 -0.84968171596E+03  0.25629340027E+03  0.16569936255E+04  0.18797002954E+04  0.50400001928E-02 0. -1.
       -1    1    3    3    0  502  0.84968171596E+03 -0.25629340027E+03  0.65965163128E+03  0.11057963647E+04  0.50400001928E-02 0.  1.
</event>
<event>
 5   0  0.1210633E-04  0.2004302E+04  0.7818609E-02  0.8604612E-01
        1   -1    0    0  501    0  0.00000000000E+00  0.00000000000E+00  0.13934537029E+04  0.13934537029E+04  0.50400001928E-02 0.  1.
       -1   -1    0    0    0  501  0.00000000000E+00  0.00000000000E+00 -0.72073185748E+03  0.72073185750E+03  0.50400001928E-02 0. -1.
    10030    2    1    2    0    0  0.00000000000E+00  0.00000000000E+00  0.67272184543E+03  0.21141855604E+04  0.20043018492E+04 0.  0.
        2    1    3    3  502    0  0.33764792121E+03  0.71831469380E+03 -0.30900201247E+03  0.85174195725E+03  0.25500000920E-02 0. -1.
       -2    1    3    3    0  502 -0.33764792121E+03 -0.71831469380E+03  0.98172385790E+03  0.12624436032E+04  0.25500000920E-02 0.  1.
</event>
<event>
 5   0  0.1207228E-04  0.1989966E+04  0.7818609E-02  0.8611326E-01
        1   -1    0    0  501    0  0.00000000000E+00  0.00000000000E+00  0.65472470795E+03  0.65472470797E+03  0.50400001928E-02 0.  1.
       -1   -1    0    0    0  501  0.00000000000E+00  0.00000000000E+00 -0.15120730527E+04  0.15120730527E+04  0.50400001928E-02 0. -1.
    10030    2    1    2    0    0  0.00000000000E+00  0.00000000000E+00 -0.85734834471E+03  0.21667977606E+04  0.19899664197E+04 0.  0.
        1    1    3    3  502    0 -0.64044683177E+03  0.45420154985E+03 -0.10941461779E+04  0.13467097129E+04  0.50400001928E-02 0. -1.
       -1    1    3    3    0  502  0.64044683177E+03 -0.45420154985E+03  0.23679783319E+03  0.82008804773E+03  0.50400001928E-02 0.  1.
</event>
<event>
 5   0  0.1324930E-04  0.2010383E+04  0.7818609E-02  0.8601782E-01
       -1   -1    0    0    0  501  0.00000000000E+00  0.00000000000E+00  0.72002579446E+03  0.72002579448E+03  0.50400001928E-02 0. -1.
        1   -1    0    0  501    0  0.00000000000E+00  0.00000000000E+00 -0.14032967223E+04  0.14032967223E+04  0.50400001928E-02 0.  1.
    10030    2    1    2    0    0  0.00000000000E+00  0.00000000000E+00 -0.68327092785E+03  0.21233225168E+04  0.20103828863E+04 0.  0.
        5    1    3    3  502    0 -0.67090051038E+03  0.73941388759E+03 -0.46456732274E+03  0.11012199051E+04  0.46999998093E+01 0. -1.
       -5    1    3    3    0  502  0.67090051038E+03 -0.73941388759E+03 -0.21870360511E+03  0.10221026117E+04  0.46999998093E+01 0.  1.
</event>
<event>
 5   0  0.2463085E-04  0.1993662E+04  0.7818609E-02  0.8609590E-01
       -2   -1    0    0    0  501  0.00000000000E+00  0.00000000000E+00  0.19364893582E+04  0.19364893582E+04  0.25500000920E-02 0. -1.
        2   -1    0    0  501    0  0.00000000000E+00  0.00000000000E+00 -0.51313055151E+03  0.51313055152E+03  0.25500000920E-02 0.  1.
    10030    2    1    2    0    0  0.00000000000E+00  0.00000000000E+00  0.14233588067E+04  0.24496199097E+04  0.19936618092E+04 0.  0.
        2    1    3    3  502    0 -0.42265760294E+03 -0.38728786852E+03  0.17136875762E+04  0.18070297317E+04  0.25500000920E-02 0. -1.
       -2    1    3    3    0  502  0.42265760294E+03  0.38728786852E+03 -0.29032876954E+03  0.64259017799E+03  0.25500000920E-02 0.  1.
</event>
<event>
 5   0  0.2421737E-04  0.1998959E+04  0.7818609E-02  0.8607108E-01
       -2   -1    0    0    0  501  0.00000000000E+00  0.00000000000E+00  0.11933667643E+04  0.11933667643E+04  0.25500000920E-02 0.  1.
        2   -1    0    0  501    0  0.00000000000E+00  0.00000000000E+00 -0.83709318368E+03  0.83709318368E+03  0.25500000920E-02 0. -1.
    10030    2    1    2    0    0  0.00000000000E+00  0.00000000000E+00  0.35627358058E+03  0.20304599480E+04  0.19989589130E+04 0.  0.
        1    1    3    3  502    0 -0.76476402327E+03  0.61075780770E+03  0.38398794006E+03  0.10513495371E+04  0.50400001928E-02 0.  1.
       -1    1    3    3    0  502  0.76476402327E+03 -0.61075780770E+03 -0.27714359478E+02  0.97911041088E+03  0.50400001928E-02 0. -1.
</event>
<event>
 5   0  0.2488886E-04  0.1534610E+04  0.7818609E-02  0.8861758E-01
       -2   -1    0    0    0  501  0.00000000000E+00  0.00000000000E+00  0.23461632296E+03  0.23461632297E+03  0.25500000920E-02 0.  1.
        2   -1    0    0  501    0  0.00000000000E+00  0.00000000000E+00 -0.25094455341E+04  0.25094455341E+04  0.25500000920E-02 0. -1.
    10030    2    1    2    0    0  0.00000000000E+00  0.00000000000E+00 -0.22748292111E+04  0.27440618571E+04  0.15346098969E+04 0.  0.
        3    1    3    3  502    0  0.51811377689E+03  0.51771391577E+02 -0.12964819200E+03  0.53659186230E+03  0.10100000352E+00 0.  1.
       -3    1    3    3    0  502 -0.51811377689E+03 -0.51771391577E+02 -0.21451810191E+04  0.22074699948E+04  0.10100000352E+00 0. -1.
</event>
<event>
 5   0  0.9099125E-05  0.1985705E+04  0.7818609E-02  0.8613333E-01
       -3   -1    0    0    0  501  0.00000000000E+00  0.00000000000E+00  0.12899501418E+04  0.12899501458E+04  0.10100000352E+00 0.  1.
        3   -1    0    0  501    0  0.00000000000E+00  0.00000000000E+00 -0.76418162446E+03  0.76418163113E+03  0.10100000352E+00 0. -1.
    10030    2    1    2    0    0  0.00000000000E+00  0.00000000000E+00  0.52576851735E+03  0.20541317769E+04  0.19857051199E+04 0.  0.
        3    1    3    3  502    0 -0.53325204769E+03  0.40009485469E+03 -0.49821554087E+03  0.83225739677E+03  0.10100000352E+00 0. -1.
       -3    1    3    3    0  502  0.53325204769E+03 -0.40009485469E+03  0.10239840582E+04  0.12218743801E+04  0.10100000352E+00 0.  1.
</event>
<event>
 5   0  0.2596061E-04  0.2096906E+04  0.7818609E-02  0.8562607E-01
       -2   -1    0    0    0  501  0.00000000000E+00  0.00000000000E+00  0.15008568763E+04  0.15008568763E+04  0.25500000920E-02 0. -1.
        2   -1    0    0  501    0  0.00000000000E+00  0.00000000000E+00 -0.73241767297E+03  0.73241767297E+03  0.25500000920E-02 0.  1.
    10030    2    1    2    0    0  0.00000000000E+00  0.00000000000E+00  0.76843920330E+03  0.22332745492E+04  0.20969063887E+04 0.  0.
        5    1    3    3  502    0 -0.42057355778E+03 -0.64098320270E+03 -0.37747666822E+03  0.85454801427E+03  0.46999998093E+01 0.  1.
       -5    1    3    3    0  502  0.42057355778E+03  0.64098320270E+03  0.11459158715E+04  0.13787265350E+04  0.46999998093E+01 0. -1.
</event>
<event>
 5   0  0.2540506E-04  0.2035613E+04  0.7818609E-02  0.8590149E-01
        2   -1    0    0  501    0  0.00000000000E+00  0.00000000000E+00  0.13836636512E+04  0.13836636512E+04  0.25500000920E-02 0. -1.
       -2   -1    0    0    0  501  0.00000000000E+00  0.00000000000E+00 -0.74868656201E+03  0.74868656202E+03  0.25500000920E-02 0.  1.
    10030    2    1    2    0    0  0.00000000000E+00  0.00000000000E+00  0.63497708921E+03  0.21323502132E+04  0.20356133052E+04 0.  0.
        4    1    3    3  502    0 -0.61672315749E+03  0.51820355734E+02 -0.52893014822E+03  0.81412622906E+03  0.12699999809E+01 0.  1.
       -4    1    3    3    0  502  0.61672315749E+03 -0.51820355734E+02  0.11639072374E+04  0.13182239842E+04  0.12699999809E+01 0. -1.
</event>
<event>
 5   0  0.2421737E-04  0.1977479E+04  0.7818609E-02  0.8617223E-01
       -2   -1    0    0    0  501  0.00000000000E+00  0.00000000000E+00  0.10340510813E+04  0.10340510813E+04  0.25500000920E-02 0.  1.
        2   -1    0    0  501    0  0.00000000000E+00  0.00000000000E+00 -0.94541380599E+03  0.94541380599E+03  0.25500000920E-02 0. -1.
    10030    2    1    2    0    0  0.00000000000E+00  0.00000000000E+00  0.88637275345E+02  0.19794648873E+04  0.19774793737E+04 0.  0.
        1    1    3    3  502    0  0.12683917789E+03  0.28917844857E+03 -0.89358200866E+03  0.94773475107E+03  0.50400001928E-02 0. -1.
       -1    1    3    3    0  502 -0.12683917789E+03 -0.28917844857E+03  0.98221928400E+03  0.10317301363E+04  0.50400001928E-02 0.  1.
</event>
<event>
 5   0  0.1207228E-04  0.1923722E+04  0.7818609E-02  0.8643138E-01
       -1   -1    0    0    0  501  0.00000000000E+00  0.00000000000E+00  0.12411193872E+04  0.12411193872E+04  0.50400001928E-02 0. -1.
        1   -1    0    0  501    0  0.00000000000E+00  0.00000000000E+00 -0.74543745896E+03  0.74543745898E+03  0.50400001928E-02 0.  1.
    10030    2    1    2    0    0  0.00000000000E+00  0.00000000000E+00  0.49568192826E+03  0.19865568462E+04  0.19237223108E+04 0.  0.
        1    1    3    3  502    0 -0.27112063026E+02  0.85662946508E+03 -0.20302941871E+03  0.88077809310E+03  0.50400001928E-02 0.  1.
       -1    1    3    3    0  502  0.27112063026E+02 -0.85662946508E+03  0.69871134697E+03  0.11057787531E+04  0.50400001928E-02 0. -1.
</event>
<event>
 5   0  0.1324930E-04  0.1990409E+04  0.7818609E-02  0.8611118E-01
        1   -1    0    0  501    0  0.00000000000E+00  0.00000000000E+00  0.16490843129E+04  0.16490843129E+04  0.50400001928E-02 0.  1.
       -1   -1    0    0    0  501  0.00000000000E+00  0.00000000000E+00 -0.60059500953E+03  0.60059500955E+03  0.50400001928E-02 0. -1.
    10030    2    1    2    0    0  0.00000000000E+00  0.00000000000E+00  0.10484893034E+04  0.22496793225E+04  0.19904088109E+04 0.  0.
        5    1    3    3  502    0 -0.68801993812E+03 -0.28524799671E+03  0.12702777366E+04  0.14725370871E+04  0.46999998093E+01 0.  1.
       -5    1    3    3    0  502  0.68801993812E+03  0.28524799671E+03 -0.22178843320E+03  0.77714223536E+03  0.46999998093E+01 0. -1.
</event>
<event>
 5   0  0.2596061E-04  0.2006145E+04  0.7818609E-02  0.8603753E-01
       -2   -1    0    0    0  501  0.00000000000E+00  0.00000000000E+00  0.60438731186E+03  0.60438731187E+03  0.25500000920E-02 0. -1.
        2   -1    0    0  501    0  0.00000000000E+00  0.00000000000E+00 -0.16647519218E+04  0.16647519219E+04  0.25500000920E-02 0.  1.
    10030    2    1    2    0    0  0.00000000000E+00  0.00000000000E+00 -0.10603646100E+04  0.22691392337E+04  0.20061454972E+04 0.  0.
        5    1    3    3  502    0 -0.84925701090E+03  0.10298922610E+02  0.73433440117E+02  0.85250108416E+03  0.46999998093E+01 0. -1.
       -5    1    3    3    0  502  0.84925701090E+03 -0.10298922610E+02 -0.11337980501E+04  0.14166381496E+04  0.46999998093E+01 0.  1.
</event>
<event>
 5   0  0.2596061E-04  0.2057762E+04  0.7818609E-02  0.8580081E-01
       -2   -1    0    0    0  501  0.00000000000E+00  0.00000000000E+00  0.13386458375E+04  0.13386458375E+04  0.25500000920E-02 0. -1.
        2   -1    0    0  501    0  0.00000000000E+00  0.00000000000E+00 -0.79079621985E+03  0.79079621985E+03  0.25500000920E-02 0.  1.
    10030    2    1    2    0    0  0.00000000000E+00  0.00000000000E+00  0.54784961764E+03  0.21294420573E+04  0.20577619571E+04 0.  0.
        5    1    3    3  502    0 -0.46670238210E+03 -0.10129835239E+03 -0.66913862550E+03  0.82209552960E+03  0.46999998093E+01 0.  1.
       -5    1    3    3    0  502  0.46670238210E+03  0.10129835239E+03  0.12169882431E+04  0.13073465277E+04  0.46999998093E+01 0. -1.
</event>
<event>
 5   0  0.2596061E-04  0.2127313E+04  0.7818609E-02  0.8549306E-01
       -2   -1    0    0    0  501  0.00000000000E+00  0.00000000000E+00  0.85804370539E+03  0.85804370539E+03  0.25500000920E-02 0.  1.
        2   -1    0    0  501    0  0.00000000000E+00  0.00000000000E+00 -0.13185397685E+04  0.13185397685E+04  0.25500000920E-02 0. -1.
    10030    2    1    2    0    0  0.00000000000E+00  0.00000000000E+00 -0.46049606308E+03  0.21765834739E+04  0.21273126227E+04 0.  0.
        5    1    3    3  502    0  0.84945176583E+03 -0.64013494258E+03 -0.22894919551E+03  0.10880169444E+04  0.46999998093E+01 0. -1.
       -5    1    3    3    0  502 -0.84945176583E+03  0.64013494258E+03 -0.23154686757E+03  0.10885665295E+04  0.46999998093E+01 0.  1.
</event>
<event>
 5   0  0.2540506E-04  0.2025181E+04  0.7818609E-02  0.8594937E-01
        2   -1    0    0  501    0  0.00000000000E+00  0.00000000000E+00  0.12512599355E+04  0.12512599355E+04  0.25500000920E-02 0.  1.
       -2   -1    0    0    0  501  0.00000000000E+00  0.00000000000E+00 -0.81944594329E+03  0.81944594329E+03  0.25500000920E-02 0. -1.
    10030    2    1    2    0    0  0.00000000000E+00  0.00000000000E+00  0.43181399221E+03  0.20707058788E+04  0.20251813530E+04 0.  0.
        4    1    3    3  502    0  0.57354839825E+03 -0.71987434779E+03 -0.21567302663E+03  0.94535353654E+03  0.12699999809E+01 0.  1.
       -4    1    3    3    0  502 -0.57354839825E+03  0.71987434779E+03  0.64748701885E+03  0.11253523423E+04  0.12699999809E+01 0. -1.
</event>
<event>
 5   0  0.2540506E-04  0.2016109E+04  0.7818609E-02  0.8599126E-01
        2   -1    0    0  501    0  0.00000000000E+00  0.00000000000E+00  0.23056563724E+04  0.23056563724E+04  0.25500000920E-02 0.  1.
       -2   -1    0    0    0  501  0.00000000000E+00  0.00000000000E+00 -0.44073068438E+03  0.44073068438E+03  0.25500000920E-02 0. -1.
    10030    2    1    2    0    0  0.00000000000E+00  0.00000000000E+00  0.18649256880E+04  0.27463870568E+04  0.20161086389E+04 0.  0.
        4    1    3    3  502    0 -0.84211924641E+03 -0.38026321698E+03  0.14814347630E+04  0.17459712223E+04  0.12699999809E+01 0. -1.
       -4    1    3    3    0  502  0.84211924641E+03  0.38026321698E+03  0.38349092506E+03  0.10004158345E+04  0.12699999809E+01 0.  1.
</event>
<event>
 5   0  0.1324930E-04  0.2041660E+04  0.7818609E-02  0.8587387E-01
       -1   -1    0    0    0  501  0.00000000000E+00  0.00000000000E+00  0.56221166508E+03  0.56221166510E+03  0.50400001928E-02 0. -1.
        1   -1    0    0  501    0  0.00000000000E+00  0.00000000000E+00 -0.18535610664E+04  0.18535610664E+04  0.50400001928E-02 0.  1.
    10030    2    1    2    0    0  0.00000000000E+00  0.00000000000E+00 -0.12913494013E+04  0.24157727315E+04  0.20416597694E+04 0.  0.
        5    1    3    3  502    0 -0.21989038841E+03  0.21247256527E+03  0.50673945494E+03  0.59186429112E+03  0.46999998093E+01 0. -1.
       -5    1    3    3    0  502  0.21989038841E+03 -0.21247256527E+03 -0.17980888562E+04  0.18239084404E+04  0.46999998093E+01 0.  1.
</event>
<event>
 5   0  0.2421737E-04  0.2032653E+04  0.7818609E-02  0.8591505E-01
       -2   -1    0    0    0  501  0.00000000000E+00  0.00000000000E+00  0.52586860637E+03  0.52586860637E+03  0.25500000920E-02 0. -1.
        2   -1    0    0  501    0  0.00000000000E+00  0.00000000000E+00 -0.19642155683E+04  0.19642155683E+04  0.25500000920E-02 0.  1.
    10030    2    1    2    0    0  0.00000000000E+00  0.00000000000E+00 -0.14383469619E+04  0.24900841747E+04  0.20326527529E+04 0.  0.
        1    1    3    3  502    0 -0.59436094316E+01  0.12862573844E+03  0.51583578475E+03  0.53166386367E+03  0.50400001928E-02 0. -1.
       -1    1    3    3    0  502  0.59436094316E+01 -0.12862573844E+03 -0.19541827467E+04  0.19584203110E+04  0.50400001928E-02 0.  1.
</event>
<event>
 5   0  0.2463085E-04  0.1999000E+04  0.7818609E-02  0.8607088E-01
       -2   -1    0    0    0  501  0.00000000000E+00  0.00000000000E+00  0.59147573952E+03  0.59147573952E+03  0.25500000920E-02 0. -1.
        2   -1    0    0  501    0  0.00000000000E+00  0.00000000000E+00 -0.16889964031E+04  0.16889964031E+04  0.25500000920E-02 0.  1.
    10030    2    1    2    0    0  0.00000000000E+00  0.00000000000E+00 -0.10975206636E+04  0.22804721427E+04  0.19990001467E+04 0.  0.
        2    1    3    3  502    0 -0.38781064609E+03  0.11595052449E+03  0.49378865323E+03  0.63848951082E+03  0.25500000920E-02 0. -1.
       -2    1    3    3    0  502  0.38781064609E+03 -0.11595052449E+03 -0.15913093169E+04  0.16419826318E+04  0.25500000920E-02 0.  1.
</event>
<event>
 5   0  0.1231056E-04  0.2057193E+04  0.7818609E-02  0.8580338E-01
       -1   -1    0    0    0  501  0.00000000000E+00  0.00000000000E+00  0.60581657200E+03  0.60581657202E+03  0.50400001928E-02 0.  1.
        1   -1    0    0  501    0  0.00000000000E+00  0.00000000000E+00 -0.17464206908E+04  0.17464206908E+04  0.50400001928E-02 0. -1.
    10030    2    1    2    0    0  0.00000000000E+00  0.00000000000E+00 -0.11406041188E+04  0.23522372628E+04  0.20571928409E+04 0.  0.
        3    1    3    3  502    0 -0.65791081103E+03  0.77015545297E+03 -0.77492178441E+03  0.12753391075E+04  0.10100000352E+00 0. -1.
       -3    1    3    3    0  502  0.65791081103E+03 -0.77015545297E+03 -0.36568233439E+03  0.10768981553E+04  0.10100000352E+00 0.  1.
</event>
<event>
 5   0  0.2596061E-04  0.2015852E+04  0.7818609E-02  0.8599245E-01
       -2   -1    0    0    0  501  0.00000000000E+00  0.00000000000E+00  0.73931267542E+03  0.73931267542E+03  0.25500000920E-02 0. -1.
        2   -1    0    0  501    0  0.00000000000E+00  0.00000000000E+00 -0.13741341369E+04  0.13741341369E+04  0.25500000920E-02 0.  1.
    10030    2    1    2    0    0  0.00000000000E+00  0.00000000000E+00 -0.63482146150E+03  0.21134468123E+04  0.20158519640E+04 0.  0.
        5    1    3    3  502    0  0.12848383044E+03  0.11968676791E+03  0.72314167519E+03  0.74417000040E+03  0.46999998093E+01 0. -1.
       -5    1    3    3    0  502 -0.12848383044E+03 -0.11968676791E+03 -0.13579631367E+04  0.13692768119E+04  0.46999998093E+01 0.  1.
</event>
<event>
 5   0  0.2463085E-04  0.2011548E+04  0.7818609E-02  0.8601240E-01
        2   -1    0    0  501    0  0.00000000000E+00  0.00000000000E+00  0.96737436217E+03  0.96737436218E+03  0.25500000920E-02 0.  1.
       -2   -1    0    0    0  501  0.00000000000E+00  0.00000000000E+00 -0.10456982321E+04  0.10456982321E+04  0.25500000920E-02 0. -1.
    10030    2    1    2    0    0  0.00000000000E+00  0.00000000000E+00 -0.78323869900E+02  0.20130725943E+04  0.20115483194E+04 0.  0.
        2    1    3    3  502    0 -0.37812346216E+03  0.24872117909E+03  0.85970690028E+03  0.97156344721E+03  0.25500000920E-02 0.  1.
       -2    1    3    3    0  502  0.37812346216E+03 -0.24872117909E+03 -0.93803077018E+03  0.10415091470E+04  0.25500000920E-02 0. -1.
</event>
<event>
 5   0  0.1207228E-04  0.1973990E+04  0.7818609E-02  0.8618879E-01
       -1   -1    0    0    0  501  0.00000000000E+00  0.00000000000E+00  0.76734485741E+03  0.76734485743E+03  0.50400001928E-02 0. -1.
        1   -1    0    0  501    0  0.00000000000E+00  0.00000000000E+00 -0.12695193315E+04  0.12695193315E+04  0.50400001928E-02 0.  1.
    10030    2    1    2    0    0  0.00000000000E+00  0.00000000000E+00 -0.50217447404E+03  0.20368641889E+04  0.19739900004E+04 0.  0.
        1    1    3    3  502    0  0.34925508997E+03 -0.90067903093E+03 -0.42262106529E+02  0.96694773401E+03  0.50400001928E-02 0.  1.
       -1    1    3    3    0  502 -0.34925508997E+03  0.90067903093E+03 -0.45991236752E+03  0.10699164549E+04  0.50400001928E-02 0. -1.
</event>
<event>
 5   0  0.2596061E-04  0.2012348E+04  0.7818609E-02  0.8600869E-01
        2   -1    0    0  501    0  0.00000000000E+00  0.00000000000E+00  0.95198297777E+03  0.95198297777E+03  0.25500000920E-02 0. -1.
       -2   -1    0    0    0  501  0.00000000000E+00  0.00000000000E+00 -0.10634493328E+04  0.10634493328E+04  0.25500000920E-02 0.  1.
    10030    2    1    2    0    0  0.00000000000E+00  0.00000000000E+00 -0.11146635500E+03  0.20154323105E+04  0.20123475470E+04 0.  0.
        5    1    3    3  502    0 -0.13682334668E+03  0.96794053770E+03  0.18282107300E+03  0.99452257262E+03  0.46999998093E+01 0.  1.
       -5    1    3    3    0  502  0.13682334668E+03 -0.96794053770E+03 -0.29428742800E+03  0.10209097379E+04  0.46999998093E+01 0. -1.
</event>
<event>
 5   0  0.2596061E-04  0.1949010E+04  0.7818609E-02  0.8630838E-01
       -2   -1    0    0    0  501  0.00000000000E+00  0.00000000000E+00  0.69484254103E+03  0.69484254103E+03  0.25500000920E-02 0. -1.
        2   -1    0    0  501    0  0.00000000000E+00  0.00000000000E+00 -0.13667266999E+04  0.13667266999E+04  0.25500000920E-02 0.  1.
    10030    2    1    2    0    0  0.00000000000E+00  0.00000000000E+00 -0.67188415889E+03  0.20615692410E+04  0.19490098543E+04 0.  0.
        5    1    3    3  502    0 -0.51160214069E+02 -0.37629667769E+02 -0.13645234019E+04  0.13660086251E+04  0.46999998093E+01 0.  1.
       -5    1    3    3    0  502  0.51160214069E+02  0.37629667769E+02  0.69263924302E+03  0.69556061589E+03  0.46999998093E+01 0. -1.
</event>
<event>
 5   0  0.2488886E-04  0.2006419E+04  0.7818609E-02  0.8603625E-01
        2   -1    0    0  501    0  0.00000000000E+00  0.00000000000E+00  0.23872918471E+04  0.23872918471E+04  0.25500000920E-02 0.  1.
       -2   -1    0    0    0  501  0.00000000000E+00  0.00000000000E+00 -0.42157801230E+03  0.42157801231E+03  0.25500000920E-02 0. -1.
    10030    2    1    2    0    0  0.00000000000E+00  0.00000000000E+00  0.19657138348E+04  0.28088698595E+04  0.20064194494E+04 0.  0.
        3    1    3    3  502    0 -0.28645217755E+03 -0.78199266542E+03  0.17659016082E+04  0.19524282006E+04  0.10100000352E+00 0.  1.
       -3    1    3    3    0  502  0.28645217755E+03  0.78199266542E+03  0.19981222669E+03  0.85644165881E+03  0.10100000352E+00 0. -1.
</event>
<event>
 5   0  0.9099125E-05  0.1458361E+04  0.7818609E-02  0.8912625E-01
        4   -1    0    0  501    0  0.00000000000E+00  0.00000000000E+00  0.53834226756E+03  0.53834376558E+03  0.12699999809E+01 0.  1.
       -4   -1    0    0    0  501  0.00000000000E+00  0.00000000000E+00 -0.98766586614E+03  0.98766668266E+03  0.12699999809E+01 0. -1.
    10030    2    1    2    0    0  0.00000000000E+00  0.00000000000E+00 -0.44932359857E+03  0.15260104482E+04  0.14583607893E+04 0.  0.
        5    1    3    3  502    0 -0.42505224504E+03 -0.37047687913E+03  0.25912628611E+03  0.62055704906E+03  0.46999998093E+01 0.  1.
       -5    1    3    3    0  502  0.42505224504E+03  0.37047687913E+03 -0.70844988468E+03  0.90545339918E+03  0.46999998093E+01 0. -1.
</event>
<event>
 5   0  0.1324930E-04  0.2005562E+04  0.7818609E-02  0.8604024E-01
        1   -1    0    0  501    0  0.00000000000E+00  0.00000000000E+00  0.11657654727E+04  0.11657654727E+04  0.50400001928E-02 0. -1.
       -1   -1    0    0    0  501  0.00000000000E+00  0.00000000000E+00 -0.86258358614E+03  0.86258358616E+03  0.50400001928E-02 0.  1.
    10030    2    1    2    0    0  0.00000000000E+00  0.00000000000E+00  0.30318188657E+03  0.20283490589E+04  0.20055624269E+04 0.  0.
        5    1    3    3  502    0  0.80794222260E+03  0.48616464646E+03  0.49667339075E+03  0.10657547774E+04  0.46999998093E+01 0. -1.
       -5    1    3    3    0  502 -0.80794222260E+03 -0.48616464646E+03 -0.19349150418E+03  0.96259428146E+03  0.46999998093E+01 0.  1.
</event>
<event>
 5   0  0.2463085E-04  0.2061887E+04  0.7818609E-02  0.8578221E-01
       -2   -1    0    0    0  501  0.00000000000E+00  0.00000000000E+00  0.78340619055E+03  0.78340619055E+03  0.25500000920E-02 0.  1.
        2   -1    0    0  501    0  0.00000000000E+00  0.00000000000E+00 -0.13566970257E+04  0.13566970257E+04  0.25500000920E-02 0. -1.
    10030    2    1    2    0    0  0.00000000000E+00  0.00000000000E+00 -0.57329083511E+03  0.21401032162E+04  0.20618873380E+04 0.  0.
        2    1    3    3  502    0  0.12929774226E+03 -0.29657834811E+03 -0.13026383118E+04  0.13422157777E+04  0.25500000920E-02 0. -1.
       -2    1    3    3    0  502 -0.12929774226E+03  0.29657834811E+03  0.72934747667E+03  0.79788743846E+03  0.25500000920E-02 0.  1.
</event>
<event>
 5   0  0.2421737E-04  0.1975369E+04  0.7818609E-02  0.8618224E-01
       -2   -1    0    0    0  501  0.00000000000E+00  0.00000000000E+00  0.38511509049E+03  0.38511509050E+03  0.25500000920E-02 0.  1.
        2   -1    0    0  501    0  0.00000000000E+00  0.00000000000E+00 -0.25330617289E+04  0.25330617289E+04  0.25500000920E-02 0. -1.
    10030    2    1    2    0    0  0.00000000000E+00  0.00000000000E+00 -0.21479466385E+04  0.29181768194E+04  0.19753686208E+04 0.  0.
        1    1    3    3  502    0  0.10273806861E+03  0.94519408715E+03 -0.67875319922E+03  0.11681835809E+04  0.50400001928E-02 0. -1.
       -1    1    3    3    0  502 -0.10273806861E+03 -0.94519408715E+03 -0.14691934392E+04  0.17499932386E+04  0.50400001928E-02 0.  1.
</event>
<event>
 5   0  0.1210633E-04  0.1993949E+04  0.7818609E-02  0.8609455E-01
       -1   -1    0    0    0  501  0.00000000000E+00  0.00000000000E+00  0.49663777251E+03  0.49663777254E+03  0.50400001928E-02 0.  1.
        1   -1    0    0  501    0  0.00000000000E+00  0.00000000000E+00 -0.20013739411E+04  0.20013739411E+04  0.50400001928E-02 0. -1.
    10030    2    1    2    0    0  0.00000000000E+00  0.00000000000E+00 -0.15047361686E+04  0.24980117137E+04  0.19939487417E+04 0.  0.
        2    1    3    3  502    0 -0.15886972727E+03 -0.44248212851E+02 -0.19841672554E+04  0.19910090889E+04  0.25500000920E-02 0. -1.
       -2    1    3    3    0  502  0.15886972727E+03  0.44248212851E+02  0.47943108677E+03  0.50700262480E+03  0.25500000920E-02 0.  1.
</event>
<event>
 5   0  0.1231056E-04  0.1978842E+04  0.7818609E-02  0.8616577E-01
        1   -1    0    0  501    0  0.00000000000E+00  0.00000000000E+00  0.11864130389E+04  0.11864130389E+04  0.50400001928E-02 0.  1.
       -1   -1    0    0    0  501  0.00000000000E+00  0.00000000000E+00 -0.82513769112E+03  0.82513769113E+03  0.50400001928E-02 0. -1.
    10030    2    1    2    0    0  0.00000000000E+00  0.00000000000E+00  0.36127534776E+03  0.20115507300E+04  0.19788422025E+04 0.  0.
        3    1    3    3  502    0 -0.88604477862E+03 -0.25810554756E+03 -0.18199444404E+03  0.94064648580E+03  0.10100000352E+00 0. -1.
       -3    1    3    3    0  502  0.88604477862E+03  0.25810554756E+03  0.54326979180E+03  0.10709042442E+04  0.10100000352E+00 0.  1.
</event>
<event>
 5   0  0.2463085E-04  0.2004465E+04  0.7818609E-02  0.8604536E-01
        2   -1    0    0  501    0  0.00000000000E+00  0.00000000000E+00  0.11689677398E+04  0.11689677398E+04  0.25500000920E-02 0.  1.
       -2   -1    0    0    0  501  0.00000000000E+00  0.00000000000E+00 -0.85927966357E+03  0.85927966358E+03  0.25500000920E-02 0. -1.
    10030    2    1    2    0    0  0.00000000000E+00  0.00000000000E+00  0.30968807618E+03  0.20282474033E+04  0.20044652216E+04 0.  0.
        2    1    3    3  502    0  0.14394564025E+02 -0.99669793478E+03  0.26027348070E+03  0.10302214623E+04  0.25500000920E-02 0.  1.
       -2    1    3    3    0  502 -0.14394564025E+02  0.99669793478E+03  0.49414595481E+02  0.99802594101E+03  0.25500000920E-02 0. -1.
</event>
<event>
 5   0  0.1207228E-04  0.1992042E+04  0.7818609E-02  0.8610350E-01
       -1   -1    0    0    0  501  0.00000000000E+00  0.00000000000E+00  0.71874956775E+03  0.71874956777E+03  0.50400001928E-02 0.  1.
        1   -1    0    0  501    0  0.00000000000E+00  0.00000000000E+00 -0.13802554005E+04  0.13802554005E+04  0.50400001928E-02 0. -1.
    10030    2    1    2    0    0  0.00000000000E+00  0.00000000000E+00 -0.66150583277E+03  0.20990049683E+04  0.19920421407E+04 0.  0.
        1    1    3    3  502    0  0.57214614050E+03 -0.38520013158E+03 -0.10878954185E+04  0.12881175370E+04  0.50400001928E-02 0. -1.
       -1    1    3    3    0  502 -0.57214614050E+03  0.38520013158E+03  0.42638958572E+03  0.81088743133E+03  0.50400001928E-02 0.  1.
</event>
<event>
 5   0  0.1207228E-04  0.1965490E+04  0.7818609E-02  0.8622927E-01
       -1   -1    0    0    0  501  0.00000000000E+00  0.00000000000E+00  0.51103074824E+03  0.51103074826E+03  0.50400001928E-02 0. -1.
        1   -1    0    0  501    0  0.00000000000E+00  0.00000000000E+00 -0.18898818445E+04  0.18898818445E+04  0.50400001928E-02 0.  1.
    10030    2    1    2    0    0  0.00000000000E+00  0.00000000000E+00 -0.13788510963E+04  0.24009125928E+04  0.19654899981E+04 0.  0.
        1    1    3    3  502    0  0.24861046474E+03  0.31033954028E+03  0.40837254235E+03  0.56998765496E+03  0.50400001928E-02 0. -1.
       -1    1    3    3    0  502 -0.24861046474E+03 -0.31033954028E+03 -0.17872236386E+04  0.18309249378E+04  0.50400001928E-02 0.  1.
</event>
<event>
 5   0  0.1210633E-04  0.1959744E+04  0.7818609E-02  0.8625676E-01
        1   -1    0    0  501    0  0.00000000000E+00  0.00000000000E+00  0.10736239083E+04  0.10736239083E+04  0.50400001928E-02 0. -1.
       -1   -1    0    0    0  501  0.00000000000E+00  0.00000000000E+00 -0.89430680645E+03  0.89430680646E+03  0.50400001928E-02 0.  1.
    10030    2    1    2    0    0  0.00000000000E+00  0.00000000000E+00  0.17931710188E+03  0.19679307148E+04  0.19597440331E+04 0.  0.
        2    1    3    3  502    0  0.11926446116E+03  0.84832289083E+02 -0.88326896770E+03  0.89531257015E+03  0.25500000920E-02 0.  1.
       -2    1    3    3    0  502 -0.11926446116E+03 -0.84832289083E+02  0.10625860696E+04  0.10726181446E+04  0.25500000920E-02 0. -1.
</event>
<event>
 5   0  0.2540506E-04  0.1848827E+04  0.7818609E-02  0.8680756E-01
        2   -1    0    0  501    0  0.00000000000E+00  0.00000000000E+00  0.95521751276E+03  0.95521751276E+03  0.25500000920E-02 0.  1.
       -2   -1    0    0    0  501  0.00000000000E+00  0.00000000000E+00 -0.89460267119E+03  0.89460267120E+03  0.25500000920E-02 0. -1.
    10030    2    1    2    0    0  0.00000000000E+00  0.00000000000E+00  0.60614841569E+02  0.18498201840E+04  0.18488268048E+04 0.  0.
        4    1    3    3  502    0 -0.48926479180E+02  0.18217178847E+03 -0.87514189178E+03  0.89524036132E+03  0.12699999809E+01 0. -1.
       -4    1    3    3    0  502  0.48926479180E+02 -0.18217178847E+03  0.93575673335E+03  0.95457982264E+03  0.12699999809E+01 0.  1.
</event>
<event>
 5   0  0.2596061E-04  0.2166954E+04  0.7818609E-02  0.8532310E-01
       -2   -1    0    0    0  501  0.00000000000E+00  0.00000000000E+00  0.76143275665E+03  0.76143275665E+03  0.25500000920E-02 0.  1.
        2   -1    0    0  501    0  0.00000000000E+00  0.00000000000E+00 -0.15417281725E+04  0.15417281725E+04  0.25500000920E-02 0. -1.
    10030    2    1    2    0    0  0.00000000000E+00  0.00000000000E+00 -0.78029541582E+03  0.23031609291E+04  0.21669539288E+04 0.  0.
        5    1    3    3  502    0 -0.10604869724E+04 -0.17984020221E+03 -0.52842171684E+03  0.11984267678E+04  0.46999998093E+01 0. -1.
       -5    1    3    3    0  502  0.10604869724E+04  0.17984020221E+03 -0.25187369898E+03  0.11047341613E+04  0.46999998093E+01 0.  1.
</event>
<event>
 5   0  0.2540506E-04  0.2023698E+04  0.7818609E-02  0.8595621E-01
       -2   -1    0    0    0  501  0.00000000000E+00  0.00000000000E+00  0.91320092779E+03  0.91320092779E+03  0.25500000920E-02 0.  1.
        2   -1    0    0  501    0  0.00000000000E+00  0.00000000000E+00 -0.11211533876E+04  0.11211533876E+04  0.25500000920E-02 0. -1.
    10030    2    1    2    0    0  0.00000000000E+00  0.00000000000E+00 -0.20795245980E+03  0.20343543154E+04  0.20236979159E+04 0.  0.
        4    1    3    3  502    0  0.67487151240E+03  0.17882531218E+03 -0.84023077166E+03  0.10924373726E+04  0.12699999809E+01 0. -1.
       -4    1    3    3    0  502 -0.67487151240E+03 -0.17882531218E+03  0.63227831186E+03  0.94191694277E+03  0.12699999809E+01 0.  1.
</event>
<event>
 5   0  0.2421737E-04  0.2042342E+04  0.7818609E-02  0.8587077E-01
        2   -1    0    0  501    0  0.00000000000E+00  0.00000000000E+00  0.18647918175E+04  0.18647918175E+04  0.25500000920E-02 0. -1.
       -2   -1    0    0    0  501  0.00000000000E+00  0.00000000000E+00 -0.55919903284E+03  0.55919903285E+03  0.25500000920E-02 0.  1.
    10030    2    1    2    0    0  0.00000000000E+00  0.00000000000E+00  0.13055927846E+04  0.24239908503E+04  0.20423415785E+04 0.  0.
        1    1    3    3  502    0  0.16525406431E+03  0.11252642874E+03 -0.53574361324E+03  0.57183242483E+03  0.50400001928E-02 0.  1.
       -1    1    3    3    0  502 -0.16525406431E+03 -0.11252642874E+03  0.18413363979E+04  0.18521584255E+04  0.50400001928E-02 0. -1.
</event>
<event>
 5   0  0.2596061E-04  0.1985050E+04  0.7818609E-02  0.8613643E-01
       -2   -1    0    0    0  501  0.00000000000E+00  0.00000000000E+00  0.57564233235E+03  0.57564233236E+03  0.25500000920E-02 0. -1.
        2   -1    0    0  501    0  0.00000000000E+00  0.00000000000E+00 -0.17113151131E+04  0.17113151131E+04  0.25500000920E-02 0.  1.
    10030    2    1    2    0    0  0.00000000000E+00  0.00000000000E+00 -0.11356727808E+04  0.22869574455E+04  0.19850495441E+04 0.  0.
        5    1    3    3  502    0 -0.67818129669E+03  0.65551798397E+02 -0.13993047842E+04  0.15563749158E+04  0.46999998093E+01 0.  1.
       -5    1    3    3    0  502  0.67818129669E+03 -0.65551798397E+02  0.26363200343E+03  0.73058252968E+03  0.46999998093E+01 0. -1.
</event>
<event>
 5   0  0.2488886E-04  0.2032651E+04  0.7818609E-02  0.8591506E-01
       -2   -1    0    0    0  501  0.00000000000E+00  0.00000000000E+00  0.73498682383E+03  0.73498682384E+03  0.25500000920E-02 0. -1.
        2   -1    0    0  501    0  0.00000000000E+00  0.00000000000E+00 -0.14053545572E+04  0.14053545572E+04  0.25500000920E-02 0.  1.
    10030    2    1    2    0    0  0.00000000000E+00  0.00000000000E+00 -0.67036773341E+03  0.21403413811E+04  0.20326505675E+04 0.  0.
        3    1    3    3  502    0  0.52264129189E+03  0.81111008576E+03 -0.67125390260E+03  0.11754298376E+04  0.10100000352E+00 0.  1.
       -3    1    3    3    0  502 -0.52264129189E+03 -0.81111008576E+03  0.88616918614E+00  0.96491154346E+03  0.10100000352E+00 0. -1.
</event>
<event>
 5   0  0.2540506E-04  0.2029734E+04  0.7818609E-02  0.8592844E-01
       -2   -1    0    0    0  501  0.00000000000E+00  0.00000000000E+00  0.10084092098E+04  0.10084092098E+04  0.25500000920E-02 0.  1.
        2   -1    0    0  501    0  0.00000000000E+00  0.00000000000E+00 -0.10213659326E+04  0.10213659326E+04  0.25500000920E-02 0. -1.
    10030    2    1    2    0    0  0.00000000000E+00  0.00000000000E+00 -0.12956722837E+02  0.20297751424E+04  0.20297337885E+04 0.  0.
        4    1    3    3  502    0  0.34772156907E+03  0.58459519053E+03  0.74672445991E+03  0.10100796297E+04  0.12699999809E+01 0.  1.
       -4    1    3    3    0  502 -0.34772156907E+03 -0.58459519053E+03 -0.75968118275E+03  0.10196955127E+04  0.12699999809E+01 0. -1.
</event>
<event>
 5   0  0.1231056E-04  0.2442023E+04  0.7818609E-02  0.8423936E-01
       -1   -1    0    0    0  501  0.00000000000E+00  0.00000000000E+00  0.96337011510E+03  0.96337011511E+03  0.50400001928E-02 0. -1.
        1   -1    0    0  501    0  0.00000000000E+00  0.00000000000E+00 -0.15475558846E+04  0.15475558846E+04  0.50400001928E-02 0.  1.
    10030    2    1    2    0    0  0.00000000000E+00  0.00000000000E+00 -0.58418576948E+03  0.25109259997E+04  0.24420230062E+04 0.  0.
        3    1    3    3  502    0  0.40796909392E+03  0.80824182751E+03  0.55027576025E+03  0.10594796156E+04  0.10100000352E+00 0. -1.
       -3    1    3    3    0  502 -0.40796909392E+03 -0.80824182751E+03 -0.11344615297E+04  0.14514463841E+04  0.10100000352E+00 0.  1.
</event>
<event>
 5   0  0.1210633E-04  0.2033367E+04  0.7818609E-02  0.8591177E-01
        1   -1    0    0  501    0  0.00000000000E+00  0.00000000000E+00  0.12009725758E+04  0.12009725759E+04  0.50400001928E-02 0. -1.
       -1   -1    0    0    0  501  0.00000000000E+00  0.00000000000E+00 -0.86067358271E+03  0.86067358273E+03  0.50400001928E-02 0.  1.
    10030    2    1    2    0    0  0.00000000000E+00  0.00000000000E+00  0.34029899313E+03  0.20616461586E+04  0.20333670299E+04 0.  0.
        2    1    3    3  502    0  0.34474208761E+02  0.97541140829E+03  0.45876515276E+03  0.10784624944E+04  0.25500000920E-02 0. -1.
       -2    1    3    3    0  502 -0.34474208761E+02 -0.97541140829E+03 -0.11846615962E+03  0.98318366416E+03  0.25500000920E-02 0.  1.
</event>
<event>
 5   0  0.1324930E-04  0.1744125E+04  0.7818609E-02  0.8736591E-01
        1   -1    0    0  501    0  0.00000000000E+00  0.00000000000E+00  0.13569329340E+04  0.13569329340E+04  0.50400001928E-02 0.  1.
       -1   -1    0    0    0  501  0.00000000000E+00  0.00000000000E+00 -0.56045017199E+03  0.56045017201E+03  0.50400001928E-02 0. -1.
    10030    2    1    2    0    0  0.00000000000E+00  0.00000000000E+00  0.79648276203E+03  0.19173831060E+04  0.17441253353E+04 0.  0.
        5    1    3    3  502    0  0.25495755457E+03  0.79965163038E+03  0.65845055856E+03  0.10667826923E+04  0.46999998093E+01 0.  1.
       -5    1    3    3    0  502 -0.25495755457E+03 -0.79965163038E+03  0.13803220347E+03  0.85060041370E+03  0.46999998093E+01 0. -1.
</event>
<event>
 5   0  0.2540506E-04  0.2007317E+04  0.7818609E-02  0.8603207E-01
        2   -1    0    0  501    0  0.00000000000E+00  0.00000000000E+00  0.86402805923E+03  0.86402805923E+03  0.25500000920E-02 0. -1.
       -2   -1    0    0    0  501  0.00000000000E+00  0.00000000000E+00 -0.11658536178E+04  0.11658536178E+04  0.25500000920E-02 0.  1.
    10030    2    1    2    0    0  0.00000000000E+00  0.00000000000E+00 -0.30182555852E+03  0.20298816770E+04  0.20073168546E+04 0.  0.
        4    1    3    3  502    0  0.52298086290E+03  0.76930265333E+03 -0.53196839586E+03  0.10716004584E+04  0.12699999809E+01 0.  1.
       -4    1    3    3    0  502 -0.52298086290E+03 -0.76930265333E+03  0.23014283734E+03  0.95828121857E+03  0.12699999809E+01 0. -1.
</event>
<event>
 5   0  0.1207228E-04  0.1869653E+04  0.7818609E-02  0.8670111E-01
       -1   -1    0    0    0  501  0.00000000000E+00  0.00000000000E+00  0.95085907820E+03  0.95085907822E+03  0.50400001928E-02 0. -1.
        1   -1    0    0  501    0  0.00000000000E+00  0.00000000000E+00 -0.91906434261E+03  0.91906434262E+03  0.50400001928E-02 0.  1.
    10030    2    1    2    0    0  0.00000000000E+00  0.00000000000E+00  0.31794735593E+02  0.18699234208E+04  0.18696530947E+04 0.  0.
        1    1    3    3  502    0  0.98166125249E+02  0.46242513115E+03 -0.79070983696E+03  0.92124678364E+03  0.50400001928E-02 0.  1.
       -1    1    3    3    0  502 -0.98166125249E+02 -0.46242513115E+03  0.82250457256E+03  0.94867663720E+03  0.50400001928E-02 0. -1.
</event>
<event>
 5   0  0.1324930E-04  0.1889456E+04  0.7818609E-02  0.8660123E-01
       -1   -1    0    0    0  501  0.00000000000E+00  0.00000000000E+00  0.63534498958E+03  0.63534498960E+03  0.50400001928E-02 0.  1.
        1   -1    0    0  501    0  0.00000000000E+00  0.00000000000E+00 -0.14047654951E+04  0.14047654951E+04  0.50400001928E-02 0. -1.
    10030    2    1    2    0    0  0.00000000000E+00  0.00000000000E+00 -0.76942050547E+03  0.20401104847E+04  0.18894557088E+04 0.  0.
        5    1    3    3  502    0  0.37884709051E+03  0.78621289219E+02  0.54585689602E+03  0.66909510986E+03  0.46999998093E+01 0.  1.
       -5    1    3    3    0  502 -0.37884709051E+03 -0.78621289219E+02 -0.13152774015E+04  0.13710153748E+04  0.46999998093E+01 0. -1.
</event>
<event>
 5   0  0.1207228E-04  0.2084177E+04  0.7818609E-02  0.8568246E-01
       -1   -1    0    0    0  501  0.00000000000E+00  0.00000000000E+00  0.12511123962E+04  0.12511123962E+04  0.50400001928E-02 0.  1.
        1   -1    0    0  501    0  0.00000000000E+00  0.00000000000E+00 -0.86798666500E+03  0.86798666501E+03  0.50400001928E-02 0. -1.
    10030    2    1    2    0    0  0.00000000000E+00  0.00000000000E+00  0.38312573119E+03  0.21190990612E+04  0.20841774170E+04 0.  0.
        1    1    3    3  502    0  0.81939723100E+03  0.46741046413E+03  0.64177383236E+03  0.11409461057E+04  0.50400001928E-02 0.  1.
       -1    1    3    3    0  502 -0.81939723100E+03 -0.46741046413E+03 -0.25864810117E+03  0.97815295553E+03  0.50400001928E-02 0. -1.
</event>
<event>
 5   0  0.1210633E-04  0.2031541E+04  0.7818609E-02  0.8592015E-01
        1   -1    0    0  501    0  0.00000000000E+00  0.00000000000E+00  0.14834697303E+04  0.14834697303E+04  0.50400001928E-02 0. -1.
       -1   -1    0    0    0  501  0.00000000000E+00  0.00000000000E+00 -0.69552467770E+03  0.69552467771E+03  0.50400001928E-02 0.  1.
    10030    2    1    2    0    0  0.00000000000E+00  0.00000000000E+00  0.78794505263E+03  0.21789944081E+04  0.20315410959E+04 0.  0.
        2    1    3    3  502    0 -0.75076549738E+03  0.19671913004E+03  0.10968555337E+04  0.13436663686E+04  0.25500000920E-02 0. -1.
       -2    1    3    3    0  502  0.75076549738E+03 -0.19671913004E+03 -0.30891048110E+03  0.83532803946E+03  0.25500000920E-02 0.  1.
</event>
<event>
 5   0  0.2596061E-04  0.1866212E+04  0.7818609E-02  0.8671860E-01
        2   -1    0    0  501    0  0.00000000000E+00  0.00000000000E+00  0.63249032784E+03  0.63249032785E+03  0.25500000920E-02 0. -1.
       -2   -1    0    0    0  501  0.00000000000E+00  0.00000000000E+00 -0.13766004344E+04  0.13766004344E+04  0.25500000920E-02 0.  1.
    10030    2    1    2    0    0  0.00000000000E+00  0.00000000000E+00 -0.74411010659E+03  0.20090907623E+04  0.18662116280E+04 0.  0.
        5    1    3    3  502    0 -0.10574152074E+03  0.27719498495E+03  0.58034927867E+03  0.65180189026E+03  0.46999998093E+01 0. -1.
       -5    1    3    3    0  502  0.10574152074E+03 -0.27719498495E+03 -0.13244593853E+04  0.13572888720E+04  0.46999998093E+01 0.  1.
</event>
<event>
 5   0  0.2540506E-04  0.2017797E+04  0.7818609E-02  0.8598345E-01
       -2   -1    0    0    0  501  0.00000000000E+00  0.00000000000E+00  0.11094940838E+04  0.11094940838E+04  0.25500000920E-02 0.  1.
        2   -1    0    0  501    0  0.00000000000E+00  0.00000000000E+00 -0.91742365087E+03  0.91742365087E+03  0.25500000920E-02 0. -1.
    10030    2    1    2    0    0  0.00000000000E+00  0.00000000000E+00  0.19207043294E+03  0.20269177347E+04  0.20177969303E+04 0.  0.
        4    1    3    3  502    0  0.32922625319E+03 -0.38812151653E+03  0.97109064909E+03  0.10963789943E+04  0.12699999809E+01 0.  1.
       -4    1    3    3    0  502 -0.32922625319E+03  0.38812151653E+03 -0.77902021615E+03  0.93053874044E+03  0.12699999809E+01 0. -1.
</event>
<event>
 5   0  0.1231056E-04  0.1294981E+04  0.7818609E-02  0.9033555E-01
        1   -1    0    0  501    0  0.00000000000E+00  0.00000000000E+00  0.32302656219E+03  0.32302656223E+03  0.50400001928E-02 0. -1.
       -1   -1    0    0    0  501  0.00000000000E+00  0.00000000000E+00 -0.12978619005E+04  0.12978619005E+04  0.50400001928E-02 0.  1.
    10030    2    1    2    0    0  0.00000000000E+00  0.00000000000E+00 -0.97483533832E+03  0.16208884628E+04  0.12949808770E+04 0.  0.
        3    1    3    3  502    0  0.55565597532E+03 -0.52698514789E+02 -0.76623602583E+02  0.56338431203E+03  0.10100000352E+00 0. -1.
       -3    1    3    3    0  502 -0.55565597532E+03  0.52698514789E+02 -0.89821173574E+03  0.10575041507E+04  0.10100000352E+00 0.  1.
</event>
<event>
 5   0  0.1210633E-04  0.2044712E+04  0.7818609E-02  0.8585997E-01
        1   -1    0    0  501    0  0.00000000000E+00  0.00000000000E+00  0.11699538292E+04  0.11699538292E+04  0.50400001928E-02 0.  1.
       -1   -1    0    0    0  501  0.00000000000E+00  0.00000000000E+00 -0.89337837660E+03  0.89337837661E+03  0.50400001928E-02 0. -1.
    10030    2    1    2    0    0  0.00000000000E+00  0.00000000000E+00  0.27657545258E+03  0.20633322058E+04  0.20447116693E+04 0.  0.
        2    1    3    3  502    0  0.71724919813E+03  0.67189747002E+03  0.42248848413E+03  0.10697612545E+04  0.25500000920E-02 0.  1.
       -2    1    3    3    0  502 -0.71724919813E+03 -0.67189747002E+03 -0.14591303155E+03  0.99357095128E+03  0.25500000920E-02 0. -1.
</event>
<event>
 5   0  0.2540506E-04  0.1908328E+04  0.7818609E-02  0.8650722E-01
       -2   -1    0    0    0  501  0.00000000000E+00  0.00000000000E+00  0.62527903778E+03  0.62527903778E+03  0.25500000920E-02 0. -1.
        2   -1    0    0  501    0  0.00000000000E+00  0.00000000000E+00 -0.14560364653E+04  0.14560364653E+04  0.25500000920E-02 0.  1.
    10030    2    1    2    0    0  0.00000000000E+00  0.00000000000E+00 -0.83075742756E+03  0.20813155031E+04  0.19083281479E+04 0.  0.
        4    1    3    3  502    0 -0.67114838533E+03 -0.94626063595E+02 -0.11478475100E+04  0.13330227928E+04  0.12699999809E+01 0.  1.
       -4    1    3    3    0  502  0.67114838533E+03  0.94626063595E+02  0.31709008244E+03  0.74829271032E+03  0.12699999809E+01 0. -1.
</event>
<event>
 5   0  0.1207228E-04  0.1978798E+04  0.7818609E-02  0.8616598E-01
       -1   -1    0    0    0  501  0.00000000000E+00  0.00000000000E+00  0.83596163840E+03  0.83596163842E+03  0.50400001928E-02 0.  1.
        1   -1    0    0  501    0  0.00000000000E+00  0.00000000000E+00 -0.11709996172E+04  0.11709996172E+04  0.50400001928E-02 0. -1.
    10030    2    1    2    0    0  0.00000000000E+00  0.00000000000E+00 -0.33503797881E+03  0.20069612556E+04  0.19787983814E+04 0.  0.
        1    1    3    3  502    0  0.10509500871E+03  0.67127602546E+03 -0.89695885521E+03  0.11252518168E+04  0.50400001928E-02 0. -1.
       -1    1    3    3    0  502 -0.10509500871E+03 -0.67127602546E+03  0.56192087640E+03  0.88170943886E+03  0.50400001928E-02 0.  1.
</event>
<event>
 5   0  0.2540506E-04  0.2068353E+04  0.7818609E-02  0.8575314E-01
        2   -1    0    0  501    0  0.00000000000E+00  0.00000000000E+00  0.90154233627E+03  0.90154233628E+03  0.25500000920E-02 0. -1.
       -2   -1    0    0    0  501  0.00000000000E+00  0.00000000000E+00 -0.11863236531E+04  0.11863236531E+04  0.25500000920E-02 0.  1.
    10030    2    1    2    0    0  0.00000000000E+00  0.00000000000E+00 -0.28478131682E+03  0.20878659894E+04  0.20683529658E+04 0.  0.
        4    1    3    3  502    0  0.32373352558E+03  0.73315530683E+03 -0.80216166272E+03  0.11339246208E+04  0.12699999809E+01 0.  1.
       -4    1    3    3    0  502 -0.32373352558E+03 -0.73315530683E+03  0.51738034590E+03  0.95394136861E+03  0.12699999809E+01 0. -1.
</event>
<event>
 5   0  0.1207228E-04  0.1995916E+04  0.7818609E-02  0.8608532E-01
       -1   -1    0    0    0  501  0.00000000000E+00  0.00000000000E+00  0.68630060896E+03  0.68630060898E+03  0.50400001928E-02 0. -1.
        1   -1    0    0  501    0  0.00000000000E+00  0.00000000000E+00 -0.14511430964E+04  0.14511430964E+04  0.50400001928E-02 0.  1.
    10030    2    1    2    0    0  0.00000000000E+00  0.00000000000E+00 -0.76484248746E+03  0.21374437054E+04  0.19959162215E+04 0.  0.
        1    1    3    3  502    0  0.71612781320E+03  0.56237991760E+03  0.54963515111E+02  0.91221225852E+03  0.50400001928E-02 0. -1.
       -1    1    3    3    0  502 -0.71612781320E+03 -0.56237991760E+03 -0.81980600257E+03  0.12252314469E+04  0.50400001928E-02 0.  1.
</event>
<event>
 5   0  0.1207228E-04  0.1856428E+04  0.7818609E-02  0.8676854E-01
       -1   -1    0    0    0  501  0.00000000000E+00  0.00000000000E+00  0.87062396339E+03  0.87062396341E+03  0.50400001928E-02 0. -1.
        1   -1    0    0  501    0  0.00000000000E+00  0.00000000000E+00 -0.98961398769E+03  0.98961398770E+03  0.50400001928E-02 0.  1.
    10030    2    1    2    0    0  0.00000000000E+00  0.00000000000E+00 -0.11899002430E+03  0.18602379511E+04  0.18564284551E+04 0.  0.
        1    1    3    3  502    0 -0.56269148902E+03  0.60863656258E+03  0.35911992524E+03  0.90334229274E+03  0.50400001928E-02 0.  1.
       -1    1    3    3    0  502  0.56269148902E+03 -0.60863656258E+03 -0.47810994954E+03  0.95689565837E+03  0.50400001928E-02 0. -1.
</event>
<event>
 5   0  0.2488886E-04  0.1938696E+04  0.7818609E-02  0.8635831E-01
        2   -1    0    0  501    0  0.00000000000E+00  0.00000000000E+00  0.18813171513E+04  0.18813171513E+04  0.25500000920E-02 0.  1.
       -2   -1    0    0    0  501  0.00000000000E+00  0.00000000000E+00 -0.49945634891E+03  0.49945634892E+03  0.25500000920E-02 0. -1.
    10030    2    1    2    0    0  0.00000000000E+00  0.00000000000E+00  0.13818608024E+04  0.23807735002E+04  0.19386962583E+04 0.  0.
        3    1    3    3  502    0  0.24079632381E+03 -0.80794831458E+03  0.10343421121E+03  0.84938918926E+03  0.10100000352E+00 0. -1.
       -3    1    3    3    0  502 -0.24079632381E+03  0.80794831458E+03  0.12784265912E+04  0.15313843109E+04  0.10100000352E+00 0.  1.
</event>
<event>
 5   0  0.1324930E-04  0.1956327E+04  0.7818609E-02  0.8627316E-01
        1   -1    0    0  501    0  0.00000000000E+00  0.00000000000E+00  0.71295704551E+03  0.71295704552E+03  0.50400001928E-02 0. -1.
       -1   -1    0    0    0  501  0.00000000000E+00  0.00000000000E+00 -0.13420212467E+04  0.13420212468E+04  0.50400001928E-02 0.  1.
    10030    2    1    2    0    0  0.00000000000E+00  0.00000000000E+00 -0.62906420124E+03  0.20549782923E+04  0.19563266630E+04 0.  0.
        5    1    3    3  502    0 -0.45249725365E+02 -0.53590680979E+03 -0.11727622859E+04  0.12902081676E+04  0.46999998093E+01 0.  1.
       -5    1    3    3    0  502  0.45249725365E+02  0.53590680979E+03  0.54369808465E+03  0.76477012472E+03  0.46999998093E+01 0. -1.
</event>
<event>
 5   0  0.2488886E-04  0.1976386E+04  0.7818609E-02  0.8617741E-01
       -2   -1    0    0    0  501  0.00000000000E+00  0.00000000000E+00  0.43942894277E+03  0.43942894278E+03  0.25500000920E-02 0. -1.
        2   -1    0    0  501    0  0.00000000000E+00  0.00000000000E+00 -0.22222595984E+04  0.22222595984E+04  0.25500000920E-02 0.  1.
    10030    2    1    2    0    0  0.00000000000E+00  0.00000000000E+00 -0.17828306557E+04  0.26616885412E+04  0.19763857780E+04 0.  0.
        3    1    3    3  502    0 -0.26778799070E+03 -0.40626357110E+03 -0.20497453440E+04  0.21067074981E+04  0.10100000352E+00 0.  1.
       -3    1    3    3    0  502  0.26778799070E+03  0.40626357110E+03  0.26691468833E+03  0.55498104311E+03  0.10100000352E+00 0. -1.
</event>
<event>
 5   0  0.2540506E-04  0.1989719E+04  0.7818609E-02  0.8611442E-01
        2   -1    0    0  501    0  0.00000000000E+00  0.00000000000E+00  0.11964969651E+04  0.11964969651E+04  0.25500000920E-02 0.  1.
       -2   -1    0    0    0  501  0.00000000000E+00  0.00000000000E+00 -0.82720296764E+03  0.82720296765E+03  0.25500000920E-02 0. -1.
    10030    2    1    2    0    0  0.00000000000E+00  0.00000000000E+00  0.36929399742E+03  0.20236999327E+04  0.19897194177E+04 0.  0.
        4    1    3    3  502    0 -0.25298748524E+03  0.30378683247E+03 -0.74388182211E+03  0.84240779046E+03  0.12699999809E+01 0. -1.
       -4    1    3    3    0  502  0.25298748524E+03 -0.30378683247E+03  0.11131758195E+04  0.11812921423E+04  0.12699999809E+01 0.  1.
</event>
<event>
 5   0  0.2421737E-04  0.2001290E+04  0.7818609E-02  0.8606018E-01
        2   -1    0    0  501    0  0.00000000000E+00  0.00000000000E+00  0.50174474592E+03  0.50174474593E+03  0.25500000920E-02 0. -1.
       -2   -1    0    0    0  501  0.00000000000E+00  0.00000000000E+00 -0.19956176744E+04  0.19956176744E+04  0.25500000920E-02 0.  1.
    10030    2    1    2    0    0  0.00000000000E+00  0.00000000000E+00 -0.14938729285E+04  0.24973624203E+04  0.20012902668E+04 0.  0.
        1    1    3    3  502    0 -0.82755284713E+03  0.35784117336E+03 -0.20529975367E+03  0.92468481605E+03  0.50400001928E-02 0. -1.
       -1    1    3    3    0  502  0.82755284713E+03 -0.35784117336E+03 -0.12885731748E+04  0.15726776043E+04  0.50400001928E-02 0.  1.
</event>
<event>
 5   0  0.2421737E-04  0.1875418E+04  0.7818609E-02  0.8667190E-01
       -2   -1    0    0    0  501  0.00000000000E+00  0.00000000000E+00  0.11392290554E+04  0.11392290554E+04  0.25500000920E-02 0.  1.
        2   -1    0    0  501    0  0.00000000000E+00  0.00000000000E+00 -0.77183624529E+03  0.77183624529E+03  0.25500000920E-02 0. -1.
    10030    2    1    2    0    0  0.00000000000E+00  0.00000000000E+00  0.36739281013E+03  0.19110653007E+04  0.18754181152E+04 0.  0.
        1    1    3    3  502    0 -0.60100683608E+03 -0.71662046573E+03  0.25238815763E+03  0.96873829854E+03  0.50400001928E-02 0.  1.
       -1    1    3    3    0  502  0.60100683608E+03  0.71662046573E+03  0.11500465250E+03  0.94232700218E+03  0.50400001928E-02 0. -1.
</event>
<event>
 5   0  0.1210633E-04  0.1923115E+04  0.7818609E-02  0.8643436E-01
        1   -1    0    0  501    0  0.00000000000E+00  0.00000000000E+00  0.17014061238E+04  0.17014061238E+04  0.50400001928E-02 0. -1.
       -1   -1    0    0    0  501  0.00000000000E+00  0.00000000000E+00 -0.54342848418E+03  0.54342848421E+03  0.50400001928E-02 0.  1.
    10030    2    1    2    0    0  0.00000000000E+00  0.00000000000E+00  0.11579776396E+04  0.22448346080E+04  0.19231147141E+04 0.  0.
        2    1    3    3  502    0  0.44464016547E+03 -0.26511972729E+03 -0.36687656995E+03  0.63450119317E+03  0.25500000920E-02 0.  1.
       -2    1    3    3    0  502 -0.44464016547E+03  0.26511972729E+03  0.15248542096E+04  0.16103334149E+04  0.25500000920E-02 0. -1.
</event>
<event>
 5   0  0.1258546E-04  0.1995908E+04  0.7818609E-02  0.8608536E-01
        1   -1    0    0  501    0  0.00000000000E+00  0.00000000000E+00  0.13050812423E+04  0.13050812423E+04  0.50400001928E-02 0. -1.
       -1   -1    0    0    0  501  0.00000000000E+00  0.00000000000E+00 -0.76310367575E+03  0.76310367577E+03  0.50400001928E-02 0.  1.
    10030    2    1    2    0    0  0.00000000000E+00  0.00000000000E+00  0.54197756658E+03  0.20681849181E+04  0.19959081073E+04 0.  0.
        4    1    3    3  502    0  0.24497807740E+03  0.94525440941E+03  0.57643417393E+02  0.97818430440E+03  0.12699999809E+01 0.  1.
       -4    1    3    3    0  502 -0.24497807740E+03 -0.94525440941E+03  0.48433414919E+03  0.10900006137E+04  0.12699999809E+01 0. -1.
</event>
<event>
 5   0  0.2596061E-04  0.1850063E+04  0.7818609E-02  0.8680121E-01
       -2   -1    0    0    0  501  0.00000000000E+00  0.00000000000E+00  0.95303155947E+03  0.95303155947E+03  0.25500000920E-02 0.  1.
        2   -1    0    0  501    0  0.00000000000E+00  0.00000000000E+00 -0.89785364816E+03  0.89785364816E+03  0.25500000920E-02 0. -1.
    10030    2    1    2    0    0  0.00000000000E+00  0.00000000000E+00  0.55177911313E+02  0.18508852076E+04  0.18500625530E+04 0.  0.
        5    1    3    3  502    0 -0.59519901316E+03 -0.30202429818E+03 -0.61314897494E+03  0.90634115951E+03  0.46999998093E+01 0.  1.
       -5    1    3    3    0  502  0.59519901316E+03  0.30202429818E+03  0.66832688625E+03  0.94454404812E+03  0.46999998093E+01 0. -1.
</event>
<event>
 5   0  0.1207228E-04  0.1994322E+04  0.7818609E-02  0.8609280E-01
        1   -1    0    0  501    0  0.00000000000E+00  0.00000000000E+00  0.16093562345E+04  0.16093562345E+04  0.50400001928E-02 0.  1.
       -1   -1    0    0    0  501  0.00000000000E+00  0.00000000000E+00 -0.61784329664E+03  0.61784329666E+03  0.50400001928E-02 0. -1.
    10030    2    1    2    0    0  0.00000000000E+00  0.00000000000E+00  0.99151293785E+03  0.22271995312E+04  0.19943219012E+04 0.  0.
        1    1    3    3  502    0  0.51556657266E+02  0.99273708754E+03  0.58329977755E+03  0.11525726200E+04  0.50400001928E-02 0.  1.
       -1    1    3    3    0  502 -0.51556657266E+02 -0.99273708754E+03  0.40821316030E+03  0.10746269111E+04  0.50400001928E-02 0. -1.
</event>
<event>
 5   0  0.1258546E-04  0.1940818E+04  0.7818609E-02  0.8634801E-01
       -1   -1    0    0    0  501  0.00000000000E+00  0.00000000000E+00  0.95915331964E+03  0.95915331965E+03  0.50400001928E-02 0.  1.
        1   -1    0    0  501    0  0.00000000000E+00  0.00000000000E+00 -0.98179656912E+03  0.98179656913E+03  0.50400001928E-02 0. -1.
    10030    2    1    2    0    0  0.00000000000E+00  0.00000000000E+00 -0.22643249476E+02  0.19409498888E+04  0.19408178055E+04 0.  0.
        4    1    3    3  502    0 -0.25533517322E+03 -0.85333023546E+03  0.37383220594E+03  0.96598171439E+03  0.12699999809E+01 0.  1.
       -4    1    3    3    0  502  0.25533517322E+03  0.85333023546E+03 -0.39647545542E+03  0.97496817439E+03  0.12699999809E+01 0. -1.
</event>
<event>
 5   0  0.1324930E-04  0.1994043E+04  0.7818609E-02  0.8609411E-01
       -1   -1    0    0    0  501  0.00000000000E+00  0.00000000000E+00  0.50879501696E+03  0.50879501698E+03  0.50400001928E-02 0. -1.
        1   -1    0    0  501    0  0.00000000000E+00  0.00000000000E+00 -0.19537383227E+04  0.19537383227E+04  0.50400001928E-02 0.  1.
    10030    2    1    2    0    0  0.00000000000E+00  0.00000000000E+00 -0.14449433058E+04  0.24625333397E+04  0.19940434530E+04 0.  0.
        5    1    3    3  502    0  0.13465953559E+03 -0.42162954983E+03  0.38080165753E+03  0.58389781657E+03  0.46999998093E+01 0. -1.
       -5    1    3    3    0  502 -0.13465953559E+03  0.42162954983E+03 -0.18257449633E+04  0.18786355231E+04  0.46999998093E+01 0.  1.
</event>
<event>
 5   0  0.2540506E-04  0.1996438E+04  0.7818609E-02  0.8608288E-01
        2   -1    0    0  501    0  0.00000000000E+00  0.00000000000E+00  0.14134150678E+04  0.14134150678E+04  0.25500000920E-02 0.  1.
       -2   -1    0    0    0  501  0.00000000000E+00  0.00000000000E+00 -0.70498833110E+03  0.70498833111E+03  0.25500000920E-02 0. -1.
    10030    2    1    2    0    0  0.00000000000E+00  0.00000000000E+00  0.70842673672E+03  0.21184033989E+04  0.19964379578E+04 0.  0.
        4    1    3    3  502    0 -0.82448850261E+03  0.29422708840E+03  0.86319304422E+03  0.12294123454E+04  0.12699999809E+01 0.  1.
       -4    1    3    3    0  502  0.82448850261E+03 -0.29422708840E+03 -0.15476630750E+03  0.88899105356E+03  0.12699999809E+01 0. -1.
</event>
<event>
 5   0  0.1207228E-04  0.1822942E+04  0.7818609E-02  0.8694194E-01
       -1   -1    0    0    0  501  0.00000000000E+00  0.00000000000E+00  0.69928352478E+03  0.69928352480E+03  0.50400001928E-02 0.  1.
        1   -1    0    0  501    0  0.00000000000E+00  0.00000000000E+00 -0.11880435484E+04  0.11880435484E+04  0.50400001928E-02 0. -1.
    10030    2    1    2    0    0  0.00000000000E+00  0.00000000000E+00 -0.48876002361E+03  0.18873270732E+04  0.18229418862E+04 0.  0.
        1    1    3    3  502    0 -0.35547585177E+03 -0.28536932311E+03  0.57278843543E+03  0.73204188647E+03  0.50400001928E-02 0.  1.
       -1    1    3    3    0  502  0.35547585177E+03  0.28536932311E+03 -0.10615484590E+04  0.11552851867E+04  0.50400001928E-02 0. -1.
</event>
<event>
 5   0  0.2463085E-04  0.2005821E+04  0.7818609E-02  0.8603904E-01
        2   -1    0    0  501    0  0.00000000000E+00  0.00000000000E+00  0.21631059531E+04  0.21631059531E+04  0.25500000920E-02 0. -1.
       -2   -1    0    0    0  501  0.00000000000E+00  0.00000000000E+00 -0.46499314356E+03  0.46499314356E+03  0.25500000920E-02 0.  1.
    10030    2    1    2    0    0  0.00000000000E+00  0.00000000000E+00  0.16981128096E+04  0.26280990967E+04  0.20058209661E+04 0.  0.
        2    1    3    3  502    0 -0.68275730784E+03 -0.10426593761E+03 -0.10372989346E+03  0.69841879840E+03  0.25500000920E-02 0. -1.
       -2    1    3    3    0  502  0.68275730784E+03  0.10426593761E+03  0.18018427030E+04  0.19296802983E+04  0.25500000920E-02 0.  1.
</event>
<event>
 5   0  0.2596061E-04  0.1295218E+04  0.7818609E-02  0.9033366E-01
       -2   -1    0    0    0  501  0.00000000000E+00  0.00000000000E+00  0.11225488169E+04  0.11225488169E+04  0.25500000920E-02 0. -1.
        2   -1    0    0  501    0  0.00000000000E+00  0.00000000000E+00 -0.37361165042E+03  0.37361165043E+03  0.25500000920E-02 0.  1.
    10030    2    1    2    0    0  0.00000000000E+00  0.00000000000E+00  0.74893716648E+03  0.14961604673E+04  0.12952178445E+04 0.  0.
        5    1    3    3  502    0  0.63998687772E+03 -0.23147882912E+02  0.26333337311E+03  0.69244897540E+03  0.46999998093E+01 0.  1.
       -5    1    3    3    0  502 -0.63998687772E+03  0.23147882912E+02  0.48560379338E+03  0.80371149194E+03  0.46999998093E+01 0. -1.
</event>
<event>
 5   0  0.1231056E-04  0.2001740E+04  0.7818609E-02  0.8605807E-01
       -1   -1    0    0    0  501  0.00000000000E+00  0.00000000000E+00  0.56112981174E+03  0.56112981176E+03  0.50400001928E-02 0. -1.
        1   -1    0    0  501    0  0.00000000000E+00  0.00000000000E+00 -0.17852217441E+04  0.17852217441E+04  0.50400001928E-02 0.  1.
    10030    2    1    2    0    0  0.00000000000E+00  0.00000000000E+00 -0.12240919323E+04  0.23463515558E+04  0.20017403840E+04 0.  0.
        3    1    3    3  502    0  0.31657006050E+03  0.56655229432E+02 -0.17230089497E+04  0.17527653206E+04  0.10100000352E+00 0.  1.
       -3    1    3    3    0  502 -0.31657006050E+03 -0.56655229432E+02  0.49891701737E+03  0.59358623522E+03  0.10100000352E+00 0. -1.
</event>
<event>
 5   0  0.1324930E-04  0.1980370E+04  0.7818609E-02  0.8615854E-01
       -1   -1    0    0    0  501  0.00000000000E+00  0.00000000000E+00  0.42718710338E+03  0.42718710341E+03  0.50400001928E-02 0. -1.
        1   -1    0    0  501    0  0.00000000000E+00  0.00000000000E+00 -0.22951680841E+04  0.22951680841E+04  0.50400001928E-02 0.  1.
    10030    2    1    2    0    0  0.00000000000E+00  0.00000000000E+00 -0.18679809807E+04  0.27223551875E+04  0.19803698702E+04 0.  0.
        5    1    3    3  502    0  0.35668692681E+03 -0.70661586490E+03 -0.17517892957E+04  0.19223213495E+04  0.46999998093E+01 0.  1.
       -5    1    3    3    0  502 -0.35668692681E+03  0.70661586490E+03 -0.11619168504E+03  0.80003383801E+03  0.46999998093E+01 0. -1.
</event>
<event>
 5   0  0.2463085E-04  0.1992230E+04  0.7818609E-02  0.8610262E-01
       -2   -1    0    0    0  501  0.00000000000E+00  0.00000000000E+00  0.65230154082E+03  0.65230154083E+03  0.25500000920E-02 0.  1.
        2   -1    0    0  501    0  0.00000000000E+00  0.00000000000E+00 -0.15211450830E+04  0.15211450830E+04  0.25500000920E-02 0. -1.
    10030    2    1    2    0    0  0.00000000000E+00  0.00000000000E+00 -0.86884354218E+03  0.21734466238E+04  0.19922301890E+04 0.  0.
        2    1    3    3  502    0  0.31656170978E+03 -0.20143908580E+03  0.57225635894E+03  0.68429990628E+03  0.25500000920E-02 0.  1.
       -2    1    3    3    0  502 -0.31656170978E+03  0.20143908580E+03 -0.14410999011E+04  0.14891467175E+04  0.25500000920E-02 0. -1.
</event>
<event>
 5   0  0.1258546E-04  0.2033127E+04  0.7818609E-02  0.8591287E-01
        1   -1    0    0  501    0  0.00000000000E+00  0.00000000000E+00  0.15185460989E+04  0.15185460989E+04  0.50400001928E-02 0.  1.
       -1   -1    0    0    0  501  0.00000000000E+00  0.00000000000E+00 -0.68052018031E+03  0.68052018033E+03  0.50400001928E-02 0. -1.
    10030    2    1    2    0    0  0.00000000000E+00  0.00000000000E+00  0.83802591859E+03  0.21990662792E+04  0.20331269169E+04 0.  0.
        4    1    3    3  502    0  0.13579741357E+03  0.59368442964E+03 -0.46135850052E+03  0.76403888541E+03  0.12699999809E+01 0. -1.
       -4    1    3    3    0  502 -0.13579741357E+03 -0.59368442964E+03  0.12993844191E+04  0.14350273938E+04  0.12699999809E+01 0.  1.
</event>
<event>
 5   0  0.2488886E-04  0.2011919E+04  0.7818609E-02  0.8601068E-01
        2   -1    0    0  501    0  0.00000000000E+00  0.00000000000E+00  0.13390570851E+04  0.13390570851E+04  0.25500000920E-02 0.  1.
       -2   -1    0    0    0  501  0.00000000000E+00  0.00000000000E+00 -0.75572167300E+03  0.75572167300E+03  0.25500000920E-02 0. -1.
    10030    2    1    2    0    0  0.00000000000E+00  0.00000000000E+00  0.58333541215E+03  0.20947787581E+04  0.20119189453E+04 0.  0.
        3    1    3    3  502    0 -0.83542139068E+02 -0.10020084148E+04  0.25950373095E+03  0.10384326405E+04  0.10100000352E+00 0.  1.
       -3    1    3    3    0  502  0.83542139068E+02  0.10020084148E+04  0.32383168120E+03  0.10563461176E+04  0.10100000352E+00 0. -1.
</event>
<event>
 5   0  0.2596061E-04  0.2036710E+04  0.7818609E-02  0.8589647E-01
       -2   -1    0    0    0  501  0.00000000000E+00  0.00000000000E+00  0.82914431572E+03  0.82914431573E+03  0.25500000920E-02 0.  1.
        2   -1    0    0  501    0  0.00000000000E+00  0.00000000000E+00 -0.12507435338E+04  0.12507435338E+04  0.25500000920E-02 0. -1.
    10030    2    1    2    0    0  0.00000000000E+00  0.00000000000E+00 -0.42159921810E+03  0.20798878496E+04  0.20367099857E+04 0.  0.
        5    1    3    3  502    0  0.21509595318E+03 -0.57849150320E+03 -0.10379753083E+04  0.12076148057E+04  0.46999998093E+01 0. -1.
       -5    1    3    3    0  502 -0.21509595318E+03  0.57849150320E+03  0.61637609023E+03  0.87227304381E+03  0.46999998093E+01 0.  1.
</event>
<event>
 5   0  0.2540506E-04  0.1982884E+04  0.7818609E-02  0.8614665E-01
        2   -1    0    0  501    0  0.00000000000E+00  0.00000000000E+00  0.79343762546E+03  0.79343762547E+03  0.25500000920E-02 0. -1.
       -2   -1    0    0    0  501  0.00000000000E+00  0.00000000000E+00 -0.12388583760E+04  0.12388583760E+04  0.25500000920E-02 0.  1.
    10030    2    1    2    0    0  0.00000000000E+00  0.00000000000E+00 -0.44542075050E+03  0.20322960014E+04  0.19828836054E+04 0.  0.
        4    1    3    3  502    0  0.34639151950E+03  0.71855331615E+03 -0.82615148495E+03  0.11484049120E+04  0.12699999809E+01 0.  1.
       -4    1    3    3    0  502 -0.34639151950E+03 -0.71855331615E+03  0.38073073445E+03  0.88389108943E+03  0.12699999809E+01 0. -1.
</event>
<event>
 5   0  0.1258546E-04  0.2007935E+04  0.7818609E-02  0.8602920E-01
       -1   -1    0    0    0  501  0.00000000000E+00  0.00000000000E+00  0.46576530434E+03  0.46576530437E+03  0.50400001928E-02 0. -1.
        1   -1    0    0  501    0  0.00000000000E+00  0.00000000000E+00 -0.21640734415E+04  0.21640734415E+04  0.50400001928E-02 0.  1.
    10030    2    1    2    0    0  0.00000000000E+00  0.00000000000E+00 -0.16983081372E+04  0.26298387459E+04  0.20079345857E+04 0.  0.
        4    1    3    3  502    0 -0.69617559584E+03 -0.36168151289E+03 -0.28641171369E+02  0.78504516215E+03  0.12699999809E+01 0. -1.
       -4    1    3    3    0  502  0.69617559584E+03  0.36168151289E+03 -0.16696669658E+04  0.18447935837E+04  0.12699999809E+01 0.  1.
</event>
<event>
 5   0  0.2421737E-04  0.2047673E+04  0.7818609E-02  0.8584651E-01
       -2   -1    0    0    0  501  0.00000000000E+00  0.00000000000E+00  0.12274394365E+04  0.12274394365E+04  0.25500000920E-02 0. -1.
        2   -1    0    0  501    0  0.00000000000E+00  0.00000000000E+00 -0.85400675111E+03  0.85400675112E+03  0.25500000920E-02 0.  1.
    10030    2    1    2    0    0  0.00000000000E+00  0.00000000000E+00  0.37343268539E+03  0.20814461876E+04  0.20476733776E+04 0.  0.
        1    1    3    3  502    0 -0.97142593439E+03 -0.70712414780E+02 -0.13403999204E+03  0.98317613432E+03  0.50400001928E-02 0.  1.
       -1    1    3    3    0  502  0.97142593439E+03  0.70712414780E+02  0.50747267743E+03  0.10982700533E+04  0.50400001928E-02 0. -1.
</event>
<event>
 5   0  0.1258546E-04  0.1852116E+04  0.7818609E-02  0.8679065E-01
       -1   -1    0    0    0  501  0.00000000000E+00  0.00000000000E+00  0.82215916410E+03  0.82215916411E+03  0.50400001928E-02 0. -1.
        1   -1    0    0  501    0  0.00000000000E+00  0.00000000000E+00 -0.10430873268E+04  0.10430873269E+04  0.50400001928E-02 0.  1.
    10030    2    1    2    0    0  0.00000000000E+00  0.00000000000E+00 -0.22092816274E+03  0.18652464910E+04  0.18521164162E+04 0.  0.
        4    1    3    3  502    0 -0.45471130092E+03  0.55178182906E+03  0.48222879588E+03  0.86242204201E+03  0.12699999809E+01 0. -1.
       -4    1    3    3    0  502  0.45471130092E+03 -0.55178182906E+03 -0.70315695862E+03  0.10028244490E+04  0.12699999809E+01 0.  1.
</event>
<event>
 5   0  0.2540506E-04  0.2005189E+04  0.7818609E-02  0.8604199E-01
       -2   -1    0    0    0  501  0.00000000000E+00  0.00000000000E+00  0.97004495675E+03  0.97004495676E+03  0.25500000920E-02 0. -1.
        2   -1    0    0  501    0  0.00000000000E+00  0.00000000000E+00 -0.10362358857E+04  0.10362358857E+04  0.25500000920E-02 0.  1.
    10030    2    1    2    0    0  0.00000000000E+00  0.00000000000E+00 -0.66190928992E+02  0.20062808425E+04  0.20051886644E+04 0.  0.
        4    1    3    3  502    0  0.18698255184E+03  0.55827533927E+03  0.77886361815E+03  0.97635238398E+03  0.12699999809E+01 0. -1.
       -4    1    3    3    0  502 -0.18698255184E+03 -0.55827533927E+03 -0.84505454714E+03  0.10299284585E+04  0.12699999809E+01 0.  1.
</event>
<event>
 5   0  0.1207228E-04  0.1993758E+04  0.7818609E-02  0.8609545E-01
        1   -1    0    0  501    0  0.00000000000E+00  0.00000000000E+00  0.74077625229E+03  0.74077625231E+03  0.50400001928E-02 0. -1.
       -1   -1    0    0    0  501  0.00000000000E+00  0.00000000000E+00 -0.13415222722E+04  0.13415222722E+04  0.50400001928E-02 0.  1.
    10030    2    1    2    0    0  0.00000000000E+00  0.00000000000E+00 -0.60074601992E+03  0.20822985245E+04  0.19937581009E+04 0.  0.
        1    1    3    3  502    0  0.66167219014E+03 -0.63620699602E+03  0.10573741829E+03  0.92398583899E+03  0.50400001928E-02 0. -1.
       -1    1    3    3    0  502 -0.66167219014E+03  0.63620699602E+03 -0.70648343821E+03  0.11583126855E+04  0.50400001928E-02 0.  1.
</event>
<event>
 5   0  0.2596061E-04  0.2137938E+04  0.7818609E-02  0.8544713E-01
       -2   -1    0    0    0  501  0.00000000000E+00  0.00000000000E+00  0.53076525205E+03  0.53076525206E+03  0.25500000920E-02 0.  1.
        2   -1    0    0  501    0  0.00000000000E+00  0.00000000000E+00 -0.21529182473E+04  0.21529182473E+04  0.25500000920E-02 0. -1.
    10030    2    1    2    0    0  0.00000000000E+00  0.00000000000E+00 -0.16221529953E+04  0.26836834994E+04  0.21379375072E+04 0.  0.
        5    1    3    3  502    0  0.65602248665E+03  0.82877740247E+03 -0.61088348307E+03  0.12208350444E+04  0.46999998093E+01 0. -1.
       -5    1    3    3    0  502 -0.65602248665E+03 -0.82877740247E+03 -0.10112695122E+04  0.14628484549E+04  0.46999998093E+01 0.  1.
</event>
<event>
 5   0  0.2596061E-04  0.2001004E+04  0.7818609E-02  0.8606151E-01
        2   -1    0    0  501    0  0.00000000000E+00  0.00000000000E+00  0.81442866944E+03  0.81442866944E+03  0.25500000920E-02 0. -1.
       -2   -1    0    0    0  501  0.00000000000E+00  0.00000000000E+00 -0.12290877276E+04  0.12290877276E+04  0.25500000920E-02 0.  1.
    10030    2    1    2    0    0  0.00000000000E+00  0.00000000000E+00 -0.41465905813E+03  0.20435163970E+04  0.20010040306E+04 0.  0.
        5    1    3    3  502    0  0.65041917232E+03  0.37562218637E+03 -0.88231415462E+03  0.11587223499E+04  0.46999998093E+01 0.  1.
       -5    1    3    3    0  502 -0.65041917232E+03 -0.37562218637E+03  0.46765509649E+03  0.88479404716E+03  0.46999998093E+01 0. -1.
</event>
<event>
 5   0  0.2463085E-04  0.1990122E+04  0.7818609E-02  0.8611253E-01
        2   -1    0    0  501    0  0.00000000000E+00  0.00000000000E+00  0.77040923789E+03  0.77040923789E+03  0.25500000920E-02 0. -1.
       -2   -1    0    0    0  501  0.00000000000E+00  0.00000000000E+00 -0.12852211019E+04  0.12852211019E+04  0.25500000920E-02 0.  1.
    10030    2    1    2    0    0  0.00000000000E+00  0.00000000000E+00 -0.51481186401E+03  0.20556303398E+04  0.19901218150E+04 0.  0.
        2    1    3    3  502    0 -0.49432473688E+03  0.21356233394E+03 -0.11217175115E+04  0.12442732785E+04  0.25500000920E-02 0.  1.
       -2    1    3    3    0  502  0.49432473688E+03 -0.21356233394E+03  0.60690564748E+03  0.81135706130E+03  0.25500000920E-02 0. -1.
</event>
<event>
 5   0  0.2463085E-04  0.2073043E+04  0.7818609E-02  0.8573212E-01
        2   -1    0    0  501    0  0.00000000000E+00  0.00000000000E+00  0.14709175705E+04  0.14709175705E+04  0.25500000920E-02 0. -1.
       -2   -1    0    0    0  501  0.00000000000E+00  0.00000000000E+00 -0.73041297108E+03  0.73041297108E+03  0.25500000920E-02 0.  1.
    10030    2    1    2    0    0  0.00000000000E+00  0.00000000000E+00  0.74050459940E+03  0.22013305416E+04  0.20730434370E+04 0.  0.
        2    1    3    3  502    0 -0.10628893909E+03 -0.10019508910E+04  0.11194088899E+03  0.10137720105E+04  0.25500000920E-02 0.  1.
       -2    1    3    3    0  502  0.10628893909E+03  0.10019508910E+04  0.62856371041E+03  0.11875585311E+04  0.25500000920E-02 0. -1.
</event>
<event>
 5   0  0.2421737E-04  0.2058639E+04  0.7818609E-02  0.8579685E-01
       -2   -1    0    0    0  501  0.00000000000E+00  0.00000000000E+00  0.58109498632E+03  0.58109498632E+03  0.25500000920E-02 0. -1.
        2   -1    0    0  501    0  0.00000000000E+00  0.00000000000E+00 -0.18232797741E+04  0.18232797741E+04  0.25500000920E-02 0.  1.
    10030    2    1    2    0    0  0.00000000000E+00  0.00000000000E+00 -0.12421847878E+04  0.24043747604E+04  0.20586390994E+04 0.  0.
        1    1    3    3  502    0  0.44985802885E+03  0.29079332032E+03  0.40548019629E+03  0.67182377963E+03  0.50400001928E-02 0. -1.
       -1    1    3    3    0  502 -0.44985802885E+03 -0.29079332032E+03 -0.16476649841E+04  0.17325509808E+04  0.50400001928E-02 0.  1.
</event>
<event>
 5   0  0.1231056E-04  0.2047835E+04  0.7818609E-02  0.8584577E-01
       -1   -1    0    0    0  501  0.00000000000E+00  0.00000000000E+00  0.80222204148E+03  0.80222204149E+03  0.50400001928E-02 0. -1.
        1   -1    0    0  501    0  0.00000000000E+00  0.00000000000E+00 -0.13068789883E+04  0.13068789883E+04  0.50400001928E-02 0.  1.
    10030    2    1    2    0    0  0.00000000000E+00  0.00000000000E+00 -0.50465694686E+03  0.21091010298E+04  0.20478350813E+04 0.  0.
        3    1    3    3  502    0  0.96181605617E+03  0.32914980915E+03 -0.12628493797E+03  0.10243913405E+04  0.10100000352E+00 0. -1.
       -3    1    3    3    0  502 -0.96181605617E+03 -0.32914980915E+03 -0.37837200889E+03  0.10847096893E+04  0.10100000352E+00 0.  1.
</event>
<event>
 5   0  0.1231056E-04  0.1995067E+04  0.7818609E-02  0.8608931E-01
        1   -1    0    0  501    0  0.00000000000E+00  0.00000000000E+00  0.98305265295E+03  0.98305265296E+03  0.50400001928E-02 0. -1.
       -1   -1    0    0    0  501  0.00000000000E+00  0.00000000000E+00 -0.10122275060E+04  0.10122275060E+04  0.50400001928E-02 0.  1.
    10030    2    1    2    0    0  0.00000000000E+00  0.00000000000E+00 -0.29174853074E+02  0.19952801590E+04  0.19950668512E+04 0.  0.
        3    1    3    3  502    0  0.66164230948E+03  0.45458979953E+03 -0.60680822904E+03  0.10062994925E+04  0.10100000352E+00 0.  1.
       -3    1    3    3    0  502 -0.66164230948E+03 -0.45458979953E+03  0.57763337596E+03  0.98898066652E+03  0.10100000352E+00 0. -1.
</event>
<event>
 5   0  0.2488886E-04  0.2021805E+04  0.7818609E-02  0.8596493E-01
        2   -1    0    0  501    0  0.00000000000E+00  0.00000000000E+00  0.97202004011E+03  0.97202004011E+03  0.25500000920E-02 0.  1.
       -2   -1    0    0    0  501  0.00000000000E+00  0.00000000000E+00 -0.10513407887E+04  0.10513407887E+04  0.25500000920E-02 0. -1.
    10030    2    1    2    0    0  0.00000000000E+00  0.00000000000E+00 -0.79320748597E+02  0.20233608288E+04  0.20218054462E+04 0.  0.
        3    1    3    3  502    0 -0.95675923638E+03 -0.96067345138E+02  0.27252051764E+03  0.99944215137E+03  0.10100000352E+00 0.  1.
       -3    1    3    3    0  502  0.95675923638E+03  0.96067345138E+02 -0.35184126623E+03  0.10239186775E+04  0.10100000352E+00 0. -1.
</event>
<event>
 5   0  0.1207228E-04  0.2020588E+04  0.7818609E-02  0.8597055E-01
       -1   -1    0    0    0  501  0.00000000000E+00  0.00000000000E+00  0.77248396275E+03  0.77248396277E+03  0.50400001928E-02 0. -1.
        1   -1    0    0  501    0  0.00000000000E+00  0.00000000000E+00 -0.13213144739E+04  0.13213144739E+04  0.50400001928E-02 0.  1.
    10030    2    1    2    0    0  0.00000000000E+00  0.00000000000E+00 -0.54883051110E+03  0.20937984366E+04  0.20205882716E+04 0.  0.
        1    1    3    3  502    0  0.71314863606E+03  0.54063461049E+03  0.21143007790E+03  0.91954849630E+03  0.50400001928E-02 0. -1.
       -1    1    3    3    0  502 -0.71314863606E+03 -0.54063461049E+03 -0.76026058900E+03  0.11742499403E+04  0.50400001928E-02 0.  1.
</event>
<event>
 5   0  0.2463085E-04  0.1988986E+04  0.7818609E-02  0.8611787E-01
        2   -1    0    0  501    0  0.00000000000E+00  0.00000000000E+00  0.17035730619E+04  0.17035730619E+04  0.25500000920E-02 0. -1.
       -2   -1    0    0    0  501  0.00000000000E+00  0.00000000000E+00 -0.58055433039E+03  0.58055433039E+03  0.25500000920E-02 0.  1.
    10030    2    1    2    0    0  0.00000000000E+00  0.00000000000E+00  0.11230187315E+04  0.22841273923E+04  0.19889863933E+04 0.  0.
        2    1    3    3  502    0 -0.51287828294E+03  0.27937091800E+03  0.14858897113E+04  0.15965464218E+04  0.25500000920E-02 0. -1.
       -2    1    3    3    0  502  0.51287828294E+03 -0.27937091800E+03 -0.36287097979E+03  0.68758097045E+03  0.25500000920E-02 0.  1.
</event>
<event>
 5   0  0.1258546E-04  0.2039152E+04  0.7818609E-02  0.8588532E-01
        1   -1    0    0  501    0  0.00000000000E+00  0.00000000000E+00  0.98843232733E+03  0.98843232734E+03  0.50400001928E-02 0.  1.
       -1   -1    0    0    0  501  0.00000000000E+00  0.00000000000E+00 -0.10517005377E+04  0.10517005378E+04  0.50400001928E-02 0. -1.
    10030    2    1    2    0    0  0.00000000000E+00  0.00000000000E+00 -0.63268210414E+02  0.20401328651E+04  0.20391515983E+04 0.  0.
        4    1    3    3  502    0  0.51818251261E+03  0.23493913144E+03 -0.87810488375E+03  0.10463170225E+04  0.12699999809E+01 0. -1.
       -4    1    3    3    0  502 -0.51818251261E+03 -0.23493913144E+03  0.81483667333E+03  0.99381584258E+03  0.12699999809E+01 0.  1.
</event>
<event>
 5   0  0.1207228E-04  0.2042158E+04  0.7818609E-02  0.8587160E-01
        1   -1    0    0  501    0  0.00000000000E+00  0.00000000000E+00  0.86635957694E+03  0.86635957696E+03  0.50400001928E-02 0.  1.
       -1   -1    0    0    0  501  0.00000000000E+00  0.00000000000E+00 -0.12034289942E+04  0.12034289942E+04  0.50400001928E-02 0. -1.
    10030    2    1    2    0    0  0.00000000000E+00  0.00000000000E+00 -0.33706941726E+03  0.20697885712E+04  0.20421579119E+04 0.  0.
        1    1    3    3  502    0 -0.15095254739E+03 -0.28671099546E+03 -0.11499398457E+04  0.11947181740E+04  0.50400001928E-02 0. -1.
       -1    1    3    3    0  502  0.15095254739E+03  0.28671099546E+03  0.81287042847E+03  0.87507039716E+03  0.50400001928E-02 0.  1.
</event>
<event>
 5   0  0.1210633E-04  0.1523722E+04  0.7818609E-02  0.8868830E-01
        1   -1    0    0  501    0  0.00000000000E+00  0.00000000000E+00  0.65156427925E+03  0.65156427927E+03  0.50400001928E-02 0. -1.
       -1   -1    0    0    0  501  0.00000000000E+00  0.00000000000E+00 -0.89082821357E+03  0.89082821358E+03  0.50400001928E-02 0.  1.
    10030    2    1    2    0    0  0.00000000000E+00  0.00000000000E+00 -0.23926393431E+03  0.15423924929E+04  0.15237215532E+04 0.  0.
        2    1    3    3  502    0 -0.25588476499E+03 -0.25063548473E+03  0.56101852728E+03  0.66561020659E+03  0.25500000920E-02 0. -1.
       -2    1    3    3    0  502  0.25588476499E+03  0.25063548473E+03 -0.80028246159E+03  0.87678228626E+03  0.25500000920E-02 0.  1.
</event>
<event>
 5   0  0.1231056E-04  0.1939469E+04  0.7818609E-02  0.8635456E-01
       -1   -1    0    0    0  501  0.00000000000E+00  0.00000000000E+00  0.11040113936E+04  0.11040113936E+04  0.50400001928E-02 0. -1.
        1   -1    0    0  501    0  0.00000000000E+00  0.00000000000E+00 -0.85178909747E+03  0.85178909749E+03  0.50400001928E-02 0.  1.
    10030    2    1    2    0    0  0.00000000000E+00  0.00000000000E+00  0.25222229615E+03  0.19558004911E+04  0.19394688640E+04 0.  0.
        3    1    3    3  502    0 -0.79031964116E+03 -0.85678428367E+02 -0.43393824764E+03  0.90567562695E+03  0.10100000352E+00 0.  1.
       -3    1    3    3    0  502  0.79031964116E+03  0.85678428367E+02  0.68616054379E+03  0.10501248642E+04  0.10100000352E+00 0. -1.
</event>
<event>
 5   0  0.2540506E-04  0.1972306E+04  0.7818609E-02  0.8619679E-01
        2   -1    0    0  501    0  0.00000000000E+00  0.00000000000E+00  0.76220385343E+03  0.76220385344E+03  0.25500000920E-02 0. -1.
       -2   -1    0    0    0  501  0.00000000000E+00  0.00000000000E+00 -0.12759020827E+04  0.12759020827E+04  0.25500000920E-02 0.  1.
    10030    2    1    2    0    0  0.00000000000E+00  0.00000000000E+00 -0.51369822928E+03  0.20381059362E+04  0.19723057411E+04 0.  0.
        4    1    3    3  502    0  0.56880520922E+03 -0.78443808924E+03 -0.44630524714E+03  0.10668047940E+04  0.12699999809E+01 0.  1.
       -4    1    3    3    0  502 -0.56880520922E+03  0.78443808924E+03 -0.67392982143E+02  0.97130114220E+03  0.12699999809E+01 0. -1.
</event>
<event>
 5   0  0.2540506E-04  0.1987599E+04  0.7818609E-02  0.8612440E-01
       -2   -1    0    0    0  501  0.00000000000E+00  0.00000000000E+00  0.86352814738E+03  0.86352814739E+03  0.25500000920E-02 0. -1.
        2   -1    0    0  501    0  0.00000000000E+00  0.00000000000E+00 -0.11437239682E+04  0.11437239682E+04  0.25500000920E-02 0.  1.
    10030    2    1    2    0    0  0.00000000000E+00  0.00000000000E+00 -0.28019582084E+03  0.20072521156E+04  0.19875993957E+04 0.  0.
        4    1    3    3  502    0  0.41254479336E+03  0.85967322768E+02  0.76883052221E+03  0.87674715391E+03  0.12699999809E+01 0. -1.
       -4    1    3    3    0  502 -0.41254479336E+03 -0.85967322768E+02 -0.10490263431E+04  0.11305049617E+04  0.12699999809E+01 0.  1.
</event>
<event>
 5   0  0.1210633E-04  0.1946818E+04  0.7818609E-02  0.8631896E-01
        1   -1    0    0  501    0  0.00000000000E+00  0.00000000000E+00  0.93862317572E+03  0.93862317573E+03  0.50400001928E-02 0.  1.
       -1   -1    0    0    0  501  0.00000000000E+00  0.00000000000E+00 -0.10094844493E+04  0.10094844493E+04  0.50400001928E-02 0. -1.
    10030    2    1    2    0    0  0.00000000000E+00  0.00000000000E+00 -0.70861273541E+02  0.19481076250E+04  0.19468184298E+04 0.  0.
        2    1    3    3  502    0  0.58617233607E+03 -0.23737161030E+03  0.70504736794E+03  0.94711935890E+03  0.25500000920E-02 0.  1.
       -2    1    3    3    0  502 -0.58617233607E+03  0.23737161030E+03 -0.77590864148E+03  0.10009882661E+04  0.25500000920E-02 0. -1.
</event>
<event>
 5   0  0.2540506E-04  0.1906091E+04  0.7818609E-02  0.8651830E-01
       -2   -1    0    0    0  501  0.00000000000E+00  0.00000000000E+00  0.99244547828E+03  0.99244547828E+03  0.25500000920E-02 0.  1.
        2   -1    0    0  501    0  0.00000000000E+00  0.00000000000E+00 -0.91521011569E+03  0.91521011569E+03  0.25500000920E-02 0. -1.
    10030    2    1    2    0    0  0.00000000000E+00  0.00000000000E+00  0.77235362595E+02  0.19076555940E+04  0.19060914364E+04 0.  0.
        4    1    3    3  502    0  0.26988078550E+01  0.92361041360E+03  0.27382340380E+03  0.96335058471E+03  0.12699999809E+01 0.  1.
       -4    1    3    3    0  502 -0.26988078550E+01 -0.92361041360E+03 -0.19658804121E+03  0.94430500927E+03  0.12699999809E+01 0. -1.
</event>
<event>
 5   0  0.2421737E-04  0.2272909E+04  0.7818609E-02  0.8488680E-01
       -2   -1    0    0    0  501  0.00000000000E+00  0.00000000000E+00  0.70734290536E+03  0.70734290537E+03  0.25500000920E-02 0.  1.
        2   -1    0    0  501    0  0.00000000000E+00  0.00000000000E+00 -0.18258877763E+04  0.18258877763E+04  0.25500000920E-02 0. -1.
    10030    2    1    2    0    0  0.00000000000E+00  0.00000000000E+00 -0.11185448710E+04  0.25332306817E+04  0.22729089419E+04 0.  0.
        1    1    3    3  502    0  0.53732546672E+02  0.10349433687E+02  0.70587378448E+03  0.70799159387E+03  0.50400001928E-02 0.  1.
       -1    1    3    3    0  502 -0.53732546672E+02 -0.10349433687E+02 -0.18244186554E+04  0.18252390878E+04  0.50400001928E-02 0. -1.
</event>
<event>
 5   0  0.2540506E-04  0.1975644E+04  0.7818609E-02  0.8618093E-01
        2   -1    0    0  501    0  0.00000000000E+00  0.00000000000E+00  0.11066529831E+04  0.11066529831E+04  0.25500000920E-02 0. -1.
       -2   -1    0    0    0  501  0.00000000000E+00  0.00000000000E+00 -0.88175107474E+03  0.88175107475E+03  0.25500000920E-02 0.  1.
    10030    2    1    2    0    0  0.00000000000E+00  0.00000000000E+00  0.22490190831E+03  0.19884040578E+04  0.19756441554E+04 0.  0.
        4    1    3    3  502    0  0.73644509525E+03 -0.52946029116E+03 -0.28137060800E+03  0.94965815437E+03  0.12699999809E+01 0.  1.
       -4    1    3    3    0  502 -0.73644509525E+03  0.52946029116E+03  0.50627251631E+03  0.10387459034E+04  0.12699999809E+01 0. -1.
</event>
<event>
 5   0  0.1231056E-04  0.1976800E+04  0.7818609E-02  0.8617545E-01
        1   -1    0    0  501    0  0.00000000000E+00  0.00000000000E+00  0.85154747968E+03  0.85154747969E+03  0.50400001928E-02 0.  1.
       -1   -1    0    0    0  501  0.00000000000E+00  0.00000000000E+00 -0.11472460796E+04  0.11472460796E+04  0.50400001928E-02 0. -1.
    10030    2    1    2    0    0  0.00000000000E+00  0.00000000000E+00 -0.29569859992E+03  0.19987935593E+04  0.19767999471E+04 0.  0.
        3    1    3    3  502    0 -0.55399839537E+03  0.60805932702E+03 -0.70192794341E+03  0.10813663649E+04  0.10100000352E+00 0. -1.
       -3    1    3    3    0  502  0.55399839537E+03 -0.60805932702E+03  0.40622934350E+03  0.91742719437E+03  0.10100000352E+00 0.  1.
</event>
<event>
 5   0  0.2596061E-04  0.1884726E+04  0.7818609E-02  0.8662497E-01
        2   -1    0    0  501    0  0.00000000000E+00  0.00000000000E+00  0.13635139106E+04  0.13635139106E+04  0.25500000920E-02 0. -1.
       -2   -1    0    0    0  501  0.00000000000E+00  0.00000000000E+00 -0.65129397723E+03  0.65129397724E+03  0.25500000920E-02 0.  1.
    10030    2    1    2    0    0  0.00000000000E+00  0.00000000000E+00  0.71221993335E+03  0.20148078878E+04  0.18847263970E+04 0.  0.
        5    1    3    3  502    0 -0.57321006973E+03  0.33530822572E+03  0.10708550805E+04  0.12600611428E+04  0.46999998093E+01 0. -1.
       -5    1    3    3    0  502  0.57321006973E+03 -0.33530822572E+03 -0.35863514716E+03  0.75474674498E+03  0.46999998093E+01 0.  1.
</event>
<event>
 5   0  0.1231056E-04  0.1963692E+04  0.7818609E-02  0.8623787E-01
       -1   -1    0    0    0  501  0.00000000000E+00  0.00000000000E+00  0.67863172840E+03  0.67863172842E+03  0.50400001928E-02 0. -1.
        1   -1    0    0  501    0  0.00000000000E+00  0.00000000000E+00 -0.14205364387E+04  0.14205364387E+04  0.50400001928E-02 0.  1.
    10030    2    1    2    0    0  0.00000000000E+00  0.00000000000E+00 -0.74190471033E+03  0.20991681671E+04  0.19636915223E+04 0.  0.
        3    1    3    3  502    0  0.49180280314E+03 -0.65505152136E+03  0.20774460197E+03  0.84505640205E+03  0.10100000352E+00 0. -1.
       -3    1    3    3    0  502 -0.49180280314E+03  0.65505152136E+03 -0.94964931230E+03  0.12541117651E+04  0.10100000352E+00 0.  1.
</event>
<event>
 5   0  0.1231056E-04  0.2005588E+04  0.7818609E-02  0.8604012E-01
        1   -1    0    0  501    0  0.00000000000E+00  0.00000000000E+00  0.12463282793E+04  0.12463282793E+04  0.50400001928E-02 0. -1.
       -1   -1    0    0    0  501  0.00000000000E+00  0.00000000000E+00 -0.80684690161E+03  0.80684690163E+03  0.50400001928E-02 0.  1.
    10030    2    1    2    0    0  0.00000000000E+00  0.00000000000E+00  0.43948137771E+03  0.20531751810E+04  0.20055883033E+04 0.  0.
        3    1    3    3  502    0  0.79567765234E+03 -0.38534555830E+03  0.70425894012E+03  0.11302985405E+04  0.10100000352E+00 0. -1.
       -3    1    3    3    0  502 -0.79567765234E+03  0.38534555830E+03 -0.26477756241E+03  0.92287664045E+03  0.10100000352E+00 0.  1.
</event>
<event>
 5   0  0.2488886E-04  0.1950850E+04  0.7818609E-02  0.8629951E-01
       -2   -1    0    0    0  501  0.00000000000E+00  0.00000000000E+00  0.97949718325E+03  0.97949718325E+03  0.25500000920E-02 0.  1.
        2   -1    0    0  501    0  0.00000000000E+00  0.00000000000E+00 -0.97136985554E+03  0.97136985554E+03  0.25500000920E-02 0. -1.
    10030    2    1    2    0    0  0.00000000000E+00  0.00000000000E+00  0.81273277078E+01  0.19508670388E+04  0.19508501095E+04 0.  0.
        3    1    3    3  502    0 -0.16365678607E+03  0.96023064790E+03  0.55324096965E+02  0.97564707077E+03  0.10100000352E+00 0. -1.
       -3    1    3    3    0  502  0.16365678607E+03 -0.96023064790E+03 -0.47196769258E+02  0.97521996802E+03  0.10100000352E+00 0.  1.
</event>
<event>
 5   0  0.1207228E-04  0.1883316E+04  0.7818609E-02  0.8663206E-01
        1   -1    0    0  501    0  0.00000000000E+00  0.00000000000E+00  0.95787928131E+03  0.95787928132E+03  0.50400001928E-02 0.  1.
       -1   -1    0    0    0  501  0.00000000000E+00  0.00000000000E+00 -0.92571144760E+03  0.92571144761E+03  0.50400001928E-02 0. -1.
    10030    2    1    2    0    0  0.00000000000E+00  0.00000000000E+00  0.32167833710E+02  0.18835907289E+04  0.18833160289E+04 0.  0.
        1    1    3    3  502    0 -0.14391479864E+02 -0.67878250305E+03  0.66868734054E+03  0.95294048112E+03  0.50400001928E-02 0.  1.
       -1    1    3    3    0  502  0.14391479864E+02  0.67878250305E+03 -0.63651950683E+03  0.93065024781E+03  0.50400001928E-02 0. -1.
</event>
<event>
 5   0  0.1258546E-04  0.2014161E+04  0.7818609E-02  0.8600028E-01
        1   -1    0    0  501    0  0.00000000000E+00  0.00000000000E+00  0.90137843741E+03  0.90137843742E+03  0.50400001928E-02 0. -1.
       -1   -1    0    0    0  501  0.00000000000E+00  0.00000000000E+00 -0.11251784193E+04  0.11251784193E+04  0.50400001928E-02 0.  1.
    10030    2    1    2    0    0  0.00000000000E+00  0.00000000000E+00 -0.22379998191E+03  0.20265568568E+04  0.20141614289E+04 0.  0.
        4    1    3    3  502    0 -0.10941096190E+03 -0.67853615607E+03  0.62871959227E+03  0.93148913696E+03  0.12699999809E+01 0. -1.
       -4    1    3    3    0  502  0.10941096190E+03  0.67853615607E+03 -0.85251957418E+03  0.10950677198E+04  0.12699999809E+01 0.  1.
</event>
<event>
 5   0  0.1324930E-04  0.1973054E+04  0.7818609E-02  0.8619323E-01
        1   -1    0    0  501    0  0.00000000000E+00  0.00000000000E+00  0.11515248413E+04  0.11515248413E+04  0.50400001928E-02 0. -1.
       -1   -1    0    0    0  501  0.00000000000E+00  0.00000000000E+00 -0.84517110839E+03  0.84517110840E+03  0.50400001928E-02 0.  1.
    10030    2    1    2    0    0  0.00000000000E+00  0.00000000000E+00  0.30635373288E+03  0.19966959497E+04  0.19730540048E+04 0.  0.
        5    1    3    3  502    0  0.24064010374E+03 -0.62313424718E+03 -0.58147600601E+03  0.88562993688E+03  0.46999998093E+01 0.  1.
       -5    1    3    3    0  502 -0.24064010374E+03  0.62313424718E+03  0.88782973889E+03  0.11110660128E+04  0.46999998093E+01 0. -1.
</event>
<event>
 5   0  0.1258546E-04  0.1981422E+04  0.7818609E-02  0.8615356E-01
        1   -1    0    0  501    0  0.00000000000E+00  0.00000000000E+00  0.20671467658E+04  0.20671467658E+04  0.50400001928E-02 0.  1.
       -1   -1    0    0    0  501  0.00000000000E+00  0.00000000000E+00 -0.47481304997E+03  0.47481305000E+03  0.50400001928E-02 0. -1.
    10030    2    1    2    0    0  0.00000000000E+00  0.00000000000E+00  0.15923337158E+04  0.25419598158E+04  0.19814219749E+04 0.  0.
        4    1    3    3  502    0  0.72420900351E+03  0.50654037742E+03  0.22180033800E+03  0.91118540241E+03  0.12699999809E+01 0. -1.
       -4    1    3    3    0  502 -0.72420900351E+03 -0.50654037742E+03  0.13705333778E+04  0.16307744134E+04  0.12699999809E+01 0.  1.
</event>
<event>
 5   0  0.1207228E-04  0.2055607E+04  0.7818609E-02  0.8581055E-01
        1   -1    0    0  501    0  0.00000000000E+00  0.00000000000E+00  0.13961662926E+04  0.13961662926E+04  0.50400001928E-02 0.  1.
       -1   -1    0    0    0  501  0.00000000000E+00  0.00000000000E+00 -0.75662914447E+03  0.75662914449E+03  0.50400001928E-02 0. -1.
    10030    2    1    2    0    0  0.00000000000E+00  0.00000000000E+00  0.63953714813E+03  0.21527954371E+04  0.20556070710E+04 0.  0.
        1    1    3    3  502    0 -0.44138002752E+03 -0.35238324398E+03 -0.57954517388E+03  0.80923599026E+03  0.50400001928E-02 0. -1.
       -1    1    3    3    0  502  0.44138002752E+03  0.35238324398E+03  0.12190823220E+04  0.13435594468E+04  0.50400001928E-02 0.  1.
</event>
<event>
 5   0  0.2540506E-04  0.1650216E+04  0.7818609E-02  0.8790279E-01
       -2   -1    0    0    0  501  0.00000000000E+00  0.00000000000E+00  0.26171033643E+03  0.26171033645E+03  0.25500000920E-02 0. -1.
        2   -1    0    0  501    0  0.00000000000E+00  0.00000000000E+00 -0.26013611661E+04  0.26013611661E+04  0.25500000920E-02 0.  1.
    10030    2    1    2    0    0  0.00000000000E+00  0.00000000000E+00 -0.23396508297E+04  0.28630715026E+04  0.16502158719E+04 0.  0.
        4    1    3    3  502    0 -0.49870619149E+03 -0.41472145455E+03 -0.28499224289E+03  0.70846590723E+03  0.12699999809E+01 0. -1.
       -4    1    3    3    0  502  0.49870619149E+03  0.41472145455E+03 -0.20546585868E+04  0.21546055953E+04  0.12699999809E+01 0.  1.
</event>
<event>
 5   0  0.1258546E-04  0.1792828E+04  0.7818609E-02  0.8710123E-01
       -1   -1    0    0    0  501  0.00000000000E+00  0.00000000000E+00  0.74043486141E+03  0.74043486142E+03  0.50400001928E-02 0.  1.
        1   -1    0    0  501    0  0.00000000000E+00  0.00000000000E+00 -0.10852515395E+04  0.10852515395E+04  0.50400001928E-02 0. -1.
    10030    2    1    2    0    0  0.00000000000E+00  0.00000000000E+00 -0.34481667807E+03  0.18256864009E+04  0.17928280155E+04 0.  0.
        4    1    3    3  502    0  0.50403233929E+02  0.10572616014E+03  0.73260827082E+03  0.74191306653E+03  0.12699999809E+01 0.  1.
       -4    1    3    3    0  502 -0.50403233929E+02 -0.10572616014E+03 -0.10774249489E+04  0.10837733344E+04  0.12699999809E+01 0. -1.
</event>
<event>
 5   0  0.1207228E-04  0.1972883E+04  0.7818609E-02  0.8619405E-01
       -1   -1    0    0    0  501  0.00000000000E+00  0.00000000000E+00  0.12028242333E+04  0.12028242333E+04  0.50400001928E-02 0. -1.
        1   -1    0    0  501    0  0.00000000000E+00  0.00000000000E+00 -0.80898470214E+03  0.80898470216E+03  0.50400001928E-02 0.  1.
    10030    2    1    2    0    0  0.00000000000E+00  0.00000000000E+00  0.39383953117E+03  0.20118089355E+04  0.19728825653E+04 0.  0.
        1    1    3    3  502    0 -0.19828005349E+03 -0.26089731973E+03  0.11456990560E+04  0.11916411867E+04  0.50400001928E-02 0. -1.
       -1    1    3    3    0  502  0.19828005349E+03  0.26089731973E+03 -0.75185952479E+03  0.82016774875E+03  0.50400001928E-02 0.  1.
</event>
<event>
 5   0  0.1231056E-04  0.2006163E+04  0.7818609E-02  0.8603745E-01
        1   -1    0    0  501    0  0.00000000000E+00  0.00000000000E+00  0.75847240767E+03  0.75847240769E+03  0.50400001928E-02 0.  1.
       -1   -1    0    0    0  501  0.00000000000E+00  0.00000000000E+00 -0.13265772505E+04  0.13265772505E+04  0.50400001928E-02 0. -1.
    10030    2    1    2    0    0  0.00000000000E+00  0.00000000000E+00 -0.56810484286E+03  0.20850496582E+04  0.20061627463E+04 0.  0.
        3    1    3    3  502    0  0.29109201181E+03  0.95005453185E+03 -0.14141870611E+03  0.10036620116E+04  0.10100000352E+00 0. -1.
       -3    1    3    3    0  502 -0.29109201181E+03 -0.95005453185E+03 -0.42668613675E+03  0.10813876467E+04  0.10100000352E+00 0.  1.
</event>
<event>
 5   0  0.1231056E-04  0.2091494E+04  0.7818609E-02  0.8565000E-01
        1   -1    0    0  501    0  0.00000000000E+00  0.00000000000E+00  0.21716704021E+04  0.21716704021E+04  0.50400001928E-02 0.  1.
       -1   -1    0    0    0  501  0.00000000000E+00  0.00000000000E+00 -0.50356941157E+03  0.50356941159E+03  0.50400001928E-02 0. -1.
    10030    2    1    2    0    0  0.00000000000E+00  0.00000000000E+00  0.16681009905E+04  0.26752398137E+04  0.20914939986E+04 0.  0.
        3    1    3    3  502    0 -0.44490153759E+03  0.44426524089E+03  0.19029089871E+04  0.20040887220E+04  0.10100000352E+00 0.  1.
       -3    1    3    3    0  502  0.44490153759E+03 -0.44426524089E+03 -0.23480799655E+03  0.67115109168E+03  0.10100000352E+00 0. -1.
</event>
<event>
 5   0  0.2540506E-04  0.2050482E+04  0.7818609E-02  0.8583376E-01
       -2   -1    0    0    0  501  0.00000000000E+00  0.00000000000E+00  0.14314251641E+04  0.14314251641E+04  0.25500000920E-02 0. -1.
        2   -1    0    0  501    0  0.00000000000E+00  0.00000000000E+00 -0.73431627858E+03  0.73431627858E+03  0.25500000920E-02 0.  1.
    10030    2    1    2    0    0  0.00000000000E+00  0.00000000000E+00  0.69710888547E+03  0.21657414426E+04  0.20504816991E+04 0.  0.
        4    1    3    3  502    0 -0.71096503289E+03  0.31936699465E+03  0.10520660407E+04  0.13093170442E+04  0.12699999809E+01 0. -1.
       -4    1    3    3    0  502  0.71096503289E+03 -0.31936699465E+03 -0.35495715526E+03  0.85642439844E+03  0.12699999809E+01 0.  1.
</event>
<event>
 5   0  0.1210633E-04  0.1985246E+04  0.7818609E-02  0.8613550E-01
        1   -1    0    0  501    0  0.00000000000E+00  0.00000000000E+00  0.11959203780E+04  0.11959203780E+04  0.50400001928E-02 0.  1.
       -1   -1    0    0    0  501  0.00000000000E+00  0.00000000000E+00 -0.82388427712E+03  0.82388427713E+03  0.50400001928E-02 0. -1.
    10030    2    1    2    0    0  0.00000000000E+00  0.00000000000E+00  0.37203610083E+03  0.20198046551E+04  0.19852455728E+04 0.  0.
        2    1    3    3  502    0  0.69102560664E+03  0.74438506194E+02  0.90704561764E+03  0.11427113514E+04  0.25500000920E-02 0.  1.
       -2    1    3    3    0  502 -0.69102560664E+03 -0.74438506194E+02 -0.53500951681E+03  0.87709330365E+03  0.25500000920E-02 0. -1.
</event>
<event>
 5   0  0.1258546E-04  0.1993838E+04  0.7818609E-02  0.8609507E-01
        1   -1    0    0  501    0  0.00000000000E+00  0.00000000000E+00  0.58241814769E+03  0.58241814771E+03  0.50400001928E-02 0. -1.
       -1   -1    0    0    0  501  0.00000000000E+00  0.00000000000E+00 -0.17064163198E+04  0.17064163198E+04  0.50400001928E-02 0.  1.
    10030    2    1    2    0    0  0.00000000000E+00  0.00000000000E+00 -0.11239981721E+04  0.22888344675E+04  0.19938383407E+04 0.  0.
        4    1    3    3  502    0 -0.72760472937E+03 -0.48695642530E+03 -0.11093107256E+04  0.14131903980E+04  0.12699999809E+01 0.  1.
       -4    1    3    3    0  502  0.72760472937E+03  0.48695642530E+03 -0.14687446500E+02  0.87564406943E+03  0.12699999809E+01 0. -1.
</event>
<event>
 5   0  0.2540506E-04  0.1996445E+04  0.7818609E-02  0.8608284E-01
        2   -1    0    0  501    0  0.00000000000E+00  0.00000000000E+00  0.82378724416E+03  0.82378724416E+03  0.25500000920E-02 0.  1.
       -2   -1    0    0    0  501  0.00000000000E+00  0.00000000000E+00 -0.12095943058E+04  0.12095943058E+04  0.25500000920E-02 0. -1.
    10030    2    1    2    0    0  0.00000000000E+00  0.00000000000E+00 -0.38580706168E+03  0.20333815500E+04  0.19964452006E+04 0.  0.
        4    1    3    3  502    0  0.40941755039E+03 -0.79432254381E+03  0.26015856608E+03  0.93072827752E+03  0.12699999809E+01 0.  1.
       -4    1    3    3    0  502 -0.40941755039E+03  0.79432254381E+03 -0.64596562776E+03  0.11026532725E+04  0.12699999809E+01 0. -1.
</event>
<event>
 5   0  0.2596061E-04  0.1986416E+04  0.7818609E-02  0.8612998E-01
       -2   -1    0    0    0  501  0.00000000000E+00  0.00000000000E+00  0.14492023661E+04  0.14492023661E+04  0.25500000920E-02 0.  1.
        2   -1    0    0  501    0  0.00000000000E+00  0.00000000000E+00 -0.68069337194E+03  0.68069337195E+03  0.25500000920E-02 0. -1.
    10030    2    1    2    0    0  0.00000000000E+00  0.00000000000E+00  0.76850899414E+03  0.21298957380E+04  0.19864163161E+04 0.  0.
        5    1    3    3  502    0  0.51704910786E+03 -0.72769801515E+03  0.85108264874E+03  0.12333888058E+04  0.46999998093E+01 0.  1.
       -5    1    3    3    0  502 -0.51704910786E+03  0.72769801515E+03 -0.82573654592E+02  0.89650693228E+03  0.46999998093E+01 0. -1.
</event>
<event>
 5   0  0.1258546E-04  0.1989763E+04  0.7818609E-02  0.8611422E-01
       -1   -1    0    0    0  501  0.00000000000E+00  0.00000000000E+00  0.10058741017E+04  0.10058741017E+04  0.50400001928E-02 0.  1.
        1   -1    0    0  501    0  0.00000000000E+00  0.00000000000E+00 -0.98400908398E+03  0.98400908400E+03  0.50400001928E-02 0. -1.
    10030    2    1    2    0    0  0.00000000000E+00  0.00000000000E+00  0.21865017709E+02  0.19898831857E+04  0.19897630547E+04 0.  0.
        4    1    3    3  502    0 -0.38077542408E+03  0.90555005507E+03  0.16834853911E+03  0.99667129453E+03  0.12699999809E+01 0.  1.
       -4    1    3    3    0  502  0.38077542408E+03 -0.90555005507E+03 -0.14648352140E+03  0.99321189117E+03  0.12699999809E+01 0. -1.
</event>
<event>
 5   0  0.2540506E-04  0.2026404E+04  0.7818609E-02  0.8594374E-01
        2   -1    0    0  501    0  0.00000000000E+00  0.00000000000E+00  0.13878614395E+04  0.13878614395E+04  0.25500000920E-02 0. -1.
       -2   -1    0    0    0  501  0.00000000000E+00  0.00000000000E+00 -0.73968378931E+03  0.73968378931E+03  0.25500000920E-02 0.  1.
    10030    2    1    2    0    0  0.00000000000E+00  0.00000000000E+00  0.64817765015E+03  0.21275452288E+04  0.20264043117E+04 0.  0.
        4    1    3    3  502    0 -0.48417358670E+03  0.75061262862E+03 -0.17804294219E+03  0.91079321608E+03  0.12699999809E+01 0.  1.
       -4    1    3    3    0  502  0.48417358670E+03 -0.75061262862E+03  0.82622059234E+03  0.12167520127E+04  0.12699999809E+01 0. -1.
</event>
<event>
 5   0  0.2488886E-04  0.1950092E+04  0.7818609E-02  0.8630317E-01
        2   -1    0    0  501    0  0.00000000000E+00  0.00000000000E+00  0.22667891867E+04  0.22667891867E+04  0.25500000920E-02 0. -1.
       -2   -1    0    0    0  501  0.00000000000E+00  0.00000000000E+00 -0.41941008465E+03  0.41941008466E+03  0.25500000920E-02 0.  1.
    10030    2    1    2    0    0  0.00000000000E+00  0.00000000000E+00  0.18473791021E+04  0.26861992714E+04  0.19500915309E+04 0.  0.
        3    1    3    3  502    0  0.73334027496E+03 -0.20367168515E+03  0.17632074788E+04  0.19204610742E+04  0.10100000352E+00 0. -1.
       -3    1    3    3    0  502 -0.73334027496E+03  0.20367168515E+03  0.84171623295E+02  0.76573819715E+03  0.10100000352E+00 0.  1.
</event>
<event>
 5   0  0.1324930E-04  0.2130032E+04  0.7818609E-02  0.8548128E-01
       -1   -1    0    0    0  501  0.00000000000E+00  0.00000000000E+00  0.94446961858E+03  0.94446961859E+03  0.50400001928E-02 0.  1.
        1   -1    0    0  501    0  0.00000000000E+00  0.00000000000E+00 -0.12009480217E+04  0.12009480217E+04  0.50400001928E-02 0. -1.
    10030    2    1    2    0    0  0.00000000000E+00  0.00000000000E+00 -0.25647840308E+03  0.21454176403E+04  0.21300318495E+04 0.  0.
        5    1    3    3  502    0  0.21963036083E+01 -0.57064083455E+03  0.77747858972E+03  0.96443290761E+03  0.46999998093E+01 0.  1.
       -5    1    3    3    0  502 -0.21963036083E+01  0.57064083455E+03 -0.10339569928E+04  0.11809847327E+04  0.46999998093E+01 0. -1.
</event>
<event>
 5   0  0.2463085E-04  0.2063951E+04  0.7818609E-02  0.8577291E-01
       -2   -1    0    0    0  501  0.00000000000E+00  0.00000000000E+00  0.66085605764E+03  0.66085605765E+03  0.25500000920E-02 0.  1.
        2   -1    0    0  501    0  0.00000000000E+00  0.00000000000E+00 -0.16115064206E+04  0.16115064206E+04  0.25500000920E-02 0. -1.
    10030    2    1    2    0    0  0.00000000000E+00  0.00000000000E+00 -0.95065036292E+03  0.22723624782E+04  0.20639513366E+04 0.  0.
        2    1    3    3  502    0  0.97961050447E+03 -0.61852301422E+02 -0.12454469988E+03  0.98943106376E+03  0.25500000920E-02 0.  1.
       -2    1    3    3    0  502 -0.97961050447E+03  0.61852301422E+02 -0.82610566304E+03  0.12829314144E+04  0.25500000920E-02 0. -1.
</event>
<event>
 5   0  0.9099125E-05  0.1692188E+04  0.7818609E-02  0.8765833E-01
        3   -1    0    0  501    0  0.00000000000E+00  0.00000000000E+00  0.72504674415E+03  0.72504675118E+03  0.10100000352E+00 0.  1.
       -3   -1    0    0    0  501  0.00000000000E+00  0.00000000000E+00 -0.98734972178E+03  0.98734972694E+03  0.10100000352E+00 0. -1.
    10030    2    1    2    0    0  0.00000000000E+00  0.00000000000E+00 -0.26230297763E+03  0.17123964781E+04  0.16921875919E+04 0.  0.
        2    1    3    3  502    0  0.13556005162E+03  0.68161304400E+03 -0.61951395879E+03  0.93100505610E+03  0.25500000920E-02 0. -1.
       -2    1    3    3    0  502 -0.13556005162E+03 -0.68161304400E+03  0.35721098116E+03  0.78139142202E+03  0.25500000920E-02 0.  1.
</event>
<event>
 5   0  0.2463085E-04  0.1995819E+04  0.7818609E-02  0.8608578E-01
       -2   -1    0    0    0  501  0.00000000000E+00  0.00000000000E+00  0.45774033714E+03  0.45774033714E+03  0.25500000920E-02 0. -1.
        2   -1    0    0  501    0  0.00000000000E+00  0.00000000000E+00 -0.21755194938E+04  0.21755194938E+04  0.25500000920E-02 0.  1.
    10030    2    1    2    0    0  0.00000000000E+00  0.00000000000E+00 -0.17177791566E+04  0.26332598309E+04  0.19958186556E+04 0.  0.
        2    1    3    3  502    0  0.62074974559E+02  0.71279876664E+03 -0.17766829185E+04  0.19153426787E+04  0.25500000920E-02 0.  1.
       -2    1    3    3    0  502 -0.62074974559E+02 -0.71279876664E+03  0.58903761858E+02  0.71791715216E+03  0.25500000920E-02 0. -1.
</event>
<event>
 5   0  0.1231056E-04  0.1984153E+04  0.7818609E-02  0.8614066E-01
       -1   -1    0    0    0  501  0.00000000000E+00  0.00000000000E+00  0.11538363980E+04  0.11538363980E+04  0.50400001928E-02 0.  1.
        1   -1    0    0  501    0  0.00000000000E+00  0.00000000000E+00 -0.85299398307E+03  0.85299398308E+03  0.50400001928E-02 0. -1.
    10030    2    1    2    0    0  0.00000000000E+00  0.00000000000E+00  0.30084241490E+03  0.20068303811E+04  0.19841527209E+04 0.  0.
        3    1    3    3  502    0  0.35637613082E+03  0.31088169514E+03  0.10324920916E+04  0.11356457654E+04  0.10100000352E+00 0.  1.
       -3    1    3    3    0  502 -0.35637613082E+03 -0.31088169514E+03 -0.73164967670E+03  0.87118461569E+03  0.10100000352E+00 0. -1.
</event>
<event>
 5   0  0.2421737E-04  0.1989676E+04  0.7818609E-02  0.8611463E-01
       -2   -1    0    0    0  501  0.00000000000E+00  0.00000000000E+00  0.85923365635E+03  0.85923365636E+03  0.25500000920E-02 0.  1.
        2   -1    0    0  501    0  0.00000000000E+00  0.00000000000E+00 -0.11518436549E+04  0.11518436549E+04  0.25500000920E-02 0. -1.
    10030    2    1    2    0    0  0.00000000000E+00  0.00000000000E+00 -0.29260999855E+03  0.20110773113E+04  0.19896761899E+04 0.  0.
        1    1    3    3  502    0  0.17643745420E+03 -0.56961548838E+03 -0.95118096183E+03  0.11226474077E+04  0.50400001928E-02 0. -1.
       -1    1    3    3    0  502 -0.17643745420E+03  0.56961548838E+03  0.65857096327E+03  0.88842990356E+03  0.50400001928E-02 0.  1.
</event>
<event>
 5   0  0.1210633E-04  0.2153643E+04  0.7818609E-02  0.8537975E-01
       -1   -1    0    0    0  501  0.00000000000E+00  0.00000000000E+00  0.49703647710E+03  0.49703647712E+03  0.50400001928E-02 0.  1.
        1   -1    0    0  501    0  0.00000000000E+00  0.00000000000E+00 -0.23329162924E+04  0.23329162925E+04  0.50400001928E-02 0. -1.
    10030    2    1    2    0    0  0.00000000000E+00  0.00000000000E+00 -0.18358798154E+04  0.28299527696E+04  0.21536429559E+04 0.  0.
        2    1    3    3  502    0 -0.19992257709E+03 -0.95916795391E+03 -0.33091624473E+03  0.10341555790E+04  0.25500000920E-02 0.  1.
       -2    1    3    3    0  502  0.19992257709E+03  0.95916795391E+03 -0.15049635706E+04  0.17957971905E+04  0.25500000920E-02 0. -1.
</event>
<event>
 5   0  0.1207228E-04  0.1996814E+04  0.7818609E-02  0.8608112E-01
        1   -1    0    0  501    0  0.00000000000E+00  0.00000000000E+00  0.85918221232E+03  0.85918221233E+03  0.50400001928E-02 0. -1.
       -1   -1    0    0    0  501  0.00000000000E+00  0.00000000000E+00 -0.11601918618E+04  0.11601918618E+04  0.50400001928E-02 0.  1.
    10030    2    1    2    0    0  0.00000000000E+00  0.00000000000E+00 -0.30100964944E+03  0.20193740741E+04  0.19968136724E+04 0.  0.
        1    1    3    3  502    0  0.81076396150E+03  0.30121924339E+03  0.35387347591E+03  0.93450397047E+03  0.50400001928E-02 0. -1.
       -1    1    3    3    0  502 -0.81076396150E+03 -0.30121924339E+03 -0.65488312535E+03  0.10848701036E+04  0.50400001928E-02 0.  1.
</event>
<event>
 5   0  0.2463085E-04  0.2047941E+04  0.7818609E-02  0.8584529E-01
        2   -1    0    0  501    0  0.00000000000E+00  0.00000000000E+00  0.13121819689E+04  0.13121819689E+04  0.25500000920E-02 0. -1.
       -2   -1    0    0    0  501  0.00000000000E+00  0.00000000000E+00 -0.79906297268E+03  0.79906297269E+03  0.25500000920E-02 0.  1.
    10030    2    1    2    0    0  0.00000000000E+00  0.00000000000E+00  0.51311899617E+03  0.21112449415E+04  0.20479414296E+04 0.  0.
        2    1    3    3  502    0  0.71316844481E+03 -0.46085370060E+03  0.84654377919E+03  0.11990128165E+04  0.25500000920E-02 0.  1.
       -2    1    3    3    0  502 -0.71316844481E+03  0.46085370060E+03 -0.33342478302E+03  0.91223212505E+03  0.25500000920E-02 0. -1.
</event>
<event>
 5   0  0.1231056E-04  0.2009575E+04  0.7818609E-02  0.8602157E-01
        1   -1    0    0  501    0  0.00000000000E+00  0.00000000000E+00  0.12276006155E+04  0.12276006155E+04  0.50400001928E-02 0. -1.
       -1   -1    0    0    0  501  0.00000000000E+00  0.00000000000E+00 -0.82241546222E+03  0.82241546224E+03  0.50400001928E-02 0.  1.
    10030    2    1    2    0    0  0.00000000000E+00  0.00000000000E+00  0.40518515327E+03  0.20500160777E+04  0.20095748084E+04 0.  0.
        3    1    3    3  502    0 -0.42708025900E+03  0.35282485700E+03  0.10577432389E+04  0.11940283485E+04  0.10100000352E+00 0. -1.
       -3    1    3    3    0  502  0.42708025900E+03 -0.35282485700E+03 -0.65255808562E+03  0.85598772927E+03  0.10100000352E+00 0.  1.
</event>
<event>
 5   0  0.2540506E-04  0.2002104E+04  0.7818609E-02  0.8605637E-01
        2   -1    0    0  501    0  0.00000000000E+00  0.00000000000E+00  0.15478035367E+04  0.15478035367E+04  0.25500000920E-02 0.  1.
       -2   -1    0    0    0  501  0.00000000000E+00  0.00000000000E+00 -0.64743719619E+03  0.64743719620E+03  0.25500000920E-02 0. -1.
    10030    2    1    2    0    0  0.00000000000E+00  0.00000000000E+00  0.90036634046E+03  0.21952407329E+04  0.20021044748E+04 0.  0.
        4    1    3    3  502    0  0.34996995949E+03  0.75969852786E+03 -0.15285666981E+03  0.85028677526E+03  0.12699999809E+01 0. -1.
       -4    1    3    3    0  502 -0.34996995949E+03 -0.75969852786E+03  0.10532230103E+04  0.13449539576E+04  0.12699999809E+01 0.  1.
</event>
<event>
 5   0  0.2488886E-04  0.2014131E+04  0.7818609E-02  0.8600042E-01
       -2   -1    0    0    0  501  0.00000000000E+00  0.00000000000E+00  0.64216960131E+03  0.64216960131E+03  0.25500000920E-02 0. -1.
        2   -1    0    0  501    0  0.00000000000E+00  0.00000000000E+00 -0.15793043602E+04  0.15793043602E+04  0.25500000920E-02 0.  1.
    10030    2    1    2    0    0  0.00000000000E+00  0.00000000000E+00 -0.93713475893E+03  0.22214739615E+04  0.20141313278E+04 0.  0.
        3    1    3    3  502    0  0.61145605815E+03 -0.78073706655E+03 -0.27515124962E+03  0.10291438668E+04  0.10100000352E+00 0.  1.
       -3    1    3    3    0  502 -0.61145605815E+03  0.78073706655E+03 -0.66198350931E+03  0.11923300948E+04  0.10100000352E+00 0. -1.
</event>
<event>
 5   0  0.2596061E-04  0.1989061E+04  0.7818609E-02  0.8611752E-01
        2   -1    0    0  501    0  0.00000000000E+00  0.00000000000E+00  0.11916750770E+04  0.11916750770E+04  0.25500000920E-02 0. -1.
       -2   -1    0    0    0  501  0.00000000000E+00  0.00000000000E+00 -0.83000035778E+03  0.83000035778E+03  0.25500000920E-02 0.  1.
    10030    2    1    2    0    0  0.00000000000E+00  0.00000000000E+00  0.36167471926E+03  0.20216754348E+04  0.19890608239E+04 0.  0.
        5    1    3    3  502    0  0.84441547723E+03  0.47890304409E+03  0.40044268746E+03  0.10501247829E+04  0.46999998093E+01 0.  1.
       -5    1    3    3    0  502 -0.84441547723E+03 -0.47890304409E+03 -0.38767968197E+02  0.97155065188E+03  0.46999998093E+01 0. -1.
</event>
<event>
 5   0  0.1258546E-04  0.2083233E+04  0.7818609E-02  0.8568666E-01
       -1   -1    0    0    0  501  0.00000000000E+00  0.00000000000E+00  0.13823541343E+04  0.13823541343E+04  0.50400001928E-02 0.  1.
        1   -1    0    0  501    0  0.00000000000E+00  0.00000000000E+00 -0.78486740359E+03  0.78486740360E+03  0.50400001928E-02 0. -1.
    10030    2    1    2    0    0  0.00000000000E+00  0.00000000000E+00  0.59748673067E+03  0.21672215379E+04  0.20832327765E+04 0.  0.
        4    1    3    3  502    0 -0.54430405864E+03  0.77112154666E+03 -0.15954853484E+03  0.95726312780E+03  0.12699999809E+01 0. -1.
       -4    1    3    3    0  502  0.54430405864E+03 -0.77112154666E+03  0.75703526551E+03  0.12099584101E+04  0.12699999809E+01 0.  1.
</event>
<event>
 5   0  0.1231056E-04  0.1976452E+04  0.7818609E-02  0.8617710E-01
       -1   -1    0    0    0  501  0.00000000000E+00  0.00000000000E+00  0.80842412457E+03  0.80842412458E+03  0.50400001928E-02 0.  1.
        1   -1    0    0  501    0  0.00000000000E+00  0.00000000000E+00 -0.12080174417E+04  0.12080174417E+04  0.50400001928E-02 0. -1.
    10030    2    1    2    0    0  0.00000000000E+00  0.00000000000E+00 -0.39959331716E+03  0.20164415663E+04  0.19764518135E+04 0.  0.
        3    1    3    3  502    0 -0.87335839673E+03  0.46175015212E+03 -0.17434515521E+03  0.10031771207E+04  0.10100000352E+00 0.  1.
       -3    1    3    3    0  502  0.87335839673E+03 -0.46175015212E+03 -0.22524816195E+03  0.10132644456E+04  0.10100000352E+00 0. -1.
</event>
<event>
 5   0  0.1324930E-04  0.1982966E+04  0.7818609E-02  0.8614626E-01
       -1   -1    0    0    0  501  0.00000000000E+00  0.00000000000E+00  0.85601198080E+03  0.85601198081E+03  0.50400001928E-02 0.  1.
        1   -1    0    0  501    0  0.00000000000E+00  0.00000000000E+00 -0.11483931710E+04  0.11483931711E+04  0.50400001928E-02 0. -1.
    10030    2    1    2    0    0  0.00000000000E+00  0.00000000000E+00 -0.29238119025E+03  0.20044051519E+04  0.19829657719E+04 0.  0.
        5    1    3    3  502    0  0.64306117255E+03 -0.31971054016E+03 -0.83715547159E+03  0.11029931436E+04  0.46999998093E+01 0. -1.
       -5    1    3    3    0  502 -0.64306117255E+03  0.31971054016E+03  0.54477428134E+03  0.90141200831E+03  0.46999998093E+01 0.  1.
</event>
<event>
 5   0  0.2463085E-04  0.2023988E+04  0.7818609E-02  0.8595487E-01
       -2   -1    0    0    0  501  0.00000000000E+00  0.00000000000E+00  0.57021351241E+03  0.57021351242E+03  0.25500000920E-02 0.  1.
        2   -1    0    0  501    0  0.00000000000E+00  0.00000000000E+00 -0.17960505655E+04  0.17960505655E+04  0.25500000920E-02 0. -1.
    10030    2    1    2    0    0  0.00000000000E+00  0.00000000000E+00 -0.12258370531E+04  0.23662640779E+04  0.20239884401E+04 0.  0.
        2    1    3    3  502    0 -0.65896649415E+03 -0.16409019403E+03 -0.14901167810E+04  0.16375623510E+04  0.25500000920E-02 0. -1.
       -2    1    3    3    0  502  0.65896649415E+03  0.16409019403E+03  0.26427972798E+03  0.72870172692E+03  0.25500000920E-02 0.  1.
</event>
<event>
 5   0  0.2540506E-04  0.2230303E+04  0.7818609E-02  0.8505920E-01
       -2   -1    0    0    0  501  0.00000000000E+00  0.00000000000E+00  0.19783329065E+04  0.19783329065E+04  0.25500000920E-02 0. -1.
        2   -1    0    0  501    0  0.00000000000E+00  0.00000000000E+00 -0.62859153131E+03  0.62859153131E+03  0.25500000920E-02 0.  1.
    10030    2    1    2    0    0  0.00000000000E+00  0.00000000000E+00  0.13497413752E+04  0.26069244378E+04  0.22303033974E+04 0.  0.
        4    1    3    3  502    0  0.54022666553E+03  0.97116011599E+03  0.78304523024E+03  0.13594698476E+04  0.12699999809E+01 0.  1.
       -4    1    3    3    0  502 -0.54022666553E+03 -0.97116011599E+03  0.56669614494E+03  0.12474545902E+04  0.12699999809E+01 0. -1.
</event>
<event>
 5   0  0.2596061E-04  0.1984426E+04  0.7818609E-02  0.8613937E-01
        2   -1    0    0  501    0  0.00000000000E+00  0.00000000000E+00  0.96602276077E+03  0.96602276077E+03  0.25500000920E-02 0.  1.
       -2   -1    0    0    0  501  0.00000000000E+00  0.00000000000E+00 -0.10191133636E+04  0.10191133637E+04  0.25500000920E-02 0. -1.
    10030    2    1    2    0    0  0.00000000000E+00  0.00000000000E+00 -0.53090602879E+02  0.19851361244E+04  0.19844260683E+04 0.  0.
        5    1    3    3  502    0  0.60365060509E+03 -0.12597012915E+03  0.75103720246E+03  0.97177234780E+03  0.46999998093E+01 0.  1.
       -5    1    3    3    0  502 -0.60365060509E+03  0.12597012915E+03 -0.80412780534E+03  0.10133637766E+04  0.46999998093E+01 0. -1.
</event>
<event>
 5   0  0.2540506E-04  0.2029248E+04  0.7818609E-02  0.8593067E-01
       -2   -1    0    0    0  501  0.00000000000E+00  0.00000000000E+00  0.43732593672E+03  0.43732593673E+03  0.25500000920E-02 0. -1.
        2   -1    0    0  501    0  0.00000000000E+00  0.00000000000E+00 -0.23539919919E+04  0.23539919919E+04  0.25500000920E-02 0.  1.
    10030    2    1    2    0    0  0.00000000000E+00  0.00000000000E+00 -0.19166660552E+04  0.27913179286E+04  0.20292478931E+04 0.  0.
        4    1    3    3  502    0 -0.46692913630E+03 -0.69753035668E+03 -0.17428707000E+03  0.85729167294E+03  0.12699999809E+01 0. -1.
       -4    1    3    3    0  502  0.46692913630E+03  0.69753035668E+03 -0.17423789852E+04  0.19340262557E+04  0.12699999809E+01 0.  1.
</event>
<event>
 5   0  0.2463085E-04  0.1926708E+04  0.7818609E-02  0.8641675E-01
        2   -1    0    0  501    0  0.00000000000E+00  0.00000000000E+00  0.10224757805E+04  0.10224757805E+04  0.25500000920E-02 0.  1.
       -2   -1    0    0    0  501  0.00000000000E+00  0.00000000000E+00 -0.90765084985E+03  0.90765084985E+03  0.25500000920E-02 0. -1.
    10030    2    1    2    0    0  0.00000000000E+00  0.00000000000E+00  0.11482493064E+03  0.19301266303E+04  0.19267080849E+04 0.  0.
        2    1    3    3  502    0 -0.27787558954E+03  0.49918746039E+03 -0.71962353231E+03  0.91883676033E+03  0.25500000920E-02 0. -1.
       -2    1    3    3    0  502  0.27787558954E+03 -0.49918746039E+03  0.83444846295E+03  0.10112898700E+04  0.25500000920E-02 0.  1.
</event>
<event>
 5   0  0.2596061E-04  0.2025080E+04  0.7818609E-02  0.8594984E-01
       -2   -1    0    0    0  501  0.00000000000E+00  0.00000000000E+00  0.46935965295E+03  0.46935965295E+03  0.25500000920E-02 0.  1.
        2   -1    0    0  501    0  0.00000000000E+00  0.00000000000E+00 -0.21843308299E+04  0.21843308299E+04  0.25500000920E-02 0. -1.
    10030    2    1    2    0    0  0.00000000000E+00  0.00000000000E+00 -0.17149711770E+04  0.26536904829E+04  0.20250795148E+04 0.  0.
        5    1    3    3  502    0 -0.40613804438E+03  0.79968365070E+03 -0.14732020861E+04  0.17247575275E+04  0.46999998093E+01 0. -1.
       -5    1    3    3    0  502  0.40613804438E+03 -0.79968365070E+03 -0.24176909092E+03  0.92893295539E+03  0.46999998093E+01 0.  1.
</event>
<event>
 5   0  0.2596061E-04  0.1994095E+04  0.7818609E-02  0.8609386E-01
        2   -1    0    0  501    0  0.00000000000E+00  0.00000000000E+00  0.65392649213E+03  0.65392649214E+03  0.25500000920E-02 0.  1.
       -2   -1    0    0    0  501  0.00000000000E+00  0.00000000000E+00 -0.15202071017E+04  0.15202071017E+04  0.25500000920E-02 0. -1.
    10030    2    1    2    0    0  0.00000000000E+00  0.00000000000E+00 -0.86628060961E+03  0.21741335939E+04  0.19940949800E+04 0.  0.
        5    1    3    3  502    0 -0.59437891899E+03  0.66053908334E+03 -0.92616587539E+03  0.12835121732E+04  0.46999998093E+01 0. -1.
       -5    1    3    3    0  502  0.59437891899E+03 -0.66053908334E+03  0.59885265782E+02  0.89062142070E+03  0.46999998093E+01 0.  1.
</event>
<event>
 5   0  0.1210633E-04  0.1897689E+04  0.7818609E-02  0.8656008E-01
       -1   -1    0    0    0  501  0.00000000000E+00  0.00000000000E+00  0.89592066220E+03  0.89592066221E+03  0.50400001928E-02 0. -1.
        1   -1    0    0  501    0  0.00000000000E+00  0.00000000000E+00 -0.10048942417E+04  0.10048942417E+04  0.50400001928E-02 0.  1.
    10030    2    1    2    0    0  0.00000000000E+00  0.00000000000E+00 -0.10897357951E+03  0.19008149039E+04  0.18976886093E+04 0.  0.
        2    1    3    3  502    0 -0.47428341818E+03 -0.63601206183E+03  0.46680252795E+03  0.92052197348E+03  0.25500000920E-02 0.  1.
       -2    1    3    3    0  502  0.47428341818E+03  0.63601206183E+03 -0.57577610746E+03  0.98029293045E+03  0.25500000920E-02 0. -1.
</event>
<event>
 5   0  0.1210633E-04  0.1873344E+04  0.7818609E-02  0.8668240E-01
       -1   -1    0    0    0  501  0.00000000000E+00  0.00000000000E+00  0.43552588701E+03  0.43552588704E+03  0.50400001928E-02 0. -1.
        1   -1    0    0  501    0  0.00000000000E+00  0.00000000000E+00 -0.20144708269E+04  0.20144708269E+04  0.50400001928E-02 0.  1.
    10030    2    1    2    0    0  0.00000000000E+00  0.00000000000E+00 -0.15789449399E+04  0.24499967139E+04  0.18733437418E+04 0.  0.
        2    1    3    3  502    0 -0.13600214946E+03 -0.28904699197E+03 -0.19410298037E+04  0.19671404238E+04  0.25500000920E-02 0.  1.
       -2    1    3    3    0  502  0.13600214946E+03  0.28904699197E+03  0.36208486385E+03  0.48285629007E+03  0.25500000920E-02 0. -1.
</event>
<event>
 5   0  0.9099125E-05  0.2016092E+04  0.7818609E-02  0.8599134E-01
        4   -1    0    0  501    0  0.00000000000E+00  0.00000000000E+00  0.96567235283E+03  0.96567318795E+03  0.12699999809E+01 0. -1.
       -4   -1    0    0    0  501  0.00000000000E+00  0.00000000000E+00 -0.10522777081E+04  0.10522784745E+04  0.12699999809E+01 0.  1.
    10030    2    1    2    0    0  0.00000000000E+00  0.00000000000E+00 -0.86605355259E+02  0.20179516624E+04  0.20160923650E+04 0.  0.
        2    1    3    3  502    0  0.73207485361E+03 -0.39436978846E+02  0.64919391397E+03  0.97925563798E+03  0.25500000920E-02 0. -1.
       -2    1    3    3    0  502 -0.73207485361E+03  0.39436978846E+02 -0.73579926923E+03  0.10386960244E+04  0.25500000920E-02 0.  1.
</event>
<event>
 5   0  0.1324930E-04  0.2005556E+04  0.7818609E-02  0.8604027E-01
        1   -1    0    0  501    0  0.00000000000E+00  0.00000000000E+00  0.88053516754E+03  0.88053516756E+03  0.50400001928E-02 0.  1.
       -1   -1    0    0    0  501  0.00000000000E+00  0.00000000000E+00 -0.11419914760E+04  0.11419914760E+04  0.50400001928E-02 0. -1.
    10030    2    1    2    0    0  0.00000000000E+00  0.00000000000E+00 -0.26145630847E+03  0.20225266436E+04  0.20055559386E+04 0.  0.
        5    1    3    3  502    0  0.20951998841E+03  0.97823568355E+03 -0.61607031764E+02  0.10023278877E+04  0.46999998093E+01 0. -1.
       -5    1    3    3    0  502 -0.20951998841E+03 -0.97823568355E+03 -0.19984927671E+03  0.10201987559E+04  0.46999998093E+01 0.  1.
</event>
<event>
 5   0  0.2488886E-04  0.2036469E+04  0.7818609E-02  0.8589758E-01
        2   -1    0    0  501    0  0.00000000000E+00  0.00000000000E+00  0.82647937213E+03  0.82647937213E+03  0.25500000920E-02 0. -1.
       -2   -1    0    0    0  501  0.00000000000E+00  0.00000000000E+00 -0.12544795872E+04  0.12544795872E+04  0.25500000920E-02 0.  1.
    10030    2    1    2    0    0  0.00000000000E+00  0.00000000000E+00 -0.42800021505E+03  0.20809589593E+04  0.20364690045E+04 0.  0.
        3    1    3    3  502    0  0.62371311773E+03  0.41349058376E+03  0.49159883561E+03  0.89535576251E+03  0.10100000352E+00 0. -1.
       -3    1    3    3    0  502 -0.62371311773E+03 -0.41349058376E+03 -0.91959905066E+03  0.11856031968E+04  0.10100000352E+00 0.  1.
</event>
<event>
 5   0  0.1207228E-04  0.1712691E+04  0.7818609E-02  0.8754159E-01
        1   -1    0    0  501    0  0.00000000000E+00  0.00000000000E+00  0.18173759368E+04  0.18173759368E+04  0.50400001928E-02 0. -1.
       -1   -1    0    0    0  501  0.00000000000E+00  0.00000000000E+00 -0.40350907124E+03  0.40350907127E+03  0.50400001928E-02 0.  1.
    10030    2    1    2    0    0  0.00000000000E+00  0.00000000000E+00  0.14138668655E+04  0.22208850080E+04  0.17126910712E+04 0.  0.
        1    1    3    3  502    0 -0.12529830393E+03 -0.80507773564E+03  0.10487319915E+04  0.13280393878E+04  0.50400001928E-02 0. -1.
       -1    1    3    3    0  502  0.12529830393E+03  0.80507773564E+03  0.36513487399E+03  0.89284562026E+03  0.50400001928E-02 0.  1.
</event>
<event>
 5   0  0.1210633E-04  0.1948295E+04  0.7818609E-02  0.8631183E-01
       -1   -1    0    0    0  501  0.00000000000E+00  0.00000000000E+00  0.15164754229E+04  0.15164754229E+04  0.50400001928E-02 0.  1.
        1   -1    0    0  501    0  0.00000000000E+00  0.00000000000E+00 -0.62576911452E+03  0.62576911454E+03  0.50400001928E-02 0. -1.
    10030    2    1    2    0    0  0.00000000000E+00  0.00000000000E+00  0.89070630833E+03  0.21422445374E+04  0.19482951343E+04 0.  0.
        2    1    3    3  502    0  0.70439866298E+03 -0.44559387479E+03  0.99976116226E+03  0.13016350330E+04  0.25500000920E-02 0.  1.
       -2    1    3    3    0  502 -0.70439866298E+03  0.44559387479E+03 -0.10905485393E+03  0.84060950437E+03  0.25500000920E-02 0. -1.
</event>
<event>
 5   0  0.1324930E-04  0.2031589E+04  0.7818609E-02  0.8591992E-01
        1   -1    0    0  501    0  0.00000000000E+00  0.00000000000E+00  0.10860145068E+04  0.10860145068E+04  0.50400001928E-02 0. -1.
       -1   -1    0    0    0  501  0.00000000000E+00  0.00000000000E+00 -0.95011500819E+03  0.95011500820E+03  0.50400001928E-02 0.  1.
    10030    2    1    2    0    0  0.00000000000E+00  0.00000000000E+00  0.13589949864E+03  0.20361295150E+04  0.20315892125E+04 0.  0.
        5    1    3    3  502    0 -0.74983777357E+03 -0.67822350769E+03  0.16600898822E+03  0.10246096267E+04  0.46999998093E+01 0. -1.
       -5    1    3    3    0  502  0.74983777357E+03  0.67822350769E+03 -0.30109489582E+02  0.10115198883E+04  0.46999998093E+01 0.  1.
</event>
<event>
 5   0  0.2463085E-04  0.2003541E+04  0.7818609E-02  0.8604967E-01
       -2   -1    0    0    0  501  0.00000000000E+00  0.00000000000E+00  0.75615369061E+03  0.75615369061E+03  0.25500000920E-02 0.  1.
        2   -1    0    0  501    0  0.00000000000E+00  0.00000000000E+00 -0.13271692738E+04  0.13271692738E+04  0.25500000920E-02 0. -1.
    10030    2    1    2    0    0  0.00000000000E+00  0.00000000000E+00 -0.57101558322E+03  0.20833229644E+04  0.20035408101E+04 0.  0.
        2    1    3    3  502    0 -0.40436015483E+03  0.20041321823E+02  0.66729652295E+03  0.78050844899E+03  0.25500000920E-02 0.  1.
       -2    1    3    3    0  502  0.40436015483E+03 -0.20041321823E+02 -0.12383121062E+04  0.13028145155E+04  0.25500000920E-02 0. -1.
</event>
<event>
 5   0  0.2540506E-04  0.1793346E+04  0.7818609E-02  0.8709846E-01
        2   -1    0    0  501    0  0.00000000000E+00  0.00000000000E+00  0.52836552077E+03  0.52836552077E+03  0.25500000920E-02 0. -1.
       -2   -1    0    0    0  501  0.00000000000E+00  0.00000000000E+00 -0.15217161345E+04  0.15217161345E+04  0.25500000920E-02 0.  1.
    10030    2    1    2    0    0  0.00000000000E+00  0.00000000000E+00 -0.99335061371E+03  0.20500816553E+04  0.17933458538E+04 0.  0.
        4    1    3    3  502    0 -0.55430708489E+03  0.46415187415E+03 -0.11030110031E+04  0.13188359233E+04  0.12699999809E+01 0.  1.
       -4    1    3    3    0  502  0.55430708489E+03 -0.46415187415E+03  0.10966038939E+03  0.73124573198E+03  0.12699999809E+01 0. -1.
</event>
<event>
 5   0  0.1231056E-04  0.2003285E+04  0.7818609E-02  0.8605086E-01
        1   -1    0    0  501    0  0.00000000000E+00  0.00000000000E+00  0.10443217585E+04  0.10443217585E+04  0.50400001928E-02 0.  1.
       -1   -1    0    0    0  501  0.00000000000E+00  0.00000000000E+00 -0.96070777671E+03  0.96070777672E+03  0.50400001928E-02 0. -1.
    10030    2    1    2    0    0  0.00000000000E+00  0.00000000000E+00  0.83613981813E+02  0.20050295353E+04  0.20032853365E+04 0.  0.
        3    1    3    3  502    0 -0.53959268884E+03 -0.75343662872E+03  0.42221817144E+03  0.10183787202E+04  0.10100000352E+00 0.  1.
       -3    1    3    3    0  502  0.53959268884E+03  0.75343662872E+03 -0.33860418963E+03  0.98665081502E+03  0.10100000352E+00 0. -1.
</event>
<event>
 5   0  0.2463085E-04  0.1974953E+04  0.7818609E-02  0.8618421E-01
        2   -1    0    0  501    0  0.00000000000E+00  0.00000000000E+00  0.15535265277E+04  0.15535265277E+04  0.25500000920E-02 0. -1.
       -2   -1    0    0    0  501  0.00000000000E+00  0.00000000000E+00 -0.62767507976E+03  0.62767507976E+03  0.25500000920E-02 0.  1.
    10030    2    1    2    0    0  0.00000000000E+00  0.00000000000E+00  0.92585144793E+03  0.21812016075E+04  0.19749530498E+04 0.  0.
        2    1    3    3  502    0  0.40583094304E+03  0.89976719111E+03  0.49474668578E+03  0.11041078007E+04  0.25500000920E-02 0.  1.
       -2    1    3    3    0  502 -0.40583094304E+03 -0.89976719111E+03  0.43110476215E+03  0.10770938067E+04  0.25500000920E-02 0. -1.
</event>
<event>
 5   0  0.1324930E-04  0.1833315E+04  0.7818609E-02  0.8688781E-01
        1   -1    0    0  501    0  0.00000000000E+00  0.00000000000E+00  0.22838138334E+04  0.22838138334E+04  0.50400001928E-02 0. -1.
       -1   -1    0    0    0  501  0.00000000000E+00  0.00000000000E+00 -0.36792003548E+03  0.36792003551E+03  0.50400001928E-02 0.  1.
    10030    2    1    2    0    0  0.00000000000E+00  0.00000000000E+00  0.19158937979E+04  0.26517338689E+04  0.18333148847E+04 0.  0.
        5    1    3    3  502    0  0.84159099513E+03 -0.26313095757E+03  0.13202022778E+04  0.15875986420E+04  0.46999998093E+01 0. -1.
       -5    1    3    3    0  502 -0.84159099513E+03  0.26313095757E+03  0.59569152013E+03  0.10641352269E+04  0.46999998093E+01 0.  1.
</event>
<event>
 5   0  0.1258546E-04  0.2030983E+04  0.7818609E-02  0.8592270E-01
        1   -1    0    0  501    0  0.00000000000E+00  0.00000000000E+00  0.14078824611E+04  0.14078824611E+04  0.50400001928E-02 0.  1.
       -1   -1    0    0    0  501  0.00000000000E+00  0.00000000000E+00 -0.73246396257E+03  0.73246396259E+03  0.50400001928E-02 0. -1.
    10030    2    1    2    0    0  0.00000000000E+00  0.00000000000E+00  0.67541849856E+03  0.21403464237E+04  0.20309831770E+04 0.  0.
        4    1    3    3  502    0 -0.19157590072E+03 -0.73942701581E+03  0.10428961415E+04  0.12927055396E+04  0.12699999809E+01 0.  1.
       -4    1    3    3    0  502  0.19157590072E+03  0.73942701581E+03 -0.36747764290E+03  0.84764088409E+03  0.12699999809E+01 0. -1.
</event>
<event>
 5   0  0.1210633E-04  0.1987036E+04  0.7818609E-02  0.8612706E-01
       -1   -1    0    0    0  501  0.00000000000E+00  0.00000000000E+00  0.12018389285E+04  0.12018389285E+04  0.50400001928E-02 0.  1.
        1   -1    0    0  501    0  0.00000000000E+00  0.00000000000E+00 -0.82130606613E+03  0.82130606615E+03  0.50400001928E-02 0. -1.
    10030    2    1    2    0    0  0.00000000000E+00  0.00000000000E+00  0.38053286240E+03  0.20231449947E+04  0.19870355835E+04 0.  0.
        2    1    3    3  502    0  0.72687005192E+03  0.49959974742E+03  0.65589267241E+03  0.10991520267E+04  0.25500000920E-02 0.  1.
       -2    1    3    3    0  502 -0.72687005192E+03 -0.49959974742E+03 -0.27535981001E+03  0.92399296803E+03  0.25500000920E-02 0. -1.
</event>
<event>
 5   0  0.1324930E-04  0.1995645E+04  0.7818609E-02  0.8608659E-01
        1   -1    0    0  501    0  0.00000000000E+00  0.00000000000E+00  0.11187918523E+04  0.11187918523E+04  0.50400001928E-02 0. -1.
       -1   -1    0    0    0  501  0.00000000000E+00  0.00000000000E+00 -0.88993290777E+03  0.88993290778E+03  0.50400001928E-02 0.  1.
    10030    2    1    2    0    0  0.00000000000E+00  0.00000000000E+00  0.22885894454E+03  0.20087247601E+04  0.19956449447E+04 0.  0.
        5    1    3    3  502    0 -0.70410490399E+02 -0.89723807821E+03 -0.31924681128E+03  0.95495257613E+03  0.46999998093E+01 0.  1.
       -5    1    3    3    0  502  0.70410490399E+02  0.89723807821E+03  0.54810575581E+03  0.10537721840E+04  0.46999998093E+01 0. -1.
</event>
<event>
 5   0  0.1207228E-04  0.1356916E+04  0.7818609E-02  0.8985610E-01
        1   -1    0    0  501    0  0.00000000000E+00  0.00000000000E+00  0.18652891167E+04  0.18652891167E+04  0.50400001928E-02 0.  1.
       -1   -1    0    0    0  501  0.00000000000E+00  0.00000000000E+00 -0.24677405444E+03  0.24677405449E+03  0.50400001928E-02 0. -1.
    10030    2    1    2    0    0  0.00000000000E+00  0.00000000000E+00  0.16185150622E+04  0.21120631711E+04  0.13569155583E+04 0.  0.
        1    1    3    3  502    0  0.45809708656E+03  0.46926301550E+03  0.10799495285E+04  0.12634681249E+04  0.50400001928E-02 0.  1.
       -1    1    3    3    0  502 -0.45809708656E+03 -0.46926301550E+03  0.53856553367E+03  0.84859504624E+03  0.50400001928E-02 0. -1.
</event>
<event>
 5   0  0.2488886E-04  0.2015991E+04  0.7818609E-02  0.8599181E-01
        2   -1    0    0  501    0  0.00000000000E+00  0.00000000000E+00  0.16247659811E+04  0.16247659811E+04  0.25500000920E-02 0.  1.
       -2   -1    0    0    0  501  0.00000000000E+00  0.00000000000E+00 -0.62535465256E+03  0.62535465256E+03  0.25500000920E-02 0. -1.
    10030    2    1    2    0    0  0.00000000000E+00  0.00000000000E+00  0.99941132854E+03  0.22501206337E+04  0.20159910373E+04 0.  0.
        3    1    3    3  502    0  0.41744201109E+02  0.51242508171E+03 -0.46801271130E+03  0.69523949171E+03  0.10100000352E+00 0. -1.
       -3    1    3    3    0  502 -0.41744201109E+02 -0.51242508171E+03  0.14674240398E+04  0.15548811420E+04  0.10100000352E+00 0.  1.
</event>
<event>
 5   0  0.2488886E-04  0.1370421E+04  0.7818609E-02  0.8975512E-01
        2   -1    0    0  501    0  0.00000000000E+00  0.00000000000E+00  0.13677957677E+04  0.13677957677E+04  0.25500000920E-02 0. -1.
       -2   -1    0    0    0  501  0.00000000000E+00  0.00000000000E+00 -0.34326295798E+03  0.34326295799E+03  0.25500000920E-02 0.  1.
    10030    2    1    2    0    0  0.00000000000E+00  0.00000000000E+00  0.10245328097E+04  0.17110587257E+04  0.13704212800E+04 0.  0.
        3    1    3    3  502    0 -0.18020365039E+03  0.24960322086E+03 -0.25205315060E+03  0.39787677038E+03  0.10100000352E+00 0.  1.
       -3    1    3    3    0  502  0.18020365039E+03 -0.24960322086E+03  0.12765859603E+04  0.13131819553E+04  0.10100000352E+00 0. -1.
</event>
<event>
 5   0  0.1324930E-04  0.1866622E+04  0.7818609E-02  0.8671652E-01
       -1   -1    0    0    0  501  0.00000000000E+00  0.00000000000E+00  0.16492544953E+04  0.16492544954E+04  0.50400001928E-02 0. -1.
        1   -1    0    0  501    0  0.00000000000E+00  0.00000000000E+00 -0.52815929817E+03  0.52815929820E+03  0.50400001928E-02 0.  1.
    10030    2    1    2    0    0  0.00000000000E+00  0.00000000000E+00  0.11210951972E+04  0.21774137935E+04  0.18666216508E+04 0.  0.
        5    1    3    3  502    0 -0.90976480157E+03 -0.20628946811E+03  0.52715089096E+03  0.10715117781E+04  0.46999998093E+01 0. -1.
       -5    1    3    3    0  502  0.90976480157E+03  0.20628946811E+03  0.59394430621E+03  0.11059020154E+04  0.46999998093E+01 0.  1.
</event>
<event>
 5   0  0.1231056E-04  0.1994928E+04  0.7818609E-02  0.8608996E-01
        1   -1    0    0  501    0  0.00000000000E+00  0.00000000000E+00  0.88888413797E+03  0.88888413799E+03  0.50400001928E-02 0. -1.
       -1   -1    0    0    0  501  0.00000000000E+00  0.00000000000E+00 -0.11193072881E+04  0.11193072881E+04  0.50400001928E-02 0.  1.
    10030    2    1    2    0    0  0.00000000000E+00  0.00000000000E+00 -0.23042315015E+03  0.20081914261E+04  0.19949280628E+04 0.  0.
        3    1    3    3  502    0  0.63960730667E+03  0.28752774755E+03  0.59884559156E+03  0.92216363249E+03  0.10100000352E+00 0. -1.
       -3    1    3    3    0  502 -0.63960730667E+03 -0.28752774755E+03 -0.82926874171E+03  0.10860277936E+04  0.10100000352E+00 0.  1.
</event>
<event>
 5   0  0.1231056E-04  0.1925023E+04  0.7818609E-02  0.8642500E-01
       -1   -1    0    0    0  501  0.00000000000E+00  0.00000000000E+00  0.69226474220E+03  0.69226474222E+03  0.50400001928E-02 0. -1.
        1   -1    0    0  501    0  0.00000000000E+00  0.00000000000E+00 -0.13382570356E+04  0.13382570356E+04  0.50400001928E-02 0.  1.
    10030    2    1    2    0    0  0.00000000000E+00  0.00000000000E+00 -0.64599229340E+03  0.20305217778E+04  0.19250227653E+04 0.  0.
        3    1    3    3  502    0 -0.43165729516E+03 -0.41449370796E+03 -0.11181638577E+04  0.12682363649E+04  0.10100000352E+00 0.  1.
       -3    1    3    3    0  502  0.43165729516E+03  0.41449370796E+03  0.47217156431E+03  0.76228541291E+03  0.10100000352E+00 0. -1.
</event>
<event>
 5   0  0.2463085E-04  0.2006941E+04  0.7818609E-02  0.8603383E-01
       -2   -1    0    0    0  501  0.00000000000E+00  0.00000000000E+00  0.11731261866E+04  0.11731261866E+04  0.25500000920E-02 0. -1.
        2   -1    0    0  501    0  0.00000000000E+00  0.00000000000E+00 -0.85834990464E+03  0.85834990464E+03  0.25500000920E-02 0.  1.
    10030    2    1    2    0    0  0.00000000000E+00  0.00000000000E+00  0.31477628194E+03  0.20314760912E+04  0.20069407070E+04 0.  0.
        2    1    3    3  502    0 -0.58589372320E+03  0.35744447622E+03 -0.58362349109E+03  0.90091863552E+03  0.25500000920E-02 0.  1.
       -2    1    3    3    0  502  0.58589372320E+03 -0.35744447622E+03  0.89839977303E+03  0.11305574557E+04  0.25500000920E-02 0. -1.
</event>
<event>
 5   0  0.2463085E-04  0.1999611E+04  0.7818609E-02  0.8606803E-01
        2   -1    0    0  501    0  0.00000000000E+00  0.00000000000E+00  0.11759329073E+04  0.11759329073E+04  0.25500000920E-02 0.  1.
       -2   -1    0    0    0  501  0.00000000000E+00  0.00000000000E+00 -0.85005753081E+03  0.85005753081E+03  0.25500000920E-02 0. -1.
    10030    2    1    2    0    0  0.00000000000E+00  0.00000000000E+00  0.32587537649E+03  0.20259904381E+04  0.19996105857E+04 0.  0.
        2    1    3    3  502    0 -0.32876222379E+03 -0.69878065922E+03  0.80632019913E+03  0.11164816492E+04  0.25500000920E-02 0.  1.
       -2    1    3    3    0  502  0.32876222379E+03  0.69878065922E+03 -0.48044482264E+03  0.90950878890E+03  0.25500000920E-02 0. -1.
</event>
<event>
 5   0  0.1258546E-04  0.1982544E+04  0.7818609E-02  0.8614825E-01
        1   -1    0    0  501    0  0.00000000000E+00  0.00000000000E+00  0.22405910191E+04  0.22405910191E+04  0.50400001928E-02 0. -1.
       -1   -1    0    0    0  501  0.00000000000E+00  0.00000000000E+00 -0.43855419058E+03  0.43855419061E+03  0.50400001928E-02 0.  1.
    10030    2    1    2    0    0  0.00000000000E+00  0.00000000000E+00  0.18020368285E+04  0.26791452097E+04  0.19825444064E+04 0.  0.
        4    1    3    3  502    0  0.83024290109E+03 -0.54063890030E+03  0.85774780487E+03  0.13104680862E+04  0.12699999809E+01 0.  1.
       -4    1    3    3    0  502 -0.83024290109E+03  0.54063890030E+03  0.94428902366E+03  0.13686771235E+04  0.12699999809E+01 0. -1.
</event>
<event>
 5   0  0.2421737E-04  0.2012634E+04  0.7818609E-02  0.8600736E-01
       -2   -1    0    0    0  501  0.00000000000E+00  0.00000000000E+00  0.68944955134E+03  0.68944955134E+03  0.25500000920E-02 0. -1.
        2   -1    0    0  501    0  0.00000000000E+00  0.00000000000E+00 -0.14688154689E+04  0.14688154689E+04  0.25500000920E-02 0.  1.
    10030    2    1    2    0    0  0.00000000000E+00  0.00000000000E+00 -0.77936591757E+03  0.21582650203E+04  0.20126342599E+04 0.  0.
        1    1    3    3  502    0  0.30378846799E+03  0.80190803934E+01  0.63906719596E+03  0.70764300315E+03  0.50400001928E-02 0. -1.
       -1    1    3    3    0  502 -0.30378846799E+03 -0.80190803934E+01 -0.14184331135E+04  0.14506220171E+04  0.50400001928E-02 0.  1.
</event>
<event>
 5   0  0.2596061E-04  0.1989299E+04  0.7818609E-02  0.8611640E-01
        2   -1    0    0  501    0  0.00000000000E+00  0.00000000000E+00  0.85749162973E+03  0.85749162973E+03  0.25500000920E-02 0. -1.
       -2   -1    0    0    0  501  0.00000000000E+00  0.00000000000E+00 -0.11537460216E+04  0.11537460216E+04  0.25500000920E-02 0.  1.
    10030    2    1    2    0    0  0.00000000000E+00  0.00000000000E+00 -0.29625439184E+03  0.20112376513E+04  0.19892989281E+04 0.  0.
        5    1    3    3  502    0  0.57107947140E+03 -0.66747924744E+03  0.32354236144E+03  0.93614211425E+03  0.46999998093E+01 0. -1.
       -5    1    3    3    0  502 -0.57107947140E+03  0.66747924744E+03 -0.61979675328E+03  0.10750955371E+04  0.46999998093E+01 0.  1.
</event>
<event>
 5   0  0.2596061E-04  0.1375394E+04  0.7818609E-02  0.8971825E-01
       -2   -1    0    0    0  501  0.00000000000E+00  0.00000000000E+00  0.62132400819E+03  0.62132400820E+03  0.25500000920E-02 0. -1.
        2   -1    0    0  501    0  0.00000000000E+00  0.00000000000E+00 -0.76116004957E+03  0.76116004958E+03  0.25500000920E-02 0.  1.
    10030    2    1    2    0    0  0.00000000000E+00  0.00000000000E+00 -0.13983604138E+03  0.13824840578E+04  0.13753937805E+04 0.  0.
        5    1    3    3  502    0  0.15622446009E+02  0.33315723049E+03  0.53456984971E+03  0.63009905195E+03  0.46999998093E+01 0. -1.
       -5    1    3    3    0  502 -0.15622446009E+02 -0.33315723049E+03 -0.67440589110E+03  0.75238500582E+03  0.46999998093E+01 0.  1.
</event>
<event>
 5   0  0.2463085E-04  0.2158375E+04  0.7818609E-02  0.8535956E-01
        2   -1    0    0  501    0  0.00000000000E+00  0.00000000000E+00  0.14384017973E+04  0.14384017973E+04  0.25500000920E-02 0. -1.
       -2   -1    0    0    0  501  0.00000000000E+00  0.00000000000E+00 -0.80968056341E+03  0.80968056342E+03  0.25500000920E-02 0.  1.
    10030    2    1    2    0    0  0.00000000000E+00  0.00000000000E+00  0.62872123386E+03  0.22480823607E+04  0.21583752942E+04 0.  0.
        2    1    3    3  502    0  0.78414346621E+03  0.32722214421E+02 -0.45716520299E+03  0.90826854055E+03  0.25500000920E-02 0.  1.
       -2    1    3    3    0  502 -0.78414346621E+03 -0.32722214421E+02  0.10858864368E+04  0.13398138201E+04  0.25500000920E-02 0. -1.
</event>
<event>
 5   0  0.1324930E-04  0.1983945E+04  0.7818609E-02  0.8614164E-01
       -1   -1    0    0    0  501  0.00000000000E+00  0.00000000000E+00  0.13663144406E+04  0.13663144406E+04  0.50400001928E-02 0. -1.
        1   -1    0    0  501    0  0.00000000000E+00  0.00000000000E+00 -0.72019233381E+03  0.72019233383E+03  0.50400001928E-02 0.  1.
    10030    2    1    2    0    0  0.00000000000E+00  0.00000000000E+00  0.64612210679E+03  0.20865067744E+04  0.19839447429E+04 0.  0.
        5    1    3    3  502    0 -0.16716859834E+03 -0.53368883884E+03 -0.53857133886E+03  0.77643434623E+03  0.46999998093E+01 0.  1.
       -5    1    3    3    0  502  0.16716859834E+03  0.53368883884E+03  0.11846934456E+04  0.13100724282E+04  0.46999998093E+01 0. -1.
</event>
<event>
 5   0  0.2488886E-04  0.2123934E+04  0.7818609E-02  0.8550773E-01
        2   -1    0    0  501    0  0.00000000000E+00  0.00000000000E+00  0.27672217685E+04  0.27672217685E+04  0.25500000920E-02 0.  1.
       -2   -1    0    0    0  501  0.00000000000E+00  0.00000000000E+00 -0.40754745373E+03  0.40754745374E+03  0.25500000920E-02 0. -1.
    10030    2    1    2    0    0  0.00000000000E+00  0.00000000000E+00  0.23596743148E+04  0.31747692223E+04  0.21239342605E+04 0.  0.
        3    1    3    3  502    0  0.43855692952E+03 -0.46194855531E+03  0.24499823887E+04  0.25314308925E+04  0.10100000352E+00 0.  1.
       -3    1    3    3    0  502 -0.43855692952E+03  0.46194855531E+03 -0.90308073909E+02  0.64333832980E+03  0.10100000352E+00 0. -1.
</event>
<event>
 5   0  0.1231056E-04  0.1572172E+04  0.7818609E-02  0.8837829E-01
       -1   -1    0    0    0  501  0.00000000000E+00  0.00000000000E+00  0.31291964513E+03  0.31291964517E+03  0.50400001928E-02 0.  1.
        1   -1    0    0  501    0  0.00000000000E+00  0.00000000000E+00 -0.19747278183E+04  0.19747278183E+04  0.50400001928E-02 0. -1.
    10030    2    1    2    0    0  0.00000000000E+00  0.00000000000E+00 -0.16618081732E+04  0.22876474635E+04  0.15721719094E+04 0.  0.
        3    1    3    3  502    0 -0.56810814008E+03 -0.37469689436E+03 -0.14033778683E+04  0.15596839657E+04  0.10100000352E+00 0. -1.
       -3    1    3    3    0  502  0.56810814008E+03  0.37469689436E+03 -0.25843030494E+03  0.72796349783E+03  0.10100000352E+00 0.  1.
</event>
<event>
 5   0  0.2540506E-04  0.2012673E+04  0.7818609E-02  0.8600718E-01
        2   -1    0    0  501    0  0.00000000000E+00  0.00000000000E+00  0.25867819100E+04  0.25867819100E+04  0.25500000920E-02 0.  1.
       -2   -1    0    0    0  501  0.00000000000E+00  0.00000000000E+00 -0.39149534935E+03  0.39149534935E+03  0.25500000920E-02 0. -1.
    10030    2    1    2    0    0  0.00000000000E+00  0.00000000000E+00  0.21952865607E+04  0.29782772594E+04  0.20126729367E+04 0.  0.
        4    1    3    3  502    0 -0.53826029891E+03 -0.43537023190E+03  0.21784169180E+04  0.22857762948E+04  0.12699999809E+01 0.  1.
       -4    1    3    3    0  502  0.53826029891E+03  0.43537023190E+03  0.16869642650E+02  0.69250096458E+03  0.12699999809E+01 0. -1.
</event>
<event>
 5   0  0.1210633E-04  0.1934576E+04  0.7818609E-02  0.8637835E-01
       -1   -1    0    0    0  501  0.00000000000E+00  0.00000000000E+00  0.65142430562E+03  0.65142430564E+03  0.50400001928E-02 0. -1.
        1   -1    0    0  501    0  0.00000000000E+00  0.00000000000E+00 -0.14363080828E+04  0.14363080828E+04  0.50400001928E-02 0.  1.
    10030    2    1    2    0    0  0.00000000000E+00  0.00000000000E+00 -0.78488377718E+03  0.20877323884E+04  0.19345759179E+04 0.  0.
        2    1    3    3  502    0 -0.26210179121E+02  0.45881238705E+03  0.52608806738E+03  0.69854451157E+03  0.25500000920E-02 0. -1.
       -2    1    3    3    0  502  0.26210179121E+02 -0.45881238705E+03 -0.13109718446E+04  0.13891878769E+04  0.25500000920E-02 0.  1.
</event>
<event>
 5   0  0.1207228E-04  0.2147557E+04  0.7818609E-02  0.8540579E-01
       -1   -1    0    0    0  501  0.00000000000E+00  0.00000000000E+00  0.17235064463E+04  0.17235064464E+04  0.50400001928E-02 0. -1.
        1   -1    0    0  501    0  0.00000000000E+00  0.00000000000E+00 -0.66898496038E+03  0.66898496040E+03  0.50400001928E-02 0.  1.
    10030    2    1    2    0    0  0.00000000000E+00  0.00000000000E+00  0.10545214860E+04  0.23924914068E+04  0.21475566505E+04 0.  0.
        1    1    3    3  502    0  0.48564988148E+02  0.56468173154E+03 -0.48877483987E+03  0.74841489839E+03  0.50400001928E-02 0.  1.
       -1    1    3    3    0  502 -0.48564988148E+02 -0.56468173154E+03  0.15432963258E+04  0.16440765084E+04  0.50400001928E-02 0. -1.
</event>
<event>
 5   0  0.2596061E-04  0.2015007E+04  0.7818609E-02  0.8599637E-01
       -2   -1    0    0    0  501  0.00000000000E+00  0.00000000000E+00  0.49688436054E+03  0.49688436054E+03  0.25500000920E-02 0.  1.
        2   -1    0    0  501    0  0.00000000000E+00  0.00000000000E+00 -0.20428553241E+04  0.20428553241E+04  0.25500000920E-02 0. -1.
    10030    2    1    2    0    0  0.00000000000E+00  0.00000000000E+00 -0.15459709635E+04  0.25397396846E+04  0.20150065622E+04 0.  0.
        5    1    3    3  502    0 -0.57118657060E+03  0.53572942195E+03  0.25941803956E+02  0.78355292047E+03  0.46999998093E+01 0.  1.
       -5    1    3    3    0  502  0.57118657060E+03 -0.53572942195E+03 -0.15719127675E+04  0.17561867642E+04  0.46999998093E+01 0. -1.
</event>
<event>
 5   0  0.1324930E-04  0.1963738E+04  0.7818609E-02  0.8623764E-01
       -1   -1    0    0    0  501  0.00000000000E+00  0.00000000000E+00  0.84394924550E+03  0.84394924551E+03  0.50400001928E-02 0.  1.
        1   -1    0    0  501    0  0.00000000000E+00  0.00000000000E+00 -0.11423279750E+04  0.11423279750E+04  0.50400001928E-02 0. -1.
    10030    2    1    2    0    0  0.00000000000E+00  0.00000000000E+00 -0.29837872951E+03  0.19862772205E+04  0.19637381013E+04 0.  0.
        5    1    3    3  502    0  0.89839438765E+03  0.39600151268E+03 -0.16003949997E+03  0.99476851848E+03  0.46999998093E+01 0. -1.
       -5    1    3    3    0  502 -0.89839438765E+03 -0.39600151268E+03 -0.13833922954E+03  0.99150870205E+03  0.46999998093E+01 0.  1.
</event>
<event>
 5   0  0.2488886E-04  0.1264127E+04  0.7818609E-02  0.9058507E-01
       -2   -1    0    0    0  501  0.00000000000E+00  0.00000000000E+00  0.25311609528E+03  0.25311609529E+03  0.25500000920E-02 0.  1.
        2   -1    0    0  501    0  0.00000000000E+00  0.00000000000E+00 -0.15783444106E+04  0.15783444106E+04  0.25500000920E-02 0. -1.
    10030    2    1    2    0    0  0.00000000000E+00  0.00000000000E+00 -0.13252283153E+04  0.18314605059E+04  0.12641271680E+04 0.  0.
        3    1    3    3  502    0 -0.27667706290E+03 -0.52052547293E+02 -0.14824893914E+04  0.15089845827E+04  0.10100000352E+00 0. -1.
       -3    1    3    3    0  502  0.27667706290E+03  0.52052547293E+02  0.15726107610E+03  0.32247592324E+03  0.10100000352E+00 0.  1.
</event>
<event>
 5   0  0.2421737E-04  0.2082440E+04  0.7818609E-02  0.8569018E-01
       -2   -1    0    0    0  501  0.00000000000E+00  0.00000000000E+00  0.79678487484E+03  0.79678487484E+03  0.25500000920E-02 0.  1.
        2   -1    0    0  501    0  0.00000000000E+00  0.00000000000E+00 -0.13606419816E+04  0.13606419816E+04  0.25500000920E-02 0. -1.
    10030    2    1    2    0    0  0.00000000000E+00  0.00000000000E+00 -0.56385710674E+03  0.21574268564E+04  0.20824398680E+04 0.  0.
        1    1    3    3  502    0 -0.85177106464E+03 -0.25189354826E+02 -0.90179676103E+03  0.12407198912E+04  0.50400001928E-02 0. -1.
       -1    1    3    3    0  502  0.85177106464E+03  0.25189354826E+02  0.33793965428E+03  0.91670696524E+03  0.50400001928E-02 0.  1.
</event>
<event>
 5   0  0.1210633E-04  0.1911981E+04  0.7818609E-02  0.8648915E-01
        1   -1    0    0  501    0  0.00000000000E+00  0.00000000000E+00  0.79065104425E+03  0.79065104427E+03  0.50400001928E-02 0. -1.
       -1   -1    0    0    0  501  0.00000000000E+00  0.00000000000E+00 -0.11559056782E+04  0.11559056782E+04  0.50400001928E-02 0.  1.
    10030    2    1    2    0    0  0.00000000000E+00  0.00000000000E+00 -0.36525463397E+03  0.19465567225E+04  0.19119812045E+04 0.  0.
        2    1    3    3  502    0  0.38727036742E+03 -0.23977741169E+03  0.67307573262E+03  0.81271304067E+03  0.25500000920E-02 0. -1.
       -2    1    3    3    0  502 -0.38727036742E+03  0.23977741169E+03 -0.10383303666E+04  0.11338436818E+04  0.25500000920E-02 0.  1.
</event>
<event>
 5   0  0.1210633E-04  0.2082841E+04  0.7818609E-02  0.8568840E-01
       -1   -1    0    0    0  501  0.00000000000E+00  0.00000000000E+00  0.95215105981E+03  0.95215105982E+03  0.50400001928E-02 0.  1.
        1   -1    0    0  501    0  0.00000000000E+00  0.00000000000E+00 -0.11390596872E+04  0.11390596872E+04  0.50400001928E-02 0. -1.
    10030    2    1    2    0    0  0.00000000000E+00  0.00000000000E+00 -0.18690862737E+03  0.20912107470E+04  0.20828412214E+04 0.  0.
        2    1    3    3  502    0 -0.10024274531E+04 -0.27173713722E+03 -0.16628751172E+02  0.10387388439E+04  0.25500000920E-02 0.  1.
       -2    1    3    3    0  502  0.10024274531E+04  0.27173713722E+03 -0.17027987620E+03  0.10524719031E+04  0.25500000920E-02 0. -1.
</event>
<event>
 5   0  0.2488886E-04  0.2010420E+04  0.7818609E-02  0.8601764E-01
        2   -1    0    0  501    0  0.00000000000E+00  0.00000000000E+00  0.10268746552E+04  0.10268746552E+04  0.25500000920E-02 0.  1.
       -2   -1    0    0    0  501  0.00000000000E+00  0.00000000000E+00 -0.98400268843E+03  0.98400268843E+03  0.25500000920E-02 0. -1.
    10030    2    1    2    0    0  0.00000000000E+00  0.00000000000E+00  0.42871966751E+02  0.20108773436E+04  0.20104202758E+04 0.  0.
        3    1    3    3  502    0  0.37392745099E+03 -0.54381399238E+03 -0.73695273401E+03  0.98926980105E+03  0.10100000352E+00 0. -1.
       -3    1    3    3    0  502 -0.37392745099E+03  0.54381399238E+03  0.77982470076E+03  0.10216075426E+04  0.10100000352E+00 0.  1.
</event>
<event>
 5   0  0.2488886E-04  0.1878876E+04  0.7818609E-02  0.8665443E-01
       -2   -1    0    0    0  501  0.00000000000E+00  0.00000000000E+00  0.61483415576E+03  0.61483415576E+03  0.25500000920E-02 0. -1.
        2   -1    0    0  501    0  0.00000000000E+00  0.00000000000E+00 -0.14354176806E+04  0.14354176806E+04  0.25500000920E-02 0.  1.
    10030    2    1    2    0    0  0.00000000000E+00  0.00000000000E+00 -0.82058352487E+03  0.20502518364E+04  0.18788760660E+04 0.  0.
        3    1    3    3  502    0  0.27282084801E+03 -0.61646579077E+02 -0.13889283047E+04  0.14168109830E+04  0.10100000352E+00 0.  1.
       -3    1    3    3    0  502 -0.27282084801E+03  0.61646579077E+02  0.56834477980E+03  0.63344085340E+03  0.10100000352E+00 0. -1.
</event>
<event>
 5   0  0.1258546E-04  0.1993129E+04  0.7818609E-02  0.8609840E-01
       -1   -1    0    0    0  501  0.00000000000E+00  0.00000000000E+00  0.87219432820E+03  0.87219432821E+03  0.50400001928E-02 0. -1.
        1   -1    0    0  501    0  0.00000000000E+00  0.00000000000E+00 -0.11386686555E+04  0.11386686555E+04  0.50400001928E-02 0.  1.
    10030    2    1    2    0    0  0.00000000000E+00  0.00000000000E+00 -0.26647432734E+03  0.20108629838E+04  0.19931285388E+04 0.  0.
        4    1    3    3  502    0  0.12996198430E+03  0.98560406743E+03 -0.63097103961E+02  0.99613671378E+03  0.12699999809E+01 0.  1.
       -4    1    3    3    0  502 -0.12996198430E+03 -0.98560406743E+03 -0.20337722338E+03  0.10147262700E+04  0.12699999809E+01 0. -1.
</event>
<event>
 5   0  0.1258546E-04  0.2018113E+04  0.7818609E-02  0.8598199E-01
        1   -1    0    0  501    0  0.00000000000E+00  0.00000000000E+00  0.13452794667E+04  0.13452794667E+04  0.50400001928E-02 0. -1.
       -1   -1    0    0    0  501  0.00000000000E+00  0.00000000000E+00 -0.75686498228E+03  0.75686498229E+03  0.50400001928E-02 0.  1.
    10030    2    1    2    0    0  0.00000000000E+00  0.00000000000E+00  0.58841448446E+03  0.21021444490E+04  0.20181129005E+04 0.  0.
        4    1    3    3  502    0  0.93232160836E+03 -0.34416802516E+03  0.11223891049E+03  0.10001371890E+04  0.12699999809E+01 0.  1.
       -4    1    3    3    0  502 -0.93232160836E+03  0.34416802516E+03  0.47617557397E+03  0.11020072600E+04  0.12699999809E+01 0. -1.
</event>
<event>
 5   0  0.1207228E-04  0.1993895E+04  0.7818609E-02  0.8609480E-01
        1   -1    0    0  501    0  0.00000000000E+00  0.00000000000E+00  0.14348371020E+04  0.14348371020E+04  0.50400001928E-02 0.  1.
       -1   -1    0    0    0  501  0.00000000000E+00  0.00000000000E+00 -0.69269470302E+03  0.69269470303E+03  0.50400001928E-02 0. -1.
    10030    2    1    2    0    0  0.00000000000E+00  0.00000000000E+00  0.74214239895E+03  0.21275318050E+04  0.19938947417E+04 0.  0.
        1    1    3    3  502    0  0.48054697584E+02 -0.91166435721E+03 -0.56355020294E+02  0.91466772246E+03  0.50400001928E-02 0. -1.
       -1    1    3    3    0  502 -0.48054697584E+02  0.91166435721E+03  0.79849741924E+03  0.12128640825E+04  0.50400001928E-02 0.  1.
</event>
<event>
 5   0  0.1207228E-04  0.1938628E+04  0.7818609E-02  0.8635864E-01
        1   -1    0    0  501    0  0.00000000000E+00  0.00000000000E+00  0.67222167363E+03  0.67222167364E+03  0.50400001928E-02 0.  1.
       -1   -1    0    0    0  501  0.00000000000E+00  0.00000000000E+00 -0.13977084114E+04  0.13977084114E+04  0.50400001928E-02 0. -1.
    10030    2    1    2    0    0  0.00000000000E+00  0.00000000000E+00 -0.72548673773E+03  0.20699300850E+04  0.19386282651E+04 0.  0.
        1    1    3    3  502    0 -0.71342865634E+03  0.30552670798E+03 -0.98280166843E+03  0.12522883599E+04  0.50400001928E-02 0. -1.
       -1    1    3    3    0  502  0.71342865634E+03 -0.30552670798E+03  0.25731493070E+03  0.81764172506E+03  0.50400001928E-02 0.  1.
</event>
<event>
 5   0  0.1210633E-04  0.1942140E+04  0.7818609E-02  0.8634160E-01
        1   -1    0    0  501    0  0.00000000000E+00  0.00000000000E+00  0.25968646781E+04  0.25968646781E+04  0.50400001928E-02 0.  1.
       -1   -1    0    0    0  501  0.00000000000E+00  0.00000000000E+00 -0.36312143872E+03  0.36312143876E+03  0.50400001928E-02 0. -1.
    10030    2    1    2    0    0  0.00000000000E+00  0.00000000000E+00  0.22337432393E+04  0.29599861168E+04  0.19421403020E+04 0.  0.
        2    1    3    3  502    0  0.95027005411E+03  0.13959643337E+02  0.81293540497E+03  0.12506286499E+04  0.25500000920E-02 0. -1.
       -2    1    3    3    0  502 -0.95027005411E+03 -0.13959643337E+02  0.14208078344E+04  0.17093574669E+04  0.25500000920E-02 0.  1.
</event>
<event>
 5   0  0.1324930E-04  0.1904160E+04  0.7818609E-02  0.8652788E-01
       -1   -1    0    0    0  501  0.00000000000E+00  0.00000000000E+00  0.74938326087E+03  0.74938326089E+03  0.50400001928E-02 0.  1.
        1   -1    0    0  501    0  0.00000000000E+00  0.00000000000E+00 -0.12096037115E+04  0.12096037115E+04  0.50400001928E-02 0. -1.
    10030    2    1    2    0    0  0.00000000000E+00  0.00000000000E+00 -0.46022045062E+03  0.19589869724E+04  0.19041604698E+04 0.  0.
        5    1    3    3  502    0  0.43727815345E+03 -0.12217718738E+03  0.63082125556E+03  0.77723676899E+03  0.46999998093E+01 0.  1.
       -5    1    3    3    0  502 -0.43727815345E+03  0.12217718738E+03 -0.10910417062E+04  0.11817502034E+04  0.46999998093E+01 0. -1.
</event>
<event>
 5   0  0.1210633E-04  0.2017080E+04  0.7818609E-02  0.8598677E-01
        1   -1    0    0  501    0  0.00000000000E+00  0.00000000000E+00  0.64429887724E+03  0.64429887726E+03  0.50400001928E-02 0.  1.
       -1   -1    0    0    0  501  0.00000000000E+00  0.00000000000E+00 -0.15786971122E+04  0.15786971122E+04  0.50400001928E-02 0. -1.
    10030    2    1    2    0    0  0.00000000000E+00  0.00000000000E+00 -0.93439823494E+03  0.22229959894E+04  0.20170798466E+04 0.  0.
        2    1    3    3  502    0 -0.49549895310E+03 -0.87425798957E+03 -0.37299470702E+03  0.10719007866E+04  0.25500000920E-02 0. -1.
       -2    1    3    3    0  502  0.49549895310E+03  0.87425798957E+03 -0.56140352792E+03  0.11510952028E+04  0.25500000920E-02 0.  1.
</event>
<event>
 5   0  0.2421737E-04  0.1964272E+04  0.7818609E-02  0.8623509E-01
       -2   -1    0    0    0  501  0.00000000000E+00  0.00000000000E+00  0.49918416718E+03  0.49918416718E+03  0.25500000920E-02 0.  1.
        2   -1    0    0  501    0  0.00000000000E+00  0.00000000000E+00 -0.19323346909E+04  0.19323346909E+04  0.25500000920E-02 0. -1.
    10030    2    1    2    0    0  0.00000000000E+00  0.00000000000E+00 -0.14331505237E+04  0.24315188581E+04  0.19642717566E+04 0.  0.
        1    1    3    3  502    0  0.69330407020E+03  0.54912509401E+03 -0.12452237981E+04  0.15273477698E+04  0.50400001928E-02 0. -1.
       -1    1    3    3    0  502 -0.69330407020E+03 -0.54912509401E+03 -0.18792672562E+03  0.90417108826E+03  0.50400001928E-02 0.  1.
</event>
<event>
 5   0  0.2421737E-04  0.2004799E+04  0.7818609E-02  0.8604380E-01
       -2   -1    0    0    0  501  0.00000000000E+00  0.00000000000E+00  0.65486969684E+03  0.65486969684E+03  0.25500000920E-02 0. -1.
        2   -1    0    0  501    0  0.00000000000E+00  0.00000000000E+00 -0.15343582601E+04  0.15343582601E+04  0.25500000920E-02 0.  1.
    10030    2    1    2    0    0  0.00000000000E+00  0.00000000000E+00 -0.87948856331E+03  0.21892279570E+04  0.20047989711E+04 0.  0.
        1    1    3    3  502    0  0.34580732348E+03 -0.70356779232E+03  0.24239301009E+03  0.82057584337E+03  0.50400001928E-02 0. -1.
       -1    1    3    3    0  502 -0.34580732348E+03  0.70356779232E+03 -0.11218815734E+04  0.13686521136E+04  0.50400001928E-02 0.  1.
</event>
<event>
 5   0  0.2463085E-04  0.1989581E+04  0.7818609E-02  0.8611507E-01
       -2   -1    0    0    0  501  0.00000000000E+00  0.00000000000E+00  0.71636411147E+03  0.71636411148E+03  0.25500000920E-02 0. -1.
        2   -1    0    0  501    0  0.00000000000E+00  0.00000000000E+00 -0.13814317331E+04  0.13814317331E+04  0.25500000920E-02 0.  1.
    10030    2    1    2    0    0  0.00000000000E+00  0.00000000000E+00 -0.66506762159E+03  0.20977958445E+04  0.19895809770E+04 0.  0.
        2    1    3    3  502    0 -0.24281856885E+03  0.20601813814E+03  0.66117218625E+03  0.73386169711E+03  0.25500000920E-02 0. -1.
       -2    1    3    3    0  502  0.24281856885E+03 -0.20601813814E+03 -0.13262398078E+04  0.13639341474E+04  0.25500000920E-02 0.  1.
</event>
<event>
 5   0  0.1258546E-04  0.2112865E+04  0.7818609E-02  0.8555597E-01
        1   -1    0    0  501    0  0.00000000000E+00  0.00000000000E+00  0.96405782610E+03  0.96405782611E+03  0.50400001928E-02 0. -1.
       -1   -1    0    0    0  501  0.00000000000E+00  0.00000000000E+00 -0.11576583646E+04  0.11576583646E+04  0.50400001928E-02 0.  1.
    10030    2    1    2    0    0  0.00000000000E+00  0.00000000000E+00 -0.19360053852E+03  0.21217161907E+04  0.21128649804E+04 0.  0.
        4    1    3    3  502    0 -0.74663089049E+03  0.69329326028E+03  0.18353720262E+03  0.10352781023E+04  0.12699999809E+01 0.  1.
       -4    1    3    3    0  502  0.74663089049E+03 -0.69329326028E+03 -0.37713774114E+03  0.10864380885E+04  0.12699999809E+01 0. -1.
</event>
<event>
 5   0  0.1258546E-04  0.1318535E+04  0.7818609E-02  0.9014995E-01
        1   -1    0    0  501    0  0.00000000000E+00  0.00000000000E+00  0.11015887719E+04  0.11015887719E+04  0.50400001928E-02 0. -1.
       -1   -1    0    0    0  501  0.00000000000E+00  0.00000000000E+00 -0.39455153653E+03  0.39455153656E+03  0.50400001928E-02 0.  1.
    10030    2    1    2    0    0  0.00000000000E+00  0.00000000000E+00  0.70703723540E+03  0.14961403085E+04  0.13185348575E+04 0.  0.
        4    1    3    3  502    0 -0.33476412179E+03  0.24579444272E+03 -0.22745397201E+03  0.47351752617E+03  0.12699999809E+01 0.  1.
       -4    1    3    3    0  502  0.33476412179E+03 -0.24579444272E+03  0.93449120741E+03  0.10226227823E+04  0.12699999809E+01 0. -1.
</event>
<event>
 5   0  0.1207228E-04  0.1982366E+04  0.7818609E-02  0.8614910E-01
        1   -1    0    0  501    0  0.00000000000E+00  0.00000000000E+00  0.19083466044E+04  0.19083466044E+04  0.50400001928E-02 0.  1.
       -1   -1    0    0    0  501  0.00000000000E+00  0.00000000000E+00 -0.51481426078E+03  0.51481426080E+03  0.50400001928E-02 0. -1.
    10030    2    1    2    0    0  0.00000000000E+00  0.00000000000E+00  0.13935323436E+04  0.24231608652E+04  0.19823663097E+04 0.  0.
        1    1    3    3  502    0  0.51292001300E+03  0.84782702690E+03  0.72534005468E+03  0.12280129487E+04  0.50400001928E-02 0. -1.
       -1    1    3    3    0  502 -0.51292001300E+03 -0.84782702690E+03  0.66819228893E+03  0.11951479165E+04  0.50400001928E-02 0.  1.
</event>
<event>
 5   0  0.1210633E-04  0.1917273E+04  0.7818609E-02  0.8646306E-01
        1   -1    0    0  501    0  0.00000000000E+00  0.00000000000E+00  0.74485427705E+03  0.74485427706E+03  0.50400001928E-02 0.  1.
       -1   -1    0    0    0  501  0.00000000000E+00  0.00000000000E+00 -0.12337772893E+04  0.12337772893E+04  0.50400001928E-02 0. -1.
    10030    2    1    2    0    0  0.00000000000E+00  0.00000000000E+00 -0.48892301228E+03  0.19786315664E+04  0.19172733670E+04 0.  0.
        2    1    3    3  502    0  0.20031254463E+03 -0.24002743401E+02  0.72269808508E+03  0.75032910740E+03  0.25500000920E-02 0.  1.
       -2    1    3    3    0  502 -0.20031254463E+03  0.24002743401E+02 -0.12116210974E+04  0.12283024590E+04  0.25500000920E-02 0. -1.
</event>
<event>
 5   0  0.1210633E-04  0.1590654E+04  0.7818609E-02  0.8826310E-01
       -1   -1    0    0    0  501  0.00000000000E+00  0.00000000000E+00  0.38220571263E+03  0.38220571266E+03  0.50400001928E-02 0.  1.
        1   -1    0    0  501    0  0.00000000000E+00  0.00000000000E+00 -0.16549855978E+04  0.16549855979E+04  0.50400001928E-02 0. -1.
    10030    2    1    2    0    0  0.00000000000E+00  0.00000000000E+00 -0.12727798852E+04  0.20371913105E+04  0.15906538905E+04 0.  0.
        2    1    3    3  502    0 -0.17483563428E+03 -0.68952916707E+03 -0.18082773197E+03  0.73397318746E+03  0.25500000920E-02 0.  1.
       -2    1    3    3    0  502  0.17483563428E+03  0.68952916707E+03 -0.10919521533E+04  0.13032181231E+04  0.25500000920E-02 0. -1.
</event>
<event>
 5   0  0.2488886E-04  0.1949455E+04  0.7818609E-02  0.8630624E-01
        2   -1    0    0  501    0  0.00000000000E+00  0.00000000000E+00  0.15724818008E+04  0.15724818008E+04  0.25500000920E-02 0. -1.
       -2   -1    0    0    0  501  0.00000000000E+00  0.00000000000E+00 -0.60420007003E+03  0.60420007003E+03  0.25500000920E-02 0.  1.
    10030    2    1    2    0    0  0.00000000000E+00  0.00000000000E+00  0.96828173077E+03  0.21766818708E+04  0.19494549127E+04 0.  0.
        3    1    3    3  502    0  0.56019232931E+03  0.74989098809E+03  0.78775806844E+03  0.12234029281E+04  0.10100000352E+00 0. -1.
       -3    1    3    3    0  502 -0.56019232931E+03 -0.74989098809E+03  0.18052366233E+03  0.95327894276E+03  0.10100000352E+00 0.  1.
</event>
<event>
 5   0  0.2421737E-04  0.2014035E+04  0.7818609E-02  0.8600087E-01
        2   -1    0    0  501    0  0.00000000000E+00  0.00000000000E+00  0.15841173361E+04  0.15841173361E+04  0.25500000920E-02 0.  1.
       -2   -1    0    0    0  501  0.00000000000E+00  0.00000000000E+00 -0.64015726985E+03  0.64015726986E+03  0.25500000920E-02 0. -1.
    10030    2    1    2    0    0  0.00000000000E+00  0.00000000000E+00  0.94396006626E+03  0.22242746060E+04  0.20140349838E+04 0.  0.
        1    1    3    3  502    0 -0.18569953861E+03 -0.97172270743E+03  0.67963682500E+03  0.12002647844E+04  0.50400001928E-02 0. -1.
       -1    1    3    3    0  502  0.18569953861E+03  0.97172270743E+03  0.26432324127E+03  0.10240098216E+04  0.50400001928E-02 0.  1.
</event>
<event>
 5   0  0.2488886E-04  0.2039753E+04  0.7818609E-02  0.8588257E-01
        2   -1    0    0  501    0  0.00000000000E+00  0.00000000000E+00  0.15772272636E+04  0.15772272636E+04  0.25500000920E-02 0. -1.
       -2   -1    0    0    0  501  0.00000000000E+00  0.00000000000E+00 -0.65947890980E+03  0.65947890981E+03  0.25500000920E-02 0.  1.
    10030    2    1    2    0    0  0.00000000000E+00  0.00000000000E+00  0.91774835378E+03  0.22367061734E+04  0.20397530403E+04 0.  0.
        3    1    3    3  502    0 -0.17029270701E+03  0.83158426217E+03 -0.16106014531E+03  0.86398632614E+03  0.10100000352E+00 0.  1.
       -3    1    3    3    0  502  0.17029270701E+03 -0.83158426217E+03  0.10788084991E+04  0.13727198473E+04  0.10100000352E+00 0. -1.
</event>
<event>
 5   0  0.1207228E-04  0.2011089E+04  0.7818609E-02  0.8601454E-01
       -1   -1    0    0    0  501  0.00000000000E+00  0.00000000000E+00  0.65079999494E+03  0.65079999496E+03  0.50400001928E-02 0. -1.
        1   -1    0    0  501    0  0.00000000000E+00  0.00000000000E+00 -0.15536561998E+04  0.15536561999E+04  0.50400001928E-02 0.  1.
    10030    2    1    2    0    0  0.00000000000E+00  0.00000000000E+00 -0.90285620490E+03  0.22044561948E+04  0.20110887072E+04 0.  0.
        1    1    3    3  502    0  0.18539115829E+03  0.93367157649E+03 -0.96222936223E+02  0.95675041040E+03  0.50400001928E-02 0.  1.
       -1    1    3    3    0  502 -0.18539115829E+03 -0.93367157649E+03 -0.80663326868E+03  0.12477057844E+04  0.50400001928E-02 0. -1.
</event>
<event>
 5   0  0.2463085E-04  0.2143216E+04  0.7818609E-02  0.8542442E-01
       -2   -1    0    0    0  501  0.00000000000E+00  0.00000000000E+00  0.67841949447E+03  0.67841949447E+03  0.25500000920E-02 0.  1.
        2   -1    0    0  501    0  0.00000000000E+00  0.00000000000E+00 -0.16926751148E+04  0.16926751148E+04  0.25500000920E-02 0. -1.
    10030    2    1    2    0    0  0.00000000000E+00  0.00000000000E+00 -0.10142556203E+04  0.23710946093E+04  0.21432160840E+04 0.  0.
        2    1    3    3  502    0  0.80241666951E+02 -0.90206917655E+02 -0.16851269660E+04  0.16894463308E+04  0.25500000920E-02 0. -1.
       -2    1    3    3    0  502 -0.80241666951E+02  0.90206917655E+02  0.67087134567E+03  0.68164827848E+03  0.25500000920E-02 0.  1.
</event>
<event>
 5   0  0.2463085E-04  0.1928336E+04  0.7818609E-02  0.8640879E-01
        2   -1    0    0  501    0  0.00000000000E+00  0.00000000000E+00  0.92885676193E+03  0.92885676193E+03  0.25500000920E-02 0. -1.
       -2   -1    0    0    0  501  0.00000000000E+00  0.00000000000E+00 -0.10008214335E+04  0.10008214335E+04  0.25500000920E-02 0.  1.
    10030    2    1    2    0    0  0.00000000000E+00  0.00000000000E+00 -0.71964671588E+02  0.19296781955E+04  0.19283358172E+04 0.  0.
        2    1    3    3  502    0  0.65416260935E+03 -0.66506216026E+03  0.20787431420E+03  0.95574480223E+03  0.25500000920E-02 0.  1.
       -2    1    3    3    0  502 -0.65416260935E+03  0.66506216026E+03 -0.27983898578E+03  0.97393339323E+03  0.25500000920E-02 0. -1.
</event>
<event>
 5   0  0.1258546E-04  0.1969725E+04  0.7818609E-02  0.8620908E-01
        1   -1    0    0  501    0  0.00000000000E+00  0.00000000000E+00  0.15425297068E+04  0.15425297069E+04  0.50400001928E-02 0.  1.
       -1   -1    0    0    0  501  0.00000000000E+00  0.00000000000E+00 -0.62880718113E+03  0.62880718115E+03  0.50400001928E-02 0. -1.
    10030    2    1    2    0    0  0.00000000000E+00  0.00000000000E+00  0.91372252572E+03  0.21713368880E+04  0.19697246069E+04 0.  0.
        4    1    3    3  502    0  0.66560991888E+03 -0.47742908866E+03  0.10596159868E+04  0.13393142839E+04  0.12699999809E+01 0.  1.
       -4    1    3    3    0  502 -0.66560991888E+03  0.47742908866E+03 -0.14589346105E+03  0.83202260407E+03  0.12699999809E+01 0. -1.
</event>
<event>
 5   0  0.1210633E-04  0.2004946E+04  0.7818609E-02  0.8604312E-01
       -1   -1    0    0    0  501  0.00000000000E+00  0.00000000000E+00  0.94584149347E+03  0.94584149349E+03  0.50400001928E-02 0. -1.
        1   -1    0    0  501    0  0.00000000000E+00  0.00000000000E+00 -0.10624950234E+04  0.10624950234E+04  0.50400001928E-02 0.  1.
    10030    2    1    2    0    0  0.00000000000E+00  0.00000000000E+00 -0.11665352989E+03  0.20083365169E+04  0.20049457646E+04 0.  0.
        2    1    3    3  502    0  0.53341789266E+03  0.60160127105E+03  0.54142879396E+03  0.96933166485E+03  0.25500000920E-02 0. -1.
       -2    1    3    3    0  502 -0.53341789266E+03 -0.60160127105E+03 -0.65808232386E+03  0.10390048520E+04  0.25500000920E-02 0.  1.
</event>
<event>
 5   0  0.1324930E-04  0.1264585E+04  0.7818609E-02  0.9058130E-01
        1   -1    0    0  501    0  0.00000000000E+00  0.00000000000E+00  0.47454785066E+03  0.47454785069E+03  0.50400001928E-02 0. -1.
       -1   -1    0    0    0  501  0.00000000000E+00  0.00000000000E+00 -0.84247364337E+03  0.84247364339E+03  0.50400001928E-02 0.  1.
    10030    2    1    2    0    0  0.00000000000E+00  0.00000000000E+00 -0.36792579271E+03  0.13170214941E+04  0.12645853972E+04 0.  0.
        5    1    3    3  502    0 -0.11734247308E+03 -0.60850185963E+03 -0.31457522674E+03  0.69499887226E+03  0.46999998093E+01 0. -1.
       -5    1    3    3    0  502  0.11734247308E+03  0.60850185963E+03 -0.53350565972E+02  0.62202262182E+03  0.46999998093E+01 0.  1.
</event>
<event>
 5   0  0.2540506E-04  0.1869693E+04  0.7818609E-02  0.8670091E-01
       -2   -1    0    0    0  501  0.00000000000E+00  0.00000000000E+00  0.47522804881E+03  0.47522804882E+03  0.25500000920E-02 0.  1.
        2   -1    0    0  501    0  0.00000000000E+00  0.00000000000E+00 -0.18389869200E+04  0.18389869200E+04  0.25500000920E-02 0. -1.
    10030    2    1    2    0    0  0.00000000000E+00  0.00000000000E+00 -0.13637588712E+04  0.23142149689E+04  0.18696932003E+04 0.  0.
        4    1    3    3  502    0  0.80317111339E+02 -0.74261087862E+03 -0.13776836571E+04  0.15671425038E+04  0.12699999809E+01 0. -1.
       -4    1    3    3    0  502 -0.80317111339E+02  0.74261087862E+03  0.13924785873E+02  0.74707246501E+03  0.12699999809E+01 0.  1.
</event>
<event>
 5   0  0.1324930E-04  0.1462871E+04  0.7818609E-02  0.8909526E-01
       -1   -1    0    0    0  501  0.00000000000E+00  0.00000000000E+00  0.58689806678E+03  0.58689806680E+03  0.50400001928E-02 0.  1.
        1   -1    0    0  501    0  0.00000000000E+00  0.00000000000E+00 -0.91156871647E+03  0.91156871649E+03  0.50400001928E-02 0. -1.
    10030    2    1    2    0    0  0.00000000000E+00  0.00000000000E+00 -0.32467064969E+03  0.14984667833E+04  0.14628710366E+04 0.  0.
        5    1    3    3  502    0  0.38800978105E+03 -0.61196258651E+03 -0.60281597781E+02  0.72712155690E+03  0.46999998093E+01 0.  1.
       -5    1    3    3    0  502 -0.38800978105E+03  0.61196258651E+03 -0.26438905191E+03  0.77134522638E+03  0.46999998093E+01 0. -1.
</event>
<event>
 5   0  0.2421737E-04  0.1892297E+04  0.7818609E-02  0.8658700E-01
        2   -1    0    0  501    0  0.00000000000E+00  0.00000000000E+00  0.13704657342E+04  0.13704657343E+04  0.25500000920E-02 0.  1.
       -2   -1    0    0    0  501  0.00000000000E+00  0.00000000000E+00 -0.65320668670E+03  0.65320668671E+03  0.25500000920E-02 0. -1.
    10030    2    1    2    0    0  0.00000000000E+00  0.00000000000E+00  0.71725904755E+03  0.20236724210E+04  0.18922974201E+04 0.  0.
        1    1    3    3  502    0  0.51841849568E+03 -0.49617181718E+03 -0.30082862478E+03  0.77810158099E+03  0.50400001928E-02 0. -1.
       -1    1    3    3    0  502 -0.51841849568E+03  0.49617181718E+03  0.10180876723E+04  0.12455708400E+04  0.50400001928E-02 0.  1.
</event>
<event>
 5   0  0.1324930E-04  0.2006948E+04  0.7818609E-02  0.8603379E-01
       -1   -1    0    0    0  501  0.00000000000E+00  0.00000000000E+00  0.78853801065E+03  0.78853801067E+03  0.50400001928E-02 0.  1.
        1   -1    0    0  501    0  0.00000000000E+00  0.00000000000E+00 -0.12769959918E+04  0.12769959918E+04  0.50400001928E-02 0. -1.
    10030    2    1    2    0    0  0.00000000000E+00  0.00000000000E+00 -0.48845798112E+03  0.20655340025E+04  0.20069478110E+04 0.  0.
        5    1    3    3  502    0  0.69506131425E+03  0.31899894400E+03  0.42440290173E+03  0.87464876941E+03  0.46999998093E+01 0.  1.
       -5    1    3    3    0  502 -0.69506131425E+03 -0.31899894400E+03 -0.91286088285E+03  0.11908852330E+04  0.46999998093E+01 0. -1.
</event>
<event>
 5   0  0.1231056E-04  0.1939811E+04  0.7818609E-02  0.8635290E-01
       -1   -1    0    0    0  501  0.00000000000E+00  0.00000000000E+00  0.49242376181E+03  0.49242376184E+03  0.50400001928E-02 0.  1.
        1   -1    0    0  501    0  0.00000000000E+00  0.00000000000E+00 -0.19103808225E+04  0.19103808225E+04  0.50400001928E-02 0. -1.
    10030    2    1    2    0    0  0.00000000000E+00  0.00000000000E+00 -0.14179570607E+04  0.24028045844E+04  0.19398112394E+04 0.  0.
        3    1    3    3  502    0  0.18358136366E+03 -0.27928615412E+03 -0.18367988639E+04  0.18669582078E+04  0.10100000352E+00 0. -1.
       -3    1    3    3    0  502 -0.18358136366E+03  0.27928615412E+03  0.41884180321E+03  0.53584637657E+03  0.10100000352E+00 0.  1.
</event>
<event>
 5   0  0.1231056E-04  0.1913662E+04  0.7818609E-02  0.8648086E-01
       -1   -1    0    0    0  501  0.00000000000E+00  0.00000000000E+00  0.52867600476E+03  0.52867600479E+03  0.50400001928E-02 0.  1.
        1   -1    0    0  501    0  0.00000000000E+00  0.00000000000E+00 -0.17317320524E+04  0.17317320524E+04  0.50400001928E-02 0. -1.
    10030    2    1    2    0    0  0.00000000000E+00  0.00000000000E+00 -0.12030560476E+04  0.22604080572E+04  0.19136616031E+04 0.  0.
        3    1    3    3  502    0  0.65233192521E+03  0.64334801252E+03 -0.92735719739E+03  0.13036199552E+04  0.10100000352E+00 0.  1.
       -3    1    3    3    0  502 -0.65233192521E+03 -0.64334801252E+03 -0.27569885024E+03  0.95678810198E+03  0.10100000352E+00 0. -1.
</event>
<event>
 5   0  0.1324930E-04  0.1977121E+04  0.7818609E-02  0.8617393E-01
       -1   -1    0    0    0  501  0.00000000000E+00  0.00000000000E+00  0.13761442109E+04  0.13761442109E+04  0.50400001928E-02 0. -1.
        1   -1    0    0  501    0  0.00000000000E+00  0.00000000000E+00 -0.71013784606E+03  0.71013784608E+03  0.50400001928E-02 0.  1.
    10030    2    1    2    0    0  0.00000000000E+00  0.00000000000E+00  0.66600636484E+03  0.20862820570E+04  0.19771212263E+04 0.  0.
        5    1    3    3  502    0 -0.77612536676E+02  0.97679089577E+03  0.19507346706E+03  0.99910955728E+03  0.46999998093E+01 0. -1.
       -5    1    3    3    0  502  0.77612536676E+02 -0.97679089577E+03  0.47093289779E+03  0.10871724997E+04  0.46999998093E+01 0.  1.
</event>
<event>
 5   0  0.2540506E-04  0.1973175E+04  0.7818609E-02  0.8619266E-01
       -2   -1    0    0    0  501  0.00000000000E+00  0.00000000000E+00  0.27002329473E+04  0.27002329473E+04  0.25500000920E-02 0.  1.
        2   -1    0    0  501    0  0.00000000000E+00  0.00000000000E+00 -0.36047066110E+03  0.36047066110E+03  0.25500000920E-02 0. -1.
    10030    2    1    2    0    0  0.00000000000E+00  0.00000000000E+00  0.23397622862E+04  0.30607036084E+04  0.19731748586E+04 0.  0.
        4    1    3    3  502    0  0.39805436690E+03 -0.12097229803E+02  0.25700177947E+04  0.26006896585E+04  0.12699999809E+01 0.  1.
       -4    1    3    3    0  502 -0.39805436690E+03  0.12097229803E+02 -0.23025550851E+03  0.46001394987E+03  0.12699999809E+01 0. -1.
</event>
<event>
 5   0  0.2488886E-04  0.1953886E+04  0.7818609E-02  0.8628489E-01
       -2   -1    0    0    0  501  0.00000000000E+00  0.00000000000E+00  0.68963959437E+03  0.68963959438E+03  0.25500000920E-02 0.  1.
        2   -1    0    0  501    0  0.00000000000E+00  0.00000000000E+00 -0.13839368920E+04  0.13839368920E+04  0.25500000920E-02 0. -1.
    10030    2    1    2    0    0  0.00000000000E+00  0.00000000000E+00 -0.69429729764E+03  0.20735764864E+04  0.19538860528E+04 0.  0.
        3    1    3    3  502    0 -0.42897871704E+03 -0.16313604228E+03 -0.12624066407E+04  0.13432448194E+04  0.10100000352E+00 0. -1.
       -3    1    3    3    0  502  0.42897871704E+03  0.16313604228E+03  0.56810934309E+03  0.73033166704E+03  0.10100000352E+00 0.  1.
</event>
<event>
 5   0  0.2463085E-04  0.1950923E+04  0.7818609E-02  0.8629916E-01
       -2   -1    0    0    0  501  0.00000000000E+00  0.00000000000E+00  0.61534170672E+03  0.61534170673E+03  0.25500000920E-02 0.  1.
        2   -1    0    0  501    0  0.00000000000E+00  0.00000000000E+00 -0.15463361335E+04  0.15463361335E+04  0.25500000920E-02 0. -1.
    10030    2    1    2    0    0  0.00000000000E+00  0.00000000000E+00 -0.93099442679E+03  0.21616778402E+04  0.19509229770E+04 0.  0.
        2    1    3    3  502    0 -0.98687485158E+02  0.62020883227E+03  0.36154544551E+03  0.72464703444E+03  0.25500000920E-02 0.  1.
       -2    1    3    3    0  502  0.98687485158E+02 -0.62020883227E+03 -0.12925398723E+04  0.14370308058E+04  0.25500000920E-02 0. -1.
</event>
<event>
 5   0  0.2421737E-04  0.1905902E+04  0.7818609E-02  0.8651924E-01
       -2   -1    0    0    0  501  0.00000000000E+00  0.00000000000E+00  0.69517335057E+03  0.69517335057E+03  0.25500000920E-02 0. -1.
        2   -1    0    0  501    0  0.00000000000E+00  0.00000000000E+00 -0.13063147150E+04  0.13063147150E+04  0.25500000920E-02 0.  1.
    10030    2    1    2    0    0  0.00000000000E+00  0.00000000000E+00 -0.61114136446E+03  0.20014880656E+04  0.19059015477E+04 0.  0.
        1    1    3    3  502    0  0.54444295960E+03  0.61335179282E+03  0.20404746032E+03  0.84513544720E+03  0.50400001928E-02 0.  1.
       -1    1    3    3    0  502 -0.54444295960E+03 -0.61335179282E+03 -0.81518882478E+03  0.11563526184E+04  0.50400001928E-02 0. -1.
</event>
<event>
 5   0  0.2596061E-04  0.2204856E+04  0.7818609E-02  0.8516410E-01
       -2   -1    0    0    0  501  0.00000000000E+00  0.00000000000E+00  0.20116699158E+04  0.20116699158E+04  0.25500000920E-02 0.  1.
        2   -1    0    0  501    0  0.00000000000E+00  0.00000000000E+00 -0.60414865301E+03  0.60414865302E+03  0.25500000920E-02 0. -1.
    10030    2    1    2    0    0  0.00000000000E+00  0.00000000000E+00  0.14075212628E+04  0.26158185688E+04  0.22048561585E+04 0.  0.
        5    1    3    3  502    0  0.57639921131E+02 -0.30500148076E+03  0.19587440786E+04  0.19831915488E+04  0.46999998093E+01 0.  1.
       -5    1    3    3    0  502 -0.57639921131E+02  0.30500148076E+03 -0.55122281582E+03  0.63262702001E+03  0.46999998093E+01 0. -1.
</event>
<event>
 5   0  0.2488886E-04  0.2006301E+04  0.7818609E-02  0.8603680E-01
        2   -1    0    0  501    0  0.00000000000E+00  0.00000000000E+00  0.10189926778E+04  0.10189926778E+04  0.25500000920E-02 0.  1.
       -2   -1    0    0    0  501  0.00000000000E+00  0.00000000000E+00 -0.98755494671E+03  0.98755494671E+03  0.25500000920E-02 0. -1.
    10030    2    1    2    0    0  0.00000000000E+00  0.00000000000E+00  0.31437731083E+02  0.20065476245E+04  0.20063013329E+04 0.  0.
        3    1    3    3  502    0  0.75529120275E+03 -0.32360724292E+03  0.59122395058E+03  0.10122905801E+04  0.10100000352E+00 0.  1.
       -3    1    3    3    0  502 -0.75529120275E+03  0.32360724292E+03 -0.55978621950E+03  0.99425704441E+03  0.10100000352E+00 0. -1.
</event>
<event>
 5   0  0.1207228E-04  0.2171208E+04  0.7818609E-02  0.8530508E-01
       -1   -1    0    0    0  501  0.00000000000E+00  0.00000000000E+00  0.12068652147E+04  0.12068652148E+04  0.50400001928E-02 0.  1.
        1   -1    0    0  501    0  0.00000000000E+00  0.00000000000E+00 -0.97652655086E+03  0.97652655088E+03  0.50400001928E-02 0. -1.
    10030    2    1    2    0    0  0.00000000000E+00  0.00000000000E+00  0.23033866388E+03  0.21833917656E+04  0.21712078901E+04 0.  0.
        1    1    3    3  502    0  0.47732309563E+03 -0.94603647554E+03  0.35253110225E+03  0.11167365530E+04  0.50400001928E-02 0.  1.
       -1    1    3    3    0  502 -0.47732309563E+03  0.94603647554E+03 -0.12219243837E+03  0.10666552127E+04  0.50400001928E-02 0. -1.
</event>
<event>
 5   0  0.1231056E-04  0.2015131E+04  0.7818609E-02  0.8599579E-01
        1   -1    0    0  501    0  0.00000000000E+00  0.00000000000E+00  0.83987756436E+03  0.83987756438E+03  0.50400001928E-02 0. -1.
       -1   -1    0    0    0  501  0.00000000000E+00  0.00000000000E+00 -0.12087334169E+04  0.12087334169E+04  0.50400001928E-02 0.  1.
    10030    2    1    2    0    0  0.00000000000E+00  0.00000000000E+00 -0.36885585254E+03  0.20486109813E+04  0.20151308426E+04 0.  0.
        3    1    3    3  502    0  0.79891603419E+03 -0.26738143088E+03 -0.74626573417E+03  0.11254653329E+04  0.10100000352E+00 0.  1.
       -3    1    3    3    0  502 -0.79891603419E+03  0.26738143088E+03  0.37740988163E+03  0.92314564843E+03  0.10100000352E+00 0. -1.
</event>
<event>
 5   0  0.1324930E-04  0.1861032E+04  0.7818609E-02  0.8674500E-01
        1   -1    0    0  501    0  0.00000000000E+00  0.00000000000E+00  0.13667926466E+04  0.13667926466E+04  0.50400001928E-02 0.  1.
       -1   -1    0    0    0  501  0.00000000000E+00  0.00000000000E+00 -0.63349751840E+03  0.63349751842E+03  0.50400001928E-02 0. -1.
    10030    2    1    2    0    0  0.00000000000E+00  0.00000000000E+00  0.73329512818E+03  0.20002901650E+04  0.18610317029E+04 0.  0.
        5    1    3    3  502    0  0.56908738401E+03 -0.73609868659E+03  0.35411611483E+03  0.99555112366E+03  0.46999998093E+01 0. -1.
       -5    1    3    3    0  502 -0.56908738401E+03  0.73609868659E+03  0.37917901335E+03  0.10047390413E+04  0.46999998093E+01 0.  1.
</event>
<event>
 5   0  0.1231056E-04  0.1943618E+04  0.7818609E-02  0.8633444E-01
        1   -1    0    0  501    0  0.00000000000E+00  0.00000000000E+00  0.12952433028E+04  0.12952433028E+04  0.50400001928E-02 0. -1.
       -1   -1    0    0    0  501  0.00000000000E+00  0.00000000000E+00 -0.72913955126E+03  0.72913955128E+03  0.50400001928E-02 0.  1.
    10030    2    1    2    0    0  0.00000000000E+00  0.00000000000E+00  0.56610375150E+03  0.20243828541E+04  0.19436183994E+04 0.  0.
        3    1    3    3  502    0  0.16760342984E+03  0.93115279249E+03  0.51844141167E+02  0.94753588736E+03  0.10100000352E+00 0.  1.
       -3    1    3    3    0  502 -0.16760342984E+03 -0.93115279249E+03  0.51425961033E+03  0.10768469667E+04  0.10100000352E+00 0. -1.
</event>
<event>
 5   0  0.2463085E-04  0.1940207E+04  0.7818609E-02  0.8635097E-01
        2   -1    0    0  501    0  0.00000000000E+00  0.00000000000E+00  0.22775190926E+04  0.22775190926E+04  0.25500000920E-02 0. -1.
       -2   -1    0    0    0  501  0.00000000000E+00  0.00000000000E+00 -0.41321326598E+03  0.41321326598E+03  0.25500000920E-02 0.  1.
    10030    2    1    2    0    0  0.00000000000E+00  0.00000000000E+00  0.18643058266E+04  0.26907323586E+04  0.19402073112E+04 0.  0.
        2    1    3    3  502    0 -0.13914361817E+03  0.58800009244E+03  0.19846771771E+04  0.20746200983E+04  0.25500000920E-02 0. -1.
       -2    1    3    3    0  502  0.13914361817E+03 -0.58800009244E+03 -0.12037135047E+03  0.61611226024E+03  0.25500000920E-02 0.  1.
</event>
<event>
 5   0  0.2421737E-04  0.1988194E+04  0.7818609E-02  0.8612160E-01
        2   -1    0    0  501    0  0.00000000000E+00  0.00000000000E+00  0.10597016800E+04  0.10597016800E+04  0.25500000920E-02 0. -1.
       -2   -1    0    0    0  501  0.00000000000E+00  0.00000000000E+00 -0.93255420290E+03  0.93255420291E+03  0.25500000920E-02 0.  1.
    10030    2    1    2    0    0  0.00000000000E+00  0.00000000000E+00  0.12714747714E+03  0.19922558829E+04  0.19881944126E+04 0.  0.
        1    1    3    3  502    0  0.42407049485E+03 -0.89490773157E+03  0.15054749098E+03  0.10016786809E+04  0.50400001928E-02 0.  1.
       -1    1    3    3    0  502 -0.42407049485E+03  0.89490773157E+03 -0.23400013842E+02  0.99057720209E+03  0.50400001928E-02 0. -1.
</event>
<event>
 5   0  0.1231056E-04  0.2061912E+04  0.7818609E-02  0.8578210E-01
       -1   -1    0    0    0  501  0.00000000000E+00  0.00000000000E+00  0.11837075319E+04  0.11837075319E+04  0.50400001928E-02 0. -1.
        1   -1    0    0  501    0  0.00000000000E+00  0.00000000000E+00 -0.89791605002E+03  0.89791605004E+03  0.50400001928E-02 0.  1.
    10030    2    1    2    0    0  0.00000000000E+00  0.00000000000E+00  0.28579148189E+03  0.20816235820E+04  0.20619117260E+04 0.  0.
        3    1    3    3  502    0  0.27128682876E+03  0.54500786146E+03 -0.69706779854E+03  0.92549102561E+03  0.10100000352E+00 0.  1.
       -3    1    3    3    0  502 -0.27128682876E+03 -0.54500786146E+03  0.98285928044E+03  0.11561325564E+04  0.10100000352E+00 0. -1.
</event>
<event>
 5   0  0.1210633E-04  0.1982175E+04  0.7818609E-02  0.8615000E-01
       -1   -1    0    0    0  501  0.00000000000E+00  0.00000000000E+00  0.95526434145E+03  0.95526434146E+03  0.50400001928E-02 0. -1.
        1   -1    0    0  501    0  0.00000000000E+00  0.00000000000E+00 -0.10282544595E+04  0.10282544596E+04  0.50400001928E-02 0.  1.
    10030    2    1    2    0    0  0.00000000000E+00  0.00000000000E+00 -0.72990118097E+02  0.19835188010E+04  0.19821753900E+04 0.  0.
        2    1    3    3  502    0  0.36858497768E+03 -0.37264844794E+03 -0.87821499332E+03  0.10227332624E+04  0.25500000920E-02 0.  1.
       -2    1    3    3    0  502 -0.36858497768E+03  0.37264844794E+03  0.80522487523E+03  0.96078553861E+03  0.25500000920E-02 0. -1.
</event>
<event>
 5   0  0.2463085E-04  0.2026002E+04  0.7818609E-02  0.8594560E-01
        2   -1    0    0  501    0  0.00000000000E+00  0.00000000000E+00  0.25518835554E+04  0.25518835554E+04  0.25500000920E-02 0. -1.
       -2   -1    0    0    0  501  0.00000000000E+00  0.00000000000E+00 -0.40212279744E+03  0.40212279745E+03  0.25500000920E-02 0.  1.
    10030    2    1    2    0    0  0.00000000000E+00  0.00000000000E+00  0.21497607580E+04  0.29540063529E+04  0.20260015341E+04 0.  0.
        2    1    3    3  502    0  0.76674785163E+03 -0.59268335134E+03  0.15049295652E+04  0.17899689436E+04  0.25500000920E-02 0. -1.
       -2    1    3    3    0  502 -0.76674785163E+03  0.59268335134E+03  0.64483119278E+03  0.11640374092E+04  0.25500000920E-02 0.  1.
</event>
<event>
 5   0  0.1258546E-04  0.2016689E+04  0.7818609E-02  0.8598857E-01
        1   -1    0    0  501    0  0.00000000000E+00  0.00000000000E+00  0.11580533076E+04  0.11580533077E+04  0.50400001928E-02 0.  1.
       -1   -1    0    0    0  501  0.00000000000E+00  0.00000000000E+00 -0.87798967232E+03  0.87798967234E+03  0.50400001928E-02 0. -1.
    10030    2    1    2    0    0  0.00000000000E+00  0.00000000000E+00  0.28006363532E+03  0.20360429800E+04  0.20166892117E+04 0.  0.
        4    1    3    3  502    0  0.15055905666E+03  0.89645246024E+03 -0.30057615501E+03  0.95741458150E+03  0.12699999809E+01 0. -1.
       -4    1    3    3    0  502 -0.15055905666E+03 -0.89645246024E+03  0.58063979034E+03  0.10786283985E+04  0.12699999809E+01 0.  1.
</event>
<event>
 5   0  0.2421737E-04  0.2008325E+04  0.7818609E-02  0.8602738E-01
       -2   -1    0    0    0  501  0.00000000000E+00  0.00000000000E+00  0.49342760684E+03  0.49342760684E+03  0.25500000920E-02 0. -1.
        2   -1    0    0  501    0  0.00000000000E+00  0.00000000000E+00 -0.20435465476E+04  0.20435465476E+04  0.25500000920E-02 0.  1.
    10030    2    1    2    0    0  0.00000000000E+00  0.00000000000E+00 -0.15501189408E+04  0.25369741545E+04  0.20083249563E+04 0.  0.
        1    1    3    3  502    0  0.38553903865E+03  0.22944863835E+03  0.35977806670E+03  0.57508893683E+03  0.50400001928E-02 0. -1.
       -1    1    3    3    0  502 -0.38553903865E+03 -0.22944863835E+03 -0.19098970075E+04  0.19618852177E+04  0.50400001928E-02 0.  1.
</event>
<event>
 5   0  0.1258546E-04  0.2024941E+04  0.7818609E-02  0.8595048E-01
       -1   -1    0    0    0  501  0.00000000000E+00  0.00000000000E+00  0.10035683279E+04  0.10035683279E+04  0.50400001928E-02 0. -1.
        1   -1    0    0  501    0  0.00000000000E+00  0.00000000000E+00 -0.10214520332E+04  0.10214520332E+04  0.50400001928E-02 0.  1.
    10030    2    1    2    0    0  0.00000000000E+00  0.00000000000E+00 -0.17883705323E+02  0.20250203612E+04  0.20249413908E+04 0.  0.
        4    1    3    3  502    0  0.29623964908E+03  0.69626274345E+03  0.66380688017E+03  0.10065688872E+04  0.12699999809E+01 0. -1.
       -4    1    3    3    0  502 -0.29623964908E+03 -0.69626274345E+03 -0.68169058549E+03  0.10184514740E+04  0.12699999809E+01 0.  1.
</event>
<event>
 5   0  0.1207228E-04  0.2029954E+04  0.7818609E-02  0.8592743E-01
       -1   -1    0    0    0  501  0.00000000000E+00  0.00000000000E+00  0.10400816380E+04  0.10400816380E+04  0.50400001928E-02 0. -1.
        1   -1    0    0  501    0  0.00000000000E+00  0.00000000000E+00 -0.99047847083E+03  0.99047847084E+03  0.50400001928E-02 0.  1.
    10030    2    1    2    0    0  0.00000000000E+00  0.00000000000E+00  0.49603167198E+02  0.20305601089E+04  0.20299541575E+04 0.  0.
        1    1    3    3  502    0  0.29843549515E+03 -0.71126773433E+03 -0.63510204643E+03  0.99915971900E+03  0.50400001928E-02 0.  1.
       -1    1    3    3    0  502 -0.29843549515E+03  0.71126773433E+03  0.68470521362E+03  0.10314003899E+04  0.50400001928E-02 0. -1.
</event>
<event>
 5   0  0.1210633E-04  0.1997461E+04  0.7818609E-02  0.8607809E-01
       -1   -1    0    0    0  501  0.00000000000E+00  0.00000000000E+00  0.64180427015E+03  0.64180427017E+03  0.50400001928E-02 0. -1.
        1   -1    0    0  501    0  0.00000000000E+00  0.00000000000E+00 -0.15541540938E+04  0.15541540938E+04  0.50400001928E-02 0.  1.
    10030    2    1    2    0    0  0.00000000000E+00  0.00000000000E+00 -0.91234982362E+03  0.21959583639E+04  0.19974611224E+04 0.  0.
        2    1    3    3  502    0  0.40391610656E+03 -0.41997120118E+03  0.43556557200E+03  0.72748979270E+03  0.25500000920E-02 0. -1.
       -2    1    3    3    0  502 -0.40391610656E+03  0.41997120118E+03 -0.13479153956E+04  0.14684685712E+04  0.25500000920E-02 0.  1.
</event>
<event>
 5   0  0.2421737E-04  0.2034124E+04  0.7818609E-02  0.8590831E-01
       -2   -1    0    0    0  501  0.00000000000E+00  0.00000000000E+00  0.62968242953E+03  0.62968242954E+03  0.25500000920E-02 0. -1.
        2   -1    0    0  501    0  0.00000000000E+00  0.00000000000E+00 -0.16427569637E+04  0.16427569637E+04  0.25500000920E-02 0.  1.
    10030    2    1    2    0    0  0.00000000000E+00  0.00000000000E+00 -0.10130745342E+04  0.22724393932E+04  0.20341240828E+04 0.  0.
        1    1    3    3  502    0  0.24696116299E+03  0.72274755313E+03  0.24375881298E+03  0.80173075313E+03  0.50400001928E-02 0. -1.
       -1    1    3    3    0  502 -0.24696116299E+03 -0.72274755313E+03 -0.12568333471E+04  0.14707086401E+04  0.50400001928E-02 0.  1.
</event>
<event>
 5   0  0.2596061E-04  0.1804304E+04  0.7818609E-02  0.8704014E-01
       -2   -1    0    0    0  501  0.00000000000E+00  0.00000000000E+00  0.26951596990E+03  0.26951596991E+03  0.25500000920E-02 0.  1.
        2   -1    0    0  501    0  0.00000000000E+00  0.00000000000E+00 -0.30197788344E+04  0.30197788344E+04  0.25500000920E-02 0. -1.
    10030    2    1    2    0    0  0.00000000000E+00  0.00000000000E+00 -0.27502628645E+04  0.32892948043E+04  0.18043044327E+04 0.  0.
        5    1    3    3  502    0 -0.10957444425E+02  0.81670304930E+03 -0.20734543294E+04  0.22285328991E+04  0.46999998093E+01 0. -1.
       -5    1    3    3    0  502  0.10957444425E+02 -0.81670304930E+03 -0.67680853509E+03  0.10607619052E+04  0.46999998093E+01 0.  1.
</event>
<event>
 5   0  0.1324930E-04  0.1998391E+04  0.7818609E-02  0.8607373E-01
        1   -1    0    0  501    0  0.00000000000E+00  0.00000000000E+00  0.10660196061E+04  0.10660196062E+04  0.50400001928E-02 0. -1.
       -1   -1    0    0    0  501  0.00000000000E+00  0.00000000000E+00 -0.93656032516E+03  0.93656032517E+03  0.50400001928E-02 0.  1.
    10030    2    1    2    0    0  0.00000000000E+00  0.00000000000E+00  0.12945928099E+03  0.20025799313E+04  0.19983910218E+04 0.  0.
        5    1    3    3  502    0  0.39148736439E+03 -0.48012644470E+03  0.85032816211E+03  0.10520759633E+04  0.46999998093E+01 0. -1.
       -5    1    3    3    0  502 -0.39148736439E+03  0.48012644470E+03 -0.72086888112E+03  0.95050396798E+03  0.46999998093E+01 0.  1.
</event>
<event>
 5   0  0.2540506E-04  0.1922005E+04  0.7818609E-02  0.8643980E-01
       -2   -1    0    0    0  501  0.00000000000E+00  0.00000000000E+00  0.16587508745E+04  0.16587508745E+04  0.25500000920E-02 0.  1.
        2   -1    0    0  501    0  0.00000000000E+00  0.00000000000E+00 -0.55675962047E+03  0.55675962048E+03  0.25500000920E-02 0. -1.
    10030    2    1    2    0    0  0.00000000000E+00  0.00000000000E+00  0.11019912540E+04  0.22155104950E+04  0.19220046903E+04 0.  0.
        4    1    3    3  502    0 -0.45756997832E+03 -0.47900817841E+03 -0.25152835114E+03  0.70858114876E+03  0.12699999809E+01 0. -1.
       -4    1    3    3    0  502  0.45756997832E+03  0.47900817841E+03  0.13535196052E+04  0.15069293462E+04  0.12699999809E+01 0.  1.
</event>
<event>
 5   0  0.1207228E-04  0.1881985E+04  0.7818609E-02  0.8663876E-01
        1   -1    0    0  501    0  0.00000000000E+00  0.00000000000E+00  0.99142126845E+03  0.99142126846E+03  0.50400001928E-02 0.  1.
       -1   -1    0    0    0  501  0.00000000000E+00  0.00000000000E+00 -0.89312909811E+03  0.89312909813E+03  0.50400001928E-02 0. -1.
    10030    2    1    2    0    0  0.00000000000E+00  0.00000000000E+00  0.98292170333E+02  0.18845503666E+04  0.18819853170E+04 0.  0.
        1    1    3    3  502    0  0.67768197331E+03 -0.46660950366E+03  0.50637535685E+03  0.96612281202E+03  0.50400001928E-02 0.  1.
       -1    1    3    3    0  502 -0.67768197331E+03  0.46660950366E+03 -0.40808318652E+03  0.91842755457E+03  0.50400001928E-02 0. -1.
</event>
<event>
 5   0  0.1324930E-04  0.1977520E+04  0.7818609E-02  0.8617203E-01
        1   -1    0    0  501    0  0.00000000000E+00  0.00000000000E+00  0.10777492879E+04  0.10777492879E+04  0.50400001928E-02 0. -1.
       -1   -1    0    0    0  501  0.00000000000E+00  0.00000000000E+00 -0.90711879583E+03  0.90711879584E+03  0.50400001928E-02 0.  1.
    10030    2    1    2    0    0  0.00000000000E+00  0.00000000000E+00  0.17063049204E+03  0.19848680837E+04  0.19775203020E+04 0.  0.
        5    1    3    3  502    0 -0.36988761413E+02  0.96977750360E+03 -0.10456476036E+03  0.97611088206E+03  0.46999998093E+01 0.  1.
       -5    1    3    3    0  502  0.36988761413E+02 -0.96977750360E+03  0.27519525239E+03  0.10087572017E+04  0.46999998093E+01 0. -1.
</event>
<event>
 5   0  0.1210633E-04  0.1989128E+04  0.7818609E-02  0.8611720E-01
       -1   -1    0    0    0  501  0.00000000000E+00  0.00000000000E+00  0.61771058326E+03  0.61771058328E+03  0.50400001928E-02 0. -1.
        1   -1    0    0  501    0  0.00000000000E+00  0.00000000000E+00 -0.16013291899E+04  0.16013291900E+04  0.50400001928E-02 0.  1.
    10030    2    1    2    0    0  0.00000000000E+00  0.00000000000E+00 -0.98361860669E+03  0.22190397732E+04  0.19891284402E+04 0.  0.
        2    1    3    3  502    0  0.73968549434E+03 -0.19949011577E+03  0.21570935445E+03  0.79590292275E+03  0.25500000920E-02 0. -1.
       -2    1    3    3    0  502 -0.73968549434E+03  0.19949011577E+03 -0.11993279611E+04  0.14231368505E+04  0.25500000920E-02 0.  1.
</event>
<event>
 5   0  0.1210633E-04  0.2011294E+04  0.7818609E-02  0.8601359E-01
        1   -1    0    0  501    0  0.00000000000E+00  0.00000000000E+00  0.10071502556E+04  0.10071502556E+04  0.50400001928E-02 0. -1.
       -1   -1    0    0    0  501  0.00000000000E+00  0.00000000000E+00 -0.10041458881E+04  0.10041458881E+04  0.50400001928E-02 0.  1.
    10030    2    1    2    0    0  0.00000000000E+00  0.00000000000E+00  0.30043675145E+01  0.20112961437E+04  0.20112938998E+04 0.  0.
        2    1    3    3  502    0 -0.70622721319E+03 -0.69120329335E+03 -0.18506414793E+03  0.10053693890E+04  0.25500000920E-02 0.  1.
       -2    1    3    3    0  502  0.70622721319E+03  0.69120329335E+03  0.18806851544E+03  0.10059267547E+04  0.25500000920E-02 0. -1.
</event>
<event>
 5   0  0.1324930E-04  0.1555190E+04  0.7818609E-02  0.8848559E-01
       -1   -1    0    0    0  501  0.00000000000E+00  0.00000000000E+00  0.47945605938E+03  0.47945605941E+03  0.50400001928E-02 0.  1.
        1   -1    0    0  501    0  0.00000000000E+00  0.00000000000E+00 -0.12611254781E+04  0.12611254781E+04  0.50400001928E-02 0. -1.
    10030    2    1    2    0    0  0.00000000000E+00  0.00000000000E+00 -0.78166941869E+03  0.17405815375E+04  0.15551903448E+04 0.  0.
        5    1    3    3  502    0 -0.34508113489E+03 -0.67822754904E+03 -0.56976301428E+03  0.95064482346E+03  0.46999998093E+01 0. -1.
       -5    1    3    3    0  502  0.34508113489E+03  0.67822754904E+03 -0.21190640440E+03  0.78993671402E+03  0.46999998093E+01 0.  1.
</event>
<event>
 5   0  0.1324930E-04  0.1970457E+04  0.7818609E-02  0.8620559E-01
        1   -1    0    0  501    0  0.00000000000E+00  0.00000000000E+00  0.12727529056E+04  0.12727529056E+04  0.50400001928E-02 0. -1.
       -1   -1    0    0    0  501  0.00000000000E+00  0.00000000000E+00 -0.76265772382E+03  0.76265772384E+03  0.50400001928E-02 0.  1.
    10030    2    1    2    0    0  0.00000000000E+00  0.00000000000E+00  0.51009518174E+03  0.20354106294E+04  0.19704566313E+04 0.  0.
        5    1    3    3  502    0 -0.53562747698E+03 -0.77468777640E+03 -0.43646569787E+02  0.94284943552E+03  0.46999998093E+01 0.  1.
       -5    1    3    3    0  502  0.53562747698E+03  0.77468777640E+03  0.55374175153E+03  0.10925611939E+04  0.46999998093E+01 0. -1.
</event>
<event>
 5   0  0.1210633E-04  0.1996950E+04  0.7818609E-02  0.8608048E-01
        1   -1    0    0  501    0  0.00000000000E+00  0.00000000000E+00  0.21813236342E+04  0.21813236342E+04  0.50400001928E-02 0. -1.
       -1   -1    0    0    0  501  0.00000000000E+00  0.00000000000E+00 -0.45703987739E+03  0.45703987741E+03  0.50400001928E-02 0.  1.
    10030    2    1    2    0    0  0.00000000000E+00  0.00000000000E+00  0.17242837568E+04  0.26383635116E+04  0.19969495601E+04 0.  0.
        2    1    3    3  502    0  0.33222111020E+03 -0.76926908679E+03  0.14478417916E+03  0.85035772031E+03  0.25500000920E-02 0.  1.
       -2    1    3    3    0  502 -0.33222111020E+03  0.76926908679E+03  0.15794995777E+04  0.17880057913E+04  0.25500000920E-02 0. -1.
</event>
<event>
 5   0  0.1210633E-04  0.1990500E+04  0.7818609E-02  0.8611075E-01
       -1   -1    0    0    0  501  0.00000000000E+00  0.00000000000E+00  0.11232162646E+04  0.11232162646E+04  0.50400001928E-02 0.  1.
        1   -1    0    0  501    0  0.00000000000E+00  0.00000000000E+00 -0.88186262837E+03  0.88186262839E+03  0.50400001928E-02 0. -1.
    10030    2    1    2    0    0  0.00000000000E+00  0.00000000000E+00  0.24135363625E+03  0.20050788930E+04  0.19904998843E+04 0.  0.
        2    1    3    3  502    0 -0.34449002133E+03 -0.73716905268E+03  0.69796316669E+03  0.10720280636E+04  0.25500000920E-02 0.  1.
       -2    1    3    3    0  502  0.34449002133E+03  0.73716905268E+03 -0.45660953045E+03  0.93305082944E+03  0.25500000920E-02 0. -1.
</event>
<event>
 5   0  0.2596061E-04  0.2077651E+04  0.7818609E-02  0.8571153E-01
        2   -1    0    0  501    0  0.00000000000E+00  0.00000000000E+00  0.99509327102E+03  0.99509327102E+03  0.25500000920E-02 0.  1.
       -2   -1    0    0    0  501  0.00000000000E+00  0.00000000000E+00 -0.10844791981E+04  0.10844791981E+04  0.25500000920E-02 0. -1.
    10030    2    1    2    0    0  0.00000000000E+00  0.00000000000E+00 -0.89385927075E+02  0.20795724691E+04  0.20776505506E+04 0.  0.
        5    1    3    3  502    0  0.44596867518E+03 -0.66876717424E+03  0.61394178014E+03  0.10114762439E+04  0.46999998093E+01 0. -1.
       -5    1    3    3    0  502 -0.44596867518E+03  0.66876717424E+03 -0.70332770721E+03  0.10680962252E+04  0.46999998093E+01 0.  1.
</event>
<event>
 5   0  0.2421737E-04  0.2001313E+04  0.7818609E-02  0.8606007E-01
        2   -1    0    0  501    0  0.00000000000E+00  0.00000000000E+00  0.14694390080E+04  0.14694390080E+04  0.25500000920E-02 0.  1.
       -2   -1    0    0    0  501  0.00000000000E+00  0.00000000000E+00 -0.68142545310E+03  0.68142545310E+03  0.25500000920E-02 0. -1.
    10030    2    1    2    0    0  0.00000000000E+00  0.00000000000E+00  0.78801355487E+03  0.21508644611E+04  0.20013127110E+04 0.  0.
        1    1    3    3  502    0 -0.69801861840E+03 -0.24167653432E+03  0.11194876697E+04  0.13412271178E+04  0.50400001928E-02 0.  1.
       -1    1    3    3    0  502  0.69801861840E+03  0.24167653432E+03 -0.33147411479E+03  0.80963734331E+03  0.50400001928E-02 0. -1.
</event>
<event>
 5   0  0.1324930E-04  0.1946954E+04  0.7818609E-02  0.8631831E-01
       -1   -1    0    0    0  501  0.00000000000E+00  0.00000000000E+00  0.11429421710E+04  0.11429421710E+04  0.50400001928E-02 0. -1.
        1   -1    0    0  501    0  0.00000000000E+00  0.00000000000E+00 -0.82913835687E+03  0.82913835688E+03  0.50400001928E-02 0.  1.
    10030    2    1    2    0    0  0.00000000000E+00  0.00000000000E+00  0.31380381415E+03  0.19720805279E+04  0.19469537167E+04 0.  0.
        5    1    3    3  502    0  0.28288232693E+03 -0.93133717440E+03  0.14175023319E+03  0.98362928074E+03  0.46999998093E+01 0. -1.
       -5    1    3    3    0  502 -0.28288232693E+03  0.93133717440E+03  0.17205358096E+03  0.98845124717E+03  0.46999998093E+01 0.  1.
</event>
<event>
 5   0  0.1210633E-04  0.1969837E+04  0.7818609E-02  0.8620854E-01
        1   -1    0    0  501    0  0.00000000000E+00  0.00000000000E+00  0.77518669083E+03  0.77518669084E+03  0.50400001928E-02 0. -1.
       -1   -1    0    0    0  501  0.00000000000E+00  0.00000000000E+00 -0.12513941941E+04  0.12513941941E+04  0.50400001928E-02 0.  1.
    10030    2    1    2    0    0  0.00000000000E+00  0.00000000000E+00 -0.47620750328E+03  0.20265808850E+04  0.19698366676E+04 0.  0.
        2    1    3    3  502    0 -0.33368907352E+03 -0.51183812294E+03 -0.10328443083E+04  0.12000391773E+04  0.25500000920E-02 0.  1.
       -2    1    3    3    0  502  0.33368907352E+03  0.51183812294E+03  0.55663680498E+03  0.82654170769E+03  0.25500000920E-02 0. -1.
</event>
<event>
 5   0  0.1207228E-04  0.1989366E+04  0.7818609E-02  0.8611608E-01
       -1   -1    0    0    0  501  0.00000000000E+00  0.00000000000E+00  0.18750273222E+04  0.18750273222E+04  0.50400001928E-02 0. -1.
        1   -1    0    0  501    0  0.00000000000E+00  0.00000000000E+00 -0.52766938543E+03  0.52766938545E+03  0.50400001928E-02 0.  1.
    10030    2    1    2    0    0  0.00000000000E+00  0.00000000000E+00  0.13473579368E+04  0.24026967077E+04  0.19893662456E+04 0.  0.
        1    1    3    3  502    0  0.60893531519E+03  0.47803899885E+03 -0.80641768777E+02  0.77834863487E+03  0.50400001928E-02 0.  1.
       -1    1    3    3    0  502 -0.60893531519E+03 -0.47803899885E+03  0.14279997056E+04  0.16243480728E+04  0.50400001928E-02 0. -1.
</event>
<event>
 5   0  0.2596061E-04  0.2052020E+04  0.7818609E-02  0.8582679E-01
       -2   -1    0    0    0  501  0.00000000000E+00  0.00000000000E+00  0.48484202789E+03  0.48484202789E+03  0.25500000920E-02 0.  1.
        2   -1    0    0  501    0  0.00000000000E+00  0.00000000000E+00 -0.21712150726E+04  0.21712150727E+04  0.25500000920E-02 0. -1.
    10030    2    1    2    0    0  0.00000000000E+00  0.00000000000E+00 -0.16863730448E+04  0.26560571005E+04  0.20520198038E+04 0.  0.
        5    1    3    3  502    0 -0.92045413265E+03 -0.11204799032E+03 -0.14116513329E+04  0.16889559314E+04  0.46999998093E+01 0. -1.
       -5    1    3    3    0  502  0.92045413265E+03  0.11204799032E+03 -0.27472171188E+03  0.96710116918E+03  0.46999998093E+01 0.  1.
</event>
<event>
 5   0  0.2596061E-04  0.1619498E+04  0.7818609E-02  0.8808659E-01
        2   -1    0    0  501    0  0.00000000000E+00  0.00000000000E+00  0.10378254851E+04  0.10378254851E+04  0.25500000920E-02 0.  1.
       -2   -1    0    0    0  501  0.00000000000E+00  0.00000000000E+00 -0.63179516960E+03  0.63179516961E+03  0.25500000920E-02 0. -1.
    10030    2    1    2    0    0  0.00000000000E+00  0.00000000000E+00  0.40603031552E+03  0.16696206547E+04  0.16194976115E+04 0.  0.
        5    1    3    3  502    0 -0.14655365859E+03  0.71379386498E+03 -0.16103038313E+03  0.74627912394E+03  0.46999998093E+01 0. -1.
       -5    1    3    3    0  502  0.14655365859E+03 -0.71379386498E+03  0.56706069865E+03  0.92334153079E+03  0.46999998093E+01 0.  1.
</event>
<event>
 5   0  0.2540506E-04  0.2026788E+04  0.7818609E-02  0.8594198E-01
        2   -1    0    0  501    0  0.00000000000E+00  0.00000000000E+00  0.83263812061E+03  0.83263812061E+03  0.25500000920E-02 0.  1.
       -2   -1    0    0    0  501  0.00000000000E+00  0.00000000000E+00 -0.12333904123E+04  0.12333904123E+04  0.25500000920E-02 0. -1.
    10030    2    1    2    0    0  0.00000000000E+00  0.00000000000E+00 -0.40075229174E+03  0.20660285330E+04  0.20267884694E+04 0.  0.
        4    1    3    3  502    0 -0.60258890951E+03  0.70015489249E+03 -0.62514021229E+03  0.11154067264E+04  0.12699999809E+01 0. -1.
       -4    1    3    3    0  502  0.60258890951E+03 -0.70015489249E+03  0.22438792055E+03  0.95062180657E+03  0.12699999809E+01 0.  1.
</event>
<event>
 5   0  0.1324930E-04  0.2150372E+04  0.7818609E-02  0.8539373E-01
        1   -1    0    0  501    0  0.00000000000E+00  0.00000000000E+00  0.94423431215E+03  0.94423431216E+03  0.50400001928E-02 0.  1.
       -1   -1    0    0    0  501  0.00000000000E+00  0.00000000000E+00 -0.12242987532E+04  0.12242987532E+04  0.50400001928E-02 0. -1.
    10030    2    1    2    0    0  0.00000000000E+00  0.00000000000E+00 -0.28006444108E+03  0.21685330654E+04  0.21503719596E+04 0.  0.
        5    1    3    3  502    0  0.22015425904E+03 -0.92021171538E+03  0.37491261466E+03  0.10177617882E+04  0.46999998093E+01 0.  1.
       -5    1    3    3    0  502 -0.22015425904E+03  0.92021171538E+03 -0.65497705574E+03  0.11507712772E+04  0.46999998093E+01 0. -1.
</event>
<event>
 5   0  0.2463085E-04  0.2022125E+04  0.7818609E-02  0.8596346E-01
       -2   -1    0    0    0  501  0.00000000000E+00  0.00000000000E+00  0.18892089383E+04  0.18892089383E+04  0.25500000920E-02 0.  1.
        2   -1    0    0  501    0  0.00000000000E+00  0.00000000000E+00 -0.54109784747E+03  0.54109784748E+03  0.25500000920E-02 0. -1.
    10030    2    1    2    0    0  0.00000000000E+00  0.00000000000E+00  0.13481110908E+04  0.24303067858E+04  0.20221245164E+04 0.  0.
        2    1    3    3  502    0 -0.15854493887E+03  0.53708069399E+03 -0.33768824376E+03  0.65393082163E+03  0.25500000920E-02 0. -1.
       -2    1    3    3    0  502  0.15854493887E+03 -0.53708069399E+03  0.16857993346E+04  0.17763759641E+04  0.25500000920E-02 0.  1.
</event>
<event>
 5   0  0.1210633E-04  0.1998500E+04  0.7818609E-02  0.8607322E-01
       -1   -1    0    0    0  501  0.00000000000E+00  0.00000000000E+00  0.54450174735E+03  0.54450174738E+03  0.50400001928E-02 0. -1.
        1   -1    0    0  501    0  0.00000000000E+00  0.00000000000E+00 -0.18337877774E+04  0.18337877774E+04  0.50400001928E-02 0.  1.
    10030    2    1    2    0    0  0.00000000000E+00  0.00000000000E+00 -0.12892860300E+04  0.23782895247E+04  0.19985000866E+04 0.  0.
        2    1    3    3  502    0 -0.12084643921E+03 -0.47106979452E+03  0.39416477506E+03  0.62600038585E+03  0.25500000920E-02 0. -1.
       -2    1    3    3    0  502  0.12084643921E+03  0.47106979452E+03 -0.16834508051E+04  0.17522891389E+04  0.25500000920E-02 0.  1.
</event>
<event>
 5   0  0.2463085E-04  0.1957437E+04  0.7818609E-02  0.8626783E-01
        2   -1    0    0  501    0  0.00000000000E+00  0.00000000000E+00  0.15268673841E+04  0.15268673841E+04  0.25500000920E-02 0.  1.
       -2   -1    0    0    0  501  0.00000000000E+00  0.00000000000E+00 -0.62735655120E+03  0.62735655120E+03  0.25500000920E-02 0. -1.
    10030    2    1    2    0    0  0.00000000000E+00  0.00000000000E+00  0.89951083293E+03  0.21542239353E+04  0.19574373617E+04 0.  0.
        2    1    3    3  502    0 -0.10662720337E+03 -0.38430555285E+03 -0.53387102367E+03  0.66639206806E+03  0.25500000920E-02 0. -1.
       -2    1    3    3    0  502  0.10662720337E+03  0.38430555285E+03  0.14333818566E+04  0.14878318673E+04  0.25500000920E-02 0.  1.
</event>
<event>
 5   0  0.1324930E-04  0.1985703E+04  0.7818609E-02  0.8613334E-01
        1   -1    0    0  501    0  0.00000000000E+00  0.00000000000E+00  0.18933523635E+04  0.18933523635E+04  0.50400001928E-02 0.  1.
       -1   -1    0    0    0  501  0.00000000000E+00  0.00000000000E+00 -0.52063945349E+03  0.52063945351E+03  0.50400001928E-02 0. -1.
    10030    2    1    2    0    0  0.00000000000E+00  0.00000000000E+00  0.13727129100E+04  0.24139918170E+04  0.19857028376E+04 0.  0.
        5    1    3    3  502    0  0.78803096916E+03  0.55020370515E+03  0.38361656685E+03  0.10348433147E+04  0.46999998093E+01 0. -1.
       -5    1    3    3    0  502 -0.78803096916E+03 -0.55020370515E+03  0.98909634317E+03  0.13791485024E+04  0.46999998093E+01 0.  1.
</event>
<event>
 5   0  0.2540506E-04  0.2060795E+04  0.7818609E-02  0.8578713E-01
       -2   -1    0    0    0  501  0.00000000000E+00  0.00000000000E+00  0.43112619524E+03  0.43112619525E+03  0.25500000920E-02 0.  1.
        2   -1    0    0  501    0  0.00000000000E+00  0.00000000000E+00 -0.24626649559E+04  0.24626649559E+04  0.25500000920E-02 0. -1.
    10030    2    1    2    0    0  0.00000000000E+00  0.00000000000E+00 -0.20315387607E+04  0.28937911512E+04  0.20607953538E+04 0.  0.
        4    1    3    3  502    0 -0.71753270617E+03 -0.49675649779E+03 -0.24652638928E+03  0.90686111176E+03  0.12699999809E+01 0.  1.
       -4    1    3    3    0  502  0.71753270617E+03  0.49675649779E+03 -0.17850123714E+04  0.19869300394E+04  0.12699999809E+01 0. -1.
</event>
<event>
 5   0  0.1207228E-04  0.1993001E+04  0.7818609E-02  0.8609900E-01
        1   -1    0    0  501    0  0.00000000000E+00  0.00000000000E+00  0.17365286892E+04  0.17365286892E+04  0.50400001928E-02 0.  1.
       -1   -1    0    0    0  501  0.00000000000E+00  0.00000000000E+00 -0.57183806096E+03  0.57183806098E+03  0.50400001928E-02 0. -1.
    10030    2    1    2    0    0  0.00000000000E+00  0.00000000000E+00  0.11646906283E+04  0.23083667502E+04  0.19930009518E+04 0.  0.
        1    1    3    3  502    0  0.53714238386E+03 -0.16229307794E+03 -0.37146254416E+03  0.67293789121E+03  0.50400001928E-02 0. -1.
       -1    1    3    3    0  502 -0.53714238386E+03  0.16229307794E+03  0.15361531724E+04  0.16354288590E+04  0.50400001928E-02 0.  1.
</event>
<event>
 5   0  0.1324930E-04  0.1732582E+04  0.7818609E-02  0.8742997E-01
       -1   -1    0    0    0  501  0.00000000000E+00  0.00000000000E+00  0.63875155612E+03  0.63875155614E+03  0.50400001928E-02 0.  1.
        1   -1    0    0  501    0  0.00000000000E+00  0.00000000000E+00 -0.11748860022E+04  0.11748860022E+04  0.50400001928E-02 0. -1.
    10030    2    1    2    0    0  0.00000000000E+00  0.00000000000E+00 -0.53613444608E+03  0.18136375584E+04  0.17325821911E+04 0.  0.
        5    1    3    3  502    0  0.85697572353E+03  0.62026035332E+02 -0.15252422739E+03  0.87266279267E+03  0.46999998093E+01 0. -1.
       -5    1    3    3    0  502 -0.85697572353E+03 -0.62026035332E+02 -0.38361021869E+03  0.94097476569E+03  0.46999998093E+01 0.  1.
</event>
<event>
 5   0  0.1258546E-04  0.2002647E+04  0.7818609E-02  0.8605384E-01
        1   -1    0    0  501    0  0.00000000000E+00  0.00000000000E+00  0.88560078792E+03  0.88560078793E+03  0.50400001928E-02 0.  1.
       -1   -1    0    0    0  501  0.00000000000E+00  0.00000000000E+00 -0.11321683671E+04  0.11321683671E+04  0.50400001928E-02 0. -1.
    10030    2    1    2    0    0  0.00000000000E+00  0.00000000000E+00 -0.24656757922E+03  0.20177691551E+04  0.20026474458E+04 0.  0.
        4    1    3    3  502    0  0.33167077444E+03 -0.23842952995E+03  0.79783673044E+03  0.89632538997E+03  0.12699999809E+01 0.  1.
       -4    1    3    3    0  502 -0.33167077444E+03  0.23842952995E+03 -0.10444043097E+04  0.11214437651E+04  0.12699999809E+01 0. -1.
</event>
<event>
 5   0  0.2463085E-04  0.2033472E+04  0.7818609E-02  0.8591130E-01
       -2   -1    0    0    0  501  0.00000000000E+00  0.00000000000E+00  0.88915248954E+03  0.88915248954E+03  0.25500000920E-02 0. -1.
        2   -1    0    0  501    0  0.00000000000E+00  0.00000000000E+00 -0.11626259490E+04  0.11626259490E+04  0.25500000920E-02 0.  1.
    10030    2    1    2    0    0  0.00000000000E+00  0.00000000000E+00 -0.27347345941E+03  0.20517784385E+04  0.20334716688E+04 0.  0.
        2    1    3    3  502    0 -0.84070679093E+03  0.40255127372E+03 -0.54649162815E+03  0.10805038343E+04  0.25500000920E-02 0. -1.
       -2    1    3    3    0  502  0.84070679093E+03 -0.40255127372E+03  0.27301816874E+03  0.97127460420E+03  0.25500000920E-02 0.  1.
</event>
<event>
 5   0  0.2421737E-04  0.1989227E+04  0.7818609E-02  0.8611674E-01
       -2   -1    0    0    0  501  0.00000000000E+00  0.00000000000E+00  0.14022255460E+04  0.14022255460E+04  0.25500000920E-02 0. -1.
        2   -1    0    0  501    0  0.00000000000E+00  0.00000000000E+00 -0.70548968363E+03  0.70548968364E+03  0.25500000920E-02 0.  1.
    10030    2    1    2    0    0  0.00000000000E+00  0.00000000000E+00  0.69673586233E+03  0.21077152296E+04  0.19892266405E+04 0.  0.
        1    1    3    3  502    0  0.79338365386E+03 -0.46899759930E+03 -0.47857426711E+02  0.92287957160E+03  0.50400001928E-02 0.  1.
       -1    1    3    3    0  502 -0.79338365386E+03  0.46899759930E+03  0.74459328904E+03  0.11848356580E+04  0.50400001928E-02 0. -1.
</event>
<event>
 5   0  0.1324930E-04  0.1984279E+04  0.7818609E-02  0.8614006E-01
       -1   -1    0    0    0  501  0.00000000000E+00  0.00000000000E+00  0.14080704614E+04  0.14080704614E+04  0.50400001928E-02 0. -1.
        1   -1    0    0  501    0  0.00000000000E+00  0.00000000000E+00 -0.69907043589E+03  0.69907043590E+03  0.50400001928E-02 0.  1.
    10030    2    1    2    0    0  0.00000000000E+00  0.00000000000E+00  0.70900002552E+03  0.21071408973E+04  0.19842786410E+04 0.  0.
        5    1    3    3  502    0 -0.52838588383E+03 -0.15061462255E+03 -0.52275078424E+03  0.75839757330E+03  0.46999998093E+01 0.  1.
       -5    1    3    3    0  502  0.52838588383E+03  0.15061462255E+03  0.12317508098E+04  0.13487433240E+04  0.46999998093E+01 0. -1.
</event>
<event>
 5   0  0.2596061E-04  0.1986926E+04  0.7818609E-02  0.8612758E-01
        2   -1    0    0  501    0  0.00000000000E+00  0.00000000000E+00  0.88635554684E+03  0.88635554684E+03  0.25500000920E-02 0.  1.
       -2   -1    0    0    0  501  0.00000000000E+00  0.00000000000E+00 -0.11135136207E+04  0.11135136207E+04  0.25500000920E-02 0. -1.
    10030    2    1    2    0    0  0.00000000000E+00  0.00000000000E+00 -0.22715807384E+03  0.19998691675E+04  0.19869262434E+04 0.  0.
        5    1    3    3  502    0  0.86481651577E+01  0.92758487145E+03  0.24434731962E+03  0.95927899336E+03  0.46999998093E+01 0.  1.
       -5    1    3    3    0  502 -0.86481651577E+01 -0.92758487145E+03 -0.47150539346E+03  0.10405901742E+04  0.46999998093E+01 0. -1.
</event>
<event>
 5   0  0.2596061E-04  0.1905676E+04  0.7818609E-02  0.8652036E-01
        2   -1    0    0  501    0  0.00000000000E+00  0.00000000000E+00  0.88305278326E+03  0.88305278326E+03  0.25500000920E-02 0. -1.
       -2   -1    0    0    0  501  0.00000000000E+00  0.00000000000E+00 -0.10281378363E+04  0.10281378363E+04  0.25500000920E-02 0.  1.
    10030    2    1    2    0    0  0.00000000000E+00  0.00000000000E+00 -0.14508505302E+03  0.19111906195E+04  0.19056757100E+04 0.  0.
        5    1    3    3  502    0  0.97168272715E+02  0.84192082158E+03 -0.50923984345E+03  0.98874650502E+03  0.46999998093E+01 0.  1.
       -5    1    3    3    0  502 -0.97168272715E+02 -0.84192082158E+03  0.36415479043E+03  0.92244411453E+03  0.46999998093E+01 0. -1.
</event>
<event>
 5   0  0.2596061E-04  0.1999244E+04  0.7818609E-02  0.8606974E-01
       -2   -1    0    0    0  501  0.00000000000E+00  0.00000000000E+00  0.56864548031E+03  0.56864548032E+03  0.25500000920E-02 0.  1.
        2   -1    0    0  501    0  0.00000000000E+00  0.00000000000E+00 -0.17572359036E+04  0.17572359036E+04  0.25500000920E-02 0. -1.
    10030    2    1    2    0    0  0.00000000000E+00  0.00000000000E+00 -0.11885904233E+04  0.23258813839E+04  0.19992441116E+04 0.  0.
        5    1    3    3  502    0  0.32042251670E+03  0.60463011047E+03 -0.14420268013E+04  0.15961552385E+04  0.46999998093E+01 0. -1.
       -5    1    3    3    0  502 -0.32042251670E+03 -0.60463011047E+03  0.25343637798E+03  0.72972614546E+03  0.46999998093E+01 0.  1.
</event>
<event>
 5   0  0.1207228E-04  0.2030270E+04  0.7818609E-02  0.8592598E-01
       -1   -1    0    0    0  501  0.00000000000E+00  0.00000000000E+00  0.43269690824E+03  0.43269690827E+03  0.50400001928E-02 0.  1.
        1   -1    0    0  501    0  0.00000000000E+00  0.00000000000E+00 -0.23815727398E+04  0.23815727398E+04  0.50400001928E-02 0. -1.
    10030    2    1    2    0    0  0.00000000000E+00  0.00000000000E+00 -0.19488758316E+04  0.28142696481E+04  0.20302700917E+04 0.  0.
        1    1    3    3  502    0  0.29985162333E+03  0.16058021356E+03  0.35135434829E+03  0.48902646052E+03  0.50400001928E-02 0.  1.
       -1    1    3    3    0  502 -0.29985162333E+03 -0.16058021356E+03 -0.23002301798E+04  0.23252431876E+04  0.50400001928E-02 0. -1.
</event>
<event>
 5   0  0.2540506E-04  0.1992778E+04  0.7818609E-02  0.8610005E-01
       -2   -1    0    0    0  501  0.00000000000E+00  0.00000000000E+00  0.84448626328E+03  0.84448626329E+03  0.25500000920E-02 0. -1.
        2   -1    0    0  501    0  0.00000000000E+00  0.00000000000E+00 -0.11756150655E+04  0.11756150655E+04  0.25500000920E-02 0.  1.
    10030    2    1    2    0    0  0.00000000000E+00  0.00000000000E+00 -0.33112880224E+03  0.20201013288E+04  0.19927777335E+04 0.  0.
        4    1    3    3  502    0  0.60445494930E+03  0.64107977682E+03 -0.63717455849E+03  0.10873555522E+04  0.12699999809E+01 0.  1.
       -4    1    3    3    0  502 -0.60445494930E+03 -0.64107977682E+03  0.30604575625E+03  0.93274577662E+03  0.12699999809E+01 0. -1.
</event>
<event>
 5   0  0.1207228E-04  0.2005452E+04  0.7818609E-02  0.8604076E-01
        1   -1    0    0  501    0  0.00000000000E+00  0.00000000000E+00  0.13272409095E+04  0.13272409095E+04  0.50400001928E-02 0. -1.
       -1   -1    0    0    0  501  0.00000000000E+00  0.00000000000E+00 -0.75755584927E+03  0.75755584929E+03  0.50400001928E-02 0.  1.
    10030    2    1    2    0    0  0.00000000000E+00  0.00000000000E+00  0.56968506021E+03  0.20847967588E+04  0.20054516842E+04 0.  0.
        1    1    3    3  502    0 -0.25268457946E+03 -0.86170685975E+03 -0.17898381834E+03  0.91565463800E+03  0.50400001928E-02 0.  1.
       -1    1    3    3    0  502  0.25268457946E+03  0.86170685975E+03  0.74866887855E+03  0.11691421208E+04  0.50400001928E-02 0. -1.
</event>
<event>
 5   0  0.1207228E-04  0.1995003E+04  0.7818609E-02  0.8608960E-01
        1   -1    0    0  501    0  0.00000000000E+00  0.00000000000E+00  0.14004603256E+04  0.14004603256E+04  0.50400001928E-02 0. -1.
       -1   -1    0    0    0  501  0.00000000000E+00  0.00000000000E+00 -0.71048756150E+03  0.71048756151E+03  0.50400001928E-02 0.  1.
    10030    2    1    2    0    0  0.00000000000E+00  0.00000000000E+00  0.68997276410E+03  0.21109478871E+04  0.19950034002E+04 0.  0.
        1    1    3    3  502    0  0.35038786038E+03  0.45241282281E+03 -0.51954194656E+03  0.77289899030E+03  0.50400001928E-02 0.  1.
       -1    1    3    3    0  502 -0.35038786038E+03 -0.45241282281E+03  0.12095147107E+04  0.13380488968E+04  0.50400001928E-02 0. -1.
</event>
<event>
 5   0  0.1210633E-04  0.2044190E+04  0.7818609E-02  0.8586235E-01
       -1   -1    0    0    0  501  0.00000000000E+00  0.00000000000E+00  0.84411655859E+03  0.84411655861E+03  0.50400001928E-02 0.  1.
        1   -1    0    0  501    0  0.00000000000E+00  0.00000000000E+00 -0.12375991978E+04  0.12375991978E+04  0.50400001928E-02 0. -1.
    10030    2    1    2    0    0  0.00000000000E+00  0.00000000000E+00 -0.39348263923E+03  0.20817157564E+04  0.20441897914E+04 0.  0.
        2    1    3    3  502    0 -0.35061032303E+03  0.51019888050E+03 -0.10249654837E+04  0.11974075075E+04  0.25500000920E-02 0. -1.
       -2    1    3    3    0  502  0.35061032303E+03 -0.51019888050E+03  0.63148284446E+03  0.88430824893E+03  0.25500000920E-02 0.  1.
</event>
<event>
 5   0  0.2540506E-04  0.1964044E+04  0.7818609E-02  0.8623618E-01
       -2   -1    0    0    0  501  0.00000000000E+00  0.00000000000E+00  0.49657756514E+03  0.49657756515E+03  0.25500000920E-02 0.  1.
        2   -1    0    0  501    0  0.00000000000E+00  0.00000000000E+00 -0.19420276112E+04  0.19420276112E+04  0.25500000920E-02 0. -1.
    10030    2    1    2    0    0  0.00000000000E+00  0.00000000000E+00 -0.14454500461E+04  0.24386051764E+04  0.19640441366E+04 0.  0.
        4    1    3    3  502    0  0.21800288568E+03  0.13948723765E+03 -0.18989200976E+04  0.19164762189E+04  0.12699999809E+01 0. -1.
       -4    1    3    3    0  502 -0.21800288568E+03 -0.13948723765E+03  0.45347005156E+03  0.52212895744E+03  0.12699999809E+01 0.  1.
</event>
<event>
 5   0  0.1258546E-04  0.1985927E+04  0.7818609E-02  0.8613229E-01
        1   -1    0    0  501    0  0.00000000000E+00  0.00000000000E+00  0.98587060192E+03  0.98587060193E+03  0.50400001928E-02 0. -1.
       -1   -1    0    0    0  501  0.00000000000E+00  0.00000000000E+00 -0.10001076916E+04  0.10001076916E+04  0.50400001928E-02 0.  1.
    10030    2    1    2    0    0  0.00000000000E+00  0.00000000000E+00 -0.14237089650E+02  0.19859782935E+04  0.19859272614E+04 0.  0.
        4    1    3    3  502    0 -0.62180352769E+03  0.15515542490E+03 -0.76559853225E+03  0.99842654132E+03  0.12699999809E+01 0.  1.
       -4    1    3    3    0  502  0.62180352769E+03 -0.15515542490E+03  0.75136144260E+03  0.98755175219E+03  0.12699999809E+01 0. -1.
</event>
<event>
 5   0  0.1231056E-04  0.1984760E+04  0.7818609E-02  0.8613779E-01
       -1   -1    0    0    0  501  0.00000000000E+00  0.00000000000E+00  0.65954412791E+03  0.65954412793E+03  0.50400001928E-02 0. -1.
        1   -1    0    0  501    0  0.00000000000E+00  0.00000000000E+00 -0.14931793577E+04  0.14931793577E+04  0.50400001928E-02 0.  1.
    10030    2    1    2    0    0  0.00000000000E+00  0.00000000000E+00 -0.83363522981E+03  0.21527234857E+04  0.19847596100E+04 0.  0.
        3    1    3    3  502    0  0.72170876812E+03  0.68078375674E+03 -0.39286730379E+03  0.10670870621E+04  0.10100000352E+00 0.  1.
       -3    1    3    3    0  502 -0.72170876812E+03 -0.68078375674E+03 -0.44076792602E+03  0.10856364236E+04  0.10100000352E+00 0. -1.
</event>
<event>
 5   0  0.2421737E-04  0.1678366E+04  0.7818609E-02  0.8773800E-01
        2   -1    0    0  501    0  0.00000000000E+00  0.00000000000E+00  0.97120417699E+03  0.97120417699E+03  0.25500000920E-02 0.  1.
       -2   -1    0    0    0  501  0.00000000000E+00  0.00000000000E+00 -0.72510801940E+03  0.72510801941E+03  0.25500000920E-02 0. -1.
    10030    2    1    2    0    0  0.00000000000E+00  0.00000000000E+00  0.24609615759E+03  0.16963121964E+04  0.16783657971E+04 0.  0.
        1    1    3    3  502    0 -0.24692576538E+03 -0.47286111532E+02 -0.68614997153E+03  0.73075994239E+03  0.50400001928E-02 0. -1.
       -1    1    3    3    0  502  0.24692576538E+03  0.47286111532E+02  0.93224612912E+03  0.96555225401E+03  0.50400001928E-02 0.  1.
</event>
<event>
 5   0  0.2596061E-04  0.1973139E+04  0.7818609E-02  0.8619283E-01
       -2   -1    0    0    0  501  0.00000000000E+00  0.00000000000E+00  0.78994524489E+03  0.78994524489E+03  0.25500000920E-02 0.  1.
        2   -1    0    0  501    0  0.00000000000E+00  0.00000000000E+00 -0.12321347601E+04  0.12321347601E+04  0.25500000920E-02 0. -1.
    10030    2    1    2    0    0  0.00000000000E+00  0.00000000000E+00 -0.44218951520E+03  0.20220800050E+04  0.19731386112E+04 0.  0.
        5    1    3    3  502    0 -0.24707853584E+02  0.53460660937E+03  0.62824581513E+03  0.82530576094E+03  0.46999998093E+01 0.  1.
       -5    1    3    3    0  502  0.24707853584E+02 -0.53460660937E+03 -0.10704353303E+04  0.11967742440E+04  0.46999998093E+01 0. -1.
</event>
<event>
 5   0  0.1258546E-04  0.1972502E+04  0.7818609E-02  0.8619586E-01
        1   -1    0    0  501    0  0.00000000000E+00  0.00000000000E+00  0.92572596990E+03  0.92572596992E+03  0.50400001928E-02 0.  1.
       -1   -1    0    0    0  501  0.00000000000E+00  0.00000000000E+00 -0.10507337073E+04  0.10507337073E+04  0.50400001928E-02 0. -1.
    10030    2    1    2    0    0  0.00000000000E+00  0.00000000000E+00 -0.12500773739E+03  0.19764596772E+04  0.19725024515E+04 0.  0.
        4    1    3    3  502    0  0.32112745948E+03  0.72149915569E+03 -0.65445635307E+03  0.10256698338E+04  0.12699999809E+01 0.  1.
       -4    1    3    3    0  502 -0.32112745948E+03 -0.72149915569E+03  0.52944861569E+03  0.95078984347E+03  0.12699999809E+01 0. -1.
</event>
<event>
 5   0  0.2540506E-04  0.2047256E+04  0.7818609E-02  0.8584840E-01
       -2   -1    0    0    0  501  0.00000000000E+00  0.00000000000E+00  0.43507944357E+03  0.43507944358E+03  0.25500000920E-02 0.  1.
        2   -1    0    0  501    0  0.00000000000E+00  0.00000000000E+00 -0.24083293144E+04  0.24083293144E+04  0.25500000920E-02 0. -1.
    10030    2    1    2    0    0  0.00000000000E+00  0.00000000000E+00 -0.19732498708E+04  0.28434087580E+04  0.20472562888E+04 0.  0.
        4    1    3    3  502    0 -0.64250377414E+03  0.45163754709E+03 -0.74785206863E+02  0.78891191764E+03  0.12699999809E+01 0.  1.
       -4    1    3    3    0  502  0.64250377414E+03 -0.45163754709E+03 -0.18984646640E+04  0.20544968403E+04  0.12699999809E+01 0. -1.
</event>
<event>
 5   0  0.2463085E-04  0.1948109E+04  0.7818609E-02  0.8631273E-01
        2   -1    0    0  501    0  0.00000000000E+00  0.00000000000E+00  0.14898285050E+04  0.14898285050E+04  0.25500000920E-02 0. -1.
       -2   -1    0    0    0  501  0.00000000000E+00  0.00000000000E+00 -0.63683980260E+03  0.63683980260E+03  0.25500000920E-02 0.  1.
    10030    2    1    2    0    0  0.00000000000E+00  0.00000000000E+00  0.85298870237E+03  0.21266683076E+04  0.19481089200E+04 0.  0.
        2    1    3    3  502    0  0.71014690965E+03 -0.21658164709E+03 -0.26182671156E+03  0.78725438712E+03  0.25500000920E-02 0.  1.
       -2    1    3    3    0  502 -0.71014690965E+03  0.21658164709E+03  0.11148154139E+04  0.13394139205E+04  0.25500000920E-02 0. -1.
</event>
<event>
 5   0  0.1207228E-04  0.2004282E+04  0.7818609E-02  0.8604621E-01
       -1   -1    0    0    0  501  0.00000000000E+00  0.00000000000E+00  0.66350966190E+03  0.66350966192E+03  0.50400001928E-02 0.  1.
        1   -1    0    0  501    0  0.00000000000E+00  0.00000000000E+00 -0.15135973627E+04  0.15135973627E+04  0.50400001928E-02 0. -1.
    10030    2    1    2    0    0  0.00000000000E+00  0.00000000000E+00 -0.85008770081E+03  0.21771070246E+04  0.20042818908E+04 0.  0.
        1    1    3    3  502    0 -0.82168796844E+03 -0.21683851070E+03 -0.10019693858E+04  0.13138236972E+04  0.50400001928E-02 0. -1.
       -1    1    3    3    0  502  0.82168796844E+03  0.21683851070E+03  0.15188168498E+03  0.86328332745E+03  0.50400001928E-02 0.  1.
</event>
<event>
 5   0  0.2463085E-04  0.1395398E+04  0.7818609E-02  0.8957157E-01
       -2   -1    0    0    0  501  0.00000000000E+00  0.00000000000E+00  0.65373584463E+03  0.65373584463E+03  0.25500000920E-02 0.  1.
        2   -1    0    0  501    0  0.00000000000E+00  0.00000000000E+00 -0.74461832974E+03  0.74461832974E+03  0.25500000920E-02 0. -1.
    10030    2    1    2    0    0  0.00000000000E+00  0.00000000000E+00 -0.90882485110E+02  0.13983541744E+04  0.13953977107E+04 0.  0.
        2    1    3    3  502    0  0.41792544620E+03 -0.17226654780E+02  0.51415504057E+03  0.66280754519E+03  0.25500000920E-02 0.  1.
       -2    1    3    3    0  502 -0.41792544620E+03  0.17226654780E+02 -0.60503752568E+03  0.73554662918E+03  0.25500000920E-02 0. -1.
</event>
<event>
 5   0  0.1210633E-04  0.2003616E+04  0.7818609E-02  0.8604932E-01
       -1   -1    0    0    0  501  0.00000000000E+00  0.00000000000E+00  0.16429862861E+04  0.16429862861E+04  0.50400001928E-02 0.  1.
        1   -1    0    0  501    0  0.00000000000E+00  0.00000000000E+00 -0.61085074309E+03  0.61085074311E+03  0.50400001928E-02 0. -1.
    10030    2    1    2    0    0  0.00000000000E+00  0.00000000000E+00  0.10321355430E+04  0.22538370292E+04  0.20036161247E+04 0.  0.
        2    1    3    3  502    0 -0.39413290473E+03  0.83351482027E+03  0.95683267817E+03  0.13287650192E+04  0.25500000920E-02 0.  1.
       -2    1    3    3    0  502  0.39413290473E+03 -0.83351482027E+03  0.75302864786E+02  0.92507200998E+03  0.25500000920E-02 0. -1.
</event>
<event>
 5   0  0.1258546E-04  0.2008684E+04  0.7818609E-02  0.8602571E-01
        1   -1    0    0  501    0  0.00000000000E+00  0.00000000000E+00  0.13040705733E+04  0.13040705733E+04  0.50400001928E-02 0. -1.
       -1   -1    0    0    0  501  0.00000000000E+00  0.00000000000E+00 -0.77350330526E+03  0.77350330528E+03  0.50400001928E-02 0.  1.
    10030    2    1    2    0    0  0.00000000000E+00  0.00000000000E+00  0.53056726802E+03  0.20775738786E+04  0.20086840456E+04 0.  0.
        4    1    3    3  502    0 -0.59752308272E+03  0.70976678375E+03  0.66304887109E+03  0.11403675460E+04  0.12699999809E+01 0. -1.
       -4    1    3    3    0  502  0.59752308272E+03 -0.70976678375E+03 -0.13248160307E+03  0.93720633254E+03  0.12699999809E+01 0.  1.
</event>
<event>
 5   0  0.2421737E-04  0.1963296E+04  0.7818609E-02  0.8623976E-01
       -2   -1    0    0    0  501  0.00000000000E+00  0.00000000000E+00  0.82273716843E+03  0.82273716844E+03  0.25500000920E-02 0.  1.
        2   -1    0    0  501    0  0.00000000000E+00  0.00000000000E+00 -0.11712527822E+04  0.11712527822E+04  0.25500000920E-02 0. -1.
    10030    2    1    2    0    0  0.00000000000E+00  0.00000000000E+00 -0.34851561380E+03  0.19939899507E+04  0.19632964092E+04 0.  0.
        1    1    3    3  502    0  0.79874389152E+03 -0.16041959501E+03  0.38194138782E+03  0.89978079245E+03  0.50400001928E-02 0.  1.
       -1    1    3    3    0  502 -0.79874389152E+03  0.16041959501E+03 -0.73045700162E+03  0.10942091582E+04  0.50400001928E-02 0. -1.
</event>
<event>
 5   0  0.2463085E-04  0.2001799E+04  0.7818609E-02  0.8605780E-01
        2   -1    0    0  501    0  0.00000000000E+00  0.00000000000E+00  0.17529579202E+04  0.17529579202E+04  0.25500000920E-02 0.  1.
       -2   -1    0    0    0  501  0.00000000000E+00  0.00000000000E+00 -0.57149130168E+03  0.57149130169E+03  0.25500000920E-02 0. -1.
    10030    2    1    2    0    0  0.00000000000E+00  0.00000000000E+00  0.11814666185E+04  0.23244492219E+04  0.20017993942E+04 0.  0.
        2    1    3    3  502    0  0.27843615031E+03  0.85887599793E+03  0.89128410291E+02  0.90726982930E+03  0.25500000920E-02 0.  1.
       -2    1    3    3    0  502 -0.27843615031E+03 -0.85887599793E+03  0.10923382082E+04  0.14171793926E+04  0.25500000920E-02 0. -1.
</event>
<event>
 5   0  0.1207228E-04  0.2027520E+04  0.7818609E-02  0.8593861E-01
        1   -1    0    0  501    0  0.00000000000E+00  0.00000000000E+00  0.14993721037E+04  0.14993721037E+04  0.50400001928E-02 0.  1.
       -1   -1    0    0    0  501  0.00000000000E+00  0.00000000000E+00 -0.68542623383E+03  0.68542623385E+03  0.50400001928E-02 0. -1.
    10030    2    1    2    0    0  0.00000000000E+00  0.00000000000E+00  0.81394586985E+03  0.21847983375E+04  0.20275196415E+04 0.  0.
        1    1    3    3  502    0 -0.97272023236E+02 -0.93350262398E+03 -0.59213435563E+01  0.93857554721E+03  0.50400001928E-02 0. -1.
       -1    1    3    3    0  502  0.97272023236E+02  0.93350262398E+03  0.81986721341E+03  0.12462227903E+04  0.50400001928E-02 0.  1.
</event>
<event>
 5   0  0.1210633E-04  0.1948953E+04  0.7818609E-02  0.8630866E-01
       -1   -1    0    0    0  501  0.00000000000E+00  0.00000000000E+00  0.86239288664E+03  0.86239288665E+03  0.50400001928E-02 0. -1.
        1   -1    0    0  501    0  0.00000000000E+00  0.00000000000E+00 -0.11011275573E+04  0.11011275573E+04  0.50400001928E-02 0.  1.
    10030    2    1    2    0    0  0.00000000000E+00  0.00000000000E+00 -0.23873467070E+03  0.19635204440E+04  0.19489531269E+04 0.  0.
        2    1    3    3  502    0  0.66136674075E+03 -0.66912657056E+03  0.13643643343E+03  0.95065831589E+03  0.25500000920E-02 0.  1.
       -2    1    3    3    0  502 -0.66136674075E+03  0.66912657056E+03 -0.37517110413E+03  0.10128621281E+04  0.25500000920E-02 0. -1.
</event>
<event>
 5   0  0.2421737E-04  0.1889894E+04  0.7818609E-02  0.8659903E-01
       -2   -1    0    0    0  501  0.00000000000E+00  0.00000000000E+00  0.13663044698E+04  0.13663044698E+04  0.25500000920E-02 0. -1.
        2   -1    0    0  501    0  0.00000000000E+00  0.00000000000E+00 -0.65353315144E+03  0.65353315144E+03  0.25500000920E-02 0.  1.
    10030    2    1    2    0    0  0.00000000000E+00  0.00000000000E+00  0.71277131840E+03  0.20198376213E+04  0.18898944584E+04 0.  0.
        1    1    3    3  502    0  0.67675623236E+02 -0.32761734317E+03  0.13008983578E+04  0.13432236042E+04  0.50400001928E-02 0. -1.
       -1    1    3    3    0  502 -0.67675623236E+02  0.32761734317E+03 -0.58812703944E+03  0.67661401705E+03  0.50400001928E-02 0.  1.
</event>
<event>
 5   0  0.1210633E-04  0.1940443E+04  0.7818609E-02  0.8634983E-01
       -1   -1    0    0    0  501  0.00000000000E+00  0.00000000000E+00  0.11647521706E+04  0.11647521706E+04  0.50400001928E-02 0.  1.
        1   -1    0    0  501    0  0.00000000000E+00  0.00000000000E+00 -0.80818056002E+03  0.80818056004E+03  0.50400001928E-02 0. -1.
    10030    2    1    2    0    0  0.00000000000E+00  0.00000000000E+00  0.35657161057E+03  0.19729327306E+04  0.19404433118E+04 0.  0.
        2    1    3    3  502    0  0.69260749337E+03  0.47875085196E+03 -0.31188838790E+03  0.89787631924E+03  0.25500000920E-02 0. -1.
       -2    1    3    3    0  502 -0.69260749337E+03 -0.47875085196E+03  0.66845999847E+03  0.10750564114E+04  0.25500000920E-02 0.  1.
</event>
<event>
 5   0  0.1231056E-04  0.1698980E+04  0.7818609E-02  0.8761946E-01
        1   -1    0    0  501    0  0.00000000000E+00  0.00000000000E+00  0.52418756682E+03  0.52418756685E+03  0.50400001928E-02 0. -1.
       -1   -1    0    0    0  501  0.00000000000E+00  0.00000000000E+00 -0.13766704099E+04  0.13766704099E+04  0.50400001928E-02 0.  1.
    10030    2    1    2    0    0  0.00000000000E+00  0.00000000000E+00 -0.85248284303E+03  0.19008579767E+04  0.16989802971E+04 0.  0.
        3    1    3    3  502    0  0.83339045924E+03 -0.65602563089E+02 -0.59514346510E+03  0.10261769380E+04  0.10100000352E+00 0.  1.
       -3    1    3    3    0  502 -0.83339045924E+03  0.65602563089E+02 -0.25733937793E+03  0.87468103870E+03  0.10100000352E+00 0. -1.
</event>
<event>
 5   0  0.2540506E-04  0.1970844E+04  0.7818609E-02  0.8620374E-01
        2   -1    0    0  501    0  0.00000000000E+00  0.00000000000E+00  0.90245675652E+03  0.90245675653E+03  0.25500000920E-02 0. -1.
       -2   -1    0    0    0  501  0.00000000000E+00  0.00000000000E+00 -0.10760148768E+04  0.10760148768E+04  0.25500000920E-02 0.  1.
    10030    2    1    2    0    0  0.00000000000E+00  0.00000000000E+00 -0.17355812028E+03  0.19784716333E+04  0.19708443832E+04 0.  0.
        4    1    3    3  502    0 -0.89415718410E+03  0.39077942913E+03  0.50973165841E+02  0.97715173267E+03  0.12699999809E+01 0. -1.
       -4    1    3    3    0  502  0.89415718410E+03 -0.39077942913E+03 -0.22453128612E+03  0.10013199007E+04  0.12699999809E+01 0.  1.
</event>
<event>
 5   0  0.2540506E-04  0.1670612E+04  0.7818609E-02  0.8778305E-01
       -2   -1    0    0    0  501  0.00000000000E+00  0.00000000000E+00  0.91725096688E+03  0.91725096688E+03  0.25500000920E-02 0. -1.
        2   -1    0    0  501    0  0.00000000000E+00  0.00000000000E+00 -0.76068190210E+03  0.76068190211E+03  0.25500000920E-02 0.  1.
    10030    2    1    2    0    0  0.00000000000E+00  0.00000000000E+00  0.15656906477E+03  0.16779328690E+04  0.16706121156E+04 0.  0.
        4    1    3    3  502    0  0.70472564971E+03  0.44703969106E+03  0.11382136087E+03  0.84228240029E+03  0.12699999809E+01 0.  1.
       -4    1    3    3    0  502 -0.70472564971E+03 -0.44703969106E+03  0.42747703901E+02  0.83565046870E+03  0.12699999809E+01 0. -1.
</event>
<event>
 5   0  0.2540506E-04  0.1964603E+04  0.7818609E-02  0.8623351E-01
       -2   -1    0    0    0  501  0.00000000000E+00  0.00000000000E+00  0.92435942887E+03  0.92435942888E+03  0.25500000920E-02 0.  1.
        2   -1    0    0  501    0  0.00000000000E+00  0.00000000000E+00 -0.10438750974E+04  0.10438750974E+04  0.25500000920E-02 0. -1.
    10030    2    1    2    0    0  0.00000000000E+00  0.00000000000E+00 -0.11951566853E+03  0.19682345263E+04  0.19646025439E+04 0.  0.
        4    1    3    3  502    0  0.40223571644E+03 -0.47545384084E+03  0.70129398522E+03  0.93790446900E+03  0.12699999809E+01 0.  1.
       -4    1    3    3    0  502 -0.40223571644E+03  0.47545384084E+03 -0.82080965376E+03  0.10303300573E+04  0.12699999809E+01 0. -1.
</event>
<event>
 5   0  0.2488886E-04  0.1891263E+04  0.7818609E-02  0.8659217E-01
       -2   -1    0    0    0  501  0.00000000000E+00  0.00000000000E+00  0.70977953742E+03  0.70977953742E+03  0.25500000920E-02 0.  1.
        2   -1    0    0  501    0  0.00000000000E+00  0.00000000000E+00 -0.12598548669E+04  0.12598548669E+04  0.25500000920E-02 0. -1.
    10030    2    1    2    0    0  0.00000000000E+00  0.00000000000E+00 -0.55007532947E+03  0.19696344043E+04  0.18912632864E+04 0.  0.
        3    1    3    3  502    0  0.54711392872E+03  0.67595522082E+03 -0.66187295953E+03  0.10928517449E+04  0.10100000352E+00 0. -1.
       -3    1    3    3    0  502 -0.54711392872E+03 -0.67595522082E+03  0.11179763007E+03  0.87678265941E+03  0.10100000352E+00 0.  1.
</event>
<event>
 5   0  0.1207228E-04  0.2057023E+04  0.7818609E-02  0.8580415E-01
       -1   -1    0    0    0  501  0.00000000000E+00  0.00000000000E+00  0.43763910595E+03  0.43763910598E+03  0.50400001928E-02 0.  1.
        1   -1    0    0  501    0  0.00000000000E+00  0.00000000000E+00 -0.24171424591E+04  0.24171424591E+04  0.50400001928E-02 0. -1.
    10030    2    1    2    0    0  0.00000000000E+00  0.00000000000E+00 -0.19795033532E+04  0.28547815651E+04  0.20570231548E+04 0.  0.
        1    1    3    3  502    0 -0.30947972649E+03 -0.29748381237E+03 -0.22868727255E+04  0.23268135255E+04  0.50400001928E-02 0. -1.
       -1    1    3    3    0  502  0.30947972649E+03  0.29748381237E+03  0.30736937236E+03  0.52796803958E+03  0.50400001928E-02 0.  1.
</event>
<event>
 5   0  0.2463085E-04  0.1788523E+04  0.7818609E-02  0.8712427E-01
        2   -1    0    0  501    0  0.00000000000E+00  0.00000000000E+00  0.20496220426E+04  0.20496220426E+04  0.25500000920E-02 0.  1.
       -2   -1    0    0    0  501  0.00000000000E+00  0.00000000000E+00 -0.39017132368E+03  0.39017132368E+03  0.25500000920E-02 0. -1.
    10030    2    1    2    0    0  0.00000000000E+00  0.00000000000E+00  0.16594507189E+04  0.24397933663E+04  0.17885231286E+04 0.  0.
        2    1    3    3  502    0 -0.61638796215E+03 -0.12306929669E+03  0.16974542879E+04  0.18100914980E+04  0.25500000920E-02 0.  1.
       -2    1    3    3    0  502  0.61638796215E+03  0.12306929669E+03 -0.38003568953E+02  0.62970186829E+03  0.25500000920E-02 0. -1.
</event>
<event>
 5   0  0.2421737E-04  0.1937888E+04  0.7818609E-02  0.8636224E-01
        2   -1    0    0  501    0  0.00000000000E+00  0.00000000000E+00  0.11035259687E+04  0.11035259687E+04  0.25500000920E-02 0.  1.
       -2   -1    0    0    0  501  0.00000000000E+00  0.00000000000E+00 -0.85077507151E+03  0.85077507152E+03  0.25500000920E-02 0. -1.
    10030    2    1    2    0    0  0.00000000000E+00  0.00000000000E+00  0.25275089716E+03  0.19543010402E+04  0.19378879069E+04 0.  0.
        1    1    3    3  502    0  0.70967348656E+02  0.55070383362E+02 -0.84656687453E+03  0.85131932010E+03  0.50400001928E-02 0. -1.
       -1    1    3    3    0  502 -0.70967348656E+02 -0.55070383362E+02  0.10993177717E+04  0.11029817201E+04  0.50400001928E-02 0.  1.
</event>
<event>
 5   0  0.1210633E-04  0.1904458E+04  0.7818609E-02  0.8652641E-01
       -1   -1    0    0    0  501  0.00000000000E+00  0.00000000000E+00  0.66090698908E+03  0.66090698910E+03  0.50400001928E-02 0. -1.
        1   -1    0    0  501    0  0.00000000000E+00  0.00000000000E+00 -0.13719632145E+04  0.13719632145E+04  0.50400001928E-02 0.  1.
    10030    2    1    2    0    0  0.00000000000E+00  0.00000000000E+00 -0.71105622543E+03  0.20328702036E+04  0.19044580093E+04 0.  0.
        2    1    3    3  502    0 -0.77426029685E+02  0.92427027179E+03 -0.12542450624E+03  0.93594958848E+03  0.25500000920E-02 0.  1.
       -2    1    3    3    0  502  0.77426029685E+02 -0.92427027179E+03 -0.58563171919E+03  0.10969206151E+04  0.25500000920E-02 0. -1.
</event>
<event>
 5   0  0.1210633E-04  0.2140026E+04  0.7818609E-02  0.8543814E-01
        1   -1    0    0  501    0  0.00000000000E+00  0.00000000000E+00  0.16190394569E+04  0.16190394569E+04  0.50400001928E-02 0. -1.
       -1   -1    0    0    0  501  0.00000000000E+00  0.00000000000E+00 -0.70716513129E+03  0.70716513131E+03  0.50400001928E-02 0.  1.
    10030    2    1    2    0    0  0.00000000000E+00  0.00000000000E+00  0.91187432560E+03  0.23262045882E+04  0.21400264018E+04 0.  0.
        2    1    3    3  502    0 -0.88367082231E+02  0.29182208146E+02  0.16146322005E+04  0.16173118084E+04  0.25500000920E-02 0. -1.
       -2    1    3    3    0  502  0.88367082231E+02 -0.29182208146E+02 -0.70275787494E+03  0.70889277983E+03  0.25500000920E-02 0.  1.
</event>
<event>
 5   0  0.2540506E-04  0.2026657E+04  0.7818609E-02  0.8594258E-01
        2   -1    0    0  501    0  0.00000000000E+00  0.00000000000E+00  0.16648974222E+04  0.16648974222E+04  0.25500000920E-02 0. -1.
       -2   -1    0    0    0  501  0.00000000000E+00  0.00000000000E+00 -0.61675523850E+03  0.61675523850E+03  0.25500000920E-02 0.  1.
    10030    2    1    2    0    0  0.00000000000E+00  0.00000000000E+00  0.10481421837E+04  0.22816526607E+04  0.20266565636E+04 0.  0.
        4    1    3    3  502    0 -0.35700187516E+03 -0.76723915743E+03 -0.10349345404E+03  0.85253666871E+03  0.12699999809E+01 0.  1.
       -4    1    3    3    0  502  0.35700187516E+03  0.76723915743E+03  0.11516356377E+04  0.14291159920E+04  0.12699999809E+01 0. -1.
</event>
<event>
 5   0  0.2540506E-04  0.2015448E+04  0.7818609E-02  0.8599432E-01
        2   -1    0    0  501    0  0.00000000000E+00  0.00000000000E+00  0.12157490367E+04  0.12157490367E+04  0.25500000920E-02 0. -1.
       -2   -1    0    0    0  501  0.00000000000E+00  0.00000000000E+00 -0.83529380632E+03  0.83529380633E+03  0.25500000920E-02 0.  1.
    10030    2    1    2    0    0  0.00000000000E+00  0.00000000000E+00  0.38045523035E+03  0.20510428430E+04  0.20154479804E+04 0.  0.
        4    1    3    3  502    0 -0.75130081831E+03 -0.42463507199E+03 -0.33928691053E+03  0.92729988920E+03  0.12699999809E+01 0.  1.
       -4    1    3    3    0  502  0.75130081831E+03  0.42463507199E+03  0.71974214088E+03  0.11237429538E+04  0.12699999809E+01 0. -1.
</event>
<event>
 5   0  0.2540506E-04  0.1985026E+04  0.7818609E-02  0.8613654E-01
       -2   -1    0    0    0  501  0.00000000000E+00  0.00000000000E+00  0.11091303273E+04  0.11091303273E+04  0.25500000920E-02 0. -1.
        2   -1    0    0  501    0  0.00000000000E+00  0.00000000000E+00 -0.88815700749E+03  0.88815700749E+03  0.25500000920E-02 0.  1.
    10030    2    1    2    0    0  0.00000000000E+00  0.00000000000E+00  0.22097331978E+03  0.19972873348E+04  0.19850258158E+04 0.  0.
        4    1    3    3  502    0 -0.59133861778E+03 -0.45381654356E+03  0.76985852303E+03  0.10715944076E+04  0.12699999809E+01 0. -1.
       -4    1    3    3    0  502  0.59133861778E+03  0.45381654356E+03 -0.54888520325E+03  0.92569292713E+03  0.12699999809E+01 0.  1.
</event>
<event>
 5   0  0.1231056E-04  0.1879449E+04  0.7818609E-02  0.8665154E-01
       -1   -1    0    0    0  501  0.00000000000E+00  0.00000000000E+00  0.54185537732E+03  0.54185537734E+03  0.50400001928E-02 0. -1.
        1   -1    0    0  501    0  0.00000000000E+00  0.00000000000E+00 -0.16297376393E+04  0.16297376393E+04  0.50400001928E-02 0.  1.
    10030    2    1    2    0    0  0.00000000000E+00  0.00000000000E+00 -0.10878822620E+04  0.21715930167E+04  0.18794489656E+04 0.  0.
        3    1    3    3  502    0  0.65820250657E+03 -0.44433253198E+03 -0.11244514089E+04  0.13766092110E+04  0.10100000352E+00 0.  1.
       -3    1    3    3    0  502 -0.65820250657E+03  0.44433253198E+03  0.36569146868E+02  0.79498380570E+03  0.10100000352E+00 0. -1.
</event>
<event>
 5   0  0.1324930E-04  0.1902047E+04  0.7818609E-02  0.8653838E-01
       -1   -1    0    0    0  501  0.00000000000E+00  0.00000000000E+00  0.14243778252E+04  0.14243778252E+04  0.50400001928E-02 0. -1.
        1   -1    0    0  501    0  0.00000000000E+00  0.00000000000E+00 -0.63497615761E+03  0.63497615763E+03  0.50400001928E-02 0.  1.
    10030    2    1    2    0    0  0.00000000000E+00  0.00000000000E+00  0.78940166760E+03  0.20593539829E+04  0.19020472744E+04 0.  0.
        5    1    3    3  502    0 -0.20733794935E+03 -0.34972281567E+03  0.13255295185E+04  0.13864868076E+04  0.46999998093E+01 0. -1.
       -5    1    3    3    0  502  0.20733794935E+03  0.34972281567E+03 -0.53612785093E+03  0.67286717529E+03  0.46999998093E+01 0.  1.
</event>
<event>
 5   0  0.2463085E-04  0.1954744E+04  0.7818609E-02  0.8628076E-01
        2   -1    0    0  501    0  0.00000000000E+00  0.00000000000E+00  0.98824991740E+03  0.98824991740E+03  0.25500000920E-02 0. -1.
       -2   -1    0    0    0  501  0.00000000000E+00  0.00000000000E+00 -0.96661415486E+03  0.96661415486E+03  0.25500000920E-02 0.  1.
    10030    2    1    2    0    0  0.00000000000E+00  0.00000000000E+00  0.21635762537E+02  0.19548640723E+04  0.19547443400E+04 0.  0.
        2    1    3    3  502    0  0.34560235926E+03 -0.57234047222E+03 -0.70213654610E+03  0.96954130198E+03  0.25500000920E-02 0.  1.
       -2    1    3    3    0  502 -0.34560235926E+03  0.57234047222E+03  0.72377230864E+03  0.98532277028E+03  0.25500000920E-02 0. -1.
</event>
<event>
 5   0  0.1210633E-04  0.1984678E+04  0.7818609E-02  0.8613818E-01
        1   -1    0    0  501    0  0.00000000000E+00  0.00000000000E+00  0.17935786968E+04  0.17935786968E+04  0.50400001928E-02 0.  1.
       -1   -1    0    0    0  501  0.00000000000E+00  0.00000000000E+00 -0.54903450474E+03  0.54903450477E+03  0.50400001928E-02 0. -1.
    10030    2    1    2    0    0  0.00000000000E+00  0.00000000000E+00  0.12445441920E+04  0.23426132015E+04  0.19846778998E+04 0.  0.
        2    1    3    3  502    0 -0.88268662924E+03 -0.37045830985E+03  0.93088671383E+03  0.13352621910E+04  0.25500000920E-02 0.  1.
       -2    1    3    3    0  502  0.88268662924E+03  0.37045830985E+03  0.31365747820E+03  0.10073510105E+04  0.25500000920E-02 0. -1.
</event>
<event>
 5   0  0.1210633E-04  0.1969966E+04  0.7818609E-02  0.8620793E-01
        1   -1    0    0  501    0  0.00000000000E+00  0.00000000000E+00  0.11674323789E+04  0.11674323789E+04  0.50400001928E-02 0. -1.
       -1   -1    0    0    0  501  0.00000000000E+00  0.00000000000E+00 -0.83104710106E+03  0.83104710108E+03  0.50400001928E-02 0.  1.
    10030    2    1    2    0    0  0.00000000000E+00  0.00000000000E+00  0.33638527785E+03  0.19984794800E+04  0.19699657806E+04 0.  0.
        2    1    3    3  502    0 -0.30637074810E+03 -0.87773658205E+03 -0.16195092443E+03  0.94366977523E+03  0.25500000920E-02 0.  1.
       -2    1    3    3    0  502  0.30637074810E+03  0.87773658205E+03  0.49833620227E+03  0.10548097048E+04  0.25500000920E-02 0. -1.
</event>
<event>
 5   0  0.1207228E-04  0.2000634E+04  0.7818609E-02  0.8606324E-01
        1   -1    0    0  501    0  0.00000000000E+00  0.00000000000E+00  0.99368221086E+03  0.99368221087E+03  0.50400001928E-02 0.  1.
       -1   -1    0    0    0  501  0.00000000000E+00  0.00000000000E+00 -0.10069963247E+04  0.10069963247E+04  0.50400001928E-02 0. -1.
    10030    2    1    2    0    0  0.00000000000E+00  0.00000000000E+00 -0.13314113812E+02  0.20006785356E+04  0.20006342337E+04 0.  0.
        1    1    3    3  502    0  0.37801325610E+03 -0.65856440402E+03 -0.65784982247E+03  0.10046728248E+04  0.50400001928E-02 0. -1.
       -1    1    3    3    0  502 -0.37801325610E+03  0.65856440402E+03  0.64453570866E+03  0.99600571072E+03  0.50400001928E-02 0.  1.
</event>
<event>
 5   0  0.2463085E-04  0.2041074E+04  0.7818609E-02  0.8587654E-01
        2   -1    0    0  501    0  0.00000000000E+00  0.00000000000E+00  0.11097778470E+04  0.11097778470E+04  0.25500000920E-02 0.  1.
       -2   -1    0    0    0  501  0.00000000000E+00  0.00000000000E+00 -0.93847225422E+03  0.93847225423E+03  0.25500000920E-02 0. -1.
    10030    2    1    2    0    0  0.00000000000E+00  0.00000000000E+00  0.17130559282E+03  0.20482501013E+04  0.20410739505E+04 0.  0.
        2    1    3    3  502    0 -0.71819060713E+03  0.66093664424E+03 -0.21349042325E+03  0.99910617889E+03  0.25500000920E-02 0. -1.
       -2    1    3    3    0  502  0.71819060713E+03 -0.66093664424E+03  0.38479601607E+03  0.10491439224E+04  0.25500000920E-02 0.  1.
</event>
<event>
 5   0  0.2540506E-04  0.1987956E+04  0.7818609E-02  0.8612272E-01
       -2   -1    0    0    0  501  0.00000000000E+00  0.00000000000E+00  0.13738091788E+04  0.13738091788E+04  0.25500000920E-02 0. -1.
        2   -1    0    0  501    0  0.00000000000E+00  0.00000000000E+00 -0.71916278917E+03  0.71916278918E+03  0.25500000920E-02 0.  1.
    10030    2    1    2    0    0  0.00000000000E+00  0.00000000000E+00  0.65464638966E+03  0.20929719680E+04  0.19879561774E+04 0.  0.
        4    1    3    3  502    0  0.62394306544E+03 -0.77223175457E+03  0.27635079704E+03  0.10305426763E+04  0.12699999809E+01 0. -1.
       -4    1    3    3    0  502 -0.62394306544E+03  0.77223175457E+03  0.37829559263E+03  0.10624292918E+04  0.12699999809E+01 0.  1.
</event>
<event>
 5   0  0.1207228E-04  0.1955178E+04  0.7818609E-02  0.8627868E-01
       -1   -1    0    0    0  501  0.00000000000E+00  0.00000000000E+00  0.10671742152E+04  0.10671742152E+04  0.50400001928E-02 0. -1.
        1   -1    0    0  501    0  0.00000000000E+00  0.00000000000E+00 -0.89552399854E+03  0.89552399856E+03  0.50400001928E-02 0.  1.
    10030    2    1    2    0    0  0.00000000000E+00  0.00000000000E+00  0.17165021664E+03  0.19626982138E+04  0.19551778644E+04 0.  0.
        1    1    3    3  502    0  0.65632877975E+03  0.45155134128E+03 -0.48293518399E+03  0.93160746717E+03  0.50400001928E-02 0.  1.
       -1    1    3    3    0  502 -0.65632877975E+03 -0.45155134128E+03  0.65458540064E+03  0.10310907466E+04  0.50400001928E-02 0. -1.
</event>
<event>
 5   0  0.2421737E-04  0.2005854E+04  0.7818609E-02  0.8603889E-01
        2   -1    0    0  501    0  0.00000000000E+00  0.00000000000E+00  0.22291870512E+04  0.22291870512E+04  0.25500000920E-02 0. -1.
       -2   -1    0    0    0  501  0.00000000000E+00  0.00000000000E+00 -0.45122373671E+03  0.45122373672E+03  0.25500000920E-02 0.  1.
    10030    2    1    2    0    0  0.00000000000E+00  0.00000000000E+00  0.17779633145E+04  0.26804107879E+04  0.20058535451E+04 0.  0.
        1    1    3    3  502    0  0.40715003310E+03  0.66451138756E+03  0.17325587691E+04  0.18997648333E+04  0.50400001928E-02 0. -1.
       -1    1    3    3    0  502 -0.40715003310E+03 -0.66451138756E+03  0.45404545420E+02  0.78064595459E+03  0.50400001928E-02 0.  1.
</event>
<event>
 5   0  0.1210633E-04  0.2000071E+04  0.7818609E-02  0.8606587E-01
        1   -1    0    0  501    0  0.00000000000E+00  0.00000000000E+00  0.13408001113E+04  0.13408001113E+04  0.50400001928E-02 0. -1.
       -1   -1    0    0    0  501  0.00000000000E+00  0.00000000000E+00 -0.74587647745E+03  0.74587647747E+03  0.50400001928E-02 0.  1.
    10030    2    1    2    0    0  0.00000000000E+00  0.00000000000E+00  0.59492363387E+03  0.20866765888E+04  0.20000712628E+04 0.  0.
        2    1    3    3  502    0 -0.64267078973E+03 -0.66450721977E+03 -0.10046651740E+03  0.92988661149E+03  0.25500000920E-02 0.  1.
       -2    1    3    3    0  502  0.64267078973E+03  0.66450721977E+03  0.69539015127E+03  0.11567899773E+04  0.25500000920E-02 0. -1.
</event>
<event>
 5   0  0.1207228E-04  0.1901896E+04  0.7818609E-02  0.8653913E-01
       -1   -1    0    0    0  501  0.00000000000E+00  0.00000000000E+00  0.16210703531E+04  0.16210703531E+04  0.50400001928E-02 0.  1.
        1   -1    0    0  501    0  0.00000000000E+00  0.00000000000E+00 -0.55784274708E+03  0.55784274711E+03  0.50400001928E-02 0. -1.
    10030    2    1    2    0    0  0.00000000000E+00  0.00000000000E+00  0.10632276060E+04  0.21789131002E+04  0.19018962527E+04 0.  0.
        1    1    3    3  502    0 -0.29333181968E+03 -0.76187996365E+03  0.10902858156E+04  0.13620674709E+04  0.50400001928E-02 0.  1.
       -1    1    3    3    0  502  0.29333181968E+03  0.76187996365E+03 -0.27058209604E+02  0.81684562934E+03  0.50400001928E-02 0. -1.
</event>
<event>
 5   0  0.1207228E-04  0.2037713E+04  0.7818609E-02  0.8589189E-01
       -1   -1    0    0    0  501  0.00000000000E+00  0.00000000000E+00  0.14369796166E+04  0.14369796167E+04  0.50400001928E-02 0.  1.
        1   -1    0    0  501    0  0.00000000000E+00  0.00000000000E+00 -0.72239644649E+03  0.72239644650E+03  0.50400001928E-02 0. -1.
    10030    2    1    2    0    0  0.00000000000E+00  0.00000000000E+00  0.71458317016E+03  0.21593760632E+04  0.20377133937E+04 0.  0.
        1    1    3    3  502    0  0.58794302821E+03  0.43920373469E+02 -0.52326116405E+03  0.78829451949E+03  0.50400001928E-02 0. -1.
       -1    1    3    3    0  502 -0.58794302821E+03 -0.43920373469E+02  0.12378443342E+04  0.13710815437E+04  0.50400001928E-02 0.  1.
</event>
<event>
 5   0  0.1207228E-04  0.1929161E+04  0.7818609E-02  0.8640476E-01
        1   -1    0    0  501    0  0.00000000000E+00  0.00000000000E+00  0.21998868786E+04  0.21998868786E+04  0.50400001928E-02 0. -1.
       -1   -1    0    0    0  501  0.00000000000E+00  0.00000000000E+00 -0.42293778675E+03  0.42293778678E+03  0.50400001928E-02 0.  1.
    10030    2    1    2    0    0  0.00000000000E+00  0.00000000000E+00  0.17769490918E+04  0.26228246654E+04  0.19291607373E+04 0.  0.
        1    1    3    3  502    0 -0.33014656322E+03 -0.37885811372E+03 -0.23090889284E+03  0.55303629208E+03  0.50400001928E-02 0.  1.
       -1    1    3    3    0  502  0.33014656322E+03  0.37885811372E+03  0.20078579847E+04  0.20697883733E+04  0.50400001928E-02 0. -1.
</event>
<event>
 5   0  0.1207228E-04  0.2006428E+04  0.7818609E-02  0.8603621E-01
        1   -1    0    0  501    0  0.00000000000E+00  0.00000000000E+00  0.19726622282E+04  0.19726622282E+04  0.50400001928E-02 0.  1.
       -1   -1    0    0    0  501  0.00000000000E+00  0.00000000000E+00 -0.51019291462E+03  0.51019291464E+03  0.50400001928E-02 0. -1.
    10030    2    1    2    0    0  0.00000000000E+00  0.00000000000E+00  0.14624693136E+04  0.24828551428E+04  0.20064279621E+04 0.  0.
        1    1    3    3  502    0 -0.40485278219E+02 -0.66954196599E+03 -0.19190070086E+03  0.69767569901E+03  0.50400001928E-02 0. -1.
       -1    1    3    3    0  502  0.40485278219E+02  0.66954196599E+03  0.16543700144E+04  0.17851794438E+04  0.50400001928E-02 0.  1.
</event>
<event>
 5   0  0.1210633E-04  0.1987904E+04  0.7818609E-02  0.8612297E-01
        1   -1    0    0  501    0  0.00000000000E+00  0.00000000000E+00  0.12641956438E+04  0.12641956439E+04  0.50400001928E-02 0.  1.
       -1   -1    0    0    0  501  0.00000000000E+00  0.00000000000E+00 -0.78147797610E+03  0.78147797611E+03  0.50400001928E-02 0. -1.
    10030    2    1    2    0    0  0.00000000000E+00  0.00000000000E+00  0.48271766774E+03  0.20456736200E+04  0.19879044777E+04 0.  0.
        2    1    3    3  502    0  0.66088437861E+03  0.35578692525E+03 -0.42918160523E+03  0.86460936171E+03  0.25500000920E-02 0. -1.
       -2    1    3    3    0  502 -0.66088437861E+03 -0.35578692525E+03  0.91189927297E+03  0.11810642583E+04  0.25500000920E-02 0.  1.
</event>
<event>
 5   0  0.1258546E-04  0.2019276E+04  0.7818609E-02  0.8597661E-01
       -1   -1    0    0    0  501  0.00000000000E+00  0.00000000000E+00  0.45524361357E+03  0.45524361360E+03  0.50400001928E-02 0.  1.
        1   -1    0    0  501    0  0.00000000000E+00  0.00000000000E+00 -0.22391731615E+04  0.22391731615E+04  0.50400001928E-02 0. -1.
    10030    2    1    2    0    0  0.00000000000E+00  0.00000000000E+00 -0.17839295479E+04  0.26944167751E+04  0.20192763867E+04 0.  0.
        4    1    3    3  502    0 -0.37136069501E+03 -0.91327308177E+03 -0.11824458017E+04  0.15395311541E+04  0.12699999809E+01 0. -1.
       -4    1    3    3    0  502  0.37136069501E+03  0.91327308177E+03 -0.60148374627E+03  0.11548856210E+04  0.12699999809E+01 0.  1.
</event>
<event>
 5   0  0.2463085E-04  0.2004794E+04  0.7818609E-02  0.8604383E-01
        2   -1    0    0  501    0  0.00000000000E+00  0.00000000000E+00  0.17386193850E+04  0.17386193850E+04  0.25500000920E-02 0. -1.
       -2   -1    0    0    0  501  0.00000000000E+00  0.00000000000E+00 -0.57792944226E+03  0.57792944227E+03  0.25500000920E-02 0.  1.
    10030    2    1    2    0    0  0.00000000000E+00  0.00000000000E+00  0.11606899428E+04  0.23165488273E+04  0.20047935869E+04 0.  0.
        2    1    3    3  502    0 -0.59898929772E+03  0.80175378540E+03  0.64573083050E+03  0.11910355228E+04  0.25500000920E-02 0. -1.
       -2    1    3    3    0  502  0.59898929772E+03 -0.80175378540E+03  0.51495911226E+03  0.11255133045E+04  0.25500000920E-02 0.  1.
</event>
<event>
 5   0  0.1210633E-04  0.1897038E+04  0.7818609E-02  0.8656332E-01
        1   -1    0    0  501    0  0.00000000000E+00  0.00000000000E+00  0.17594736810E+04  0.17594736811E+04  0.50400001928E-02 0.  1.
       -1   -1    0    0    0  501  0.00000000000E+00  0.00000000000E+00 -0.51133946154E+03  0.51133946157E+03  0.50400001928E-02 0. -1.
    10030    2    1    2    0    0  0.00000000000E+00  0.00000000000E+00  0.12481342195E+04  0.22708131426E+04  0.18970380330E+04 0.  0.
        2    1    3    3  502    0 -0.67853852875E+03  0.31848597745E+02 -0.16838131971E+03  0.69984365183E+03  0.25500000920E-02 0. -1.
       -2    1    3    3    0  502  0.67853852875E+03 -0.31848597745E+02  0.14165155392E+04  0.15709694908E+04  0.25500000920E-02 0.  1.
</event>
<event>
 5   0  0.1324930E-04  0.2010095E+04  0.7818609E-02  0.8601915E-01
       -1   -1    0    0    0  501  0.00000000000E+00  0.00000000000E+00  0.10300607895E+04  0.10300607895E+04  0.50400001928E-02 0. -1.
        1   -1    0    0  501    0  0.00000000000E+00  0.00000000000E+00 -0.98064197354E+03  0.98064197355E+03  0.50400001928E-02 0.  1.
    10030    2    1    2    0    0  0.00000000000E+00  0.00000000000E+00  0.49418815924E+02  0.20107027630E+04  0.20100953664E+04 0.  0.
        5    1    3    3  502    0 -0.53829421679E+03  0.75913893625E+03  0.40435823781E+03  0.10146823458E+04  0.46999998093E+01 0. -1.
       -5    1    3    3    0  502  0.53829421679E+03 -0.75913893625E+03 -0.35493942188E+03  0.99602041724E+03  0.46999998093E+01 0.  1.
</event>
<event>
 5   0  0.2421737E-04  0.2056266E+04  0.7818609E-02  0.8580757E-01
        2   -1    0    0  501    0  0.00000000000E+00  0.00000000000E+00  0.12652071228E+04  0.12652071228E+04  0.25500000920E-02 0.  1.
       -2   -1    0    0    0  501  0.00000000000E+00  0.00000000000E+00 -0.83548142381E+03  0.83548142381E+03  0.25500000920E-02 0. -1.
    10030    2    1    2    0    0  0.00000000000E+00  0.00000000000E+00  0.42972569902E+03  0.21006885466E+04  0.20562655941E+04 0.  0.
        1    1    3    3  502    0  0.18847909809E+03 -0.96349279080E+03  0.52676888363E+03  0.11141490857E+04  0.50400001928E-02 0. -1.
       -1    1    3    3    0  502 -0.18847909809E+03  0.96349279080E+03 -0.97043184610E+02  0.98653946096E+03  0.50400001928E-02 0.  1.
</event>
<event>
 5   0  0.2421737E-04  0.2002953E+04  0.7818609E-02  0.8605241E-01
        2   -1    0    0  501    0  0.00000000000E+00  0.00000000000E+00  0.18720175773E+04  0.18720175773E+04  0.25500000920E-02 0. -1.
       -2   -1    0    0    0  501  0.00000000000E+00  0.00000000000E+00 -0.53576140045E+03  0.53576140045E+03  0.25500000920E-02 0.  1.
    10030    2    1    2    0    0  0.00000000000E+00  0.00000000000E+00  0.13362561768E+04  0.24077789777E+04  0.20029525794E+04 0.  0.
        1    1    3    3  502    0 -0.27241095769E+03  0.61500518942E+03  0.15600581141E+04  0.16988879988E+04  0.50400001928E-02 0. -1.
       -1    1    3    3    0  502  0.27241095769E+03 -0.61500518942E+03 -0.22380193730E+03  0.70889097896E+03  0.50400001928E-02 0.  1.
</event>
<event>
 5   0  0.2463085E-04  0.1956883E+04  0.7818609E-02  0.8627049E-01
       -2   -1    0    0    0  501  0.00000000000E+00  0.00000000000E+00  0.28538678944E+03  0.28538678945E+03  0.25500000920E-02 0. -1.
        2   -1    0    0  501    0  0.00000000000E+00  0.00000000000E+00 -0.33545634428E+04  0.33545634428E+04  0.25500000920E-02 0.  1.
    10030    2    1    2    0    0  0.00000000000E+00  0.00000000000E+00 -0.30691766534E+04  0.36399502323E+04  0.19568833291E+04 0.  0.
        2    1    3    3  502    0 -0.27407728149E+03 -0.60692498017E+03 -0.28679805144E+04  0.29442806454E+04  0.25500000920E-02 0.  1.
       -2    1    3    3    0  502  0.27407728149E+03  0.60692498017E+03 -0.20119613899E+03  0.69566958690E+03  0.25500000920E-02 0. -1.
</event>
<event>
 5   0  0.2596061E-04  0.2008159E+04  0.7818609E-02  0.8602816E-01
       -2   -1    0    0    0  501  0.00000000000E+00  0.00000000000E+00  0.59988298041E+03  0.59988298041E+03  0.25500000920E-02 0.  1.
        2   -1    0    0  501    0  0.00000000000E+00  0.00000000000E+00 -0.16806206299E+04  0.16806206299E+04  0.25500000920E-02 0. -1.
    10030    2    1    2    0    0  0.00000000000E+00  0.00000000000E+00 -0.10807376495E+04  0.22805036103E+04  0.20081590698E+04 0.  0.
        5    1    3    3  502    0  0.19043419299E+03  0.93739971424E+03 -0.19373478790E+03  0.97598087284E+03  0.46999998093E+01 0.  1.
       -5    1    3    3    0  502 -0.19043419299E+03 -0.93739971424E+03 -0.88700286161E+03  0.13045227375E+04  0.46999998093E+01 0. -1.
</event>
<event>
 5   0  0.1258546E-04  0.1937331E+04  0.7818609E-02  0.8636494E-01
       -1   -1    0    0    0  501  0.00000000000E+00  0.00000000000E+00  0.88407042974E+03  0.88407042975E+03  0.50400001928E-02 0. -1.
        1   -1    0    0  501    0  0.00000000000E+00  0.00000000000E+00 -0.10613557524E+04  0.10613557524E+04  0.50400001928E-02 0.  1.
    10030    2    1    2    0    0  0.00000000000E+00  0.00000000000E+00 -0.17728532262E+03  0.19454261821E+04  0.19373313977E+04 0.  0.
        4    1    3    3  502    0  0.39497237663E+03  0.77375036633E+02  0.79612992909E+03  0.89208438586E+03  0.12699999809E+01 0. -1.
       -4    1    3    3    0  502 -0.39497237663E+03 -0.77375036633E+02 -0.97341525172E+03  0.10533417963E+04  0.12699999809E+01 0.  1.
</event>
<event>
 5   0  0.2421737E-04  0.1967382E+04  0.7818609E-02  0.8622024E-01
       -2   -1    0    0    0  501  0.00000000000E+00  0.00000000000E+00  0.43727219917E+03  0.43727219918E+03  0.25500000920E-02 0.  1.
        2   -1    0    0  501    0  0.00000000000E+00  0.00000000000E+00 -0.22129186175E+04  0.22129186175E+04  0.25500000920E-02 0. -1.
    10030    2    1    2    0    0  0.00000000000E+00  0.00000000000E+00 -0.17756464183E+04  0.26501908166E+04  0.19673818038E+04 0.  0.
        1    1    3    3  502    0 -0.91377715203E+03  0.35214499542E+03 -0.76251714939E+03  0.12411394702E+04  0.50400001928E-02 0.  1.
       -1    1    3    3    0  502  0.91377715203E+03 -0.35214499542E+03 -0.10131292689E+04  0.14090513464E+04  0.50400001928E-02 0. -1.
</event>
<event>
 5   0  0.1207228E-04  0.1956403E+04  0.7818609E-02  0.8627279E-01
       -1   -1    0    0    0  501  0.00000000000E+00  0.00000000000E+00  0.96039859461E+03  0.96039859462E+03  0.50400001928E-02 0.  1.
        1   -1    0    0  501    0  0.00000000000E+00  0.00000000000E+00 -0.99633435000E+03  0.99633435002E+03  0.50400001928E-02 0. -1.
    10030    2    1    2    0    0  0.00000000000E+00  0.00000000000E+00 -0.35935755397E+02  0.19567329446E+04  0.19564029335E+04 0.  0.
        1    1    3    3  502    0  0.23088380827E+03  0.93517337134E+03 -0.18835371575E+03  0.98149563914E+03  0.50400001928E-02 0. -1.
       -1    1    3    3    0  502 -0.23088380827E+03 -0.93517337134E+03  0.15241796036E+03  0.97523730550E+03  0.50400001928E-02 0.  1.
</event>
<event>
 5   0  0.9099125E-05  0.1947667E+04  0.7818609E-02  0.8631486E-01
       -4   -1    0    0    0  501  0.00000000000E+00  0.00000000000E+00  0.89206396873E+03  0.89206487276E+03  0.12699999809E+01 0.  1.
        4   -1    0    0  501    0  0.00000000000E+00  0.00000000000E+00 -0.10630967095E+04  0.10630974681E+04  0.12699999809E+01 0. -1.
    10030    2    1    2    0    0  0.00000000000E+00  0.00000000000E+00 -0.17103274074E+03  0.19551623408E+04  0.19476672150E+04 0.  0.
        5    1    3    3  502    0 -0.36990787690E+02 -0.53555744559E+03 -0.90113286175E+03  0.10489292733E+04  0.46999998093E+01 0. -1.
       -5    1    3    3    0  502  0.36990787690E+02  0.53555744559E+03  0.73010012101E+03  0.90623306749E+03  0.46999998093E+01 0.  1.
</event>
<event>
 5   0  0.1207228E-04  0.2057878E+04  0.7818609E-02  0.8580029E-01
       -1   -1    0    0    0  501  0.00000000000E+00  0.00000000000E+00  0.63840802736E+03  0.63840802738E+03  0.50400001928E-02 0. -1.
        1   -1    0    0  501    0  0.00000000000E+00  0.00000000000E+00 -0.16583677792E+04  0.16583677793E+04  0.50400001928E-02 0.  1.
    10030    2    1    2    0    0  0.00000000000E+00  0.00000000000E+00 -0.10199597519E+04  0.22967758066E+04  0.20578778415E+04 0.  0.
        1    1    3    3  502    0 -0.66612311606E+03  0.26103614555E+03 -0.13353244060E+04  0.15149096159E+04  0.50400001928E-02 0.  1.
       -1    1    3    3    0  502  0.66612311606E+03 -0.26103614555E+03  0.31536465417E+03  0.78186619070E+03  0.50400001928E-02 0. -1.
</event>
<event>
 5   0  0.1324930E-04  0.2014823E+04  0.7818609E-02  0.8599722E-01
       -1   -1    0    0    0  501  0.00000000000E+00  0.00000000000E+00  0.46774004141E+03  0.46774004143E+03  0.50400001928E-02 0.  1.
        1   -1    0    0  501    0  0.00000000000E+00  0.00000000000E+00 -0.21697477864E+04  0.21697477864E+04  0.50400001928E-02 0. -1.
    10030    2    1    2    0    0  0.00000000000E+00  0.00000000000E+00 -0.17020077450E+04  0.26374878279E+04  0.20148229893E+04 0.  0.
        5    1    3    3  502    0  0.70732887075E+02 -0.10046955834E+04 -0.82356162959E+03  0.13010350512E+04  0.46999998093E+01 0.  1.
       -5    1    3    3    0  502 -0.70732887075E+02  0.10046955834E+04 -0.87844611542E+03  0.13364527767E+04  0.46999998093E+01 0. -1.
</event>
<event>
 5   0  0.1210633E-04  0.1977618E+04  0.7818609E-02  0.8617157E-01
       -1   -1    0    0    0  501  0.00000000000E+00  0.00000000000E+00  0.17191880179E+04  0.17191880179E+04  0.50400001928E-02 0.  1.
        1   -1    0    0  501    0  0.00000000000E+00  0.00000000000E+00 -0.56872394206E+03  0.56872394208E+03  0.50400001928E-02 0. -1.
    10030    2    1    2    0    0  0.00000000000E+00  0.00000000000E+00  0.11504640759E+04  0.22879119600E+04  0.19776181499E+04 0.  0.
        2    1    3    3  502    0  0.80009485010E+02  0.86559048264E+03  0.30018983680E+02  0.86979856330E+03  0.25500000920E-02 0. -1.
       -2    1    3    3    0  502 -0.80009485010E+02 -0.86559048264E+03  0.11204450922E+04  0.14181133967E+04  0.25500000920E-02 0.  1.
</event>
<event>
 5   0  0.2421737E-04  0.2015102E+04  0.7818609E-02  0.8599593E-01
        2   -1    0    0  501    0  0.00000000000E+00  0.00000000000E+00  0.75220919586E+03  0.75220919586E+03  0.25500000920E-02 0.  1.
       -2   -1    0    0    0  501  0.00000000000E+00  0.00000000000E+00 -0.13495695724E+04  0.13495695724E+04  0.25500000920E-02 0. -1.
    10030    2    1    2    0    0  0.00000000000E+00  0.00000000000E+00 -0.59736037655E+03  0.21017787683E+04  0.20151016280E+04 0.  0.
        1    1    3    3  502    0  0.69198509355E+03  0.33703046127E+02  0.46434650589E+03  0.83402454555E+03  0.50400001928E-02 0.  1.
       -1    1    3    3    0  502 -0.69198509355E+03 -0.33703046127E+02 -0.10617068824E+04  0.12677542227E+04  0.50400001928E-02 0. -1.
</event>
<event>
 5   0  0.2488886E-04  0.1973042E+04  0.7818609E-02  0.8619329E-01
       -2   -1    0    0    0  501  0.00000000000E+00  0.00000000000E+00  0.26662938181E+04  0.26662938181E+04  0.25500000920E-02 0. -1.
        2   -1    0    0  501    0  0.00000000000E+00  0.00000000000E+00 -0.36500994056E+03  0.36500994057E+03  0.25500000920E-02 0.  1.
    10030    2    1    2    0    0  0.00000000000E+00  0.00000000000E+00  0.23012838776E+04  0.30313037587E+04  0.19730420655E+04 0.  0.
        3    1    3    3  502    0  0.61246225035E+03 -0.30107570865E+03  0.22450948466E+04  0.23465309439E+04  0.10100000352E+00 0. -1.
       -3    1    3    3    0  502 -0.61246225035E+03  0.30107570865E+03  0.56189030977E+02  0.68477281477E+03  0.10100000352E+00 0.  1.
</event>
<event>
 5   0  0.1207228E-04  0.2013910E+04  0.7818609E-02  0.8600145E-01
        1   -1    0    0  501    0  0.00000000000E+00  0.00000000000E+00  0.11847780119E+04  0.11847780119E+04  0.50400001928E-02 0. -1.
       -1   -1    0    0    0  501  0.00000000000E+00  0.00000000000E+00 -0.85582124627E+03  0.85582124629E+03  0.50400001928E-02 0.  1.
    10030    2    1    2    0    0  0.00000000000E+00  0.00000000000E+00  0.32895676562E+03  0.20405992582E+04  0.20139098239E+04 0.  0.
        1    1    3    3  502    0  0.10097034131E+03  0.95911836638E+03  0.45789354954E+03  0.10675999032E+04  0.50400001928E-02 0. -1.
       -1    1    3    3    0  502 -0.10097034131E+03 -0.95911836638E+03 -0.12893678392E+03  0.97299935500E+03  0.50400001928E-02 0.  1.
</event>
<event>
 5   0  0.1210633E-04  0.2001661E+04  0.7818609E-02  0.8605844E-01
       -1   -1    0    0    0  501  0.00000000000E+00  0.00000000000E+00  0.11503480572E+04  0.11503480572E+04  0.50400001928E-02 0.  1.
        1   -1    0    0  501    0  0.00000000000E+00  0.00000000000E+00 -0.87074696053E+03  0.87074696055E+03  0.50400001928E-02 0. -1.
    10030    2    1    2    0    0  0.00000000000E+00  0.00000000000E+00  0.27960109665E+03  0.20210950177E+04  0.20016613843E+04 0.  0.
        2    1    3    3  502    0  0.67805407925E+03  0.38180404064E+03 -0.49569895397E+03  0.92263162357E+03  0.25500000920E-02 0. -1.
       -2    1    3    3    0  502 -0.67805407925E+03 -0.38180404064E+03  0.77530005062E+03  0.10984633942E+04  0.25500000920E-02 0.  1.
</event>
<event>
 5   0  0.1207228E-04  0.1963727E+04  0.7818609E-02  0.8623770E-01
        1   -1    0    0  501    0  0.00000000000E+00  0.00000000000E+00  0.86191080958E+03  0.86191080960E+03  0.50400001928E-02 0. -1.
       -1   -1    0    0    0  501  0.00000000000E+00  0.00000000000E+00 -0.11185103696E+04  0.11185103696E+04  0.50400001928E-02 0.  1.
    10030    2    1    2    0    0  0.00000000000E+00  0.00000000000E+00 -0.25659956003E+03  0.19804211792E+04  0.19637272501E+04 0.  0.
        1    1    3    3  502    0 -0.72410064523E+02  0.62341172707E+03 -0.88981550120E+03  0.10888787927E+04  0.50400001928E-02 0.  1.
       -1    1    3    3    0  502  0.72410064523E+02 -0.62341172707E+03  0.63321594117E+03  0.89154238658E+03  0.50400001928E-02 0. -1.
</event>
<event>
 5   0  0.1210633E-04  0.1981784E+04  0.7818609E-02  0.8615185E-01
        1   -1    0    0  501    0  0.00000000000E+00  0.00000000000E+00  0.99970788862E+03  0.99970788863E+03  0.50400001928E-02 0.  1.
       -1   -1    0    0    0  501  0.00000000000E+00  0.00000000000E+00 -0.98215430597E+03  0.98215430598E+03  0.50400001928E-02 0. -1.
    10030    2    1    2    0    0  0.00000000000E+00  0.00000000000E+00  0.17553582649E+02  0.19818621946E+04  0.19817844560E+04 0.  0.
        2    1    3    3  502    0  0.22026297459E+03  0.76945222997E+01 -0.95733171450E+03  0.98237416255E+03  0.25500000920E-02 0. -1.
       -2    1    3    3    0  502 -0.22026297459E+03 -0.76945222997E+01  0.97488529715E+03  0.99948803207E+03  0.25500000920E-02 0.  1.
</event>
<event>
 5   0  0.1231056E-04  0.1999381E+04  0.7818609E-02  0.8606910E-01
        1   -1    0    0  501    0  0.00000000000E+00  0.00000000000E+00  0.82249936532E+03  0.82249936533E+03  0.50400001928E-02 0.  1.
       -1   -1    0    0    0  501  0.00000000000E+00  0.00000000000E+00 -0.12150537146E+04  0.12150537146E+04  0.50400001928E-02 0. -1.
    10030    2    1    2    0    0  0.00000000000E+00  0.00000000000E+00 -0.39255434929E+03  0.20375530799E+04  0.19993808133E+04 0.  0.
        3    1    3    3  502    0 -0.50659485489E+01 -0.82965865089E+03 -0.76461792601E+03  0.11282728942E+04  0.10100000352E+00 0. -1.
       -3    1    3    3    0  502  0.50659485489E+01  0.82965865089E+03  0.37206357673E+03  0.90928018573E+03  0.10100000352E+00 0.  1.
</event>
<event>
 5   0  0.2421737E-04  0.2018909E+04  0.7818609E-02  0.8597831E-01
       -2   -1    0    0    0  501  0.00000000000E+00  0.00000000000E+00  0.78562389071E+03  0.78562389072E+03  0.25500000920E-02 0.  1.
        2   -1    0    0  501    0  0.00000000000E+00  0.00000000000E+00 -0.12970559635E+04  0.12970559635E+04  0.25500000920E-02 0. -1.
    10030    2    1    2    0    0  0.00000000000E+00  0.00000000000E+00 -0.51143207279E+03  0.20826798542E+04  0.20189087672E+04 0.  0.
        1    1    3    3  502    0  0.61006181072E+03 -0.32960238811E+03 -0.10124994741E+04  0.12271790139E+04  0.50400001928E-02 0. -1.
       -1    1    3    3    0  502 -0.61006181072E+03  0.32960238811E+03  0.50106740128E+03  0.85550084032E+03  0.50400001928E-02 0.  1.
</event>
<event>
 5   0  0.1324930E-04  0.2027228E+04  0.7818609E-02  0.8593995E-01
        1   -1    0    0  501    0  0.00000000000E+00  0.00000000000E+00  0.23001632525E+04  0.23001632525E+04  0.50400001928E-02 0. -1.
       -1   -1    0    0    0  501  0.00000000000E+00  0.00000000000E+00 -0.44666983485E+03  0.44666983488E+03  0.50400001928E-02 0.  1.
    10030    2    1    2    0    0  0.00000000000E+00  0.00000000000E+00  0.18534934176E+04  0.27468330873E+04  0.20272281965E+04 0.  0.
        5    1    3    3  502    0 -0.93091100725E+03 -0.35970386733E+03  0.11668834346E+04  0.15354547260E+04  0.46999998093E+01 0. -1.
       -5    1    3    3    0  502  0.93091100725E+03  0.35970386733E+03  0.68660998296E+03  0.12113783613E+04  0.46999998093E+01 0.  1.
</event>
<event>
 5   0  0.2463085E-04  0.1801442E+04  0.7818609E-02  0.8705533E-01
       -2   -1    0    0    0  501  0.00000000000E+00  0.00000000000E+00  0.49571947989E+03  0.49571947990E+03  0.25500000920E-02 0. -1.
        2   -1    0    0  501    0  0.00000000000E+00  0.00000000000E+00 -0.16366085113E+04  0.16366085113E+04  0.25500000920E-02 0.  1.
    10030    2    1    2    0    0  0.00000000000E+00  0.00000000000E+00 -0.11408890314E+04  0.21323279912E+04  0.18014424443E+04 0.  0.
        2    1    3    3  502    0  0.84597454872E+02 -0.29266439635E+03 -0.15737746181E+04  0.16029896216E+04  0.25500000920E-02 0.  1.
       -2    1    3    3    0  502 -0.84597454872E+02  0.29266439635E+03  0.43288558676E+03  0.52933836957E+03  0.25500000920E-02 0. -1.
</event>
<event>
 5   0  0.1210633E-04  0.1969157E+04  0.7818609E-02  0.8621178E-01
        1   -1    0    0  501    0  0.00000000000E+00  0.00000000000E+00  0.23149206502E+04  0.23149206502E+04  0.50400001928E-02 0.  1.
       -1   -1    0    0    0  501  0.00000000000E+00  0.00000000000E+00 -0.41875929338E+03  0.41875929341E+03  0.50400001928E-02 0. -1.
    10030    2    1    2    0    0  0.00000000000E+00  0.00000000000E+00  0.18961613568E+04  0.27336799436E+04  0.19691567086E+04 0.  0.
        2    1    3    3  502    0  0.96387978835E+03 -0.95767942862E+02  0.70302899935E+03  0.11968648709E+04  0.25500000920E-02 0.  1.
       -2    1    3    3    0  502 -0.96387978835E+03  0.95767942862E+02  0.11931323575E+04  0.15368150727E+04  0.25500000920E-02 0. -1.
</event>
<event>
 5   0  0.2488886E-04  0.1352434E+04  0.7818609E-02  0.8988987E-01
       -2   -1    0    0    0  501  0.00000000000E+00  0.00000000000E+00  0.25589747745E+03  0.25589747747E+03  0.25500000920E-02 0.  1.
        2   -1    0    0  501    0  0.00000000000E+00  0.00000000000E+00 -0.17869253061E+04  0.17869253061E+04  0.25500000920E-02 0. -1.
    10030    2    1    2    0    0  0.00000000000E+00  0.00000000000E+00 -0.15310278286E+04  0.20428227835E+04  0.13524343655E+04 0.  0.
        3    1    3    3  502    0 -0.36570676890E+03  0.40790712573E+03 -0.16674688927E+03  0.57265539317E+03  0.10100000352E+00 0.  1.
       -3    1    3    3    0  502  0.36570676890E+03 -0.40790712573E+03 -0.13642809393E+04  0.14701673904E+04  0.10100000352E+00 0. -1.
</event>
<event>
 5   0  0.1207228E-04  0.1697033E+04  0.7818609E-02  0.8763058E-01
        1   -1    0    0  501    0  0.00000000000E+00  0.00000000000E+00  0.85611148405E+03  0.85611148407E+03  0.50400001928E-02 0.  1.
       -1   -1    0    0    0  501  0.00000000000E+00  0.00000000000E+00 -0.84098890309E+03  0.84098890310E+03  0.50400001928E-02 0. -1.
    10030    2    1    2    0    0  0.00000000000E+00  0.00000000000E+00  0.15122580963E+02  0.16971003872E+04  0.16970330084E+04 0.  0.
        1    1    3    3  502    0  0.69112058946E+03 -0.83709009240E+02 -0.47756145430E+03  0.84422734501E+03  0.50400001928E-02 0.  1.
       -1    1    3    3    0  502 -0.69112058946E+03  0.83709009240E+02  0.49268403527E+03  0.85287304216E+03  0.50400001928E-02 0. -1.
</event>
<event>
 5   0  0.2488886E-04  0.2068839E+04  0.7818609E-02  0.8575096E-01
       -2   -1    0    0    0  501  0.00000000000E+00  0.00000000000E+00  0.84375745194E+03  0.84375745194E+03  0.25500000920E-02 0.  1.
        2   -1    0    0  501    0  0.00000000000E+00  0.00000000000E+00 -0.12681652536E+04  0.12681652536E+04  0.25500000920E-02 0. -1.
    10030    2    1    2    0    0  0.00000000000E+00  0.00000000000E+00 -0.42440780163E+03  0.21119227055E+04  0.20688391750E+04 0.  0.
        3    1    3    3  502    0  0.81467185327E+03 -0.13200844953E+03  0.42440748106E+03  0.92802919105E+03  0.10100000352E+00 0.  1.
       -3    1    3    3    0  502 -0.81467185327E+03  0.13200844953E+03 -0.84881528270E+03  0.11838935145E+04  0.10100000352E+00 0. -1.
</event>
<event>
 5   0  0.1231056E-04  0.2023192E+04  0.7818609E-02  0.8595854E-01
        1   -1    0    0  501    0  0.00000000000E+00  0.00000000000E+00  0.13866040662E+04  0.13866040662E+04  0.50400001928E-02 0.  1.
       -1   -1    0    0    0  501  0.00000000000E+00  0.00000000000E+00 -0.73800892307E+03  0.73800892309E+03  0.50400001928E-02 0. -1.
    10030    2    1    2    0    0  0.00000000000E+00  0.00000000000E+00  0.64859514311E+03  0.21246129893E+04  0.20231917098E+04 0.  0.
        3    1    3    3  502    0  0.10023551827E+03  0.59069087365E+03 -0.53164693912E+03  0.80100645779E+03  0.10100000352E+00 0. -1.
       -3    1    3    3    0  502 -0.10023551827E+03 -0.59069087365E+03  0.11802420822E+04  0.13236065315E+04  0.10100000352E+00 0.  1.
</event>
<event>
 5   0  0.1324930E-04  0.2017514E+04  0.7818609E-02  0.8598476E-01
        1   -1    0    0  501    0  0.00000000000E+00  0.00000000000E+00  0.11113884227E+04  0.11113884227E+04  0.50400001928E-02 0. -1.
       -1   -1    0    0    0  501  0.00000000000E+00  0.00000000000E+00 -0.91560271663E+03  0.91560271664E+03  0.50400001928E-02 0.  1.
    10030    2    1    2    0    0  0.00000000000E+00  0.00000000000E+00  0.19578570608E+03  0.20269911394E+04  0.20175135777E+04 0.  0.
        5    1    3    3  502    0 -0.95858864419E+03  0.27318556108E+03  0.25368783312E+03  0.10285437017E+04  0.46999998093E+01 0. -1.
       -5    1    3    3    0  502  0.95858864419E+03 -0.27318556108E+03 -0.57902127043E+02  0.99844743770E+03  0.46999998093E+01 0.  1.
</event>
<event>
 5   0  0.1231056E-04  0.1936837E+04  0.7818609E-02  0.8636734E-01
       -1   -1    0    0    0  501  0.00000000000E+00  0.00000000000E+00  0.69470757391E+03  0.69470757393E+03  0.50400001928E-02 0.  1.
        1   -1    0    0  501    0  0.00000000000E+00  0.00000000000E+00 -0.13499703314E+04  0.13499703314E+04  0.50400001928E-02 0. -1.
    10030    2    1    2    0    0  0.00000000000E+00  0.00000000000E+00 -0.65526275749E+03  0.20446779053E+04  0.19368372299E+04 0.  0.
        3    1    3    3  502    0 -0.90880828956E+03  0.32089310972E+03 -0.22787276114E+03  0.99036907287E+03  0.10100000352E+00 0.  1.
       -3    1    3    3    0  502  0.90880828956E+03 -0.32089310972E+03 -0.42738999635E+03  0.10543088325E+04  0.10100000352E+00 0. -1.
</event>
<event>
 5   0  0.2596061E-04  0.1997119E+04  0.7818609E-02  0.8607969E-01
        2   -1    0    0  501    0  0.00000000000E+00  0.00000000000E+00  0.10339978723E+04  0.10339978723E+04  0.25500000920E-02 0. -1.
       -2   -1    0    0    0  501  0.00000000000E+00  0.00000000000E+00 -0.96433524833E+03  0.96433524833E+03  0.25500000920E-02 0.  1.
    10030    2    1    2    0    0  0.00000000000E+00  0.00000000000E+00  0.69662623984E+02  0.19983331206E+04  0.19971185192E+04 0.  0.
        5    1    3    3  502    0  0.21778714095E+03  0.69872205314E+03 -0.64488643945E+03  0.97547135073E+03  0.46999998093E+01 0.  1.
       -5    1    3    3    0  502 -0.21778714095E+03 -0.69872205314E+03  0.71454906343E+03  0.10228617699E+04  0.46999998093E+01 0. -1.
</event>
<event>
 5   0  0.2421737E-04  0.2041385E+04  0.7818609E-02  0.8587513E-01
        2   -1    0    0  501    0  0.00000000000E+00  0.00000000000E+00  0.50641880341E+03  0.50641880342E+03  0.25500000920E-02 0.  1.
       -2   -1    0    0    0  501  0.00000000000E+00  0.00000000000E+00 -0.20572160466E+04  0.20572160466E+04  0.25500000920E-02 0. -1.
    10030    2    1    2    0    0  0.00000000000E+00  0.00000000000E+00 -0.15507972431E+04  0.25636348500E+04  0.20413847150E+04 0.  0.
        1    1    3    3  502    0  0.22208779685E+03  0.97692727144E+03 -0.53026046010E+03  0.11335281376E+04  0.50400001928E-02 0.  1.
       -1    1    3    3    0  502 -0.22208779685E+03 -0.97692727144E+03 -0.10205367830E+04  0.14301067124E+04  0.50400001928E-02 0. -1.
</event>
<event>
 5   0  0.2421737E-04  0.2008906E+04  0.7818609E-02  0.8602468E-01
       -2   -1    0    0    0  501  0.00000000000E+00  0.00000000000E+00  0.73505955948E+03  0.73505955948E+03  0.25500000920E-02 0. -1.
        2   -1    0    0  501    0  0.00000000000E+00  0.00000000000E+00 -0.13725775128E+04  0.13725775128E+04  0.25500000920E-02 0.  1.
    10030    2    1    2    0    0  0.00000000000E+00  0.00000000000E+00 -0.63751795336E+03  0.21076370723E+04  0.20089063910E+04 0.  0.
        1    1    3    3  502    0 -0.10026056389E+04  0.51362178756E+02 -0.28443919534E+03  0.10434374905E+04  0.50400001928E-02 0. -1.
       -1    1    3    3    0  502  0.10026056389E+04 -0.51362178756E+02 -0.35307875802E+03  0.10641995819E+04  0.50400001928E-02 0.  1.
</event>
<event>
 5   0  0.1210633E-04  0.1983629E+04  0.7818609E-02  0.8614313E-01
       -1   -1    0    0    0  501  0.00000000000E+00  0.00000000000E+00  0.10312703984E+04  0.10312703984E+04  0.50400001928E-02 0. -1.
        1   -1    0    0  501    0  0.00000000000E+00  0.00000000000E+00 -0.95386779528E+03  0.95386779529E+03  0.50400001928E-02 0.  1.
    10030    2    1    2    0    0  0.00000000000E+00  0.00000000000E+00  0.77402603157E+02  0.19851381937E+04  0.19836286158E+04 0.  0.
        2    1    3    3  502    0 -0.50305133566E+03  0.25857929195E+03 -0.77664058637E+03  0.96077806852E+03  0.25500000920E-02 0.  1.
       -2    1    3    3    0  502  0.50305133566E+03 -0.25857929195E+03  0.85404318953E+03  0.10243601252E+04  0.25500000920E-02 0. -1.
</event>
<event>
 5   0  0.2596061E-04  0.2012403E+04  0.7818609E-02  0.8600844E-01
       -2   -1    0    0    0  501  0.00000000000E+00  0.00000000000E+00  0.42539127329E+03  0.42539127330E+03  0.25500000920E-02 0. -1.
        2   -1    0    0  501    0  0.00000000000E+00  0.00000000000E+00 -0.23800248135E+04  0.23800248135E+04  0.25500000920E-02 0.  1.
    10030    2    1    2    0    0  0.00000000000E+00  0.00000000000E+00 -0.19546335402E+04  0.28054160868E+04  0.20124033253E+04 0.  0.
        5    1    3    3  502    0  0.31497858402E+03  0.71796311985E+03 -0.18565018985E+04  0.20152677090E+04  0.46999998093E+01 0.  1.
       -5    1    3    3    0  502 -0.31497858402E+03 -0.71796311985E+03 -0.98131641742E+02  0.79014837782E+03  0.46999998093E+01 0. -1.
</event>
<event>
 5   0  0.2463085E-04  0.1999785E+04  0.7818609E-02  0.8606721E-01
        2   -1    0    0  501    0  0.00000000000E+00  0.00000000000E+00  0.11824211585E+04  0.11824211585E+04  0.25500000920E-02 0.  1.
       -2   -1    0    0    0  501  0.00000000000E+00  0.00000000000E+00 -0.84554054321E+03  0.84554054321E+03  0.25500000920E-02 0. -1.
    10030    2    1    2    0    0  0.00000000000E+00  0.00000000000E+00  0.33688061532E+03  0.20279617017E+04  0.19997850171E+04 0.  0.
        2    1    3    3  502    0 -0.72057341018E+03  0.11129761904E+03  0.86231185247E+03  0.11292452924E+04  0.25500000920E-02 0.  1.
       -2    1    3    3    0  502  0.72057341018E+03 -0.11129761904E+03 -0.52543123715E+03  0.89871640935E+03  0.25500000920E-02 0. -1.
</event>
<event>
 5   0  0.1324930E-04  0.1995923E+04  0.7818609E-02  0.8608529E-01
       -1   -1    0    0    0  501  0.00000000000E+00  0.00000000000E+00  0.18118138283E+04  0.18118138283E+04  0.50400001928E-02 0.  1.
        1   -1    0    0  501    0  0.00000000000E+00  0.00000000000E+00 -0.54968510991E+03  0.54968510993E+03  0.50400001928E-02 0. -1.
    10030    2    1    2    0    0  0.00000000000E+00  0.00000000000E+00  0.12621287184E+04  0.23614989383E+04  0.19959229278E+04 0.  0.
        5    1    3    3  502    0 -0.73849410571E+03 -0.56703720454E+03  0.10560157714E+04  0.14078693601E+04  0.46999998093E+01 0.  1.
       -5    1    3    3    0  502  0.73849410571E+03  0.56703720454E+03  0.20611294697E+03  0.95362957819E+03  0.46999998093E+01 0. -1.
</event>
<event>
 5   0  0.1258546E-04  0.2016743E+04  0.7818609E-02  0.8598832E-01
        1   -1    0    0  501    0  0.00000000000E+00  0.00000000000E+00  0.19118626525E+04  0.19118626525E+04  0.50400001928E-02 0.  1.
       -1   -1    0    0    0  501  0.00000000000E+00  0.00000000000E+00 -0.53184446794E+03  0.53184446797E+03  0.50400001928E-02 0. -1.
    10030    2    1    2    0    0  0.00000000000E+00  0.00000000000E+00  0.13800181846E+04  0.24437071205E+04  0.20167434891E+04 0.  0.
        4    1    3    3  502    0  0.83092680721E+02 -0.17682631574E+02  0.19075177645E+04  0.19094089933E+04  0.12699999809E+01 0.  1.
       -4    1    3    3    0  502 -0.83092680721E+02  0.17682631574E+02 -0.52749957988E+03  0.53429812720E+03  0.12699999809E+01 0. -1.
</event>
<event>
 5   0  0.1231056E-04  0.1995941E+04  0.7818609E-02  0.8608521E-01
        1   -1    0    0  501    0  0.00000000000E+00  0.00000000000E+00  0.85596567644E+03  0.85596567645E+03  0.50400001928E-02 0.  1.
       -1   -1    0    0    0  501  0.00000000000E+00  0.00000000000E+00 -0.11635334666E+04  0.11635334666E+04  0.50400001928E-02 0. -1.
    10030    2    1    2    0    0  0.00000000000E+00  0.00000000000E+00 -0.30756779016E+03  0.20194991431E+04  0.19959405911E+04 0.  0.
        3    1    3    3  502    0  0.67149480638E+03 -0.72950441522E+03 -0.26853653985E+03  0.10272262897E+04  0.10100000352E+00 0. -1.
       -3    1    3    3    0  502 -0.67149480638E+03  0.72950441522E+03 -0.39031250316E+02  0.99227285336E+03  0.10100000352E+00 0.  1.
</event>
<event>
 5   0  0.1324930E-04  0.2021162E+04  0.7818609E-02  0.8596790E-01
        1   -1    0    0  501    0  0.00000000000E+00  0.00000000000E+00  0.82890508034E+03  0.82890508036E+03  0.50400001928E-02 0. -1.
       -1   -1    0    0    0  501  0.00000000000E+00  0.00000000000E+00 -0.12320757266E+04  0.12320757266E+04  0.50400001928E-02 0.  1.
    10030    2    1    2    0    0  0.00000000000E+00  0.00000000000E+00 -0.40317064622E+03  0.20609808069E+04  0.20211618729E+04 0.  0.
        5    1    3    3  502    0 -0.72022101943E+03  0.50222306987E+03 -0.71174716127E+03  0.11302886535E+04  0.46999998093E+01 0.  1.
       -5    1    3    3    0  502  0.72022101943E+03 -0.50222306987E+03  0.30857651505E+03  0.93069215339E+03  0.46999998093E+01 0. -1.
</event>
<event>
 5   0  0.2463085E-04  0.1898094E+04  0.7818609E-02  0.8655806E-01
        2   -1    0    0  501    0  0.00000000000E+00  0.00000000000E+00  0.13171921726E+04  0.13171921726E+04  0.25500000920E-02 0. -1.
       -2   -1    0    0    0  501  0.00000000000E+00  0.00000000000E+00 -0.68379574292E+03  0.68379574293E+03  0.25500000920E-02 0.  1.
    10030    2    1    2    0    0  0.00000000000E+00  0.00000000000E+00  0.63339642964E+03  0.20009879155E+04  0.18980942023E+04 0.  0.
        2    1    3    3  502    0 -0.15996332746E+03  0.17492599579E+03  0.12854829993E+04  0.13071548920E+04  0.25500000920E-02 0. -1.
       -2    1    3    3    0  502  0.15996332746E+03 -0.17492599579E+03 -0.65208656968E+03  0.69383302350E+03  0.25500000920E-02 0.  1.
</event>
<event>
 5   0  0.2463085E-04  0.1824524E+04  0.7818609E-02  0.8693365E-01
       -2   -1    0    0    0  501  0.00000000000E+00  0.00000000000E+00  0.43535045398E+03  0.43535045399E+03  0.25500000920E-02 0.  1.
        2   -1    0    0  501    0  0.00000000000E+00  0.00000000000E+00 -0.19116142175E+04  0.19116142175E+04  0.25500000920E-02 0. -1.
    10030    2    1    2    0    0  0.00000000000E+00  0.00000000000E+00 -0.14762637635E+04  0.23469646715E+04  0.18245241763E+04 0.  0.
        2    1    3    3  502    0  0.89826120379E+03 -0.14092493542E+03 -0.83343499687E+03  0.12334289285E+04  0.25500000920E-02 0. -1.
       -2    1    3    3    0  502 -0.89826120379E+03  0.14092493542E+03 -0.64282876664E+03  0.11135357430E+04  0.25500000920E-02 0.  1.
</event>
<event>
 5   0  0.1258546E-04  0.2032367E+04  0.7818609E-02  0.8591636E-01
        1   -1    0    0  501    0  0.00000000000E+00  0.00000000000E+00  0.90166478866E+03  0.90166478867E+03  0.50400001928E-02 0. -1.
       -1   -1    0    0    0  501  0.00000000000E+00  0.00000000000E+00 -0.11452472409E+04  0.11452472409E+04  0.50400001928E-02 0.  1.
    10030    2    1    2    0    0  0.00000000000E+00  0.00000000000E+00 -0.24358245220E+03  0.20469120295E+04  0.20323672025E+04 0.  0.
        4    1    3    3  502    0  0.10816670697E+03  0.17341995205E+03  0.88074854656E+03  0.90415382067E+03  0.12699999809E+01 0. -1.
       -4    1    3    3    0  502 -0.10816670697E+03 -0.17341995205E+03 -0.11243309988E+04  0.11427582089E+04  0.12699999809E+01 0.  1.
</event>
<event>
 5   0  0.1207228E-04  0.2033401E+04  0.7818609E-02  0.8591162E-01
       -1   -1    0    0    0  501  0.00000000000E+00  0.00000000000E+00  0.10476016257E+04  0.10476016257E+04  0.50400001928E-02 0. -1.
        1   -1    0    0  501    0  0.00000000000E+00  0.00000000000E+00 -0.98671079193E+03  0.98671079194E+03  0.50400001928E-02 0.  1.
    10030    2    1    2    0    0  0.00000000000E+00  0.00000000000E+00  0.60890833774E+02  0.20343124177E+04  0.20334009243E+04 0.  0.
        1    1    3    3  502    0 -0.87661062300E+03  0.48308715170E+03  0.20902038491E+03  0.10225012967E+04  0.50400001928E-02 0. -1.
       -1    1    3    3    0  502  0.87661062300E+03 -0.48308715170E+03 -0.14812955113E+03  0.10118111209E+04  0.50400001928E-02 0.  1.
</event>
<event>
 5   0  0.1207228E-04  0.1993952E+04  0.7818609E-02  0.8609454E-01
       -1   -1    0    0    0  501  0.00000000000E+00  0.00000000000E+00  0.62282396626E+03  0.62282396628E+03  0.50400001928E-02 0.  1.
        1   -1    0    0  501    0  0.00000000000E+00  0.00000000000E+00 -0.15958936483E+04  0.15958936483E+04  0.50400001928E-02 0. -1.
    10030    2    1    2    0    0  0.00000000000E+00  0.00000000000E+00 -0.97306968205E+03  0.22187176146E+04  0.19939516662E+04 0.  0.
        1    1    3    3  502    0  0.78025951972E+03 -0.46097627235E+01  0.20401288210E+03  0.80650320775E+03  0.50400001928E-02 0.  1.
       -1    1    3    3    0  502 -0.78025951972E+03  0.46097627235E+01 -0.11770825641E+04  0.14122144068E+04  0.50400001928E-02 0. -1.
</event>
<event>
 5   0  0.1324930E-04  0.1960620E+04  0.7818609E-02  0.8625257E-01
        1   -1    0    0  501    0  0.00000000000E+00  0.00000000000E+00  0.12160057906E+04  0.12160057906E+04  0.50400001928E-02 0. -1.
       -1   -1    0    0    0  501  0.00000000000E+00  0.00000000000E+00 -0.79029875820E+03  0.79029875822E+03  0.50400001928E-02 0.  1.
    10030    2    1    2    0    0  0.00000000000E+00  0.00000000000E+00  0.42570703235E+03  0.20063045488E+04  0.19606201736E+04 0.  0.
        5    1    3    3  502    0  0.77159085376E+03 -0.57065242481E+03  0.41748592992E+03  0.10465721319E+04  0.46999998093E+01 0.  1.
       -5    1    3    3    0  502 -0.77159085376E+03  0.57065242481E+03  0.82211024346E+01  0.95973241691E+03  0.46999998093E+01 0. -1.
</event>
<event>
 5   0  0.2540506E-04  0.2017774E+04  0.7818609E-02  0.8598355E-01
       -2   -1    0    0    0  501  0.00000000000E+00  0.00000000000E+00  0.14233327792E+04  0.14233327792E+04  0.25500000920E-02 0.  1.
        2   -1    0    0  501    0  0.00000000000E+00  0.00000000000E+00 -0.71511978488E+03  0.71511978489E+03  0.25500000920E-02 0. -1.
    10030    2    1    2    0    0  0.00000000000E+00  0.00000000000E+00  0.70821299428E+03  0.21384525641E+04  0.20177744481E+04 0.  0.
        4    1    3    3  502    0  0.26855039463E+03 -0.24624249280E+03 -0.64295620644E+03  0.73901892805E+03  0.12699999809E+01 0. -1.
       -4    1    3    3    0  502 -0.26855039463E+03  0.24624249280E+03  0.13511692007E+04  0.13994336360E+04  0.12699999809E+01 0.  1.
</event>
<event>
 5   0  0.2488886E-04  0.1950501E+04  0.7818609E-02  0.8630119E-01
       -2   -1    0    0    0  501  0.00000000000E+00  0.00000000000E+00  0.72367326997E+03  0.72367326997E+03  0.25500000920E-02 0. -1.
        2   -1    0    0  501    0  0.00000000000E+00  0.00000000000E+00 -0.13142860617E+04  0.13142860617E+04  0.25500000920E-02 0.  1.
    10030    2    1    2    0    0  0.00000000000E+00  0.00000000000E+00 -0.59061279172E+03  0.20379593317E+04  0.19505011581E+04 0.  0.
        3    1    3    3  502    0 -0.35756157040E+02 -0.94375275888E+03 -0.41159346659E+02  0.94532633237E+03  0.10100000352E+00 0. -1.
       -3    1    3    3    0  502  0.35756157040E+02  0.94375275888E+03 -0.54945344506E+03  0.10926329993E+04  0.10100000352E+00 0.  1.
</event>
<event>
 5   0  0.2421737E-04  0.2026104E+04  0.7818609E-02  0.8594512E-01
       -2   -1    0    0    0  501  0.00000000000E+00  0.00000000000E+00  0.40978628898E+03  0.40978628899E+03  0.25500000920E-02 0. -1.
        2   -1    0    0  501    0  0.00000000000E+00  0.00000000000E+00 -0.25044145931E+04  0.25044145931E+04  0.25500000920E-02 0.  1.
    10030    2    1    2    0    0  0.00000000000E+00  0.00000000000E+00 -0.20946283041E+04  0.29142008821E+04  0.20261044022E+04 0.  0.
        1    1    3    3  502    0  0.63406871282E+03 -0.73853969141E+03 -0.14510481225E+04  0.17472906634E+04  0.50400001928E-02 0.  1.
       -1    1    3    3    0  502 -0.63406871282E+03  0.73853969141E+03 -0.64358018155E+03  0.11669102187E+04  0.50400001928E-02 0. -1.
</event>
<event>
 5   0  0.2488886E-04  0.1948222E+04  0.7818609E-02  0.8631218E-01
        2   -1    0    0  501    0  0.00000000000E+00  0.00000000000E+00  0.10487832974E+04  0.10487832974E+04  0.25500000920E-02 0. -1.
       -2   -1    0    0    0  501  0.00000000000E+00  0.00000000000E+00 -0.90475572171E+03  0.90475572171E+03  0.25500000920E-02 0.  1.
    10030    2    1    2    0    0  0.00000000000E+00  0.00000000000E+00  0.14402757566E+03  0.19535390191E+04  0.19482224607E+04 0.  0.
        3    1    3    3  502    0  0.25775901465E+03 -0.61945721517E+03 -0.63611855494E+03  0.92456139720E+03  0.10100000352E+00 0.  1.
       -3    1    3    3    0  502 -0.25775901465E+03  0.61945721517E+03  0.78014613059E+03  0.10289776219E+04  0.10100000352E+00 0. -1.
</event>
<event>
 5   0  0.2596061E-04  0.2007377E+04  0.7818609E-02  0.8603180E-01
       -2   -1    0    0    0  501  0.00000000000E+00  0.00000000000E+00  0.40305782372E+03  0.40305782373E+03  0.25500000920E-02 0. -1.
        2   -1    0    0  501    0  0.00000000000E+00  0.00000000000E+00 -0.24993691268E+04  0.24993691268E+04  0.25500000920E-02 0.  1.
    10030    2    1    2    0    0  0.00000000000E+00  0.00000000000E+00 -0.20963113030E+04  0.29024269505E+04  0.20073766771E+04 0.  0.
        5    1    3    3  502    0 -0.80984328430E+03 -0.63201548894E+02 -0.19578776128E+03  0.83558094663E+03  0.46999998093E+01 0. -1.
       -5    1    3    3    0  502  0.80984328430E+03  0.63201548894E+02 -0.19005235418E+04  0.20668460039E+04  0.46999998093E+01 0.  1.
</event>
<event>
 5   0  0.2596061E-04  0.1948472E+04  0.7818609E-02  0.8631098E-01
       -2   -1    0    0    0  501  0.00000000000E+00  0.00000000000E+00  0.14993655090E+04  0.14993655090E+04  0.25500000920E-02 0.  1.
        2   -1    0    0  501    0  0.00000000000E+00  0.00000000000E+00 -0.63302466062E+03  0.63302466063E+03  0.25500000920E-02 0. -1.
    10030    2    1    2    0    0  0.00000000000E+00  0.00000000000E+00  0.86634084834E+03  0.21323901696E+04  0.19484715471E+04 0.  0.
        5    1    3    3  502    0  0.75724144471E+03  0.40670252959E+03  0.93503167957E+03  0.12700897153E+04  0.46999998093E+01 0.  1.
       -5    1    3    3    0  502 -0.75724144471E+03 -0.40670252959E+03 -0.68690831226E+02  0.86230045428E+03  0.46999998093E+01 0. -1.
</event>
<event>
 5   0  0.1207228E-04  0.1967405E+04  0.7818609E-02  0.8622013E-01
       -1   -1    0    0    0  501  0.00000000000E+00  0.00000000000E+00  0.11199986842E+04  0.11199986842E+04  0.50400001928E-02 0. -1.
        1   -1    0    0  501    0  0.00000000000E+00  0.00000000000E+00 -0.86399256213E+03  0.86399256214E+03  0.50400001928E-02 0.  1.
    10030    2    1    2    0    0  0.00000000000E+00  0.00000000000E+00  0.25600612205E+03  0.19839912463E+04  0.19674049230E+04 0.  0.
        1    1    3    3  502    0 -0.35584479881E+03 -0.70974689644E+03 -0.45767232441E+03  0.91642246503E+03  0.50400001928E-02 0.  1.
       -1    1    3    3    0  502  0.35584479881E+03  0.70974689644E+03  0.71367844646E+03  0.10675687813E+04  0.50400001928E-02 0. -1.
</event>
<event>
 5   0  0.2540506E-04  0.2038730E+04  0.7818609E-02  0.8588724E-01
       -2   -1    0    0    0  501  0.00000000000E+00  0.00000000000E+00  0.81150624285E+03  0.81150624285E+03  0.25500000920E-02 0. -1.
        2   -1    0    0  501    0  0.00000000000E+00  0.00000000000E+00 -0.12804647262E+04  0.12804647262E+04  0.25500000920E-02 0.  1.
    10030    2    1    2    0    0  0.00000000000E+00  0.00000000000E+00 -0.46895848337E+03  0.20919709691E+04  0.20387301136E+04 0.  0.
        4    1    3    3  502    0  0.33034337279E+03  0.81850012067E+03  0.28877317960E+03  0.92868765128E+03  0.12699999809E+01 0. -1.
       -4    1    3    3    0  502 -0.33034337279E+03 -0.81850012067E+03 -0.75773166297E+03  0.11632833178E+04  0.12699999809E+01 0.  1.
</event>
<event>
 5   0  0.1231056E-04  0.1869756E+04  0.7818609E-02  0.8670059E-01
       -1   -1    0    0    0  501  0.00000000000E+00  0.00000000000E+00  0.95126320226E+03  0.95126320227E+03  0.50400001928E-02 0.  1.
        1   -1    0    0  501    0  0.00000000000E+00  0.00000000000E+00 -0.91877536248E+03  0.91877536249E+03  0.50400001928E-02 0. -1.
    10030    2    1    2    0    0  0.00000000000E+00  0.00000000000E+00  0.32487839784E+02  0.18700385648E+04  0.18697563408E+04 0.  0.
        3    1    3    3  502    0 -0.37642798281E+03  0.85316978968E+03 -0.50102109030E+02  0.93386666489E+03  0.10100000352E+00 0.  1.
       -3    1    3    3    0  502  0.37642798281E+03 -0.85316978968E+03  0.82589948814E+02  0.93617189987E+03  0.10100000352E+00 0. -1.
</event>
<event>
 5   0  0.1210633E-04  0.1986550E+04  0.7818609E-02  0.8612935E-01
        1   -1    0    0  501    0  0.00000000000E+00  0.00000000000E+00  0.75545766267E+03  0.75545766269E+03  0.50400001928E-02 0. -1.
       -1   -1    0    0    0  501  0.00000000000E+00  0.00000000000E+00 -0.13059565224E+04  0.13059565224E+04  0.50400001928E-02 0.  1.
    10030    2    1    2    0    0  0.00000000000E+00  0.00000000000E+00 -0.55049885972E+03  0.20614141851E+04  0.19865496339E+04 0.  0.
        2    1    3    3  502    0  0.80838260854E+03  0.59640822214E+02 -0.87095279169E+03  0.11897891556E+04  0.25500000920E-02 0.  1.
       -2    1    3    3    0  502 -0.80838260854E+03 -0.59640822214E+02  0.32045393197E+03  0.87162502947E+03  0.25500000920E-02 0. -1.
</event>
<event>
 5   0  0.1258546E-04  0.2027007E+04  0.7818609E-02  0.8594097E-01
       -1   -1    0    0    0  501  0.00000000000E+00  0.00000000000E+00  0.10099387625E+04  0.10099387626E+04  0.50400001928E-02 0.  1.
        1   -1    0    0  501    0  0.00000000000E+00  0.00000000000E+00 -0.10170803914E+04  0.10170803914E+04  0.50400001928E-02 0. -1.
    10030    2    1    2    0    0  0.00000000000E+00  0.00000000000E+00 -0.71416288615E+01  0.20270191540E+04  0.20270065732E+04 0.  0.
        4    1    3    3  502    0  0.10300786070E+03  0.43485747293E+03 -0.91323335051E+03  0.10167145157E+04  0.12699999809E+01 0. -1.
       -4    1    3    3    0  502 -0.10300786070E+03 -0.43485747293E+03  0.90609172165E+03  0.10103046382E+04  0.12699999809E+01 0.  1.
</event>
<event>
 5   0  0.2540506E-04  0.1984742E+04  0.7818609E-02  0.8613788E-01
       -2   -1    0    0    0  501  0.00000000000E+00  0.00000000000E+00  0.89600878443E+03  0.89600878444E+03  0.25500000920E-02 0. -1.
        2   -1    0    0  501    0  0.00000000000E+00  0.00000000000E+00 -0.10990962478E+04  0.10990962478E+04  0.25500000920E-02 0.  1.
    10030    2    1    2    0    0  0.00000000000E+00  0.00000000000E+00 -0.20308746334E+03  0.19951050322E+04  0.19847416889E+04 0.  0.
        4    1    3    3  502    0 -0.97018657933E+03  0.20438284699E+03 -0.14376223548E+03  0.10018500587E+04  0.12699999809E+01 0.  1.
       -4    1    3    3    0  502  0.97018657933E+03 -0.20438284699E+03 -0.59325227868E+02  0.99325497352E+03  0.12699999809E+01 0. -1.
</event>
<event>
 5   0  0.1324930E-04  0.2022385E+04  0.7818609E-02  0.8596226E-01
        1   -1    0    0  501    0  0.00000000000E+00  0.00000000000E+00  0.25980158907E+04  0.25980158907E+04  0.50400001928E-02 0. -1.
       -1   -1    0    0    0  501  0.00000000000E+00  0.00000000000E+00 -0.39357338550E+03  0.39357338553E+03  0.50400001928E-02 0.  1.
    10030    2    1    2    0    0  0.00000000000E+00  0.00000000000E+00  0.22044425052E+04  0.29915892763E+04  0.20223846417E+04 0.  0.
        5    1    3    3  502    0 -0.91883038329E+01 -0.97665913168E+03  0.14894889931E+04  0.17811645166E+04  0.46999998093E+01 0. -1.
       -5    1    3    3    0  502  0.91883038329E+01  0.97665913168E+03  0.71495351208E+03  0.12104247597E+04  0.46999998093E+01 0.  1.
</event>
<event>
 5   0  0.1324930E-04  0.1971883E+04  0.7818609E-02  0.8619880E-01
       -1   -1    0    0    0  501  0.00000000000E+00  0.00000000000E+00  0.10366570978E+04  0.10366570978E+04  0.50400001928E-02 0. -1.
        1   -1    0    0  501    0  0.00000000000E+00  0.00000000000E+00 -0.93770717781E+03  0.93770717783E+03  0.50400001928E-02 0.  1.
    10030    2    1    2    0    0  0.00000000000E+00  0.00000000000E+00  0.98949919961E+02  0.19743642756E+04  0.19718831624E+04 0.  0.
        5    1    3    3  502    0 -0.44557856786E+03 -0.89406967888E+02  0.92551861981E+03  0.10310871310E+04  0.46999998093E+01 0. -1.
       -5    1    3    3    0  502  0.44557856786E+03  0.89406967888E+02 -0.82656869985E+03  0.94327714464E+03  0.46999998093E+01 0.  1.
</event>
<event>
 5   0  0.1324930E-04  0.2014082E+04  0.7818609E-02  0.8600065E-01
        1   -1    0    0  501    0  0.00000000000E+00  0.00000000000E+00  0.71242862032E+03  0.71242862033E+03  0.50400001928E-02 0.  1.
       -1   -1    0    0    0  501  0.00000000000E+00  0.00000000000E+00 -0.14234845034E+04  0.14234845034E+04  0.50400001928E-02 0. -1.
    10030    2    1    2    0    0  0.00000000000E+00  0.00000000000E+00 -0.71105588304E+03  0.21359131237E+04  0.20140815284E+04 0.  0.
        5    1    3    3  502    0 -0.15426928713E+02 -0.77878976241E+03 -0.10323810227E+04  0.12932842496E+04  0.46999998093E+01 0. -1.
       -5    1    3    3    0  502  0.15426928713E+02  0.77878976241E+03  0.32132513965E+03  0.84262887414E+03  0.46999998093E+01 0.  1.
</event>
<event>
 5   0  0.2596061E-04  0.2027279E+04  0.7818609E-02  0.8593972E-01
       -2   -1    0    0    0  501  0.00000000000E+00  0.00000000000E+00  0.16501279452E+04  0.16501279452E+04  0.25500000920E-02 0. -1.
        2   -1    0    0  501    0  0.00000000000E+00  0.00000000000E+00 -0.62265802879E+03  0.62265802880E+03  0.25500000920E-02 0.  1.
    10030    2    1    2    0    0  0.00000000000E+00  0.00000000000E+00  0.10274699164E+04  0.22727859740E+04  0.20272793726E+04 0.  0.
        5    1    3    3  502    0  0.63414691957E+03  0.12428584941E+03 -0.36176854889E+03  0.74059966307E+03  0.46999998093E+01 0.  1.
       -5    1    3    3    0  502 -0.63414691957E+03 -0.12428584941E+03  0.13892384653E+04  0.15321863110E+04  0.46999998093E+01 0. -1.
</event>
<event>
 5   0  0.2421737E-04  0.1960340E+04  0.7818609E-02  0.8625391E-01
        2   -1    0    0  501    0  0.00000000000E+00  0.00000000000E+00  0.14331673574E+04  0.14331673574E+04  0.25500000920E-02 0. -1.
       -2   -1    0    0    0  501  0.00000000000E+00  0.00000000000E+00 -0.67035676717E+03  0.67035676718E+03  0.25500000920E-02 0.  1.
    10030    2    1    2    0    0  0.00000000000E+00  0.00000000000E+00  0.76281059022E+03  0.21035241246E+04  0.19603402118E+04 0.  0.
        1    1    3    3  502    0  0.15204772834E+03  0.94031750179E+03  0.62940978184E+03  0.11416970655E+04  0.50400001928E-02 0. -1.
       -1    1    3    3    0  502 -0.15204772834E+03 -0.94031750179E+03  0.13340080837E+03  0.96182705907E+03  0.50400001928E-02 0.  1.
</event>
<event>
 5   0  0.1210633E-04  0.1998550E+04  0.7818609E-02  0.8607299E-01
       -1   -1    0    0    0  501  0.00000000000E+00  0.00000000000E+00  0.49519684902E+03  0.49519684905E+03  0.50400001928E-02 0. -1.
        1   -1    0    0  501    0  0.00000000000E+00  0.00000000000E+00 -0.20164722906E+04  0.20164722906E+04  0.50400001928E-02 0.  1.
    10030    2    1    2    0    0  0.00000000000E+00  0.00000000000E+00 -0.15212754416E+04  0.25116691397E+04  0.19985501990E+04 0.  0.
        2    1    3    3  502    0  0.31746279531E+03  0.17654659481E+03 -0.19305587833E+04  0.19644359349E+04  0.25500000920E-02 0.  1.
       -2    1    3    3    0  502 -0.31746279531E+03 -0.17654659481E+03  0.40928334174E+03  0.54723320474E+03  0.25500000920E-02 0. -1.
</event>
<event>
 5   0  0.2596061E-04  0.1983155E+04  0.7818609E-02  0.8614537E-01
       -2   -1    0    0    0  501  0.00000000000E+00  0.00000000000E+00  0.45761221245E+03  0.45761221246E+03  0.25500000920E-02 0.  1.
        2   -1    0    0  501    0  0.00000000000E+00  0.00000000000E+00 -0.21486002252E+04  0.21486002252E+04  0.25500000920E-02 0. -1.
    10030    2    1    2    0    0  0.00000000000E+00  0.00000000000E+00 -0.16909880128E+04  0.26062124377E+04  0.19831547622E+04 0.  0.
        5    1    3    3  502    0 -0.66313491421E+03  0.15047089956E+03  0.10291270160E+03  0.68775178677E+03  0.46999998093E+01 0.  1.
       -5    1    3    3    0  502  0.66313491421E+03 -0.15047089956E+03 -0.17939007144E+04  0.19184606509E+04  0.46999998093E+01 0. -1.
</event>
<event>
 5   0  0.2421737E-04  0.2014045E+04  0.7818609E-02  0.8600082E-01
        2   -1    0    0  501    0  0.00000000000E+00  0.00000000000E+00  0.12612767725E+04  0.12612767725E+04  0.25500000920E-02 0.  1.
       -2   -1    0    0    0  501  0.00000000000E+00  0.00000000000E+00 -0.80402181782E+03  0.80402181782E+03  0.25500000920E-02 0. -1.
    10030    2    1    2    0    0  0.00000000000E+00  0.00000000000E+00  0.45725495471E+03  0.20652985904E+04  0.20140447298E+04 0.  0.
        1    1    3    3  502    0  0.93981354876E+03  0.35557710459E+03  0.29672109765E+03  0.10477251517E+04  0.50400001928E-02 0. -1.
       -1    1    3    3    0  502 -0.93981354876E+03 -0.35557710459E+03  0.16053385706E+03  0.10175734386E+04  0.50400001928E-02 0.  1.
</event>
<event>
 5   0  0.2421737E-04  0.2119839E+04  0.7818609E-02  0.8552554E-01
        2   -1    0    0  501    0  0.00000000000E+00  0.00000000000E+00  0.14980915081E+04  0.14980915081E+04  0.25500000920E-02 0.  1.
       -2   -1    0    0    0  501  0.00000000000E+00  0.00000000000E+00 -0.74990683028E+03  0.74990683029E+03  0.25500000920E-02 0. -1.
    10030    2    1    2    0    0  0.00000000000E+00  0.00000000000E+00  0.74818467782E+03  0.22479983384E+04  0.21198387244E+04 0.  0.
        1    1    3    3  502    0  0.10208813240E+04 -0.13162412644E+03  0.10601372637E+03  0.10347765453E+04  0.50400001928E-02 0.  1.
       -1    1    3    3    0  502 -0.10208813240E+04  0.13162412644E+03  0.64217095145E+03  0.12132217931E+04  0.50400001928E-02 0. -1.
</event>
<event>
 5   0  0.2488886E-04  0.1874269E+04  0.7818609E-02  0.8667772E-01
        2   -1    0    0  501    0  0.00000000000E+00  0.00000000000E+00  0.14468565507E+04  0.14468565507E+04  0.25500000920E-02 0.  1.
       -2   -1    0    0    0  501  0.00000000000E+00  0.00000000000E+00 -0.60698541371E+03  0.60698541372E+03  0.25500000920E-02 0. -1.
    10030    2    1    2    0    0  0.00000000000E+00  0.00000000000E+00  0.83987113699E+03  0.20538419644E+04  0.18742687342E+04 0.  0.
        3    1    3    3  502    0  0.56450859195E+03 -0.35484419435E+03  0.11415381155E+04  0.13220036429E+04  0.10100000352E+00 0.  1.
       -3    1    3    3    0  502 -0.56450859195E+03  0.35484419435E+03 -0.30166697850E+03  0.73183832147E+03  0.10100000352E+00 0. -1.
</event>
<event>
 5   0  0.1258546E-04  0.1970180E+04  0.7818609E-02  0.8620691E-01
        1   -1    0    0  501    0  0.00000000000E+00  0.00000000000E+00  0.12360011222E+04  0.12360011222E+04  0.50400001928E-02 0.  1.
       -1   -1    0    0    0  501  0.00000000000E+00  0.00000000000E+00 -0.78511476552E+03  0.78511476554E+03  0.50400001928E-02 0. -1.
    10030    2    1    2    0    0  0.00000000000E+00  0.00000000000E+00  0.45088635665E+03  0.20211158877E+04  0.19701804295E+04 0.  0.
        4    1    3    3  502    0 -0.69470224089E+02  0.25504975218E+03 -0.74805022531E+03  0.79338341337E+03  0.12699999809E+01 0. -1.
       -4    1    3    3    0  502  0.69470224089E+02 -0.25504975218E+03  0.11989365820E+04  0.12277324743E+04  0.12699999809E+01 0.  1.
</event>
<event>
 5   0  0.1258546E-04  0.1585043E+04  0.7818609E-02  0.8829790E-01
        1   -1    0    0  501    0  0.00000000000E+00  0.00000000000E+00  0.17800710402E+04  0.17800710402E+04  0.50400001928E-02 0. -1.
       -1   -1    0    0    0  501  0.00000000000E+00  0.00000000000E+00 -0.35284558707E+03  0.35284558711E+03  0.50400001928E-02 0.  1.
    10030    2    1    2    0    0  0.00000000000E+00  0.00000000000E+00  0.14272254531E+04  0.21329166273E+04  0.15850428527E+04 0.  0.
        4    1    3    3  502    0 -0.34751921530E+03  0.69220694113E+03  0.93946011415E+03  0.12175824298E+04  0.12699999809E+01 0. -1.
       -4    1    3    3    0  502  0.34751921530E+03 -0.69220694113E+03  0.48776533899E+03  0.91533419753E+03  0.12699999809E+01 0.  1.
</event>
<event>
 5   0  0.1207228E-04  0.2205512E+04  0.7818609E-02  0.8516137E-01
       -1   -1    0    0    0  501  0.00000000000E+00  0.00000000000E+00  0.13012483918E+04  0.13012483918E+04  0.50400001928E-02 0.  1.
        1   -1    0    0  501    0  0.00000000000E+00  0.00000000000E+00 -0.93454201483E+03  0.93454201484E+03  0.50400001928E-02 0. -1.
    10030    2    1    2    0    0  0.00000000000E+00  0.00000000000E+00  0.36670637694E+03  0.22357904066E+04  0.22055124519E+04 0.  0.
        1    1    3    3  502    0 -0.78331703072E+03 -0.76525605527E+03  0.31501652822E+03  0.11394901552E+04  0.50400001928E-02 0. -1.
       -1    1    3    3    0  502  0.78331703072E+03  0.76525605527E+03  0.51689848724E+02  0.10963002514E+04  0.50400001928E-02 0.  1.
</event>
<event>
 5   0  0.2596061E-04  0.2026038E+04  0.7818609E-02  0.8594543E-01
        2   -1    0    0  501    0  0.00000000000E+00  0.00000000000E+00  0.42213603496E+03  0.42213603497E+03  0.25500000920E-02 0. -1.
       -2   -1    0    0    0  501  0.00000000000E+00  0.00000000000E+00 -0.24309867842E+04  0.24309867842E+04  0.25500000920E-02 0.  1.
    10030    2    1    2    0    0  0.00000000000E+00  0.00000000000E+00 -0.20088507492E+04  0.28531228192E+04  0.20260376326E+04 0.  0.
        5    1    3    3  502    0  0.60349363971E+03  0.20488934848E+03 -0.21132658980E+04  0.22072831862E+04  0.46999998093E+01 0.  1.
       -5    1    3    3    0  502 -0.60349363971E+03 -0.20488934848E+03  0.10441514874E+03  0.64583963302E+03  0.46999998093E+01 0. -1.
</event>
<event>
 5   0  0.1207228E-04  0.1965401E+04  0.7818609E-02  0.8622970E-01
       -1   -1    0    0    0  501  0.00000000000E+00  0.00000000000E+00  0.47781308092E+03  0.47781308095E+03  0.50400001928E-02 0.  1.
        1   -1    0    0  501    0  0.00000000000E+00  0.00000000000E+00 -0.20210830488E+04  0.20210830488E+04  0.50400001928E-02 0. -1.
    10030    2    1    2    0    0  0.00000000000E+00  0.00000000000E+00 -0.15432699679E+04  0.24988961298E+04  0.19654006395E+04 0.  0.
        1    1    3    3  502    0 -0.59774657801E+03  0.26632189791E+03  0.16049154686E+03  0.67378472932E+03  0.50400001928E-02 0.  1.
       -1    1    3    3    0  502  0.59774657801E+03 -0.26632189791E+03 -0.17037615148E+04  0.18251114005E+04  0.50400001928E-02 0. -1.
</event>
<event>
 5   0  0.2596061E-04  0.2011144E+04  0.7818609E-02  0.8601428E-01
       -2   -1    0    0    0  501  0.00000000000E+00  0.00000000000E+00  0.85185807026E+03  0.85185807026E+03  0.25500000920E-02 0.  1.
        2   -1    0    0  501    0  0.00000000000E+00  0.00000000000E+00 -0.11870225099E+04  0.11870225099E+04  0.25500000920E-02 0. -1.
    10030    2    1    2    0    0  0.00000000000E+00  0.00000000000E+00 -0.33516443968E+03  0.20388805802E+04  0.20111436594E+04 0.  0.
        5    1    3    3  502    0  0.49515254448E+03  0.60157783174E+03 -0.81202259378E+03  0.11253775867E+04  0.46999998093E+01 0. -1.
       -5    1    3    3    0  502 -0.49515254448E+03 -0.60157783174E+03  0.47685815410E+03  0.91350299346E+03  0.46999998093E+01 0.  1.
</event>
<event>
 5   0  0.2421737E-04  0.2029715E+04  0.7818609E-02  0.8592853E-01
        2   -1    0    0  501    0  0.00000000000E+00  0.00000000000E+00  0.96494210594E+03  0.96494210595E+03  0.25500000920E-02 0. -1.
       -2   -1    0    0    0  501  0.00000000000E+00  0.00000000000E+00 -0.10673546022E+04  0.10673546022E+04  0.25500000920E-02 0.  1.
    10030    2    1    2    0    0  0.00000000000E+00  0.00000000000E+00 -0.10241249625E+03  0.20322967081E+04  0.20297146574E+04 0.  0.
        1    1    3    3  502    0  0.97870825898E+02 -0.24826905524E+02  0.95990029836E+03  0.96519617520E+03  0.50400001928E-02 0. -1.
       -1    1    3    3    0  502 -0.97870825898E+02  0.24826905524E+02 -0.10623127946E+04  0.10671005329E+04  0.50400001928E-02 0.  1.
</event>
<event>
 5   0  0.2540506E-04  0.1448622E+04  0.7818609E-02  0.8919356E-01
       -2   -1    0    0    0  501  0.00000000000E+00  0.00000000000E+00  0.28570289335E+03  0.28570289336E+03  0.25500000920E-02 0. -1.
        2   -1    0    0  501    0  0.00000000000E+00  0.00000000000E+00 -0.18362661127E+04  0.18362661127E+04  0.25500000920E-02 0.  1.
    10030    2    1    2    0    0  0.00000000000E+00  0.00000000000E+00 -0.15505632194E+04  0.21219690061E+04  0.14486221611E+04 0.  0.
        4    1    3    3  502    0 -0.37426133246E+03  0.58260464525E+03 -0.10864486102E+04  0.12883601644E+04  0.12699999809E+01 0.  1.
       -4    1    3    3    0  502  0.37426133246E+03 -0.58260464525E+03 -0.46411460919E+03  0.83360884172E+03  0.12699999809E+01 0. -1.
</event>
<event>
 5   0  0.2596061E-04  0.1818301E+04  0.7818609E-02  0.8696627E-01
        2   -1    0    0  501    0  0.00000000000E+00  0.00000000000E+00  0.13241127427E+04  0.13241127427E+04  0.25500000920E-02 0. -1.
       -2   -1    0    0    0  501  0.00000000000E+00  0.00000000000E+00 -0.62423300519E+03  0.62423300519E+03  0.25500000920E-02 0.  1.
    10030    2    1    2    0    0  0.00000000000E+00  0.00000000000E+00  0.69987973749E+03  0.19483457479E+04  0.18183012694E+04 0.  0.
        5    1    3    3  502    0 -0.78441380094E+03 -0.30282872809E+03 -0.20506282838E+02  0.84110216223E+03  0.46999998093E+01 0.  1.
       -5    1    3    3    0  502  0.78441380094E+03  0.30282872809E+03  0.72038602033E+03  0.11072435856E+04  0.46999998093E+01 0. -1.
</event>
<event>
 5   0  0.1258546E-04  0.1999279E+04  0.7818609E-02  0.8606958E-01
        1   -1    0    0  501    0  0.00000000000E+00  0.00000000000E+00  0.81360412387E+03  0.81360412388E+03  0.50400001928E-02 0.  1.
       -1   -1    0    0    0  501  0.00000000000E+00  0.00000000000E+00 -0.12282127722E+04  0.12282127722E+04  0.50400001928E-02 0. -1.
    10030    2    1    2    0    0  0.00000000000E+00  0.00000000000E+00 -0.41460864834E+03  0.20418168961E+04  0.19992788465E+04 0.  0.
        4    1    3    3  502    0 -0.80813627460E+02 -0.49196216482E+03 -0.10921801751E+04  0.12005901723E+04  0.12699999809E+01 0. -1.
       -4    1    3    3    0  502  0.80813627460E+02  0.49196216482E+03  0.67757152680E+03  0.84122672379E+03  0.12699999809E+01 0.  1.
</event>
<event>
 5   0  0.2421737E-04  0.2020893E+04  0.7818609E-02  0.8596914E-01
       -2   -1    0    0    0  501  0.00000000000E+00  0.00000000000E+00  0.83879377901E+03  0.83879377902E+03  0.25500000920E-02 0. -1.
        2   -1    0    0  501    0  0.00000000000E+00  0.00000000000E+00 -0.12172270583E+04  0.12172270583E+04  0.25500000920E-02 0.  1.
    10030    2    1    2    0    0  0.00000000000E+00  0.00000000000E+00 -0.37843327932E+03  0.20560208374E+04  0.20208933512E+04 0.  0.
        1    1    3    3  502    0  0.35300761887E+03 -0.89289722259E+03  0.13109342122E+03  0.96905382420E+03  0.50400001928E-02 0. -1.
       -1    1    3    3    0  502 -0.35300761887E+03  0.89289722259E+03 -0.50952670054E+03  0.10869670132E+04  0.50400001928E-02 0.  1.
</event>
<event>
 5   0  0.1258546E-04  0.2002107E+04  0.7818609E-02  0.8605636E-01
        1   -1    0    0  501    0  0.00000000000E+00  0.00000000000E+00  0.49310642650E+03  0.49310642653E+03  0.50400001928E-02 0.  1.
       -1   -1    0    0    0  501  0.00000000000E+00  0.00000000000E+00 -0.20322339352E+04  0.20322339352E+04  0.50400001928E-02 0. -1.
    10030    2    1    2    0    0  0.00000000000E+00  0.00000000000E+00 -0.15391275087E+04  0.25253403617E+04  0.20021065043E+04 0.  0.
        4    1    3    3  502    0  0.85777177216E+03  0.22655564268E+03 -0.18469534689E+03  0.90620850603E+03  0.12699999809E+01 0. -1.
       -4    1    3    3    0  502 -0.85777177216E+03 -0.22655564268E+03 -0.13544321618E+04  0.16191318557E+04  0.12699999809E+01 0.  1.
</event>
<event>
 5   0  0.1210633E-04  0.1813717E+04  0.7818609E-02  0.8699039E-01
       -1   -1    0    0    0  501  0.00000000000E+00  0.00000000000E+00  0.37823662086E+03  0.37823662090E+03  0.50400001928E-02 0.  1.
        1   -1    0    0  501    0  0.00000000000E+00  0.00000000000E+00 -0.21742801718E+04  0.21742801718E+04  0.50400001928E-02 0. -1.
    10030    2    1    2    0    0  0.00000000000E+00  0.00000000000E+00 -0.17960435510E+04  0.25525167927E+04  0.18137170508E+04 0.  0.
        2    1    3    3  502    0  0.10813201297E+03 -0.79885828599E+03 -0.14825768801E+04  0.16875726055E+04  0.25500000920E-02 0. -1.
       -2    1    3    3    0  502 -0.10813201297E+03  0.79885828599E+03 -0.31346667087E+03  0.86494418726E+03  0.25500000920E-02 0.  1.
</event>
<event>
 5   0  0.9099125E-05  0.1978888E+04  0.7818609E-02  0.8616555E-01
        4   -1    0    0  501    0  0.00000000000E+00  0.00000000000E+00  0.69607253457E+03  0.69607369314E+03  0.12699999809E+01 0.  1.
       -4   -1    0    0    0  501  0.00000000000E+00  0.00000000000E+00 -0.14064591516E+04  0.14064597250E+04  0.12699999809E+01 0. -1.
    10030    2    1    2    0    0  0.00000000000E+00  0.00000000000E+00 -0.71038661705E+03  0.21025334182E+04  0.19788879778E+04 0.  0.
        1    1    3    3  502    0 -0.45420375619E+03 -0.41282363388E+03  0.46936071688E+03  0.77267320867E+03  0.50400001928E-02 0.  1.
       -1    1    3    3    0  502  0.45420375619E+03  0.41282363388E+03 -0.11797473339E+04  0.13298602095E+04  0.50400001928E-02 0. -1.
</event>
<event>
 5   0  0.1207228E-04  0.1976403E+04  0.7818609E-02  0.8617733E-01
       -1   -1    0    0    0  501  0.00000000000E+00  0.00000000000E+00  0.16322077580E+04  0.16322077580E+04  0.50400001928E-02 0. -1.
        1   -1    0    0  501    0  0.00000000000E+00  0.00000000000E+00 -0.59829540739E+03  0.59829540741E+03  0.50400001928E-02 0.  1.
    10030    2    1    2    0    0  0.00000000000E+00  0.00000000000E+00  0.10339123506E+04  0.22305031654E+04  0.19764032033E+04 0.  0.
        1    1    3    3  502    0  0.89801113832E+03 -0.21714563586E+03  0.12120690325E+03  0.93180864191E+03  0.50400001928E-02 0.  1.
       -1    1    3    3    0  502 -0.89801113832E+03  0.21714563586E+03  0.91270544732E+03  0.12986945235E+04  0.50400001928E-02 0. -1.
</event>
<event>
 5   0  0.1258546E-04  0.1976870E+04  0.7818609E-02  0.8617512E-01
        1   -1    0    0  501    0  0.00000000000E+00  0.00000000000E+00  0.11701800066E+04  0.11701800066E+04  0.50400001928E-02 0. -1.
       -1   -1    0    0    0  501  0.00000000000E+00  0.00000000000E+00 -0.83491714755E+03  0.83491714756E+03  0.50400001928E-02 0.  1.
    10030    2    1    2    0    0  0.00000000000E+00  0.00000000000E+00  0.33526285902E+03  0.20050971541E+04  0.19768695994E+04 0.  0.
        4    1    3    3  502    0 -0.44513556437E+03  0.46446571707E+03  0.92876491794E+03  0.11298141257E+04  0.12699999809E+01 0. -1.
       -4    1    3    3    0  502  0.44513556437E+03 -0.46446571707E+03 -0.59350205892E+03  0.87528302842E+03  0.12699999809E+01 0.  1.
</event>
<event>
 5   0  0.2540506E-04  0.1959801E+04  0.7818609E-02  0.8625649E-01
        2   -1    0    0  501    0  0.00000000000E+00  0.00000000000E+00  0.18028827570E+04  0.18028827570E+04  0.25500000920E-02 0.  1.
       -2   -1    0    0    0  501  0.00000000000E+00  0.00000000000E+00 -0.53259420810E+03  0.53259420811E+03  0.25500000920E-02 0. -1.
    10030    2    1    2    0    0  0.00000000000E+00  0.00000000000E+00  0.12702885489E+04  0.23354769651E+04  0.19598009228E+04 0.  0.
        4    1    3    3  502    0  0.28480373363E+03 -0.38987139850E+03 -0.38100577772E+03  0.61504462408E+03  0.12699999809E+01 0. -1.
       -4    1    3    3    0  502 -0.28480373363E+03  0.38987139850E+03  0.16512943266E+04  0.17204323411E+04  0.12699999809E+01 0.  1.
</event>
<event>
 5   0  0.2463085E-04  0.2011010E+04  0.7818609E-02  0.8601490E-01
        2   -1    0    0  501    0  0.00000000000E+00  0.00000000000E+00  0.25353805139E+04  0.25353805139E+04  0.25500000920E-02 0.  1.
       -2   -1    0    0    0  501  0.00000000000E+00  0.00000000000E+00 -0.39877277567E+03  0.39877277567E+03  0.25500000920E-02 0. -1.
    10030    2    1    2    0    0  0.00000000000E+00  0.00000000000E+00  0.21366077382E+04  0.29341532895E+04  0.20110104176E+04 0.  0.
        2    1    3    3  502    0 -0.38619764109E+03 -0.77950501810E+03  0.18040211293E+04  0.20028152501E+04  0.25500000920E-02 0.  1.
       -2    1    3    3    0  502  0.38619764109E+03  0.77950501810E+03  0.33258660892E+03  0.93133803942E+03  0.25500000920E-02 0. -1.
</event>
<event>
 5   0  0.1324930E-04  0.1985393E+04  0.7818609E-02  0.8613480E-01
       -1   -1    0    0    0  501  0.00000000000E+00  0.00000000000E+00  0.86290062614E+03  0.86290062616E+03  0.50400001928E-02 0.  1.
        1   -1    0    0  501    0  0.00000000000E+00  0.00000000000E+00 -0.11420160411E+04  0.11420160411E+04  0.50400001928E-02 0. -1.
    10030    2    1    2    0    0  0.00000000000E+00  0.00000000000E+00 -0.27911541492E+03  0.20049166672E+04  0.19853930159E+04 0.  0.
        5    1    3    3  502    0  0.27458153174E+03  0.66204014608E+03 -0.83313928418E+03  0.10990156184E+04  0.46999998093E+01 0. -1.
       -5    1    3    3    0  502 -0.27458153174E+03 -0.66204014608E+03  0.55402386927E+03  0.90590104885E+03  0.46999998093E+01 0.  1.
</event>
<event>
 5   0  0.2463085E-04  0.2016011E+04  0.7818609E-02  0.8599171E-01
       -2   -1    0    0    0  501  0.00000000000E+00  0.00000000000E+00  0.55417218115E+03  0.55417218115E+03  0.25500000920E-02 0.  1.
        2   -1    0    0  501    0  0.00000000000E+00  0.00000000000E+00 -0.18335010697E+04  0.18335010697E+04  0.25500000920E-02 0. -1.
    10030    2    1    2    0    0  0.00000000000E+00  0.00000000000E+00 -0.12793288886E+04  0.23876732509E+04  0.20160111973E+04 0.  0.
        2    1    3    3  502    0 -0.82542181660E+03 -0.47615681582E+03 -0.10289351539E+04  0.14024100825E+04  0.25500000920E-02 0.  1.
       -2    1    3    3    0  502  0.82542181660E+03  0.47615681582E+03 -0.25039373469E+03  0.98526316837E+03  0.25500000920E-02 0. -1.
</event>
<event>
 5   0  0.1324930E-04  0.1980550E+04  0.7818609E-02  0.8615768E-01
        1   -1    0    0  501    0  0.00000000000E+00  0.00000000000E+00  0.80222400475E+03  0.80222400477E+03  0.50400001928E-02 0. -1.
       -1   -1    0    0    0  501  0.00000000000E+00  0.00000000000E+00 -0.12224075271E+04  0.12224075271E+04  0.50400001928E-02 0.  1.
    10030    2    1    2    0    0  0.00000000000E+00  0.00000000000E+00 -0.42018352236E+03  0.20246315319E+04  0.19805500871E+04 0.  0.
        5    1    3    3  502    0  0.86102684616E+03  0.11461752311E+03  0.27601078178E+03  0.91143208637E+03  0.46999998093E+01 0. -1.
       -5    1    3    3    0  502 -0.86102684616E+03 -0.11461752311E+03 -0.69619430414E+03  0.11131994455E+04  0.46999998093E+01 0.  1.
</event>
<event>
 5   0  0.2421737E-04  0.1963605E+04  0.7818609E-02  0.8623828E-01
        2   -1    0    0  501    0  0.00000000000E+00  0.00000000000E+00  0.11847207587E+04  0.11847207587E+04  0.25500000920E-02 0. -1.
       -2   -1    0    0    0  501  0.00000000000E+00  0.00000000000E+00 -0.81363972478E+03  0.81363972478E+03  0.25500000920E-02 0.  1.
    10030    2    1    2    0    0  0.00000000000E+00  0.00000000000E+00  0.37108103392E+03  0.19983604835E+04  0.19636047179E+04 0.  0.
        1    1    3    3  502    0  0.47043295458E+03  0.19828194754E+03  0.10390219574E+04  0.11576655491E+04  0.50400001928E-02 0. -1.
       -1    1    3    3    0  502 -0.47043295458E+03 -0.19828194754E+03 -0.66794092349E+03  0.84069493442E+03  0.50400001928E-02 0.  1.
</event>
<event>
 5   0  0.2540506E-04  0.1973339E+04  0.7818609E-02  0.8619188E-01
       -2   -1    0    0    0  501  0.00000000000E+00  0.00000000000E+00  0.11676835171E+04  0.11676835171E+04  0.25500000920E-02 0. -1.
        2   -1    0    0  501    0  0.00000000000E+00  0.00000000000E+00 -0.83371657698E+03  0.83371657698E+03  0.25500000920E-02 0.  1.
    10030    2    1    2    0    0  0.00000000000E+00  0.00000000000E+00  0.33396694017E+03  0.20014000941E+04  0.19733394081E+04 0.  0.
        4    1    3    3  502    0  0.68271747041E+02 -0.72288596747E+03 -0.51056578094E+03  0.88763966956E+03  0.12699999809E+01 0.  1.
       -4    1    3    3    0  502 -0.68271747041E+02  0.72288596747E+03  0.84453272111E+03  0.11137604246E+04  0.12699999809E+01 0. -1.
</event>
<event>
 5   0  0.1231056E-04  0.1972333E+04  0.7818609E-02  0.8619666E-01
       -1   -1    0    0    0  501  0.00000000000E+00  0.00000000000E+00  0.51874938394E+03  0.51874938397E+03  0.50400001928E-02 0. -1.
        1   -1    0    0  501    0  0.00000000000E+00  0.00000000000E+00 -0.18747484397E+04  0.18747484397E+04  0.50400001928E-02 0.  1.
    10030    2    1    2    0    0  0.00000000000E+00  0.00000000000E+00 -0.13559990557E+04  0.23934978236E+04  0.19723332357E+04 0.  0.
        3    1    3    3  502    0 -0.63662600168E+03 -0.67025423955E+03 -0.26115173217E+03  0.96059026076E+03  0.10100000352E+00 0.  1.
       -3    1    3    3    0  502  0.63662600168E+03  0.67025423955E+03 -0.10948473236E+04  0.14329075629E+04  0.10100000352E+00 0. -1.
</event>
<event>
 5   0  0.2540506E-04  0.2082705E+04  0.7818609E-02  0.8568900E-01
       -2   -1    0    0    0  501  0.00000000000E+00  0.00000000000E+00  0.94129180554E+03  0.94129180554E+03  0.25500000920E-02 0.  1.
        2   -1    0    0  501    0  0.00000000000E+00  0.00000000000E+00 -0.11520498926E+04  0.11520498926E+04  0.25500000920E-02 0. -1.
    10030    2    1    2    0    0  0.00000000000E+00  0.00000000000E+00 -0.21075808702E+03  0.20933416981E+04  0.20827050904E+04 0.  0.
        4    1    3    3  502    0  0.78128615063E+03  0.54045745367E+03 -0.53406777505E+03  0.10898313216E+04  0.12699999809E+01 0. -1.
       -4    1    3    3    0  502 -0.78128615063E+03 -0.54045745367E+03  0.32330968802E+03  0.10035103765E+04  0.12699999809E+01 0.  1.
</event>
<event>
 5   0  0.2596061E-04  0.1932446E+04  0.7818609E-02  0.8638872E-01
        2   -1    0    0  501    0  0.00000000000E+00  0.00000000000E+00  0.13843559470E+04  0.13843559470E+04  0.25500000920E-02 0. -1.
       -2   -1    0    0    0  501  0.00000000000E+00  0.00000000000E+00 -0.67438355682E+03  0.67438355683E+03  0.25500000920E-02 0.  1.
    10030    2    1    2    0    0  0.00000000000E+00  0.00000000000E+00  0.70997239020E+03  0.20587395039E+04  0.19324460018E+04 0.  0.
        5    1    3    3  502    0 -0.25150044241E+03 -0.39637155159E+02 -0.63799093277E+03  0.68693383735E+03  0.46999998093E+01 0.  1.
       -5    1    3    3    0  502  0.25150044241E+03  0.39637155159E+02  0.13479633230E+04  0.13718056665E+04  0.46999998093E+01 0. -1.
</event>
<event>
 5   0  0.2421737E-04  0.2019428E+04  0.7818609E-02  0.8597591E-01
        2   -1    0    0  501    0  0.00000000000E+00  0.00000000000E+00  0.91702862175E+03  0.91702862176E+03  0.25500000920E-02 0.  1.
       -2   -1    0    0    0  501  0.00000000000E+00  0.00000000000E+00 -0.11117674690E+04  0.11117674690E+04  0.25500000920E-02 0. -1.
    10030    2    1    2    0    0  0.00000000000E+00  0.00000000000E+00 -0.19473884723E+03  0.20287960907E+04  0.20194282258E+04 0.  0.
        1    1    3    3  502    0  0.72655762461E+03  0.13964190359E+03  0.59294012185E+03  0.94813703189E+03  0.50400001928E-02 0.  1.
       -1    1    3    3    0  502 -0.72655762461E+03 -0.13964190359E+03 -0.78767896908E+03  0.10806590588E+04  0.50400001928E-02 0. -1.
</event>
<event>
 5   0  0.1258546E-04  0.2203644E+04  0.7818609E-02  0.8516913E-01
        1   -1    0    0  501    0  0.00000000000E+00  0.00000000000E+00  0.11653169411E+04  0.11653169411E+04  0.50400001928E-02 0.  1.
       -1   -1    0    0    0  501  0.00000000000E+00  0.00000000000E+00 -0.10417868488E+04  0.10417868488E+04  0.50400001928E-02 0. -1.
    10030    2    1    2    0    0  0.00000000000E+00  0.00000000000E+00  0.12353009230E+03  0.22071037899E+04  0.22036441309E+04 0.  0.
        4    1    3    3  502    0 -0.46295633867E+03 -0.13677220688E+03 -0.93023176181E+03  0.10480305109E+04  0.12699999809E+01 0. -1.
       -4    1    3    3    0  502  0.46295633867E+03  0.13677220688E+03  0.10537618541E+04  0.11590732790E+04  0.12699999809E+01 0.  1.
</event>
<event>
 5   0  0.2421737E-04  0.2027677E+04  0.7818609E-02  0.8593789E-01
        2   -1    0    0  501    0  0.00000000000E+00  0.00000000000E+00  0.76219014659E+03  0.76219014659E+03  0.25500000920E-02 0. -1.
       -2   -1    0    0    0  501  0.00000000000E+00  0.00000000000E+00 -0.13485720646E+04  0.13485720646E+04  0.25500000920E-02 0.  1.
    10030    2    1    2    0    0  0.00000000000E+00  0.00000000000E+00 -0.58638191804E+03  0.21107622112E+04  0.20276768378E+04 0.  0.
        1    1    3    3  502    0  0.82820585598E+03  0.77297170442E+02  0.31018761023E+03  0.88775905853E+03  0.50400001928E-02 0. -1.
       -1    1    3    3    0  502 -0.82820585598E+03 -0.77297170442E+02 -0.89656952827E+03  0.12230031527E+04  0.50400001928E-02 0.  1.
</event>
<event>
 5   0  0.1210633E-04  0.2085168E+04  0.7818609E-02  0.8567805E-01
        1   -1    0    0  501    0  0.00000000000E+00  0.00000000000E+00  0.14080933391E+04  0.14080933391E+04  0.50400001928E-02 0.  1.
       -1   -1    0    0    0  501  0.00000000000E+00  0.00000000000E+00 -0.77195289685E+03  0.77195289686E+03  0.50400001928E-02 0. -1.
    10030    2    1    2    0    0  0.00000000000E+00  0.00000000000E+00  0.63614044226E+03  0.21800462360E+04  0.20851683214E+04 0.  0.
        2    1    3    3  502    0  0.68883882663E+03 -0.70054991349E+03 -0.46677338575E+02  0.98358928640E+03  0.25500000920E-02 0.  1.
       -2    1    3    3    0  502 -0.68883882663E+03  0.70054991349E+03  0.68281778083E+03  0.11964569496E+04  0.25500000920E-02 0. -1.
</event>
<event>
 5   0  0.2488886E-04  0.1697384E+04  0.7818609E-02  0.8762858E-01
        2   -1    0    0  501    0  0.00000000000E+00  0.00000000000E+00  0.91275382917E+03  0.91275382917E+03  0.25500000920E-02 0. -1.
       -2   -1    0    0    0  501  0.00000000000E+00  0.00000000000E+00 -0.78912656445E+03  0.78912656445E+03  0.25500000920E-02 0.  1.
    10030    2    1    2    0    0  0.00000000000E+00  0.00000000000E+00  0.12362726472E+03  0.17018803936E+04  0.16973842151E+04 0.  0.
        3    1    3    3  502    0 -0.75782531956E+02  0.17352116105E+03  0.89130530343E+03  0.91119577457E+03  0.10100000352E+00 0. -1.
       -3    1    3    3    0  502  0.75782531956E+02 -0.17352116105E+03 -0.76767803871E+03  0.79068461905E+03  0.10100000352E+00 0.  1.
</event>
<event>
 5   0  0.1258546E-04  0.2090613E+04  0.7818609E-02  0.8565390E-01
        1   -1    0    0  501    0  0.00000000000E+00  0.00000000000E+00  0.80615370213E+03  0.80615370215E+03  0.50400001928E-02 0. -1.
       -1   -1    0    0    0  501  0.00000000000E+00  0.00000000000E+00 -0.13554064818E+04  0.13554064818E+04  0.50400001928E-02 0.  1.
    10030    2    1    2    0    0  0.00000000000E+00  0.00000000000E+00 -0.54925277963E+03  0.21615601839E+04  0.20906132624E+04 0.  0.
        4    1    3    3  502    0  0.41295491421E+03  0.65406444830E+03 -0.10015740028E+04  0.12654975937E+04  0.12699999809E+01 0.  1.
       -4    1    3    3    0  502 -0.41295491421E+03 -0.65406444830E+03  0.45232122319E+03  0.89606259019E+03  0.12699999809E+01 0. -1.
</event>
<event>
 5   0  0.1258546E-04  0.2019063E+04  0.7818609E-02  0.8597759E-01
       -1   -1    0    0    0  501  0.00000000000E+00  0.00000000000E+00  0.39661686746E+03  0.39661686749E+03  0.50400001928E-02 0. -1.
        1   -1    0    0  501    0  0.00000000000E+00  0.00000000000E+00 -0.25696192016E+04  0.25696192017E+04  0.50400001928E-02 0.  1.
    10030    2    1    2    0    0  0.00000000000E+00  0.00000000000E+00 -0.21730023342E+04  0.29662360691E+04  0.20190634645E+04 0.  0.
        4    1    3    3  502    0 -0.72470894288E+03  0.39689217629E+03 -0.23438131888E+03  0.85887290505E+03  0.12699999809E+01 0. -1.
       -4    1    3    3    0  502  0.72470894288E+03 -0.39689217629E+03 -0.19386210153E+04  0.21073631641E+04  0.12699999809E+01 0.  1.
</event>
<event>
 5   0  0.2421737E-04  0.2384691E+04  0.7818609E-02  0.8445257E-01
        2   -1    0    0  501    0  0.00000000000E+00  0.00000000000E+00  0.15147627043E+04  0.15147627043E+04  0.25500000920E-02 0. -1.
       -2   -1    0    0    0  501  0.00000000000E+00  0.00000000000E+00 -0.93855464874E+03  0.93855464874E+03  0.25500000920E-02 0.  1.
    10030    2    1    2    0    0  0.00000000000E+00  0.00000000000E+00  0.57620805552E+03  0.24533173530E+04  0.23846908209E+04 0.  0.
        1    1    3    3  502    0  0.75110349846E+03 -0.60596387773E+03  0.10084975866E+04  0.13958567508E+04  0.50400001928E-02 0. -1.
       -1    1    3    3    0  502 -0.75110349846E+03  0.60596387773E+03 -0.43228953109E+03  0.10574606022E+04  0.50400001928E-02 0.  1.
</event>
<event>
 5   0  0.2540506E-04  0.1729993E+04  0.7818609E-02  0.8744441E-01
        2   -1    0    0  501    0  0.00000000000E+00  0.00000000000E+00  0.17662849505E+04  0.17662849505E+04  0.25500000920E-02 0.  1.
       -2   -1    0    0    0  501  0.00000000000E+00  0.00000000000E+00 -0.42361161273E+03  0.42361161274E+03  0.25500000920E-02 0. -1.
    10030    2    1    2    0    0  0.00000000000E+00  0.00000000000E+00  0.13426733378E+04  0.21898965633E+04  0.17299928514E+04 0.  0.
        4    1    3    3  502    0  0.57675128314E+03 -0.30495113695E+03 -0.47612173390E+02  0.65414506838E+03  0.12699999809E+01 0. -1.
       -4    1    3    3    0  502 -0.57675128314E+03  0.30495113695E+03  0.13902855112E+04  0.15357514949E+04  0.12699999809E+01 0.  1.
</event>
<event>
 5   0  0.1324930E-04  0.2000022E+04  0.7818609E-02  0.8606610E-01
        1   -1    0    0  501    0  0.00000000000E+00  0.00000000000E+00  0.22221386223E+04  0.22221386223E+04  0.50400001928E-02 0. -1.
       -1   -1    0    0    0  501  0.00000000000E+00  0.00000000000E+00 -0.45002695483E+03  0.45002695486E+03  0.50400001928E-02 0.  1.
    10030    2    1    2    0    0  0.00000000000E+00  0.00000000000E+00  0.17721116675E+04  0.26721655772E+04  0.20000222773E+04 0.  0.
        5    1    3    3  502    0 -0.98511093947E+03 -0.16282341124E+03  0.81232762701E+03  0.12871881331E+04  0.46999998093E+01 0. -1.
       -5    1    3    3    0  502  0.98511093947E+03  0.16282341124E+03  0.95978404044E+03  0.13849774441E+04  0.46999998093E+01 0.  1.
</event>
<event>
 5   0  0.2421737E-04  0.2018440E+04  0.7818609E-02  0.8598048E-01
       -2   -1    0    0    0  501  0.00000000000E+00  0.00000000000E+00  0.20803836433E+04  0.20803836433E+04  0.25500000920E-02 0. -1.
        2   -1    0    0  501    0  0.00000000000E+00  0.00000000000E+00 -0.48958496880E+03  0.48958496881E+03  0.25500000920E-02 0.  1.
    10030    2    1    2    0    0  0.00000000000E+00  0.00000000000E+00  0.15907986745E+04  0.25699686121E+04  0.20184395568E+04 0.  0.
        1    1    3    3  502    0  0.59666879556E+02 -0.29733224254E+03 -0.43019957434E+03  0.52634425308E+03  0.50400001928E-02 0.  1.
       -1    1    3    3    0  502 -0.59666879556E+02  0.29733224254E+03  0.20209982489E+04  0.20436243590E+04  0.50400001928E-02 0. -1.
</event>
<event>
 5   0  0.2488886E-04  0.2031240E+04  0.7818609E-02  0.8592153E-01
       -2   -1    0    0    0  501  0.00000000000E+00  0.00000000000E+00  0.10465636860E+04  0.10465636860E+04  0.25500000920E-02 0. -1.
        2   -1    0    0  501    0  0.00000000000E+00  0.00000000000E+00 -0.98559150964E+03  0.98559150965E+03  0.25500000920E-02 0.  1.
    10030    2    1    2    0    0  0.00000000000E+00  0.00000000000E+00  0.60972176307E+02  0.20321551956E+04  0.20312402942E+04 0.  0.
        3    1    3    3  502    0 -0.52351075707E+03  0.86967207617E+03 -0.25627149840E+01  0.10150860114E+04  0.10100000352E+00 0. -1.
       -3    1    3    3    0  502  0.52351075707E+03 -0.86967207617E+03  0.63534891291E+02  0.10170691842E+04  0.10100000352E+00 0.  1.
</event>
<event>
 5   0  0.1207228E-04  0.2010605E+04  0.7818609E-02  0.8601679E-01
        1   -1    0    0  501    0  0.00000000000E+00  0.00000000000E+00  0.18074958872E+04  0.18074958872E+04  0.50400001928E-02 0.  1.
       -1   -1    0    0    0  501  0.00000000000E+00  0.00000000000E+00 -0.55913428351E+03  0.55913428353E+03  0.50400001928E-02 0. -1.
    10030    2    1    2    0    0  0.00000000000E+00  0.00000000000E+00  0.12483616037E+04  0.23666301708E+04  0.20106048024E+04 0.  0.
        1    1    3    3  502    0  0.79276490133E+03  0.56882999289E+03  0.90909385565E+03  0.13336024100E+04  0.50400001928E-02 0. -1.
       -1    1    3    3    0  502 -0.79276490133E+03 -0.56882999289E+03  0.33926774808E+03  0.10330277608E+04  0.50400001928E-02 0.  1.
</event>
<event>
 5   0  0.1258546E-04  0.1910261E+04  0.7818609E-02  0.8649766E-01
        1   -1    0    0  501    0  0.00000000000E+00  0.00000000000E+00  0.16107383647E+04  0.16107383647E+04  0.50400001928E-02 0. -1.
       -1   -1    0    0    0  501  0.00000000000E+00  0.00000000000E+00 -0.56637022311E+03  0.56637022314E+03  0.50400001928E-02 0.  1.
    10030    2    1    2    0    0  0.00000000000E+00  0.00000000000E+00  0.10443681416E+04  0.21771085879E+04  0.19102609738E+04 0.  0.
        4    1    3    3  502    0 -0.60338406020E+03  0.44532205033E+03  0.11963274483E+04  0.14119437060E+04  0.12699999809E+01 0. -1.
       -4    1    3    3    0  502  0.60338406020E+03 -0.44532205033E+03 -0.15195930666E+03  0.76516488184E+03  0.12699999809E+01 0.  1.
</event>
<event>
 5   0  0.1231056E-04  0.1979088E+04  0.7818609E-02  0.8616460E-01
       -1   -1    0    0    0  501  0.00000000000E+00  0.00000000000E+00  0.14612281124E+04  0.14612281124E+04  0.50400001928E-02 0. -1.
        1   -1    0    0  501    0  0.00000000000E+00  0.00000000000E+00 -0.67011955957E+03  0.67011955959E+03  0.50400001928E-02 0.  1.
    10030    2    1    2    0    0  0.00000000000E+00  0.00000000000E+00  0.79110855284E+03  0.21313476720E+04  0.19790882134E+04 0.  0.
        3    1    3    3  502    0  0.17445808129E+03 -0.97259779009E+03  0.45269723353E+03  0.10868840227E+04  0.10100000352E+00 0. -1.
       -3    1    3    3    0  502 -0.17445808129E+03  0.97259779009E+03  0.33841131931E+03  0.10444636493E+04  0.10100000352E+00 0.  1.
</event>
<event>
 5   0  0.1324930E-04  0.2013650E+04  0.7818609E-02  0.8600265E-01
        1   -1    0    0  501    0  0.00000000000E+00  0.00000000000E+00  0.18486442320E+04  0.18486442320E+04  0.50400001928E-02 0.  1.
       -1   -1    0    0    0  501  0.00000000000E+00  0.00000000000E+00 -0.54834609966E+03  0.54834609969E+03  0.50400001928E-02 0. -1.
    10030    2    1    2    0    0  0.00000000000E+00  0.00000000000E+00  0.13002981323E+04  0.23969903316E+04  0.20136502718E+04 0.  0.
        5    1    3    3  502    0 -0.15060676336E+03 -0.71426645984E+03 -0.17526449269E+03  0.75073211282E+03  0.46999998093E+01 0. -1.
       -5    1    3    3    0  502  0.15060676336E+03  0.71426645984E+03  0.14755626250E+04  0.16462582188E+04  0.46999998093E+01 0.  1.
</event>
<event>
 5   0  0.1231056E-04  0.2048284E+04  0.7818609E-02  0.8584373E-01
        1   -1    0    0  501    0  0.00000000000E+00  0.00000000000E+00  0.87691684477E+03  0.87691684478E+03  0.50400001928E-02 0. -1.
       -1   -1    0    0    0  501  0.00000000000E+00  0.00000000000E+00 -0.11960843283E+04  0.11960843283E+04  0.50400001928E-02 0.  1.
    10030    2    1    2    0    0  0.00000000000E+00  0.00000000000E+00 -0.31916748353E+03  0.20730011731E+04  0.20482836671E+04 0.  0.
        3    1    3    3  502    0  0.27494617713E+02 -0.63035176901E+03  0.65685248404E+03  0.91079882668E+03  0.10100000352E+00 0. -1.
       -3    1    3    3    0  502 -0.27494617713E+02  0.63035176901E+03 -0.97601996757E+03  0.11622023464E+04  0.10100000352E+00 0.  1.
</event>
<event>
 5   0  0.2540506E-04  0.1781589E+04  0.7818609E-02  0.8716152E-01
        2   -1    0    0  501    0  0.00000000000E+00  0.00000000000E+00  0.15161282597E+04  0.15161282597E+04  0.25500000920E-02 0.  1.
       -2   -1    0    0    0  501  0.00000000000E+00  0.00000000000E+00 -0.52338267839E+03  0.52338267840E+03  0.25500000920E-02 0. -1.
    10030    2    1    2    0    0  0.00000000000E+00  0.00000000000E+00  0.99274558127E+03  0.20395109381E+04  0.17815894806E+04 0.  0.
        4    1    3    3  502    0 -0.47523294749E+03 -0.34865207513E+03 -0.26823533215E+03  0.64757735460E+03  0.12699999809E+01 0. -1.
       -4    1    3    3    0  502  0.47523294749E+03  0.34865207513E+03  0.12609809134E+04  0.13919335835E+04  0.12699999809E+01 0.  1.
</event>
<event>
 5   0  0.2421737E-04  0.1978512E+04  0.7818609E-02  0.8616733E-01
       -2   -1    0    0    0  501  0.00000000000E+00  0.00000000000E+00  0.51342441285E+03  0.51342441286E+03  0.25500000920E-02 0. -1.
        2   -1    0    0  501    0  0.00000000000E+00  0.00000000000E+00 -0.19060789457E+04  0.19060789457E+04  0.25500000920E-02 0.  1.
    10030    2    1    2    0    0  0.00000000000E+00  0.00000000000E+00 -0.13926545329E+04  0.24195033586E+04  0.19785120304E+04 0.  0.
        1    1    3    3  502    0 -0.57295060318E+03  0.32355329576E+03 -0.15996686576E+04  0.17297106530E+04  0.50400001928E-02 0.  1.
       -1    1    3    3    0  502  0.57295060318E+03 -0.32355329576E+03  0.20701412470E+03  0.68979270563E+03  0.50400001928E-02 0. -1.
</event>
<event>
 5   0  0.1210633E-04  0.1915668E+04  0.7818609E-02  0.8647096E-01
       -1   -1    0    0    0  501  0.00000000000E+00  0.00000000000E+00  0.43929368760E+03  0.43929368763E+03  0.50400001928E-02 0. -1.
        1   -1    0    0  501    0  0.00000000000E+00  0.00000000000E+00 -0.20884574710E+04  0.20884574710E+04  0.50400001928E-02 0.  1.
    10030    2    1    2    0    0  0.00000000000E+00  0.00000000000E+00 -0.16491637834E+04  0.25277511586E+04  0.19156682217E+04 0.  0.
        2    1    3    3  502    0  0.78967207129E+03 -0.29962588468E+03 -0.14206876609E+04  0.16527888797E+04  0.25500000920E-02 0.  1.
       -2    1    3    3    0  502 -0.78967207129E+03  0.29962588468E+03 -0.22847612241E+03  0.87496227888E+03  0.25500000920E-02 0. -1.
</event>
<event>
 5   0  0.2596061E-04  0.1964628E+04  0.7818609E-02  0.8623339E-01
        2   -1    0    0  501    0  0.00000000000E+00  0.00000000000E+00  0.93331984856E+03  0.93331984857E+03  0.25500000920E-02 0.  1.
       -2   -1    0    0    0  501  0.00000000000E+00  0.00000000000E+00 -0.10338799004E+04  0.10338799004E+04  0.25500000920E-02 0. -1.
    10030    2    1    2    0    0  0.00000000000E+00  0.00000000000E+00 -0.10056005184E+03  0.19671997490E+04  0.19646278346E+04 0.  0.
        5    1    3    3  502    0 -0.81187082370E+03  0.45245651219E+03 -0.36860721964E+03  0.99987224292E+03  0.46999998093E+01 0. -1.
       -5    1    3    3    0  502  0.81187082370E+03 -0.45245651219E+03  0.26804716779E+03  0.96732750605E+03  0.46999998093E+01 0.  1.
</event>
<event>
 5   0  0.1210633E-04  0.1995376E+04  0.7818609E-02  0.8608786E-01
       -1   -1    0    0    0  501  0.00000000000E+00  0.00000000000E+00  0.37219346363E+04  0.37219346363E+04  0.50400001928E-02 0. -1.
        1   -1    0    0  501    0  0.00000000000E+00  0.00000000000E+00 -0.26743655357E+03  0.26743655362E+03  0.50400001928E-02 0.  1.
    10030    2    1    2    0    0  0.00000000000E+00  0.00000000000E+00  0.34544980828E+04  0.39893711900E+04  0.19953760266E+04 0.  0.
        2    1    3    3  502    0  0.38725964033E+02  0.98639043025E+03  0.14381046558E+04  0.17443081098E+04  0.25500000920E-02 0. -1.
       -2    1    3    3    0  502 -0.38725964033E+02 -0.98639043025E+03  0.20163934270E+04  0.22450630801E+04  0.25500000920E-02 0.  1.
</event>
<event>
 5   0  0.2463085E-04  0.2007383E+04  0.7818609E-02  0.8603177E-01
       -2   -1    0    0    0  501  0.00000000000E+00  0.00000000000E+00  0.47955335651E+03  0.47955335652E+03  0.25500000920E-02 0.  1.
        2   -1    0    0  501    0  0.00000000000E+00  0.00000000000E+00 -0.21006979174E+04  0.21006979174E+04  0.25500000920E-02 0. -1.
    10030    2    1    2    0    0  0.00000000000E+00  0.00000000000E+00 -0.16211445609E+04  0.25802512739E+04  0.20073831097E+04 0.  0.
        2    1    3    3  502    0 -0.99336401390E+03  0.14154522613E+03 -0.77936049338E+03  0.12705156016E+04  0.25500000920E-02 0.  1.
       -2    1    3    3    0  502  0.99336401390E+03 -0.14154522613E+03 -0.84178406752E+03  0.13097356724E+04  0.25500000920E-02 0. -1.
</event>
<event>
 5   0  0.2488886E-04  0.2054316E+04  0.7818609E-02  0.8581639E-01
        2   -1    0    0  501    0  0.00000000000E+00  0.00000000000E+00  0.14257900917E+04  0.14257900917E+04  0.25500000920E-02 0. -1.
       -2   -1    0    0    0  501  0.00000000000E+00  0.00000000000E+00 -0.73997787966E+03  0.73997787967E+03  0.25500000920E-02 0.  1.
    10030    2    1    2    0    0  0.00000000000E+00  0.00000000000E+00  0.68581221208E+03  0.21657679714E+04  0.20543155833E+04 0.  0.
        3    1    3    3  502    0 -0.38517278273E+03  0.79556682748E+03  0.89452163020E+03  0.12575585897E+04  0.10100000352E+00 0. -1.
       -3    1    3    3    0  502  0.38517278273E+03 -0.79556682748E+03 -0.20870941812E+03  0.90820938167E+03  0.10100000352E+00 0.  1.
</event>
<event>
 5   0  0.2421737E-04  0.2086201E+04  0.7818609E-02  0.8567346E-01
       -2   -1    0    0    0  501  0.00000000000E+00  0.00000000000E+00  0.66817083132E+03  0.66817083132E+03  0.25500000920E-02 0. -1.
        2   -1    0    0  501    0  0.00000000000E+00  0.00000000000E+00 -0.16284137266E+04  0.16284137266E+04  0.25500000920E-02 0.  1.
    10030    2    1    2    0    0  0.00000000000E+00  0.00000000000E+00 -0.96024289525E+03  0.22965845579E+04  0.20862009044E+04 0.  0.
        1    1    3    3  502    0  0.32858219725E+03 -0.58615550311E+03 -0.13583959965E+04  0.15155145058E+04  0.50400001928E-02 0.  1.
       -1    1    3    3    0  502 -0.32858219725E+03  0.58615550311E+03  0.39815310122E+03  0.78107005205E+03  0.50400001928E-02 0. -1.
</event>
<event>
 5   0  0.2540506E-04  0.1984304E+04  0.7818609E-02  0.8613994E-01
       -2   -1    0    0    0  501  0.00000000000E+00  0.00000000000E+00  0.80728799370E+03  0.80728799370E+03  0.25500000920E-02 0. -1.
        2   -1    0    0  501    0  0.00000000000E+00  0.00000000000E+00 -0.12193489229E+04  0.12193489229E+04  0.25500000920E-02 0.  1.
    10030    2    1    2    0    0  0.00000000000E+00  0.00000000000E+00 -0.41206092921E+03  0.20266369166E+04  0.19843041557E+04 0.  0.
        4    1    3    3  502    0  0.95209468762E+02 -0.95378674029E+03  0.55538973216E+02  0.96013550051E+03  0.12699999809E+01 0. -1.
       -4    1    3    3    0  502 -0.95209468762E+02  0.95378674029E+03 -0.46759990243E+03  0.10665014161E+04  0.12699999809E+01 0.  1.
</event>
<event>
 5   0  0.1324930E-04  0.2047750E+04  0.7818609E-02  0.8584616E-01
       -1   -1    0    0    0  501  0.00000000000E+00  0.00000000000E+00  0.11912654107E+04  0.11912654107E+04  0.50400001928E-02 0.  1.
        1   -1    0    0  501    0  0.00000000000E+00  0.00000000000E+00 -0.88000558645E+03  0.88000558647E+03  0.50400001928E-02 0. -1.
    10030    2    1    2    0    0  0.00000000000E+00  0.00000000000E+00  0.31125982424E+03  0.20712709972E+04  0.20477501961E+04 0.  0.
        5    1    3    3  502    0  0.55766174751E+03  0.80159779952E+03  0.46698446219E+03  0.10824242397E+04  0.46999998093E+01 0.  1.
       -5    1    3    3    0  502 -0.55766174751E+03 -0.80159779952E+03 -0.15572463795E+03  0.98884675744E+03  0.46999998093E+01 0. -1.
</event>
<event>
 5   0  0.1210633E-04  0.2026486E+04  0.7818609E-02  0.8594337E-01
        1   -1    0    0  501    0  0.00000000000E+00  0.00000000000E+00  0.14953861690E+04  0.14953861691E+04  0.50400001928E-02 0. -1.
       -1   -1    0    0    0  501  0.00000000000E+00  0.00000000000E+00 -0.68655282569E+03  0.68655282570E+03  0.50400001928E-02 0.  1.
    10030    2    1    2    0    0  0.00000000000E+00  0.00000000000E+00  0.80883334336E+03  0.21819389948E+04  0.20264862199E+04 0.  0.
        2    1    3    3  502    0  0.42988325574E+03  0.32149335134E+03  0.13297013660E+04  0.14339676814E+04  0.25500000920E-02 0. -1.
       -2    1    3    3    0  502 -0.42988325574E+03 -0.32149335134E+03 -0.52086802268E+03  0.74797131334E+03  0.25500000920E-02 0.  1.
</event>
<event>
 5   0  0.1324930E-04  0.1993211E+04  0.7818609E-02  0.8609801E-01
       -1   -1    0    0    0  501  0.00000000000E+00  0.00000000000E+00  0.67969446564E+03  0.67969446566E+03  0.50400001928E-02 0. -1.
        1   -1    0    0  501    0  0.00000000000E+00  0.00000000000E+00 -0.14612781667E+04  0.14612781667E+04  0.50400001928E-02 0.  1.
    10030    2    1    2    0    0  0.00000000000E+00  0.00000000000E+00 -0.78158370104E+03  0.21409726323E+04  0.19932111606E+04 0.  0.
        5    1    3    3  502    0  0.14544867050E+03  0.70613602684E+03 -0.11298520528E+04  0.13402877137E+04  0.46999998093E+01 0.  1.
       -5    1    3    3    0  502 -0.14544867050E+03 -0.70613602684E+03  0.34826835178E+03  0.80068491868E+03  0.46999998093E+01 0. -1.
</event>
<event>
 5   0  0.2488886E-04  0.2035715E+04  0.7818609E-02  0.8590102E-01
        2   -1    0    0  501    0  0.00000000000E+00  0.00000000000E+00  0.19809034393E+04  0.19809034393E+04  0.25500000920E-02 0.  1.
       -2   -1    0    0    0  501  0.00000000000E+00  0.00000000000E+00 -0.52301094872E+03  0.52301094873E+03  0.25500000920E-02 0. -1.
    10030    2    1    2    0    0  0.00000000000E+00  0.00000000000E+00  0.14578924906E+04  0.25039143880E+04  0.20357152916E+04 0.  0.
        3    1    3    3  502    0  0.83051353766E+02  0.66616163553E+03  0.16700032532E+04  0.17998832539E+04  0.10100000352E+00 0.  1.
       -3    1    3    3    0  502 -0.83051353766E+02 -0.66616163553E+03 -0.21211076256E+03  0.70403113412E+03  0.10100000352E+00 0. -1.
</event>
<event>
 5   0  0.2463085E-04  0.2099086E+04  0.7818609E-02  0.8561646E-01
       -2   -1    0    0    0  501  0.00000000000E+00  0.00000000000E+00  0.89055371347E+03  0.89055371347E+03  0.25500000920E-02 0.  1.
        2   -1    0    0  501    0  0.00000000000E+00  0.00000000000E+00 -0.12369159914E+04  0.12369159914E+04  0.25500000920E-02 0. -1.
    10030    2    1    2    0    0  0.00000000000E+00  0.00000000000E+00 -0.34636227795E+03  0.21274697049E+04  0.20990856385E+04 0.  0.
        2    1    3    3  502    0  0.71674054706E+03 -0.58051812709E+03 -0.68077444495E+03  0.11463734787E+04  0.25500000920E-02 0. -1.
       -2    1    3    3    0  502 -0.71674054706E+03  0.58051812709E+03  0.33441216700E+03  0.98109622623E+03  0.25500000920E-02 0.  1.
</event>
<event>
 5   0  0.2596061E-04  0.1844890E+04  0.7818609E-02  0.8682785E-01
       -2   -1    0    0    0  501  0.00000000000E+00  0.00000000000E+00  0.68361239788E+03  0.68361239788E+03  0.25500000920E-02 0. -1.
        2   -1    0    0  501    0  0.00000000000E+00  0.00000000000E+00 -0.12447182894E+04  0.12447182894E+04  0.25500000920E-02 0.  1.
    10030    2    1    2    0    0  0.00000000000E+00  0.00000000000E+00 -0.56110589148E+03  0.19283306872E+04  0.18448900829E+04 0.  0.
        5    1    3    3  502    0 -0.82992886778E+03 -0.36084231949E+03 -0.46721807361E+03  0.10184811846E+04  0.46999998093E+01 0. -1.
       -5    1    3    3    0  502  0.82992886778E+03  0.36084231949E+03 -0.93887817876E+02  0.90984950264E+03  0.46999998093E+01 0.  1.
</event>
<event>
 5   0  0.1258546E-04  0.2001808E+04  0.7818609E-02  0.8605776E-01
        1   -1    0    0  501    0  0.00000000000E+00  0.00000000000E+00  0.11265563534E+04  0.11265563534E+04  0.50400001928E-02 0.  1.
       -1   -1    0    0    0  501  0.00000000000E+00  0.00000000000E+00 -0.88926640558E+03  0.88926640559E+03  0.50400001928E-02 0. -1.
    10030    2    1    2    0    0  0.00000000000E+00  0.00000000000E+00  0.23728994784E+03  0.20158227590E+04  0.20018079020E+04 0.  0.
        4    1    3    3  502    0  0.84280900238E+03  0.46472531220E+03 -0.15807056566E+03  0.97533817055E+03  0.12699999809E+01 0. -1.
       -4    1    3    3    0  502 -0.84280900238E+03 -0.46472531220E+03  0.39536051349E+03  0.10404845885E+04  0.12699999809E+01 0.  1.
</event>
<event>
 5   0  0.1207228E-04  0.2061535E+04  0.7818609E-02  0.8578379E-01
        1   -1    0    0  501    0  0.00000000000E+00  0.00000000000E+00  0.74096103249E+03  0.74096103251E+03  0.50400001928E-02 0.  1.
       -1   -1    0    0    0  501  0.00000000000E+00  0.00000000000E+00 -0.14339235326E+04  0.14339235326E+04  0.50400001928E-02 0. -1.
    10030    2    1    2    0    0  0.00000000000E+00  0.00000000000E+00 -0.69296250009E+03  0.21748845651E+04  0.20615348275E+04 0.  0.
        1    1    3    3  502    0  0.37241527534E+03  0.33536711949E+03  0.60377532151E+03  0.78467119294E+03  0.50400001928E-02 0.  1.
       -1    1    3    3    0  502 -0.37241527534E+03 -0.33536711949E+03 -0.12967378216E+04  0.13902133722E+04  0.50400001928E-02 0. -1.
</event>
<event>
 5   0  0.2463085E-04  0.1958168E+04  0.7818609E-02  0.8626432E-01
       -2   -1    0    0    0  501  0.00000000000E+00  0.00000000000E+00  0.78313451543E+03  0.78313451543E+03  0.25500000920E-02 0. -1.
        2   -1    0    0  501    0  0.00000000000E+00  0.00000000000E+00 -0.12240617742E+04  0.12240617742E+04  0.25500000920E-02 0.  1.
    10030    2    1    2    0    0  0.00000000000E+00  0.00000000000E+00 -0.44092725877E+03  0.20071962896E+04  0.19581675356E+04 0.  0.
        2    1    3    3  502    0 -0.47112844261E+03  0.28711444741E+03  0.60861940313E+03  0.82147081093E+03  0.25500000920E-02 0. -1.
       -2    1    3    3    0  502  0.47112844261E+03 -0.28711444741E+03 -0.10495466619E+04  0.11857254787E+04  0.25500000920E-02 0.  1.
</event>
<event>
 5   0  0.9099125E-05  0.1963213E+04  0.7818609E-02  0.8624015E-01
        3   -1    0    0  501    0  0.00000000000E+00  0.00000000000E+00  0.14385311404E+04  0.14385311440E+04  0.10100000352E+00 0.  1.
       -3   -1    0    0    0  501  0.00000000000E+00  0.00000000000E+00 -0.66981638383E+03  0.66981639144E+03  0.10100000352E+00 0. -1.
    10030    2    1    2    0    0  0.00000000000E+00  0.00000000000E+00  0.76871475662E+03  0.21083475354E+04  0.19632134253E+04 0.  0.
        5    1    3    3  502    0  0.58025990148E+03 -0.78642914342E+03  0.28618086282E+03  0.10183780865E+04  0.46999998093E+01 0. -1.
       -5    1    3    3    0  502 -0.58025990148E+03  0.78642914342E+03  0.48253389380E+03  0.10899694489E+04  0.46999998093E+01 0.  1.
</event>
<event>
 5   0  0.1258546E-04  0.2002672E+04  0.7818609E-02  0.8605372E-01
       -1   -1    0    0    0  501  0.00000000000E+00  0.00000000000E+00  0.10397928392E+04  0.10397928392E+04  0.50400001928E-02 0. -1.
        1   -1    0    0  501    0  0.00000000000E+00  0.00000000000E+00 -0.96430148420E+03  0.96430148421E+03  0.50400001928E-02 0.  1.
    10030    2    1    2    0    0  0.00000000000E+00  0.00000000000E+00  0.75491354998E+02  0.20040943234E+04  0.20026719932E+04 0.  0.
        4    1    3    3  502    0  0.10845387378E+03 -0.21018881253E+03 -0.93594617827E+03  0.96536958787E+03  0.12699999809E+01 0.  1.
       -4    1    3    3    0  502 -0.10845387378E+03  0.21018881253E+03  0.10114375333E+04  0.10387247356E+04  0.12699999809E+01 0. -1.
</event>
<event>
 5   0  0.2540506E-04  0.1995522E+04  0.7818609E-02  0.8608717E-01
        2   -1    0    0  501    0  0.00000000000E+00  0.00000000000E+00  0.11752009005E+04  0.11752009005E+04  0.25500000920E-02 0. -1.
       -2   -1    0    0    0  501  0.00000000000E+00  0.00000000000E+00 -0.84711188533E+03  0.84711188533E+03  0.25500000920E-02 0.  1.
    10030    2    1    2    0    0  0.00000000000E+00  0.00000000000E+00  0.32808901521E+03  0.20223127859E+04  0.19955216366E+04 0.  0.
        4    1    3    3  502    0  0.76532127775E+03  0.48963916047E+03 -0.25387761812E+03  0.94335498277E+03  0.12699999809E+01 0.  1.
       -4    1    3    3    0  502 -0.76532127775E+03 -0.48963916047E+03  0.58196663333E+03  0.10789578031E+04  0.12699999809E+01 0. -1.
</event>
<event>
 5   0  0.1324930E-04  0.2003160E+04  0.7818609E-02  0.8605144E-01
       -1   -1    0    0    0  501  0.00000000000E+00  0.00000000000E+00  0.77212809132E+03  0.77212809134E+03  0.50400001928E-02 0.  1.
        1   -1    0    0  501    0  0.00000000000E+00  0.00000000000E+00 -0.12992182941E+04  0.12992182942E+04  0.50400001928E-02 0. -1.
    10030    2    1    2    0    0  0.00000000000E+00  0.00000000000E+00 -0.52709020283E+03  0.20713463855E+04  0.20031604446E+04 0.  0.
        5    1    3    3  502    0 -0.84875944322E+03  0.41658528714E+03  0.78165279586E+02  0.94871902840E+03  0.46999998093E+01 0.  1.
       -5    1    3    3    0  502  0.84875944322E+03 -0.41658528714E+03 -0.60525548241E+03  0.11226273571E+04  0.46999998093E+01 0. -1.
</event>
<event>
 5   0  0.2488886E-04  0.1976410E+04  0.7818609E-02  0.8617730E-01
        2   -1    0    0  501    0  0.00000000000E+00  0.00000000000E+00  0.88048650322E+03  0.88048650323E+03  0.25500000920E-02 0. -1.
       -2   -1    0    0    0  501  0.00000000000E+00  0.00000000000E+00 -0.11091019553E+04  0.11091019553E+04  0.25500000920E-02 0.  1.
    10030    2    1    2    0    0  0.00000000000E+00  0.00000000000E+00 -0.22861545210E+03  0.19895884586E+04  0.19764101825E+04 0.  0.
        3    1    3    3  502    0  0.30509068464E+03 -0.66285636542E+03 -0.78515222877E+03  0.10718782205E+04  0.10100000352E+00 0.  1.
       -3    1    3    3    0  502 -0.30509068464E+03  0.66285636542E+03  0.55653677667E+03  0.91771023805E+03  0.10100000352E+00 0. -1.
</event>
<event>
 5   0  0.2421737E-04  0.2004994E+04  0.7818609E-02  0.8604289E-01
       -2   -1    0    0    0  501  0.00000000000E+00  0.00000000000E+00  0.59852121065E+03  0.59852121066E+03  0.25500000920E-02 0. -1.
        2   -1    0    0  501    0  0.00000000000E+00  0.00000000000E+00 -0.16791394952E+04  0.16791394952E+04  0.25500000920E-02 0.  1.
    10030    2    1    2    0    0  0.00000000000E+00  0.00000000000E+00 -0.10806182845E+04  0.22776607058E+04  0.20049943676E+04 0.  0.
        1    1    3    3  502    0 -0.25213422430E+03 -0.69044513501E+03  0.23409730819E+03  0.77141927721E+03  0.50400001928E-02 0.  1.
       -1    1    3    3    0  502  0.25213422430E+03  0.69044513501E+03 -0.13147155927E+04  0.15062414286E+04  0.50400001928E-02 0. -1.
</event>
<event>
 5   0  0.1231056E-04  0.1992288E+04  0.7818609E-02  0.8610235E-01
       -1   -1    0    0    0  501  0.00000000000E+00  0.00000000000E+00  0.10257542242E+04  0.10257542242E+04  0.50400001928E-02 0.  1.
        1   -1    0    0  501    0  0.00000000000E+00  0.00000000000E+00 -0.96738896450E+03  0.96738896452E+03  0.50400001928E-02 0. -1.
    10030    2    1    2    0    0  0.00000000000E+00  0.00000000000E+00  0.58365259733E+02  0.19931431888E+04  0.19922884498E+04 0.  0.
        3    1    3    3  502    0  0.12314651473E+03  0.91865639899E+03  0.39431683398E+03  0.10072638280E+04  0.10100000352E+00 0.  1.
       -3    1    3    3    0  502 -0.12314651473E+03 -0.91865639899E+03 -0.33595157424E+03  0.98587936074E+03  0.10100000352E+00 0. -1.
</event>
<event>
 5   0  0.1210633E-04  0.1684323E+04  0.7818609E-02  0.8770357E-01
        1   -1    0    0  501    0  0.00000000000E+00  0.00000000000E+00  0.98398660583E+03  0.98398660585E+03  0.50400001928E-02 0.  1.
       -1   -1    0    0    0  501  0.00000000000E+00  0.00000000000E+00 -0.72077772737E+03  0.72077772739E+03  0.50400001928E-02 0. -1.
    10030    2    1    2    0    0  0.00000000000E+00  0.00000000000E+00  0.26320887846E+03  0.17047643332E+04  0.16843225695E+04 0.  0.
        2    1    3    3  502    0 -0.64041437833E+03 -0.93034410090E+02  0.67707901443E+03  0.93660128616E+03  0.25500000920E-02 0.  1.
       -2    1    3    3    0  502  0.64041437833E+03  0.93034410090E+02 -0.41387013597E+03  0.76816304708E+03  0.25500000920E-02 0. -1.
</event>
<event>
 5   0  0.1258546E-04  0.1980274E+04  0.7818609E-02  0.8615899E-01
       -1   -1    0    0    0  501  0.00000000000E+00  0.00000000000E+00  0.77912667853E+03  0.77912667854E+03  0.50400001928E-02 0.  1.
        1   -1    0    0  501    0  0.00000000000E+00  0.00000000000E+00 -0.12582955200E+04  0.12582955201E+04  0.50400001928E-02 0. -1.
    10030    2    1    2    0    0  0.00000000000E+00  0.00000000000E+00 -0.47916884152E+03  0.20374221986E+04  0.19802743337E+04 0.  0.
        4    1    3    3  502    0 -0.13610291836E+03 -0.57646915056E+03  0.57674162377E+03  0.82672437935E+03  0.12699999809E+01 0.  1.
       -4    1    3    3    0  502  0.13610291836E+03  0.57646915056E+03 -0.10559104653E+04  0.12106978192E+04  0.12699999809E+01 0. -1.
</event>
<event>
 5   0  0.1258546E-04  0.2041980E+04  0.7818609E-02  0.8587241E-01
        1   -1    0    0  501    0  0.00000000000E+00  0.00000000000E+00  0.11443665153E+04  0.11443665154E+04  0.50400001928E-02 0.  1.
       -1   -1    0    0    0  501  0.00000000000E+00  0.00000000000E+00 -0.91091506056E+03  0.91091506058E+03  0.50400001928E-02 0. -1.
    10030    2    1    2    0    0  0.00000000000E+00  0.00000000000E+00  0.23345145478E+03  0.20552815759E+04  0.20419801112E+04 0.  0.
        4    1    3    3  502    0 -0.59281390259E+03 -0.81658597004E+03  0.27323173273E+03  0.10454176975E+04  0.12699999809E+01 0. -1.
       -4    1    3    3    0  502  0.59281390259E+03  0.81658597004E+03 -0.39780277942E+02  0.10098638784E+04  0.12699999809E+01 0.  1.
</event>
<event>
 5   0  0.1207228E-04  0.1995916E+04  0.7818609E-02  0.8608533E-01
       -1   -1    0    0    0  501  0.00000000000E+00  0.00000000000E+00  0.87666813154E+03  0.87666813156E+03  0.50400001928E-02 0.  1.
        1   -1    0    0  501    0  0.00000000000E+00  0.00000000000E+00 -0.11360284637E+04  0.11360284637E+04  0.50400001928E-02 0. -1.
    10030    2    1    2    0    0  0.00000000000E+00  0.00000000000E+00 -0.25936033218E+03  0.20126965953E+04  0.19959157805E+04 0.  0.
        1    1    3    3  502    0  0.60228923110E+03 -0.35287365367E+03  0.58951157695E+03  0.91367173138E+03  0.50400001928E-02 0.  1.
       -1    1    3    3    0  502 -0.60228923110E+03  0.35287365367E+03 -0.84887190913E+03  0.10990248639E+04  0.50400001928E-02 0. -1.
</event>
<event>
 5   0  0.2596061E-04  0.2015574E+04  0.7818609E-02  0.8599374E-01
       -2   -1    0    0    0  501  0.00000000000E+00  0.00000000000E+00  0.69015773667E+03  0.69015773668E+03  0.25500000920E-02 0. -1.
        2   -1    0    0  501    0  0.00000000000E+00  0.00000000000E+00 -0.14715984024E+04  0.14715984024E+04  0.25500000920E-02 0.  1.
    10030    2    1    2    0    0  0.00000000000E+00  0.00000000000E+00 -0.78144066570E+03  0.21617561390E+04  0.20155743823E+04 0.  0.
        5    1    3    3  502    0  0.33263198411E+03  0.25150027547E+03  0.59326991282E+03  0.72518115315E+03  0.46999998093E+01 0. -1.
       -5    1    3    3    0  502 -0.33263198411E+03 -0.25150027547E+03 -0.13747105785E+04  0.14365749859E+04  0.46999998093E+01 0.  1.
</event>
<event>
 5   0  0.2463085E-04  0.2010197E+04  0.7818609E-02  0.8601868E-01
        2   -1    0    0  501    0  0.00000000000E+00  0.00000000000E+00  0.10249356311E+04  0.10249356311E+04  0.25500000920E-02 0.  1.
       -2   -1    0    0    0  501  0.00000000000E+00  0.00000000000E+00 -0.98564545838E+03  0.98564545838E+03  0.25500000920E-02 0. -1.
    10030    2    1    2    0    0  0.00000000000E+00  0.00000000000E+00  0.39290172762E+02  0.20105810895E+04  0.20101971545E+04 0.  0.
        2    1    3    3  502    0 -0.97688537591E+02  0.99822633720E+03 -0.45361783023E+02  0.10040202000E+04  0.25500000920E-02 0.  1.
       -2    1    3    3    0  502  0.97688537591E+02 -0.99822633720E+03  0.84651955785E+02  0.10065608895E+04  0.25500000920E-02 0. -1.
</event>
<event>
 5   0  0.1210633E-04  0.2031045E+04  0.7818609E-02  0.8592242E-01
        1   -1    0    0  501    0  0.00000000000E+00  0.00000000000E+00  0.74113705115E+03  0.74113705117E+03  0.50400001928E-02 0. -1.
       -1   -1    0    0    0  501  0.00000000000E+00  0.00000000000E+00 -0.13914910051E+04  0.13914910051E+04  0.50400001928E-02 0.  1.
    10030    2    1    2    0    0  0.00000000000E+00  0.00000000000E+00 -0.65035395394E+03  0.21326280563E+04  0.20310445985E+04 0.  0.
        2    1    3    3  502    0  0.86418769997E+03 -0.42049081906E+03  0.19337900932E+02  0.96125275766E+03  0.25500000920E-02 0. -1.
       -2    1    3    3    0  502 -0.86418769997E+03  0.42049081906E+03 -0.66969185487E+03  0.11713752986E+04  0.25500000920E-02 0.  1.
</event>
<event>
 5   0  0.1207228E-04  0.1994488E+04  0.7818609E-02  0.8609202E-01
        1   -1    0    0  501    0  0.00000000000E+00  0.00000000000E+00  0.13997915654E+04  0.13997915654E+04  0.50400001928E-02 0. -1.
       -1   -1    0    0    0  501  0.00000000000E+00  0.00000000000E+00 -0.71045966923E+03  0.71045966925E+03  0.50400001928E-02 0.  1.
    10030    2    1    2    0    0  0.00000000000E+00  0.00000000000E+00  0.68933189615E+03  0.21102512346E+04  0.19944878566E+04 0.  0.
        1    1    3    3  502    0 -0.10657768986E+03 -0.33006503364E+03  0.13339171993E+04  0.13782731315E+04  0.50400001928E-02 0. -1.
       -1    1    3    3    0  502  0.10657768986E+03  0.33006503364E+03 -0.64458530315E+03  0.73197810313E+03  0.50400001928E-02 0.  1.
</event>
<event>
 5   0  0.1231056E-04  0.1988953E+04  0.7818609E-02  0.8611803E-01
        1   -1    0    0  501    0  0.00000000000E+00  0.00000000000E+00  0.67612897972E+03  0.67612897974E+03  0.50400001928E-02 0. -1.
       -1   -1    0    0    0  501  0.00000000000E+00  0.00000000000E+00 -0.14627142756E+04  0.14627142756E+04  0.50400001928E-02 0.  1.
    10030    2    1    2    0    0  0.00000000000E+00  0.00000000000E+00 -0.78658529585E+03  0.21388432553E+04  0.19889530017E+04 0.  0.
        3    1    3    3  502    0  0.14918075888E+03 -0.79574448903E+03 -0.10143260073E+04  0.12978141045E+04  0.10100000352E+00 0.  1.
       -3    1    3    3    0  502 -0.14918075888E+03  0.79574448903E+03  0.22774071144E+03  0.84102915079E+03  0.10100000352E+00 0. -1.
</event>
<event>
 5   0  0.1207228E-04  0.1854216E+04  0.7818609E-02  0.8677988E-01
       -1   -1    0    0    0  501  0.00000000000E+00  0.00000000000E+00  0.63636350773E+03  0.63636350775E+03  0.50400001928E-02 0. -1.
        1   -1    0    0  501    0  0.00000000000E+00  0.00000000000E+00 -0.13506890559E+04  0.13506890559E+04  0.50400001928E-02 0.  1.
    10030    2    1    2    0    0  0.00000000000E+00  0.00000000000E+00 -0.71432554820E+03  0.19870525637E+04  0.18542159804E+04 0.  0.
        1    1    3    3  502    0  0.82105416838E+03  0.13183063320E+03 -0.79643068370E+03  0.11514387075E+04  0.50400001928E-02 0. -1.
       -1    1    3    3    0  502 -0.82105416838E+03 -0.13183063320E+03  0.82105135508E+02  0.83561385614E+03  0.50400001928E-02 0.  1.
</event>
<event>
 5   0  0.1258546E-04  0.1986542E+04  0.7818609E-02  0.8612939E-01
       -1   -1    0    0    0  501  0.00000000000E+00  0.00000000000E+00  0.10526884087E+04  0.10526884087E+04  0.50400001928E-02 0. -1.
        1   -1    0    0  501    0  0.00000000000E+00  0.00000000000E+00 -0.93720742111E+03  0.93720742112E+03  0.50400001928E-02 0.  1.
    10030    2    1    2    0    0  0.00000000000E+00  0.00000000000E+00  0.11548098763E+03  0.19898958299E+04  0.19865421101E+04 0.  0.
        4    1    3    3  502    0 -0.36345502956E+03  0.28338252804E+03 -0.82362023858E+03  0.94379930388E+03  0.12699999809E+01 0.  1.
       -4    1    3    3    0  502  0.36345502956E+03 -0.28338252804E+03  0.93910122620E+03  0.10460965260E+04  0.12699999809E+01 0. -1.
</event>
<event>
 5   0  0.1258546E-04  0.2006816E+04  0.7818609E-02  0.8603441E-01
        1   -1    0    0  501    0  0.00000000000E+00  0.00000000000E+00  0.97637716734E+03  0.97637716735E+03  0.50400001928E-02 0.  1.
       -1   -1    0    0    0  501  0.00000000000E+00  0.00000000000E+00 -0.10311873342E+04  0.10311873342E+04  0.50400001928E-02 0. -1.
    10030    2    1    2    0    0  0.00000000000E+00  0.00000000000E+00 -0.54810166894E+02  0.20075645016E+04  0.20068161534E+04 0.  0.
        4    1    3    3  502    0  0.15530260752E+03 -0.54086498221E+03  0.80367082015E+03  0.98109236514E+03  0.12699999809E+01 0.  1.
       -4    1    3    3    0  502 -0.15530260752E+03  0.54086498221E+03 -0.85848098704E+03  0.10264721364E+04  0.12699999809E+01 0. -1.
</event>
<event>
 5   0  0.1231056E-04  0.1998645E+04  0.7818609E-02  0.8607255E-01
       -1   -1    0    0    0  501  0.00000000000E+00  0.00000000000E+00  0.72976828424E+03  0.72976828426E+03  0.50400001928E-02 0. -1.
        1   -1    0    0  501    0  0.00000000000E+00  0.00000000000E+00 -0.13684415790E+04  0.13684415790E+04  0.50400001928E-02 0.  1.
    10030    2    1    2    0    0  0.00000000000E+00  0.00000000000E+00 -0.63867329475E+03  0.20982098633E+04  0.19986448041E+04 0.  0.
        3    1    3    3  502    0  0.73209440247E+03  0.33141509884E+03 -0.94293730398E+03  0.12389224961E+04  0.10100000352E+00 0.  1.
       -3    1    3    3    0  502 -0.73209440247E+03 -0.33141509884E+03  0.30426400924E+03  0.85928736717E+03  0.10100000352E+00 0. -1.
</event>
<event>
 5   0  0.2463085E-04  0.2061151E+04  0.7818609E-02  0.8578552E-01
        2   -1    0    0  501    0  0.00000000000E+00  0.00000000000E+00  0.15375347117E+04  0.15375347117E+04  0.25500000920E-02 0. -1.
       -2   -1    0    0    0  501  0.00000000000E+00  0.00000000000E+00 -0.69077226423E+03  0.69077226424E+03  0.25500000920E-02 0.  1.
    10030    2    1    2    0    0  0.00000000000E+00  0.00000000000E+00  0.84676244748E+03  0.22283069759E+04  0.20611514589E+04 0.  0.
        2    1    3    3  502    0  0.76224245697E+02  0.30947138425E+03 -0.63615211376E+03  0.71152806350E+03  0.25500000920E-02 0.  1.
       -2    1    3    3    0  502 -0.76224245697E+02 -0.30947138425E+03  0.14829145612E+04  0.15167789124E+04  0.25500000920E-02 0. -1.
</event>
<event>
 5   0  0.1324930E-04  0.1848358E+04  0.7818609E-02  0.8680998E-01
        1   -1    0    0  501    0  0.00000000000E+00  0.00000000000E+00  0.92574622247E+03  0.92574622248E+03  0.50400001928E-02 0.  1.
       -1   -1    0    0    0  501  0.00000000000E+00  0.00000000000E+00 -0.92261438236E+03  0.92261438238E+03  0.50400001928E-02 0. -1.
    10030    2    1    2    0    0  0.00000000000E+00  0.00000000000E+00  0.31318401043E+01  0.18483606049E+04  0.18483579516E+04 0.  0.
        5    1    3    3  502    0 -0.69644751696E+03  0.28392797365E+03 -0.53549206495E+03  0.92327031780E+03  0.46999998093E+01 0. -1.
       -5    1    3    3    0  502  0.69644751696E+03 -0.28392797365E+03  0.53862390506E+03  0.92509028706E+03  0.46999998093E+01 0.  1.
</event>
<event>
 5   0  0.2421737E-04  0.1353244E+04  0.7818609E-02  0.8988376E-01
       -2   -1    0    0    0  501  0.00000000000E+00  0.00000000000E+00  0.24942556299E+03  0.24942556300E+03  0.25500000920E-02 0. -1.
        2   -1    0    0  501    0  0.00000000000E+00  0.00000000000E+00 -0.18354867946E+04  0.18354867946E+04  0.25500000920E-02 0.  1.
    10030    2    1    2    0    0  0.00000000000E+00  0.00000000000E+00 -0.15860612316E+04  0.20849123576E+04  0.13532439944E+04 0.  0.
        1    1    3    3  502    0 -0.22277697416E+03  0.33303898025E+03  0.46988696280E+02  0.40342592900E+03  0.50400001928E-02 0. -1.
       -1    1    3    3    0  502  0.22277697416E+03 -0.33303898025E+03 -0.16330499279E+04  0.16814864286E+04  0.50400001928E-02 0.  1.
</event>
<event>
 5   0  0.1231056E-04  0.1641242E+04  0.7818609E-02  0.8795604E-01
       -1   -1    0    0    0  501  0.00000000000E+00  0.00000000000E+00  0.76093013878E+03  0.76093013879E+03  0.50400001928E-02 0. -1.
        1   -1    0    0  501    0  0.00000000000E+00  0.00000000000E+00 -0.88499442960E+03  0.88499442962E+03  0.50400001928E-02 0.  1.
    10030    2    1    2    0    0  0.00000000000E+00  0.00000000000E+00 -0.12406429083E+03  0.16459245684E+04  0.16412421322E+04 0.  0.
        3    1    3    3  502    0  0.44348849312E+02 -0.73725888702E+03 -0.42068557058E+03  0.84999638024E+03  0.10100000352E+00 0.  1.
       -3    1    3    3    0  502 -0.44348849312E+02  0.73725888702E+03  0.29662127975E+03  0.79592818817E+03  0.10100000352E+00 0. -1.
</event>
<event>
 5   0  0.2421737E-04  0.1901416E+04  0.7818609E-02  0.8654152E-01
       -2   -1    0    0    0  501  0.00000000000E+00  0.00000000000E+00  0.37277723338E+03  0.37277723339E+03  0.25500000920E-02 0.  1.
        2   -1    0    0  501    0  0.00000000000E+00  0.00000000000E+00 -0.24246274742E+04  0.24246274742E+04  0.25500000920E-02 0. -1.
    10030    2    1    2    0    0  0.00000000000E+00  0.00000000000E+00 -0.20518502408E+04  0.27974047076E+04  0.19014162320E+04 0.  0.
        1    1    3    3  502    0  0.12219136118E+03  0.21251791811E+03 -0.23773295524E+04  0.23899352282E+04  0.50400001928E-02 0. -1.
       -1    1    3    3    0  502 -0.12219136118E+03 -0.21251791811E+03  0.32547931164E+03  0.40746947934E+03  0.50400001928E-02 0.  1.
</event>
<event>
 5   0  0.1207228E-04  0.1963681E+04  0.7818609E-02  0.8623792E-01
        1   -1    0    0  501    0  0.00000000000E+00  0.00000000000E+00  0.11814426031E+04  0.11814426031E+04  0.50400001928E-02 0.  1.
       -1   -1    0    0    0  501  0.00000000000E+00  0.00000000000E+00 -0.81596100096E+03  0.81596100098E+03  0.50400001928E-02 0. -1.
    10030    2    1    2    0    0  0.00000000000E+00  0.00000000000E+00  0.36548160215E+03  0.19974036041E+04  0.19636813276E+04 0.  0.
        1    1    3    3  502    0 -0.24887773721E+03 -0.76858557750E+03 -0.38482638750E+03  0.89484929824E+03  0.50400001928E-02 0.  1.
       -1    1    3    3    0  502  0.24887773721E+03  0.76858557750E+03  0.75030798965E+03  0.11025543059E+04  0.50400001928E-02 0. -1.
</event>
<event>
 5   0  0.2596061E-04  0.1983100E+04  0.7818609E-02  0.8614563E-01
        2   -1    0    0  501    0  0.00000000000E+00  0.00000000000E+00  0.18909970264E+04  0.18909970264E+04  0.25500000920E-02 0.  1.
       -2   -1    0    0    0  501  0.00000000000E+00  0.00000000000E+00 -0.51992218309E+03  0.51992218310E+03  0.25500000920E-02 0. -1.
    10030    2    1    2    0    0  0.00000000000E+00  0.00000000000E+00  0.13710748433E+04  0.24109192095E+04  0.19830998988E+04 0.  0.
        5    1    3    3  502    0 -0.65988588748E+03  0.35286258998E+03 -0.10533174621E+03  0.75569720038E+03  0.46999998093E+01 0. -1.
       -5    1    3    3    0  502  0.65988588748E+03 -0.35286258998E+03  0.14764065895E+04  0.16552220091E+04  0.46999998093E+01 0.  1.
</event>
<event>
 5   0  0.1210633E-04  0.1827413E+04  0.7818609E-02  0.8691856E-01
       -1   -1    0    0    0  501  0.00000000000E+00  0.00000000000E+00  0.50769931908E+03  0.50769931911E+03  0.50400001928E-02 0.  1.
        1   -1    0    0  501    0  0.00000000000E+00  0.00000000000E+00 -0.16443973126E+04  0.16443973126E+04  0.50400001928E-02 0. -1.
    10030    2    1    2    0    0  0.00000000000E+00  0.00000000000E+00 -0.11366979936E+04  0.21520966317E+04  0.18274128116E+04 0.  0.
        2    1    3    3  502    0  0.19252418618E+03 -0.77959574760E+03 -0.54979952258E+02  0.80489619647E+03  0.25500000920E-02 0.  1.
       -2    1    3    3    0  502 -0.19252418618E+03  0.77959574760E+03 -0.10817180413E+04  0.13472004353E+04  0.25500000920E-02 0. -1.
</event>
<event>
 5   0  0.2488886E-04  0.1891416E+04  0.7818609E-02  0.8659141E-01
       -2   -1    0    0    0  501  0.00000000000E+00  0.00000000000E+00  0.76068046361E+03  0.76068046362E+03  0.25500000920E-02 0.  1.
        2   -1    0    0  501    0  0.00000000000E+00  0.00000000000E+00 -0.11757418426E+04  0.11757418426E+04  0.25500000920E-02 0. -1.
    10030    2    1    2    0    0  0.00000000000E+00  0.00000000000E+00 -0.41506137895E+03  0.19364223062E+04  0.18914162418E+04 0.  0.
        3    1    3    3  502    0  0.37519517759E+03  0.34131167670E+02 -0.10955967799E+04  0.11585631930E+04  0.10100000352E+00 0. -1.
       -3    1    3    3    0  502 -0.37519517759E+03 -0.34131167670E+02  0.68053540091E+03  0.77785911320E+03  0.10100000352E+00 0.  1.
</event>
<event>
 5   0  0.2463085E-04  0.1859511E+04  0.7818609E-02  0.8675277E-01
        2   -1    0    0  501    0  0.00000000000E+00  0.00000000000E+00  0.99099993390E+03  0.99099993391E+03  0.25500000920E-02 0. -1.
       -2   -1    0    0    0  501  0.00000000000E+00  0.00000000000E+00 -0.87229569894E+03  0.87229569894E+03  0.25500000920E-02 0.  1.
    10030    2    1    2    0    0  0.00000000000E+00  0.00000000000E+00  0.11870423496E+03  0.18632956329E+04  0.18595106668E+04 0.  0.
        2    1    3    3  502    0 -0.42882247600E+03 -0.31063563231E+03 -0.70644280326E+03  0.88286162351E+03  0.25500000920E-02 0.  1.
       -2    1    3    3    0  502  0.42882247600E+03  0.31063563231E+03  0.82514703822E+03  0.98043400934E+03  0.25500000920E-02 0. -1.
</event>
<event>
 5   0  0.9099125E-05  0.1997581E+04  0.7818609E-02  0.8607752E-01
       -4   -1    0    0    0  501  0.00000000000E+00  0.00000000000E+00  0.10334361914E+04  0.10334369718E+04  0.12699999809E+01 0. -1.
        4   -1    0    0  501    0  0.00000000000E+00  0.00000000000E+00 -0.96530491325E+03  0.96530574868E+03  0.12699999809E+01 0.  1.
    10030    2    1    2    0    0  0.00000000000E+00  0.00000000000E+00  0.68131278191E+02  0.19987427205E+04  0.19975811852E+04 0.  0.
        3    1    3    3  502    0 -0.85500128786E+03  0.18008161136E+03  0.51821272708E+03  0.10158745147E+04  0.10100000352E+00 0. -1.
       -3    1    3    3    0  502  0.85500128786E+03 -0.18008161136E+03 -0.45008144889E+03  0.98286820573E+03  0.10100000352E+00 0.  1.
</event>
<event>
 5   0  0.2596061E-04  0.1987185E+04  0.7818609E-02  0.8612636E-01
        2   -1    0    0  501    0  0.00000000000E+00  0.00000000000E+00  0.10413901099E+04  0.10413901099E+04  0.25500000920E-02 0.  1.
       -2   -1    0    0    0  501  0.00000000000E+00  0.00000000000E+00 -0.94798870279E+03  0.94798870279E+03  0.25500000920E-02 0. -1.
    10030    2    1    2    0    0  0.00000000000E+00  0.00000000000E+00  0.93401407101E+02  0.19893788127E+04  0.19871850033E+04 0.  0.
        5    1    3    3  502    0 -0.68536031898E+03 -0.50085215379E+03  0.56363528375E+03  0.10189595035E+04  0.46999998093E+01 0.  1.
       -5    1    3    3    0  502  0.68536031898E+03  0.50085215379E+03 -0.47023387665E+03  0.97041930913E+03  0.46999998093E+01 0. -1.
</event>
<event>
 5   0  0.2596061E-04  0.2424871E+04  0.7818609E-02  0.8430251E-01
       -2   -1    0    0    0  501  0.00000000000E+00  0.00000000000E+00  0.99338268872E+03  0.99338268873E+03  0.25500000920E-02 0. -1.
        2   -1    0    0  501    0  0.00000000000E+00  0.00000000000E+00 -0.14797920160E+04  0.14797920160E+04  0.25500000920E-02 0.  1.
    10030    2    1    2    0    0  0.00000000000E+00  0.00000000000E+00 -0.48640932728E+03  0.24731747047E+04  0.24248709422E+04 0.  0.
        5    1    3    3  502    0 -0.28863031018E+03 -0.11774258783E+04 -0.26197027204E+03  0.12402780609E+04  0.46999998093E+01 0. -1.
       -5    1    3    3    0  502  0.28863031018E+03  0.11774258783E+04 -0.22443905525E+03  0.12328966438E+04  0.46999998093E+01 0.  1.
</event>
<event>
 5   0  0.2488886E-04  0.1931486E+04  0.7818609E-02  0.8639341E-01
       -2   -1    0    0    0  501  0.00000000000E+00  0.00000000000E+00  0.11345578990E+04  0.11345578990E+04  0.25500000920E-02 0. -1.
        2   -1    0    0  501    0  0.00000000000E+00  0.00000000000E+00 -0.82204633180E+03  0.82204633181E+03  0.25500000920E-02 0.  1.
    10030    2    1    2    0    0  0.00000000000E+00  0.00000000000E+00  0.31251156720E+03  0.19566042308E+04  0.19314856035E+04 0.  0.
        3    1    3    3  502    0 -0.36349238440E+03 -0.45062597624E+03 -0.62675740905E+03  0.85323815197E+03  0.10100000352E+00 0.  1.
       -3    1    3    3    0  502  0.36349238440E+03  0.45062597624E+03  0.93926897626E+03  0.11033660788E+04  0.10100000352E+00 0. -1.
</event>
<event>
 5   0  0.2421737E-04  0.1987552E+04  0.7818609E-02  0.8612463E-01
        2   -1    0    0  501    0  0.00000000000E+00  0.00000000000E+00  0.13010614890E+04  0.13010614890E+04  0.25500000920E-02 0.  1.
       -2   -1    0    0    0  501  0.00000000000E+00  0.00000000000E+00 -0.75906535275E+03  0.75906535275E+03  0.25500000920E-02 0. -1.
    10030    2    1    2    0    0  0.00000000000E+00  0.00000000000E+00  0.54199613630E+03  0.20601268418E+04  0.19875519597E+04 0.  0.
        1    1    3    3  502    0 -0.57370699118E+03  0.88790809707E+02  0.11070274565E+04  0.12500133236E+04  0.50400001928E-02 0.  1.
       -1    1    3    3    0  502  0.57370699118E+03 -0.88790809707E+02 -0.56503132019E+03  0.81011351824E+03  0.50400001928E-02 0. -1.
</event>
<event>
 5   0  0.1324930E-04  0.2016200E+04  0.7818609E-02  0.8599084E-01
        1   -1    0    0  501    0  0.00000000000E+00  0.00000000000E+00  0.70835670501E+03  0.70835670502E+03  0.50400001928E-02 0. -1.
       -1   -1    0    0    0  501  0.00000000000E+00  0.00000000000E+00 -0.14346805355E+04  0.14346805355E+04  0.50400001928E-02 0.  1.
    10030    2    1    2    0    0  0.00000000000E+00  0.00000000000E+00 -0.72632383047E+03  0.21430372405E+04  0.20161999671E+04 0.  0.
        5    1    3    3  502    0 -0.96730466772E+03 -0.13734622560E+03 -0.62718557885E+03  0.11610022163E+04  0.46999998093E+01 0. -1.
       -5    1    3    3    0  502  0.96730466772E+03  0.13734622560E+03 -0.99138251622E+02  0.98203502423E+03  0.46999998093E+01 0.  1.
</event>
<event>
 5   0  0.1207228E-04  0.2040036E+04  0.7818609E-02  0.8588128E-01
       -1   -1    0    0    0  501  0.00000000000E+00  0.00000000000E+00  0.83164936344E+03  0.83164936346E+03  0.50400001928E-02 0.  1.
        1   -1    0    0  501    0  0.00000000000E+00  0.00000000000E+00 -0.12510515664E+04  0.12510515664E+04  0.50400001928E-02 0. -1.
    10030    2    1    2    0    0  0.00000000000E+00  0.00000000000E+00 -0.41940220298E+03  0.20827009299E+04  0.20400355280E+04 0.  0.
        1    1    3    3  502    0  0.99055473236E+03 -0.24338751895E+03 -0.20998378730E+03  0.10414073906E+04  0.50400001928E-02 0.  1.
       -1    1    3    3    0  502 -0.99055473236E+03  0.24338751895E+03 -0.20941841567E+03  0.10412935393E+04  0.50400001928E-02 0. -1.
</event>
<event>
 5   0  0.2463085E-04  0.1990514E+04  0.7818609E-02  0.8611068E-01
       -2   -1    0    0    0  501  0.00000000000E+00  0.00000000000E+00  0.63076724692E+03  0.63076724693E+03  0.25500000920E-02 0. -1.
        2   -1    0    0  501    0  0.00000000000E+00  0.00000000000E+00 -0.15703683666E+04  0.15703683666E+04  0.25500000920E-02 0.  1.
    10030    2    1    2    0    0  0.00000000000E+00  0.00000000000E+00 -0.93960111966E+03  0.22011356135E+04  0.19905144373E+04 0.  0.
        2    1    3    3  502    0  0.24327793941E+03 -0.26370907301E+01 -0.15369787815E+04  0.15561153186E+04  0.25500000920E-02 0.  1.
       -2    1    3    3    0  502 -0.24327793941E+03  0.26370907301E+01  0.59737766180E+03  0.64502029493E+03  0.25500000920E-02 0. -1.
</event>
<event>
 5   0  0.1210633E-04  0.1926074E+04  0.7818609E-02  0.8641985E-01
        1   -1    0    0  501    0  0.00000000000E+00  0.00000000000E+00  0.10003556932E+04  0.10003556933E+04  0.50400001928E-02 0. -1.
       -1   -1    0    0    0  501  0.00000000000E+00  0.00000000000E+00 -0.92711046289E+03  0.92711046290E+03  0.50400001928E-02 0.  1.
    10030    2    1    2    0    0  0.00000000000E+00  0.00000000000E+00  0.73245230352E+02  0.19274661562E+04  0.19260739652E+04 0.  0.
        2    1    3    3  502    0  0.53485791957E+03  0.51962641014E+02  0.83636677858E+03  0.99412398548E+03  0.25500000920E-02 0. -1.
       -2    1    3    3    0  502 -0.53485791957E+03 -0.51962641014E+02 -0.76312154823E+03  0.93334217068E+03  0.25500000920E-02 0.  1.
</event>
<event>
 5   0  0.2421737E-04  0.2015612E+04  0.7818609E-02  0.8599356E-01
       -2   -1    0    0    0  501  0.00000000000E+00  0.00000000000E+00  0.14752971273E+04  0.14752971273E+04  0.25500000920E-02 0. -1.
        2   -1    0    0  501    0  0.00000000000E+00  0.00000000000E+00 -0.68845299102E+03  0.68845299103E+03  0.25500000920E-02 0.  1.
    10030    2    1    2    0    0  0.00000000000E+00  0.00000000000E+00  0.78684413625E+03  0.21637501183E+04  0.20156117879E+04 0.  0.
        1    1    3    3  502    0 -0.22127056304E+03 -0.79944307041E+03  0.10078543720E+04  0.13053123458E+04  0.50400001928E-02 0. -1.
       -1    1    3    3    0  502  0.22127056304E+03  0.79944307041E+03 -0.22101023577E+03  0.85843777249E+03  0.50400001928E-02 0.  1.
</event>
<event>
 5   0  0.2596061E-04  0.2002692E+04  0.7818609E-02  0.8605363E-01
        2   -1    0    0  501    0  0.00000000000E+00  0.00000000000E+00  0.10097089239E+04  0.10097089239E+04  0.25500000920E-02 0. -1.
       -2   -1    0    0    0  501  0.00000000000E+00  0.00000000000E+00 -0.99305203834E+03  0.99305203834E+03  0.25500000920E-02 0.  1.
    10030    2    1    2    0    0  0.00000000000E+00  0.00000000000E+00  0.16656885519E+02  0.20027609622E+04  0.20026916937E+04 0.  0.
        5    1    3    3  502    0  0.44305584396E+03 -0.67553643175E+03 -0.58331982854E+03  0.99645976530E+03  0.46999998093E+01 0.  1.
       -5    1    3    3    0  502 -0.44305584396E+03  0.67553643175E+03  0.59997671406E+03  0.10063011969E+04  0.46999998093E+01 0. -1.
</event>
<event>
 5   0  0.1231056E-04  0.1913669E+04  0.7818609E-02  0.8648082E-01
        1   -1    0    0  501    0  0.00000000000E+00  0.00000000000E+00  0.98292391171E+03  0.98292391172E+03  0.50400001928E-02 0.  1.
       -1   -1    0    0    0  501  0.00000000000E+00  0.00000000000E+00 -0.93143783610E+03  0.93143783611E+03  0.50400001928E-02 0. -1.
    10030    2    1    2    0    0  0.00000000000E+00  0.00000000000E+00  0.51486075610E+02  0.19143617478E+04  0.19136692728E+04 0.  0.
        3    1    3    3  502    0 -0.92829963748E+03  0.21860957572E+03 -0.51758525296E+02  0.95509649705E+03  0.10100000352E+00 0.  1.
       -3    1    3    3    0  502  0.92829963748E+03 -0.21860957572E+03  0.10324460091E+03  0.95926525078E+03  0.10100000352E+00 0. -1.
</event>
<event>
 5   0  0.1324930E-04  0.2101032E+04  0.7818609E-02  0.8560789E-01
        1   -1    0    0  501    0  0.00000000000E+00  0.00000000000E+00  0.11722945973E+04  0.11722945973E+04  0.50400001928E-02 0. -1.
       -1   -1    0    0    0  501  0.00000000000E+00  0.00000000000E+00 -0.94138794461E+03  0.94138794462E+03  0.50400001928E-02 0.  1.
    10030    2    1    2    0    0  0.00000000000E+00  0.00000000000E+00  0.23090665268E+03  0.21136825419E+04  0.21010321287E+04 0.  0.
        5    1    3    3  502    0  0.81817088766E+03 -0.55913259657E+03 -0.23525584023E+03  0.10185284789E+04  0.46999998093E+01 0.  1.
       -5    1    3    3    0  502 -0.81817088766E+03  0.55913259657E+03  0.46616249292E+03  0.10951540630E+04  0.46999998093E+01 0. -1.
</event>
<event>
 5   0  0.2421737E-04  0.1983164E+04  0.7818609E-02  0.8614533E-01
        2   -1    0    0  501    0  0.00000000000E+00  0.00000000000E+00  0.10528015278E+04  0.10528015278E+04  0.25500000920E-02 0. -1.
       -2   -1    0    0    0  501  0.00000000000E+00  0.00000000000E+00 -0.93392209386E+03  0.93392209386E+03  0.25500000920E-02 0.  1.
    10030    2    1    2    0    0  0.00000000000E+00  0.00000000000E+00  0.11887943397E+03  0.19867236217E+04  0.19831637424E+04 0.  0.
        1    1    3    3  502    0  0.82988691628E+02  0.67913106079E+03 -0.65957315485E+03  0.95033829098E+03  0.50400001928E-02 0.  1.
       -1    1    3    3    0  502 -0.82988691628E+02 -0.67913106079E+03  0.77845258882E+03  0.10363853307E+04  0.50400001928E-02 0. -1.
</event>
<event>
 5   0  0.2540506E-04  0.1994784E+04  0.7818609E-02  0.8609063E-01
        2   -1    0    0  501    0  0.00000000000E+00  0.00000000000E+00  0.88755253012E+03  0.88755253012E+03  0.25500000920E-02 0.  1.
       -2   -1    0    0    0  501  0.00000000000E+00  0.00000000000E+00 -0.11208245519E+04  0.11208245520E+04  0.25500000920E-02 0. -1.
    10030    2    1    2    0    0  0.00000000000E+00  0.00000000000E+00 -0.23327202183E+03  0.20083770821E+04  0.19947838649E+04 0.  0.
        4    1    3    3  502    0 -0.33683510402E+02 -0.77139231297E+02  0.88396933676E+03  0.88796871629E+03  0.12699999809E+01 0.  1.
       -4    1    3    3    0  502  0.33683510402E+02  0.77139231297E+02 -0.11172413586E+04  0.11204083658E+04  0.12699999809E+01 0. -1.
</event>
<event>
 5   0  0.9099125E-05  0.1370418E+04  0.7818609E-02  0.8975514E-01
        4   -1    0    0  501    0  0.00000000000E+00  0.00000000000E+00  0.63954141738E+03  0.63954267836E+03  0.12699999809E+01 0.  1.
       -4   -1    0    0    0  501  0.00000000000E+00  0.00000000000E+00 -0.73413497846E+03  0.73413607697E+03  0.12699999809E+01 0. -1.
    10030    2    1    2    0    0  0.00000000000E+00  0.00000000000E+00 -0.94593561087E+02  0.13736787553E+04  0.13704179585E+04 0.  0.
        4    1    3    3  502    0 -0.28123314063E+03  0.16715228202E+03 -0.65079060144E+03  0.72839685927E+03  0.12699999809E+01 0. -1.
       -4    1    3    3    0  502  0.28123314063E+03 -0.16715228202E+03  0.55619704035E+03  0.64528189605E+03  0.12699999809E+01 0.  1.
</event>
<event>
 5   0  0.1258546E-04  0.1498781E+04  0.7818609E-02  0.8885264E-01
       -1   -1    0    0    0  501  0.00000000000E+00  0.00000000000E+00  0.12022852301E+04  0.12022852301E+04  0.50400001928E-02 0.  1.
        1   -1    0    0  501    0  0.00000000000E+00  0.00000000000E+00 -0.46709895616E+03  0.46709895619E+03  0.50400001928E-02 0. -1.
    10030    2    1    2    0    0  0.00000000000E+00  0.00000000000E+00  0.73518627390E+03  0.16693841863E+04  0.14987810727E+04 0.  0.
        4    1    3    3  502    0 -0.50270777458E+03 -0.38960727104E+02  0.98509145155E+03  0.11066344589E+04  0.12699999809E+01 0.  1.
       -4    1    3    3    0  502  0.50270777458E+03  0.38960727104E+02 -0.24990517765E+03  0.56274972732E+03  0.12699999809E+01 0. -1.
</event>
<event>
 5   0  0.2488886E-04  0.2002448E+04  0.7818609E-02  0.8605477E-01
       -2   -1    0    0    0  501  0.00000000000E+00  0.00000000000E+00  0.71139951404E+03  0.71139951405E+03  0.25500000920E-02 0.  1.
        2   -1    0    0  501    0  0.00000000000E+00  0.00000000000E+00 -0.14091234776E+04  0.14091234776E+04  0.25500000920E-02 0. -1.
    10030    2    1    2    0    0  0.00000000000E+00  0.00000000000E+00 -0.69772396354E+03  0.21205229916E+04  0.20024482587E+04 0.  0.
        3    1    3    3  502    0  0.44745223038E+02  0.86031257000E+03  0.19142813096E+03  0.88248772944E+03  0.10100000352E+00 0.  1.
       -3    1    3    3    0  502 -0.44745223038E+02 -0.86031257000E+03 -0.88915209450E+03  0.12380352622E+04  0.10100000352E+00 0. -1.
</event>
<event>
 5   0  0.1207228E-04  0.1828898E+04  0.7818609E-02  0.8691081E-01
       -1   -1    0    0    0  501  0.00000000000E+00  0.00000000000E+00  0.59147852814E+03  0.59147852816E+03  0.50400001928E-02 0.  1.
        1   -1    0    0  501    0  0.00000000000E+00  0.00000000000E+00 -0.14137734184E+04  0.14137734184E+04  0.50400001928E-02 0. -1.
    10030    2    1    2    0    0  0.00000000000E+00  0.00000000000E+00 -0.82229489027E+03  0.20052519466E+04  0.18288976141E+04 0.  0.
        1    1    3    3  502    0  0.51632009960E+03 -0.44017933995E+03 -0.10833493331E+04  0.12782762120E+04  0.50400001928E-02 0. -1.
       -1    1    3    3    0  502 -0.51632009960E+03  0.44017933995E+03  0.26105444282E+03  0.72697573461E+03  0.50400001928E-02 0.  1.
</event>
<event>
 5   0  0.2488886E-04  0.1973236E+04  0.7818609E-02  0.8619237E-01
       -2   -1    0    0    0  501  0.00000000000E+00  0.00000000000E+00  0.91645466131E+03  0.91645466132E+03  0.25500000920E-02 0. -1.
        2   -1    0    0  501    0  0.00000000000E+00  0.00000000000E+00 -0.10621531625E+04  0.10621531626E+04  0.25500000920E-02 0.  1.
    10030    2    1    2    0    0  0.00000000000E+00  0.00000000000E+00 -0.14569850123E+03  0.19786078239E+04  0.19732361408E+04 0.  0.
        3    1    3    3  502    0  0.43204133775E+03 -0.31205325068E+03 -0.90539757668E+03  0.10506101707E+04  0.10100000352E+00 0.  1.
       -3    1    3    3    0  502 -0.43204133775E+03  0.31205325068E+03  0.75969907545E+03  0.92799765313E+03  0.10100000352E+00 0. -1.
</event>
<event>
 5   0  0.1210633E-04  0.2028537E+04  0.7818609E-02  0.8593394E-01
        1   -1    0    0  501    0  0.00000000000E+00  0.00000000000E+00  0.12063400963E+04  0.12063400963E+04  0.50400001928E-02 0. -1.
       -1   -1    0    0    0  501  0.00000000000E+00  0.00000000000E+00 -0.85277786866E+03  0.85277786867E+03  0.50400001928E-02 0.  1.
    10030    2    1    2    0    0  0.00000000000E+00  0.00000000000E+00  0.35356222763E+03  0.20591179650E+04  0.20285365525E+04 0.  0.
        2    1    3    3  502    0 -0.59998993019E+02 -0.93103309708E+03  0.58067104710E+03  0.10989091737E+04  0.25500000920E-02 0. -1.
       -2    1    3    3    0  502  0.59998993019E+02  0.93103309708E+03 -0.22710881947E+03  0.96020879131E+03  0.25500000920E-02 0.  1.
</event>
<event>
 5   0  0.2421737E-04  0.1963342E+04  0.7818609E-02  0.8623954E-01
       -2   -1    0    0    0  501  0.00000000000E+00  0.00000000000E+00  0.96897807456E+03  0.96897807457E+03  0.25500000920E-02 0.  1.
        2   -1    0    0  501    0  0.00000000000E+00  0.00000000000E+00 -0.99453031135E+03  0.99453031135E+03  0.25500000920E-02 0. -1.
    10030    2    1    2    0    0  0.00000000000E+00  0.00000000000E+00 -0.25552236781E+02  0.19635083859E+04  0.19633421161E+04 0.  0.
        1    1    3    3  502    0 -0.24285955904E+02  0.81877780128E+03 -0.55383133471E+03  0.98879524819E+03  0.50400001928E-02 0. -1.
       -1    1    3    3    0  502  0.24285955904E+02 -0.81877780128E+03  0.52827909793E+03  0.97471313772E+03  0.50400001928E-02 0.  1.
</event>
<event>
 5   0  0.2463085E-04  0.1993997E+04  0.7818609E-02  0.8609432E-01
       -2   -1    0    0    0  501  0.00000000000E+00  0.00000000000E+00  0.10426867706E+04  0.10426867706E+04  0.25500000920E-02 0.  1.
        2   -1    0    0  501    0  0.00000000000E+00  0.00000000000E+00 -0.95331245250E+03  0.95331245250E+03  0.25500000920E-02 0. -1.
    10030    2    1    2    0    0  0.00000000000E+00  0.00000000000E+00  0.89374318092E+02  0.19959992231E+04  0.19939972743E+04 0.  0.
        2    1    3    3  502    0  0.69598812947E+03 -0.13380490464E+03  0.74660658241E+03  0.10294292680E+04  0.25500000920E-02 0.  1.
       -2    1    3    3    0  502 -0.69598812947E+03  0.13380490464E+03 -0.65723226432E+03  0.96656995512E+03  0.25500000920E-02 0. -1.
</event>
<event>
 5   0  0.9099125E-05  0.1962172E+04  0.7818609E-02  0.8624513E-01
        3   -1    0    0  501    0  0.00000000000E+00  0.00000000000E+00  0.98950362595E+03  0.98950363111E+03  0.10100000352E+00 0.  1.
       -3   -1    0    0    0  501  0.00000000000E+00  0.00000000000E+00 -0.97274044673E+03  0.97274045197E+03  0.10100000352E+00 0. -1.
    10030    2    1    2    0    0  0.00000000000E+00  0.00000000000E+00  0.16763179224E+02  0.19622440831E+04  0.19621724790E+04 0.  0.
        1    1    3    3  502    0 -0.92774157491E+03 -0.29241370257E+03 -0.11937285135E+03  0.98003065306E+03  0.50400001928E-02 0. -1.
       -1    1    3    3    0  502  0.92774157491E+03  0.29241370257E+03  0.13613603058E+03  0.98221343002E+03  0.50400001928E-02 0.  1.
</event>
<event>
 5   0  0.1258546E-04  0.1266045E+04  0.7818609E-02  0.9056934E-01
       -1   -1    0    0    0  501  0.00000000000E+00  0.00000000000E+00  0.49746094280E+03  0.49746094283E+03  0.50400001928E-02 0.  1.
        1   -1    0    0  501    0  0.00000000000E+00  0.00000000000E+00 -0.80552555902E+03  0.80552555904E+03  0.50400001928E-02 0. -1.
    10030    2    1    2    0    0  0.00000000000E+00  0.00000000000E+00 -0.30806461622E+03  0.13029865019E+04  0.12660450293E+04 0.  0.
        4    1    3    3  502    0  0.13629307491E+03 -0.37400685975E+03 -0.66059206702E+03  0.77125898718E+03  0.12699999809E+01 0. -1.
       -4    1    3    3    0  502 -0.13629307491E+03  0.37400685975E+03  0.35252745080E+03  0.53172751468E+03  0.12699999809E+01 0.  1.
</event>
<event>
 5   0  0.2540506E-04  0.1643487E+04  0.7818609E-02  0.8794269E-01
        2   -1    0    0  501    0  0.00000000000E+00  0.00000000000E+00  0.71445758253E+03  0.71445758254E+03  0.25500000920E-02 0. -1.
       -2   -1    0    0    0  501  0.00000000000E+00  0.00000000000E+00 -0.94513963882E+03  0.94513963882E+03  0.25500000920E-02 0.  1.
    10030    2    1    2    0    0  0.00000000000E+00  0.00000000000E+00 -0.23068205628E+03  0.16595972214E+04  0.16434867587E+04 0.  0.
        4    1    3    3  502    0 -0.70778709296E+03  0.41661611036E+03 -0.14260600223E+03  0.83358840992E+03  0.12699999809E+01 0.  1.
       -4    1    3    3    0  502  0.70778709296E+03 -0.41661611036E+03 -0.88076054051E+02  0.82600881144E+03  0.12699999809E+01 0. -1.
</event>
<event>
 5   0  0.2596061E-04  0.2042774E+04  0.7818609E-02  0.8586880E-01
        2   -1    0    0  501    0  0.00000000000E+00  0.00000000000E+00  0.12127675389E+04  0.12127675389E+04  0.25500000920E-02 0. -1.
       -2   -1    0    0    0  501  0.00000000000E+00  0.00000000000E+00 -0.86020718950E+03  0.86020718950E+03  0.25500000920E-02 0.  1.
    10030    2    1    2    0    0  0.00000000000E+00  0.00000000000E+00  0.35256034936E+03  0.20729747284E+04  0.20427739534E+04 0.  0.
        5    1    3    3  502    0  0.91625966862E+03  0.40541582622E+03 -0.24932605787E+02  0.10022661809E+04  0.46999998093E+01 0.  1.
       -5    1    3    3    0  502 -0.91625966862E+03 -0.40541582622E+03  0.37749295515E+03  0.10707085475E+04  0.46999998093E+01 0. -1.
</event>
<event>
 5   0  0.1207228E-04  0.2002557E+04  0.7818609E-02  0.8605426E-01
       -1   -1    0    0    0  501  0.00000000000E+00  0.00000000000E+00  0.10476259129E+04  0.10476259129E+04  0.50400001928E-02 0.  1.
        1   -1    0    0  501    0  0.00000000000E+00  0.00000000000E+00 -0.95698167048E+03  0.95698167049E+03  0.50400001928E-02 0. -1.
    10030    2    1    2    0    0  0.00000000000E+00  0.00000000000E+00  0.90644242436E+02  0.20046075834E+04  0.20025571614E+04 0.  0.
        1    1    3    3  502    0 -0.17015107178E+03  0.76406824108E+03  0.67030675229E+03  0.10305643146E+04  0.50400001928E-02 0.  1.
       -1    1    3    3    0  502  0.17015107178E+03 -0.76406824108E+03 -0.57966250985E+03  0.97404326886E+03  0.50400001928E-02 0. -1.
</event>
<event>
 5   0  0.2540506E-04  0.1978938E+04  0.7818609E-02  0.8616532E-01
        2   -1    0    0  501    0  0.00000000000E+00  0.00000000000E+00  0.13615874686E+04  0.13615874686E+04  0.25500000920E-02 0. -1.
       -2   -1    0    0    0  501  0.00000000000E+00  0.00000000000E+00 -0.71904973502E+03  0.71904973503E+03  0.25500000920E-02 0.  1.
    10030    2    1    2    0    0  0.00000000000E+00  0.00000000000E+00  0.64253773362E+03  0.20806372037E+04  0.19789382088E+04 0.  0.
        4    1    3    3  502    0 -0.84009784925E+02 -0.68104453686E+03  0.10707623553E+04  0.12717755068E+04  0.12699999809E+01 0. -1.
       -4    1    3    3    0  502  0.84009784925E+02  0.68104453686E+03 -0.42822462172E+03  0.80886169689E+03  0.12699999809E+01 0.  1.
</event>
<event>
 5   0  0.1231056E-04  0.2025162E+04  0.7818609E-02  0.8594946E-01
       -1   -1    0    0    0  501  0.00000000000E+00  0.00000000000E+00  0.58586507006E+03  0.58586507008E+03  0.50400001928E-02 0.  1.
        1   -1    0    0  501    0  0.00000000000E+00  0.00000000000E+00 -0.17500955598E+04  0.17500955598E+04  0.50400001928E-02 0. -1.
    10030    2    1    2    0    0  0.00000000000E+00  0.00000000000E+00 -0.11642304897E+04  0.23359606299E+04  0.20251615815E+04 0.  0.
        3    1    3    3  502    0 -0.23029224125E+03  0.49352735425E+03  0.40254185320E+03  0.67723239701E+03  0.10100000352E+00 0.  1.
       -3    1    3    3    0  502  0.23029224125E+03 -0.49352735425E+03 -0.15667723429E+04  0.16587282329E+04  0.10100000352E+00 0. -1.
</event>
<event>
 5   0  0.1210633E-04  0.1872471E+04  0.7818609E-02  0.8668682E-01
       -1   -1    0    0    0  501  0.00000000000E+00  0.00000000000E+00  0.54472804669E+03  0.54472804671E+03  0.50400001928E-02 0.  1.
        1   -1    0    0  501    0  0.00000000000E+00  0.00000000000E+00 -0.16091270036E+04  0.16091270036E+04  0.50400001928E-02 0. -1.
    10030    2    1    2    0    0  0.00000000000E+00  0.00000000000E+00 -0.10643989569E+04  0.21538550503E+04  0.18724706776E+04 0.  0.
        2    1    3    3  502    0 -0.51781005440E+03  0.38961973575E+03  0.24507099125E+03  0.69281352591E+03  0.25500000920E-02 0.  1.
       -2    1    3    3    0  502  0.51781005440E+03 -0.38961973575E+03 -0.13094699482E+04  0.14610415244E+04  0.25500000920E-02 0. -1.
</event>
<event>
 5   0  0.1210633E-04  0.1955098E+04  0.7818609E-02  0.8627906E-01
        1   -1    0    0  501    0  0.00000000000E+00  0.00000000000E+00  0.82595290312E+03  0.82595290314E+03  0.50400001928E-02 0.  1.
       -1   -1    0    0    0  501  0.00000000000E+00  0.00000000000E+00 -0.11569696537E+04  0.11569696537E+04  0.50400001928E-02 0. -1.
    10030    2    1    2    0    0  0.00000000000E+00  0.00000000000E+00 -0.33101675053E+03  0.19829225568E+04  0.19550984060E+04 0.  0.
        2    1    3    3  502    0  0.43589743226E+03  0.82072348600E+03  0.14213806276E+03  0.94010469673E+03  0.25500000920E-02 0.  1.
       -2    1    3    3    0  502 -0.43589743226E+03 -0.82072348600E+03 -0.47315481329E+03  0.10428178601E+04  0.25500000920E-02 0. -1.
</event>
<event>
 5   0  0.1207228E-04  0.2109507E+04  0.7818609E-02  0.8557067E-01
       -1   -1    0    0    0  501  0.00000000000E+00  0.00000000000E+00  0.43902995775E+03  0.43902995778E+03  0.50400001928E-02 0.  1.
        1   -1    0    0  501    0  0.00000000000E+00  0.00000000000E+00 -0.25340074114E+04  0.25340074114E+04  0.50400001928E-02 0. -1.
    10030    2    1    2    0    0  0.00000000000E+00  0.00000000000E+00 -0.20949774536E+04  0.29730373692E+04  0.21095072096E+04 0.  0.
        1    1    3    3  502    0  0.71793907730E+03 -0.12121498958E+03  0.28037313699E+02  0.72863961147E+03  0.50400001928E-02 0.  1.
       -1    1    3    3    0  502 -0.71793907730E+03  0.12121498958E+03 -0.21230147673E+04  0.22443977577E+04  0.50400001928E-02 0. -1.
</event>
<event>
 5   0  0.1324930E-04  0.1970047E+04  0.7818609E-02  0.8620754E-01
        1   -1    0    0  501    0  0.00000000000E+00  0.00000000000E+00  0.18144471004E+04  0.18144471004E+04  0.50400001928E-02 0.  1.
       -1   -1    0    0    0  501  0.00000000000E+00  0.00000000000E+00 -0.53474772085E+03  0.53474772087E+03  0.50400001928E-02 0. -1.
    10030    2    1    2    0    0  0.00000000000E+00  0.00000000000E+00  0.12796993796E+04  0.23491948213E+04  0.19700471584E+04 0.  0.
        5    1    3    3  502    0 -0.37394899223E+03 -0.90170988114E+03  0.79683237588E+03  0.12601120918E+04  0.46999998093E+01 0. -1.
       -5    1    3    3    0  502  0.37394899223E+03  0.90170988114E+03  0.48286700370E+03  0.10890827295E+04  0.46999998093E+01 0.  1.
</event>
<event>
 5   0  0.1210633E-04  0.2159617E+04  0.7818609E-02  0.8535427E-01
        1   -1    0    0  501    0  0.00000000000E+00  0.00000000000E+00  0.14045831600E+04  0.14045831600E+04  0.50400001928E-02 0.  1.
       -1   -1    0    0    0  501  0.00000000000E+00  0.00000000000E+00 -0.83012949548E+03  0.83012949550E+03  0.50400001928E-02 0. -1.
    10030    2    1    2    0    0  0.00000000000E+00  0.00000000000E+00  0.57445366453E+03  0.22347126555E+04  0.21596165493E+04 0.  0.
        2    1    3    3  502    0 -0.57083784443E+03  0.42898164211E+03 -0.55094228397E+03  0.90189716386E+03  0.25500000920E-02 0. -1.
       -2    1    3    3    0  502  0.57083784443E+03 -0.42898164211E+03  0.11253959485E+04  0.13328154917E+04  0.25500000920E-02 0.  1.
</event>
<event>
 5   0  0.2540506E-04  0.2058171E+04  0.7818609E-02  0.8579896E-01
        2   -1    0    0  501    0  0.00000000000E+00  0.00000000000E+00  0.79262435184E+03  0.79262435184E+03  0.25500000920E-02 0.  1.
       -2   -1    0    0    0  501  0.00000000000E+00  0.00000000000E+00 -0.13360897227E+04  0.13360897227E+04  0.25500000920E-02 0. -1.
    10030    2    1    2    0    0  0.00000000000E+00  0.00000000000E+00 -0.54346537084E+03  0.21287140745E+04  0.20581712761E+04 0.  0.
        4    1    3    3  502    0 -0.54698611803E+03  0.47389729625E+03 -0.10284111756E+04  0.12575387150E+04  0.12699999809E+01 0. -1.
       -4    1    3    3    0  502  0.54698611803E+03 -0.47389729625E+03  0.48494580471E+03  0.87117535957E+03  0.12699999809E+01 0.  1.
</event>
<event>
 5   0  0.2540506E-04  0.2024211E+04  0.7818609E-02  0.8595384E-01
        2   -1    0    0  501    0  0.00000000000E+00  0.00000000000E+00  0.11391324118E+04  0.11391324118E+04  0.25500000920E-02 0. -1.
       -2   -1    0    0    0  501  0.00000000000E+00  0.00000000000E+00 -0.89924357321E+03  0.89924357322E+03  0.25500000920E-02 0.  1.
    10030    2    1    2    0    0  0.00000000000E+00  0.00000000000E+00  0.23988883861E+03  0.20383759850E+04  0.20242109578E+04 0.  0.
        4    1    3    3  502    0  0.56003143883E+03 -0.13460289247E+03 -0.71810691925E+03  0.92056086790E+03  0.12699999809E+01 0.  1.
       -4    1    3    3    0  502 -0.56003143883E+03  0.13460289247E+03  0.95799575785E+03  0.11178151171E+04  0.12699999809E+01 0. -1.
</event>
<event>
 5   0  0.2421737E-04  0.1959218E+04  0.7818609E-02  0.8625928E-01
       -2   -1    0    0    0  501  0.00000000000E+00  0.00000000000E+00  0.88283776288E+03  0.88283776289E+03  0.25500000920E-02 0. -1.
        2   -1    0    0  501    0  0.00000000000E+00  0.00000000000E+00 -0.10869879696E+04  0.10869879697E+04  0.25500000920E-02 0.  1.
    10030    2    1    2    0    0  0.00000000000E+00  0.00000000000E+00 -0.20415020676E+03  0.19698257325E+04  0.19592182394E+04 0.  0.
        1    1    3    3  502    0  0.41801206581E+03  0.47341207657E+03 -0.85498259020E+03  0.10629432304E+04  0.50400001928E-02 0.  1.
       -1    1    3    3    0  502 -0.41801206581E+03 -0.47341207657E+03  0.65083238343E+03  0.90688250218E+03  0.50400001928E-02 0. -1.
</event>
<event>
 5   0  0.1258546E-04  0.2010556E+04  0.7818609E-02  0.8601701E-01
       -1   -1    0    0    0  501  0.00000000000E+00  0.00000000000E+00  0.32670615988E+03  0.32670615992E+03  0.50400001928E-02 0. -1.
        1   -1    0    0  501    0  0.00000000000E+00  0.00000000000E+00 -0.30932501502E+04  0.30932501502E+04  0.50400001928E-02 0.  1.
    10030    2    1    2    0    0  0.00000000000E+00  0.00000000000E+00 -0.27665439904E+04  0.34199563101E+04  0.20105560208E+04 0.  0.
        4    1    3    3  502    0 -0.67530176809E+03  0.33262913848E+03 -0.25165871364E+04  0.26267636075E+04  0.12699999809E+01 0.  1.
       -4    1    3    3    0  502  0.67530176809E+03 -0.33262913848E+03 -0.24995685392E+03  0.79319270261E+03  0.12699999809E+01 0. -1.
</event>
<event>
 5   0  0.1258546E-04  0.1964223E+04  0.7818609E-02  0.8623532E-01
       -1   -1    0    0    0  501  0.00000000000E+00  0.00000000000E+00  0.90161946307E+03  0.90161946308E+03  0.50400001928E-02 0.  1.
        1   -1    0    0  501    0  0.00000000000E+00  0.00000000000E+00 -0.10697899076E+04  0.10697899076E+04  0.50400001928E-02 0. -1.
    10030    2    1    2    0    0  0.00000000000E+00  0.00000000000E+00 -0.16817044454E+03  0.19714093707E+04  0.19642234110E+04 0.  0.
        4    1    3    3  502    0  0.12750019753E+03 -0.77501309464E+03 -0.67585246909E+03  0.10361852007E+04  0.12699999809E+01 0. -1.
       -4    1    3    3    0  502 -0.12750019753E+03  0.77501309464E+03  0.50768202455E+03  0.93522417002E+03  0.12699999809E+01 0.  1.
</event>
<event>
 5   0  0.2596061E-04  0.2002711E+04  0.7818609E-02  0.8605354E-01
        2   -1    0    0  501    0  0.00000000000E+00  0.00000000000E+00  0.10165715088E+04  0.10165715088E+04  0.25500000920E-02 0.  1.
       -2   -1    0    0    0  501  0.00000000000E+00  0.00000000000E+00 -0.98636686805E+03  0.98636686805E+03  0.25500000920E-02 0. -1.
    10030    2    1    2    0    0  0.00000000000E+00  0.00000000000E+00  0.30204640767E+02  0.20029383769E+04  0.20027106184E+04 0.  0.
        5    1    3    3  502    0 -0.68279597875E+03 -0.67710354709E+03  0.29443822536E+03  0.10056816199E+04  0.46999998093E+01 0.  1.
       -5    1    3    3    0  502  0.68279597875E+03  0.67710354709E+03 -0.26423358459E+03  0.99725675696E+03  0.46999998093E+01 0. -1.
</event>
<event>
 5   0  0.1324930E-04  0.1925116E+04  0.7818609E-02  0.8642454E-01
       -1   -1    0    0    0  501  0.00000000000E+00  0.00000000000E+00  0.27308439711E+04  0.27308439711E+04  0.50400001928E-02 0. -1.
        1   -1    0    0  501    0  0.00000000000E+00  0.00000000000E+00 -0.33927911066E+03  0.33927911069E+03  0.50400001928E-02 0.  1.
    10030    2    1    2    0    0  0.00000000000E+00  0.00000000000E+00  0.23915648605E+04  0.30701230818E+04  0.19251164265E+04 0.  0.
        5    1    3    3  502    0  0.35726789471E+03 -0.15923790536E+03 -0.20680102465E+03  0.44247690662E+03  0.46999998093E+01 0.  1.
       -5    1    3    3    0  502 -0.35726789471E+03  0.15923790536E+03  0.25983658851E+04  0.26276461752E+04  0.46999998093E+01 0. -1.
</event>
<event>
 5   0  0.1324930E-04  0.1996417E+04  0.7818609E-02  0.8608298E-01
        1   -1    0    0  501    0  0.00000000000E+00  0.00000000000E+00  0.81383158842E+03  0.81383158843E+03  0.50400001928E-02 0.  1.
       -1   -1    0    0    0  501  0.00000000000E+00  0.00000000000E+00 -0.12243566026E+04  0.12243566026E+04  0.50400001928E-02 0. -1.
    10030    2    1    2    0    0  0.00000000000E+00  0.00000000000E+00 -0.41052501419E+03  0.20381881910E+04  0.19964168690E+04 0.  0.
        5    1    3    3  502    0  0.74514748221E+03  0.19065314017E+03  0.44429225179E+03  0.88826295943E+03  0.46999998093E+01 0.  1.
       -5    1    3    3    0  502 -0.74514748221E+03 -0.19065314017E+03 -0.85481726598E+03  0.11499252316E+04  0.46999998093E+01 0. -1.
</event>
<event>
 5   0  0.2463085E-04  0.1988594E+04  0.7818609E-02  0.8611972E-01
       -2   -1    0    0    0  501  0.00000000000E+00  0.00000000000E+00  0.37440638767E+03  0.37440638768E+03  0.25500000920E-02 0.  1.
        2   -1    0    0  501    0  0.00000000000E+00  0.00000000000E+00 -0.26405179671E+04  0.26405179671E+04  0.25500000920E-02 0. -1.
    10030    2    1    2    0    0  0.00000000000E+00  0.00000000000E+00 -0.22661115795E+04  0.30149243548E+04  0.19885942710E+04 0.  0.
        2    1    3    3  502    0  0.21837305216E+03  0.15754685555E+03 -0.25841853181E+04  0.25981765836E+04  0.25500000920E-02 0. -1.
       -2    1    3    3    0  502 -0.21837305216E+03 -0.15754685555E+03  0.31807373860E+03  0.41674777119E+03  0.25500000920E-02 0.  1.
</event>
<event>
 5   0  0.1231056E-04  0.1980048E+04  0.7818609E-02  0.8616006E-01
       -1   -1    0    0    0  501  0.00000000000E+00  0.00000000000E+00  0.77447755770E+03  0.77447755772E+03  0.50400001928E-02 0.  1.
        1   -1    0    0  501    0  0.00000000000E+00  0.00000000000E+00 -0.12655599405E+04  0.12655599406E+04  0.50400001928E-02 0. -1.
    10030    2    1    2    0    0  0.00000000000E+00  0.00000000000E+00 -0.49108238285E+03  0.20400374983E+04  0.19800482539E+04 0.  0.
        3    1    3    3  502    0  0.77812675009E+03  0.60128027600E+03 -0.12748988609E+03  0.99160117526E+03  0.10100000352E+00 0.  1.
       -3    1    3    3    0  502 -0.77812675009E+03 -0.60128027600E+03 -0.36359249676E+03  0.10484363230E+04  0.10100000352E+00 0. -1.
</event>
<event>
 5   0  0.2488886E-04  0.1858554E+04  0.7818609E-02  0.8675766E-01
        2   -1    0    0  501    0  0.00000000000E+00  0.00000000000E+00  0.66333797466E+03  0.66333797466E+03  0.25500000920E-02 0. -1.
       -2   -1    0    0    0  501  0.00000000000E+00  0.00000000000E+00 -0.13018330200E+04  0.13018330200E+04  0.25500000920E-02 0.  1.
    10030    2    1    2    0    0  0.00000000000E+00  0.00000000000E+00 -0.63849504536E+03  0.19651709947E+04  0.18585535008E+04 0.  0.
        3    1    3    3  502    0 -0.49765236464E+03 -0.24154749310E+03  0.47028140259E+03  0.72606313450E+03  0.10100000352E+00 0. -1.
       -3    1    3    3    0  502  0.49765236464E+03  0.24154749310E+03 -0.11087764479E+04  0.12391078602E+04  0.10100000352E+00 0.  1.
</event>
<event>
 5   0  0.2540506E-04  0.2006746E+04  0.7818609E-02  0.8603473E-01
       -2   -1    0    0    0  501  0.00000000000E+00  0.00000000000E+00  0.76871511769E+03  0.76871511769E+03  0.25500000920E-02 0.  1.
        2   -1    0    0  501    0  0.00000000000E+00  0.00000000000E+00 -0.13096625902E+04  0.13096625902E+04  0.25500000920E-02 0. -1.
    10030    2    1    2    0    0  0.00000000000E+00  0.00000000000E+00 -0.54094747253E+03  0.20783777079E+04  0.20067460549E+04 0.  0.
        4    1    3    3  502    0 -0.83879900123E+03 -0.55013697181E+03 -0.24682522239E+03  0.10330337630E+04  0.12699999809E+01 0.  1.
       -4    1    3    3    0  502  0.83879900123E+03  0.55013697181E+03 -0.29412225014E+03  0.10453439449E+04  0.12699999809E+01 0. -1.
</event>
<event>
 5   0  0.2540506E-04  0.2003296E+04  0.7818609E-02  0.8605081E-01
        2   -1    0    0  501    0  0.00000000000E+00  0.00000000000E+00  0.83837527535E+03  0.83837527536E+03  0.25500000920E-02 0. -1.
       -2   -1    0    0    0  501  0.00000000000E+00  0.00000000000E+00 -0.11967177214E+04  0.11967177214E+04  0.25500000920E-02 0.  1.
    10030    2    1    2    0    0  0.00000000000E+00  0.00000000000E+00 -0.35834244605E+03  0.20350929968E+04  0.20032958336E+04 0.  0.
        4    1    3    3  502    0 -0.41745697664E+03  0.76875155987E+03  0.31647422221E+03  0.93027245169E+03  0.12699999809E+01 0. -1.
       -4    1    3    3    0  502  0.41745697664E+03 -0.76875155987E+03 -0.67481666826E+03  0.11048205451E+04  0.12699999809E+01 0.  1.
</event>
<event>
 5   0  0.1210633E-04  0.1385156E+04  0.7818609E-02  0.8964634E-01
       -1   -1    0    0    0  501  0.00000000000E+00  0.00000000000E+00  0.47908599882E+03  0.47908599885E+03  0.50400001928E-02 0.  1.
        1   -1    0    0  501    0  0.00000000000E+00  0.00000000000E+00 -0.10012073170E+04  0.10012073170E+04  0.50400001928E-02 0. -1.
    10030    2    1    2    0    0  0.00000000000E+00  0.00000000000E+00 -0.52212131818E+03  0.14802933159E+04  0.13851561753E+04 0.  0.
        2    1    3    3  502    0 -0.59006019921E+03  0.35756448129E+03 -0.32554585199E+03  0.76289153799E+03  0.25500000920E-02 0. -1.
       -2    1    3    3    0  502  0.59006019921E+03 -0.35756448129E+03 -0.19657546618E+03  0.71740177787E+03  0.25500000920E-02 0.  1.
</event>
<event>
 5   0  0.2421737E-04  0.2002893E+04  0.7818609E-02  0.8605269E-01
        2   -1    0    0  501    0  0.00000000000E+00  0.00000000000E+00  0.95219257061E+03  0.95219257061E+03  0.25500000920E-02 0. -1.
       -2   -1    0    0    0  501  0.00000000000E+00  0.00000000000E+00 -0.10532481258E+04  0.10532481258E+04  0.25500000920E-02 0.  1.
    10030    2    1    2    0    0  0.00000000000E+00  0.00000000000E+00 -0.10105555517E+03  0.20054406964E+04  0.20028929481E+04 0.  0.
        1    1    3    3  502    0 -0.80940812672E+03  0.37575623670E+03  0.40453992539E+03  0.97978916930E+03  0.50400001928E-02 0. -1.
       -1    1    3    3    0  502  0.80940812672E+03 -0.37575623670E+03 -0.50559548056E+03  0.10256515271E+04  0.50400001928E-02 0.  1.
</event>
<event>
 5   0  0.1207228E-04  0.2032422E+04  0.7818609E-02  0.8591611E-01
        1   -1    0    0  501    0  0.00000000000E+00  0.00000000000E+00  0.11720288023E+04  0.11720288023E+04  0.50400001928E-02 0. -1.
       -1   -1    0    0    0  501  0.00000000000E+00  0.00000000000E+00 -0.88110877292E+03  0.88110877293E+03  0.50400001928E-02 0.  1.
    10030    2    1    2    0    0  0.00000000000E+00  0.00000000000E+00  0.29092002935E+03  0.20531375752E+04  0.20324220623E+04 0.  0.
        1    1    3    3  502    0 -0.16790870065E+02  0.49097744004E+03  0.10441022569E+04  0.11539022068E+04  0.50400001928E-02 0. -1.
       -1    1    3    3    0  502  0.16790870065E+02 -0.49097744004E+03 -0.75318222753E+03  0.89923536843E+03  0.50400001928E-02 0.  1.
</event>
<event>
 5   0  0.1324930E-04  0.1989957E+04  0.7818609E-02  0.8611330E-01
       -1   -1    0    0    0  501  0.00000000000E+00  0.00000000000E+00  0.57987805923E+03  0.57987805926E+03  0.50400001928E-02 0. -1.
        1   -1    0    0  501    0  0.00000000000E+00  0.00000000000E+00 -0.17072251794E+04  0.17072251794E+04  0.50400001928E-02 0.  1.
    10030    2    1    2    0    0  0.00000000000E+00  0.00000000000E+00 -0.11273471202E+04  0.22871032387E+04  0.19899572093E+04 0.  0.
        5    1    3    3  502    0 -0.83069239245E+03  0.18199114718E+03  0.29971098772E+02  0.85093535906E+03  0.46999998093E+01 0. -1.
       -5    1    3    3    0  502  0.83069239245E+03 -0.18199114718E+03 -0.11573182189E+04  0.14361678796E+04  0.46999998093E+01 0.  1.
</event>
<event>
 5   0  0.2421737E-04  0.2029592E+04  0.7818609E-02  0.8592909E-01
        2   -1    0    0  501    0  0.00000000000E+00  0.00000000000E+00  0.15352078327E+04  0.15352078327E+04  0.25500000920E-02 0. -1.
       -2   -1    0    0    0  501  0.00000000000E+00  0.00000000000E+00 -0.67079580446E+03  0.67079580446E+03  0.25500000920E-02 0.  1.
    10030    2    1    2    0    0  0.00000000000E+00  0.00000000000E+00  0.86441202829E+03  0.22060036372E+04  0.20295920508E+04 0.  0.
        1    1    3    3  502    0 -0.65510325077E+03 -0.16708325939E+03 -0.39036596528E+03  0.78068090256E+03  0.50400001928E-02 0.  1.
       -1    1    3    3    0  502  0.65510325077E+03  0.16708325939E+03  0.12547779936E+04  0.14253227347E+04  0.50400001928E-02 0. -1.
</event>
<event>
 5   0  0.1324930E-04  0.1960735E+04  0.7818609E-02  0.8625202E-01
        1   -1    0    0  501    0  0.00000000000E+00  0.00000000000E+00  0.15585406567E+04  0.15585406567E+04  0.50400001928E-02 0.  1.
       -1   -1    0    0    0  501  0.00000000000E+00  0.00000000000E+00 -0.61667969091E+03  0.61667969093E+03  0.50400001928E-02 0. -1.
    10030    2    1    2    0    0  0.00000000000E+00  0.00000000000E+00  0.94186096582E+03  0.21752203477E+04  0.19607349342E+04 0.  0.
        5    1    3    3  502    0  0.42711892313E+03 -0.25472524599E+03 -0.46634530017E+03  0.68177382938E+03  0.46999998093E+01 0. -1.
       -5    1    3    3    0  502 -0.42711892313E+03  0.25472524599E+03  0.14082062660E+04  0.14934465183E+04  0.46999998093E+01 0.  1.
</event>
<event>
 5   0  0.1231056E-04  0.2037083E+04  0.7818609E-02  0.8589477E-01
        1   -1    0    0  501    0  0.00000000000E+00  0.00000000000E+00  0.18198150089E+04  0.18198150089E+04  0.50400001928E-02 0. -1.
       -1   -1    0    0    0  501  0.00000000000E+00  0.00000000000E+00 -0.57007242852E+03  0.57007242855E+03  0.50400001928E-02 0.  1.
    10030    2    1    2    0    0  0.00000000000E+00  0.00000000000E+00  0.12497425803E+04  0.23898874374E+04  0.20370825821E+04 0.  0.
        3    1    3    3  502    0 -0.70991720096E+03  0.39445274103E+03 -0.96284463194E+02  0.81783012000E+03  0.10100000352E+00 0.  1.
       -3    1    3    3    0  502  0.70991720096E+03 -0.39445274103E+03  0.13460270435E+04  0.15720573174E+04  0.10100000352E+00 0. -1.
</event>
<event>
 5   0  0.1258546E-04  0.1897042E+04  0.7818609E-02  0.8656330E-01
        1   -1    0    0  501    0  0.00000000000E+00  0.00000000000E+00  0.66054018189E+03  0.66054018191E+03  0.50400001928E-02 0.  1.
       -1   -1    0    0    0  501  0.00000000000E+00  0.00000000000E+00 -0.13620549695E+04  0.13620549695E+04  0.50400001928E-02 0. -1.
    10030    2    1    2    0    0  0.00000000000E+00  0.00000000000E+00 -0.70151478761E+03  0.20225951514E+04  0.18970419472E+04 0.  0.
        4    1    3    3  502    0  0.93916060968E+03  0.10520935014E+03 -0.26414831857E+03  0.98125817461E+03  0.12699999809E+01 0.  1.
       -4    1    3    3    0  502 -0.93916060968E+03 -0.10520935014E+03 -0.43736646904E+03  0.10413369768E+04  0.12699999809E+01 0. -1.
</event>
<event>
 5   0  0.2596061E-04  0.1995579E+04  0.7818609E-02  0.8608690E-01
        2   -1    0    0  501    0  0.00000000000E+00  0.00000000000E+00  0.68448794073E+03  0.68448794073E+03  0.25500000920E-02 0.  1.
       -2   -1    0    0    0  501  0.00000000000E+00  0.00000000000E+00 -0.14544942667E+04  0.14544942667E+04  0.25500000920E-02 0. -1.
    10030    2    1    2    0    0  0.00000000000E+00  0.00000000000E+00 -0.77000632594E+03  0.21389822074E+04  0.19955788989E+04 0.  0.
        5    1    3    3  502    0  0.94606171896E+03 -0.31695974395E+03 -0.39367398069E+03  0.10726124875E+04  0.46999998093E+01 0.  1.
       -5    1    3    3    0  502 -0.94606171896E+03  0.31695974395E+03 -0.37633234525E+03  0.10663697199E+04  0.46999998093E+01 0. -1.
</event>
<event>
 5   0  0.2421737E-04  0.1923028E+04  0.7818609E-02  0.8643478E-01
       -2   -1    0    0    0  501  0.00000000000E+00  0.00000000000E+00  0.12818668438E+04  0.12818668438E+04  0.25500000920E-02 0.  1.
        2   -1    0    0  501    0  0.00000000000E+00  0.00000000000E+00 -0.72122117152E+03  0.72122117152E+03  0.25500000920E-02 0. -1.
    10030    2    1    2    0    0  0.00000000000E+00  0.00000000000E+00  0.56064567231E+03  0.20030880153E+04  0.19230283480E+04 0.  0.
        1    1    3    3  502    0 -0.59752392590E+03  0.51301262739E+03  0.85491555635E+03  0.11623671565E+04  0.50400001928E-02 0.  1.
       -1    1    3    3    0  502  0.59752392590E+03 -0.51301262739E+03 -0.29426988405E+03  0.84072085889E+03  0.50400001928E-02 0. -1.
</event>
<event>
 5   0  0.1210633E-04  0.2018677E+04  0.7818609E-02  0.8597938E-01
       -1   -1    0    0    0  501  0.00000000000E+00  0.00000000000E+00  0.85807560222E+03  0.85807560224E+03  0.50400001928E-02 0.  1.
        1   -1    0    0  501    0  0.00000000000E+00  0.00000000000E+00 -0.11872662051E+04  0.11872662051E+04  0.50400001928E-02 0. -1.
    10030    2    1    2    0    0  0.00000000000E+00  0.00000000000E+00 -0.32919060284E+03  0.20453418073E+04  0.20186769568E+04 0.  0.
        2    1    3    3  502    0  0.23623972260E+03 -0.83883395562E+03  0.35135852765E+03  0.93962994130E+03  0.25500000920E-02 0.  1.
       -2    1    3    3    0  502 -0.23623972260E+03  0.83883395562E+03 -0.68054913048E+03  0.11057118660E+04  0.25500000920E-02 0. -1.
</event>
<event>
 5   0  0.1324930E-04  0.1984279E+04  0.7818609E-02  0.8614006E-01
       -1   -1    0    0    0  501  0.00000000000E+00  0.00000000000E+00  0.11793038820E+04  0.11793038820E+04  0.50400001928E-02 0. -1.
        1   -1    0    0  501    0  0.00000000000E+00  0.00000000000E+00 -0.83467952586E+03  0.83467952588E+03  0.50400001928E-02 0.  1.
    10030    2    1    2    0    0  0.00000000000E+00  0.00000000000E+00  0.34462435609E+03  0.20139834078E+04  0.19842790177E+04 0.  0.
        5    1    3    3  502    0  0.58155059471E+03  0.32012258156E+02  0.98751234089E+03  0.11464853215E+04  0.46999998093E+01 0. -1.
       -5    1    3    3    0  502 -0.58155059471E+03 -0.32012258156E+02 -0.64288798481E+03  0.86749808639E+03  0.46999998093E+01 0.  1.
</event>
<event>
 5   0  0.2488886E-04  0.1979973E+04  0.7818609E-02  0.8616042E-01
       -2   -1    0    0    0  501  0.00000000000E+00  0.00000000000E+00  0.14481508348E+04  0.14481508348E+04  0.25500000920E-02 0. -1.
        2   -1    0    0  501    0  0.00000000000E+00  0.00000000000E+00 -0.67677536557E+03  0.67677536557E+03  0.25500000920E-02 0.  1.
    10030    2    1    2    0    0  0.00000000000E+00  0.00000000000E+00  0.77137546926E+03  0.21249262004E+04  0.19799725358E+04 0.  0.
        3    1    3    3  502    0 -0.82058342920E+03  0.55243278787E+03  0.42771662887E+03  0.10777201280E+04  0.10100000352E+00 0.  1.
       -3    1    3    3    0  502  0.82058342920E+03 -0.55243278787E+03  0.34365884040E+03  0.10472060724E+04  0.10100000352E+00 0. -1.
</event>
<event>
 5   0  0.2421737E-04  0.1958581E+04  0.7818609E-02  0.8626234E-01
       -2   -1    0    0    0  501  0.00000000000E+00  0.00000000000E+00  0.75304893575E+03  0.75304893575E+03  0.25500000920E-02 0. -1.
        2   -1    0    0  501    0  0.00000000000E+00  0.00000000000E+00 -0.12735024230E+04  0.12735024230E+04  0.25500000920E-02 0.  1.
    10030    2    1    2    0    0  0.00000000000E+00  0.00000000000E+00 -0.52045348729E+03  0.20265513588E+04  0.19585807559E+04 0.  0.
        1    1    3    3  502    0  0.59988406187E+02 -0.97249403969E+03 -0.15849698286E+03  0.98714971494E+03  0.50400001928E-02 0. -1.
       -1    1    3    3    0  502 -0.59988406187E+02  0.97249403969E+03 -0.36195650443E+03  0.10394016438E+04  0.50400001928E-02 0.  1.
</event>
<event>
 5   0  0.9099125E-05  0.1990430E+04  0.7818609E-02  0.8611108E-01
        3   -1    0    0  501    0  0.00000000000E+00  0.00000000000E+00  0.28991785183E+04  0.28991785201E+04  0.10100000352E+00 0.  1.
       -3   -1    0    0    0  501  0.00000000000E+00  0.00000000000E+00 -0.34163216383E+03  0.34163217876E+03  0.10100000352E+00 0. -1.
    10030    2    1    2    0    0  0.00000000000E+00  0.00000000000E+00  0.25575463545E+04  0.32408106988E+04  0.19904297602E+04 0.  0.
        4    1    3    3  502    0  0.99250909692E+03  0.95402807566E+01  0.11603984761E+04  0.15269877408E+04  0.12699999809E+01 0. -1.
       -4    1    3    3    0  502 -0.99250909692E+03 -0.95402807566E+01  0.13971478784E+04  0.17138229580E+04  0.12699999809E+01 0.  1.
</event>
<event>
 5   0  0.1210633E-04  0.1954845E+04  0.7818609E-02  0.8628028E-01
        1   -1    0    0  501    0  0.00000000000E+00  0.00000000000E+00  0.13048258598E+04  0.13048258598E+04  0.50400001928E-02 0. -1.
       -1   -1    0    0    0  501  0.00000000000E+00  0.00000000000E+00 -0.73216997469E+03  0.73216997471E+03  0.50400001928E-02 0.  1.
    10030    2    1    2    0    0  0.00000000000E+00  0.00000000000E+00  0.57265588509E+03  0.20369958345E+04  0.19548445634E+04 0.  0.
        2    1    3    3  502    0  0.88511324645E+03 -0.27175271530E+02  0.71746719628E+03  0.11397030895E+04  0.25500000920E-02 0. -1.
       -2    1    3    3    0  502 -0.88511324645E+03  0.27175271530E+02 -0.14481131119E+03  0.89729274502E+03  0.25500000920E-02 0.  1.
</event>
<event>
 5   0  0.1324930E-04  0.2047386E+04  0.7818609E-02  0.8584781E-01
        1   -1    0    0  501    0  0.00000000000E+00  0.00000000000E+00  0.99963148223E+03  0.99963148224E+03  0.50400001928E-02 0.  1.
       -1   -1    0    0    0  501  0.00000000000E+00  0.00000000000E+00 -0.10483340589E+04  0.10483340589E+04  0.50400001928E-02 0. -1.
    10030    2    1    2    0    0  0.00000000000E+00  0.00000000000E+00 -0.48702576700E+02  0.20479655412E+04  0.20473863624E+04 0.  0.
        5    1    3    3  502    0  0.64901134895E+03  0.88543511898E+02  0.76255413456E+03  0.10052694080E+04  0.46999998093E+01 0.  1.
       -5    1    3    3    0  502 -0.64901134895E+03 -0.88543511898E+02 -0.81125671126E+03  0.10426961332E+04  0.46999998093E+01 0. -1.
</event>
<event>
 5   0  0.1210633E-04  0.2055908E+04  0.7818609E-02  0.8580919E-01
        1   -1    0    0  501    0  0.00000000000E+00  0.00000000000E+00  0.10998933482E+04  0.10998933482E+04  0.50400001928E-02 0. -1.
       -1   -1    0    0    0  501  0.00000000000E+00  0.00000000000E+00 -0.96071947159E+03  0.96071947161E+03  0.50400001928E-02 0.  1.
    10030    2    1    2    0    0  0.00000000000E+00  0.00000000000E+00  0.13917387657E+03  0.20606128198E+04  0.20559075429E+04 0.  0.
        2    1    3    3  502    0  0.84878658526E+03 -0.15391872537E+03 -0.49076262867E+03  0.99246037656E+03  0.25500000920E-02 0.  1.
       -2    1    3    3    0  502 -0.84878658526E+03  0.15391872537E+03  0.62993650523E+03  0.10681524432E+04  0.25500000920E-02 0. -1.
</event>
<event>
 5   0  0.1324930E-04  0.2110585E+04  0.7818609E-02  0.8556595E-01
       -1   -1    0    0    0  501  0.00000000000E+00  0.00000000000E+00  0.92346303282E+03  0.92346303283E+03  0.50400001928E-02 0.  1.
        1   -1    0    0  501    0  0.00000000000E+00  0.00000000000E+00 -0.12059410930E+04  0.12059410930E+04  0.50400001928E-02 0. -1.
    10030    2    1    2    0    0  0.00000000000E+00  0.00000000000E+00 -0.28247806022E+03  0.21294041259E+04  0.21105847713E+04 0.  0.
        5    1    3    3  502    0  0.64282146324E+03 -0.49709386746E+03  0.53803854871E+03  0.97459187179E+03  0.46999998093E+01 0.  1.
       -5    1    3    3    0  502 -0.64282146324E+03  0.49709386746E+03 -0.82051660893E+03  0.11548122541E+04  0.46999998093E+01 0. -1.
</event>
<event>
 5   0  0.9099125E-05  0.2004393E+04  0.7818609E-02  0.8604569E-01
        4   -1    0    0  501    0  0.00000000000E+00  0.00000000000E+00  0.54891354155E+03  0.54891501072E+03  0.12699999809E+01 0.  1.
       -4   -1    0    0    0  501  0.00000000000E+00  0.00000000000E+00 -0.18297889161E+04  0.18297893568E+04  0.12699999809E+01 0. -1.
    10030    2    1    2    0    0  0.00000000000E+00  0.00000000000E+00 -0.12808753745E+04  0.23787043675E+04  0.20043933604E+04 0.  0.
        5    1    3    3  502    0  0.53260182351E+03 -0.74308268670E+02 -0.16440549722E+04  0.17297760730E+04  0.46999998093E+01 0. -1.
       -5    1    3    3    0  502 -0.53260182351E+03  0.74308268670E+02  0.36317959770E+03  0.64892829448E+03  0.46999998093E+01 0.  1.
</event>
<event>
 5   0  0.2488886E-04  0.1984767E+04  0.7818609E-02  0.8613776E-01
        2   -1    0    0  501    0  0.00000000000E+00  0.00000000000E+00  0.14803420273E+04  0.14803420273E+04  0.25500000920E-02 0.  1.
       -2   -1    0    0    0  501  0.00000000000E+00  0.00000000000E+00 -0.66526845541E+03  0.66526845541E+03  0.25500000920E-02 0. -1.
    10030    2    1    2    0    0  0.00000000000E+00  0.00000000000E+00  0.81507357192E+03  0.21456104827E+04  0.19847668417E+04 0.  0.
        3    1    3    3  502    0 -0.53354572631E+03  0.38742790794E+03  0.12092957427E+04  0.13773770833E+04  0.10100000352E+00 0.  1.
       -3    1    3    3    0  502  0.53354572631E+03 -0.38742790794E+03 -0.39422217081E+03  0.76823339948E+03  0.10100000352E+00 0. -1.
</event>
<event>
 5   0  0.2463085E-04  0.2037013E+04  0.7818609E-02  0.8589509E-01
       -2   -1    0    0    0  501  0.00000000000E+00  0.00000000000E+00  0.45096608323E+03  0.45096608324E+03  0.25500000920E-02 0.  1.
        2   -1    0    0  501    0  0.00000000000E+00  0.00000000000E+00 -0.23002959290E+04  0.23002959290E+04  0.25500000920E-02 0. -1.
    10030    2    1    2    0    0  0.00000000000E+00  0.00000000000E+00 -0.18493298458E+04  0.27512620122E+04  0.20370129557E+04 0.  0.
        2    1    3    3  502    0  0.39199004486E+03  0.93950766526E+03 -0.96789785656E+03  0.14046911081E+04  0.25500000920E-02 0. -1.
       -2    1    3    3    0  502 -0.39199004486E+03 -0.93950766526E+03 -0.88143198920E+03  0.13465709042E+04  0.25500000920E-02 0.  1.
</event>
<event>
 5   0  0.2421737E-04  0.1985302E+04  0.7818609E-02  0.8613523E-01
        2   -1    0    0  501    0  0.00000000000E+00  0.00000000000E+00  0.22866926769E+04  0.22866926769E+04  0.25500000920E-02 0.  1.
       -2   -1    0    0    0  501  0.00000000000E+00  0.00000000000E+00 -0.43090893658E+03  0.43090893659E+03  0.25500000920E-02 0. -1.
    10030    2    1    2    0    0  0.00000000000E+00  0.00000000000E+00  0.18557837404E+04  0.27176016135E+04  0.19853023041E+04 0.  0.
        1    1    3    3  502    0  0.12240587441E+03 -0.98254692980E+03  0.83134458296E+03  0.12928710233E+04  0.50400001928E-02 0.  1.
       -1    1    3    3    0  502 -0.12240587441E+03  0.98254692980E+03  0.10244391574E+04  0.14247305902E+04  0.50400001928E-02 0. -1.
</event>
<event>
 5   0  0.1210633E-04  0.1795978E+04  0.7818609E-02  0.8708441E-01
        1   -1    0    0  501    0  0.00000000000E+00  0.00000000000E+00  0.16237478154E+04  0.16237478154E+04  0.50400001928E-02 0.  1.
       -1   -1    0    0    0  501  0.00000000000E+00  0.00000000000E+00 -0.49661898526E+03  0.49661898529E+03  0.50400001928E-02 0. -1.
    10030    2    1    2    0    0  0.00000000000E+00  0.00000000000E+00  0.11271288301E+04  0.21203668007E+04  0.17959777197E+04 0.  0.
        2    1    3    3  502    0  0.36054074788E+03  0.59499555021E+03  0.12338972569E+04  0.14165139520E+04  0.25500000920E-02 0.  1.
       -2    1    3    3    0  502 -0.36054074788E+03 -0.59499555021E+03 -0.10676842676E+03  0.70385284869E+03  0.25500000920E-02 0. -1.
</event>
<event>
 5   0  0.2540506E-04  0.1988218E+04  0.7818609E-02  0.8612149E-01
       -2   -1    0    0    0  501  0.00000000000E+00  0.00000000000E+00  0.89690074607E+03  0.89690074607E+03  0.25500000920E-02 0. -1.
        2   -1    0    0  501    0  0.00000000000E+00  0.00000000000E+00 -0.11018525987E+04  0.11018525987E+04  0.25500000920E-02 0.  1.
    10030    2    1    2    0    0  0.00000000000E+00  0.00000000000E+00 -0.20495185260E+03  0.19987533447E+04  0.19882177122E+04 0.  0.
        4    1    3    3  502    0  0.59897799577E+02 -0.98361125530E+03  0.29260282455E+02  0.98586846231E+03  0.12699999809E+01 0.  1.
       -4    1    3    3    0  502 -0.59897799577E+02  0.98361125530E+03 -0.23421213506E+03  0.10128848824E+04  0.12699999809E+01 0. -1.
</event>
<event>
 5   0  0.1207228E-04  0.1974918E+04  0.7818609E-02  0.8618438E-01
        1   -1    0    0  501    0  0.00000000000E+00  0.00000000000E+00  0.82277107153E+03  0.82277107155E+03  0.50400001928E-02 0. -1.
       -1   -1    0    0    0  501  0.00000000000E+00  0.00000000000E+00 -0.11851116087E+04  0.11851116087E+04  0.50400001928E-02 0.  1.
    10030    2    1    2    0    0  0.00000000000E+00  0.00000000000E+00 -0.36234053712E+03  0.20078826802E+04  0.19749182749E+04 0.  0.
        1    1    3    3  502    0  0.45507901881E+02  0.67576843073E+03 -0.91173342470E+03  0.11357780500E+04  0.50400001928E-02 0.  1.
       -1    1    3    3    0  502 -0.45507901881E+02 -0.67576843073E+03  0.54939288757E+03  0.87210463022E+03  0.50400001928E-02 0. -1.
</event>
<event>
 5   0  0.1210633E-04  0.2077162E+04  0.7818609E-02  0.8571371E-01
       -1   -1    0    0    0  501  0.00000000000E+00  0.00000000000E+00  0.10749278959E+04  0.10749278959E+04  0.50400001928E-02 0. -1.
        1   -1    0    0  501    0  0.00000000000E+00  0.00000000000E+00 -0.10034635861E+04  0.10034635861E+04  0.50400001928E-02 0.  1.
    10030    2    1    2    0    0  0.00000000000E+00  0.00000000000E+00  0.71464309748E+02  0.20783914820E+04  0.20771624888E+04 0.  0.
        2    1    3    3  502    0 -0.16174273043E+03 -0.18992729479E+03  0.10445041982E+04  0.10738817943E+04  0.25500000920E-02 0. -1.
       -2    1    3    3    0  502  0.16174273043E+03  0.18992729479E+03 -0.97303988843E+03  0.10045096877E+04  0.25500000920E-02 0.  1.
</event>
<event>
 5   0  0.2488886E-04  0.1621329E+04  0.7818609E-02  0.8807551E-01
        2   -1    0    0  501    0  0.00000000000E+00  0.00000000000E+00  0.14825790422E+04  0.14825790422E+04  0.25500000920E-02 0.  1.
       -2   -1    0    0    0  501  0.00000000000E+00  0.00000000000E+00 -0.44326614791E+03  0.44326614792E+03  0.25500000920E-02 0. -1.
    10030    2    1    2    0    0  0.00000000000E+00  0.00000000000E+00  0.10393128943E+04  0.19258451901E+04  0.16213292090E+04 0.  0.
        3    1    3    3  502    0  0.24717858545E+03 -0.55815611424E+03 -0.11395504157E+03  0.62098410822E+03  0.10100000352E+00 0. -1.
       -3    1    3    3    0  502 -0.24717858545E+03  0.55815611424E+03  0.11532679358E+04  0.13048610819E+04  0.10100000352E+00 0.  1.
</event>
<event>
 5   0  0.1324930E-04  0.1928193E+04  0.7818609E-02  0.8640949E-01
        1   -1    0    0  501    0  0.00000000000E+00  0.00000000000E+00  0.14191926006E+04  0.14191926006E+04  0.50400001928E-02 0. -1.
       -1   -1    0    0    0  501  0.00000000000E+00  0.00000000000E+00 -0.65493732129E+03  0.65493732131E+03  0.50400001928E-02 0.  1.
    10030    2    1    2    0    0  0.00000000000E+00  0.00000000000E+00  0.76425527927E+03  0.20741299219E+04  0.19281931441E+04 0.  0.
        5    1    3    3  502    0 -0.78680043987E+03 -0.55021825533E+03  0.28795106161E+03  0.10023636888E+04  0.46999998093E+01 0.  1.
       -5    1    3    3    0  502  0.78680043987E+03  0.55021825533E+03  0.47630421766E+03  0.10717662331E+04  0.46999998093E+01 0. -1.
</event>
<event>
 5   0  0.2488886E-04  0.2022501E+04  0.7818609E-02  0.8596172E-01
       -2   -1    0    0    0  501  0.00000000000E+00  0.00000000000E+00  0.60017237881E+03  0.60017237882E+03  0.25500000920E-02 0.  1.
        2   -1    0    0  501    0  0.00000000000E+00  0.00000000000E+00 -0.17038903496E+04  0.17038903496E+04  0.25500000920E-02 0. -1.
    10030    2    1    2    0    0  0.00000000000E+00  0.00000000000E+00 -0.11037179708E+04  0.23040627285E+04  0.20225013467E+04 0.  0.
        3    1    3    3  502    0  0.38629835850E+03 -0.64784938579E+03  0.21547840095E+03  0.78445280287E+03  0.10100000352E+00 0.  1.
       -3    1    3    3    0  502 -0.38629835850E+03  0.64784938579E+03 -0.13191963718E+04  0.15196099256E+04  0.10100000352E+00 0. -1.
</event>
<event>
 5   0  0.1258546E-04  0.2019521E+04  0.7818609E-02  0.8597548E-01
       -1   -1    0    0    0  501  0.00000000000E+00  0.00000000000E+00  0.61041457433E+03  0.61041457435E+03  0.50400001928E-02 0. -1.
        1   -1    0    0  501    0  0.00000000000E+00  0.00000000000E+00 -0.16703663564E+04  0.16703663564E+04  0.50400001928E-02 0.  1.
    10030    2    1    2    0    0  0.00000000000E+00  0.00000000000E+00 -0.10599517821E+04  0.22807809308E+04  0.20195207040E+04 0.  0.
        4    1    3    3  502    0 -0.46420622508E+03  0.84515885973E+02 -0.15382069340E+04  0.16089476496E+04  0.12699999809E+01 0.  1.
       -4    1    3    3    0  502  0.46420622508E+03 -0.84515885973E+02  0.47825515195E+03  0.67183328115E+03  0.12699999809E+01 0. -1.
</event>
<event>
 5   0  0.1324930E-04  0.2006039E+04  0.7818609E-02  0.8603802E-01
       -1   -1    0    0    0  501  0.00000000000E+00  0.00000000000E+00  0.60620348048E+03  0.60620348050E+03  0.50400001928E-02 0. -1.
        1   -1    0    0  501    0  0.00000000000E+00  0.00000000000E+00 -0.16595888441E+04  0.16595888441E+04  0.50400001928E-02 0.  1.
    10030    2    1    2    0    0  0.00000000000E+00  0.00000000000E+00 -0.10533853636E+04  0.22657923246E+04  0.20060394148E+04 0.  0.
        5    1    3    3  502    0  0.11272279663E+03  0.63336361666E+03 -0.13958613044E+04  0.15369797562E+04  0.46999998093E+01 0.  1.
       -5    1    3    3    0  502 -0.11272279663E+03 -0.63336361666E+03  0.34247594082E+03  0.72881256838E+03  0.46999998093E+01 0. -1.
</event>
<event>
 5   0  0.2488886E-04  0.2017669E+04  0.7818609E-02  0.8598404E-01
        2   -1    0    0  501    0  0.00000000000E+00  0.00000000000E+00  0.11446856036E+04  0.11446856036E+04  0.25500000920E-02 0.  1.
       -2   -1    0    0    0  501  0.00000000000E+00  0.00000000000E+00 -0.88910625865E+03  0.88910625865E+03  0.25500000920E-02 0. -1.
    10030    2    1    2    0    0  0.00000000000E+00  0.00000000000E+00  0.25557934499E+03  0.20337918623E+04  0.20176690852E+04 0.  0.
        3    1    3    3  502    0 -0.74272304667E+03 -0.67405265772E+03  0.18467437446E+02  0.10031577971E+04  0.10100000352E+00 0. -1.
       -3    1    3    3    0  502  0.74272304667E+03  0.67405265772E+03  0.23711190754E+03  0.10306340652E+04  0.10100000352E+00 0.  1.
</event>
<event>
 5   0  0.1207228E-04  0.1926666E+04  0.7818609E-02  0.8641696E-01
       -1   -1    0    0    0  501  0.00000000000E+00  0.00000000000E+00  0.89448457867E+03  0.89448457868E+03  0.50400001928E-02 0.  1.
        1   -1    0    0  501    0  0.00000000000E+00  0.00000000000E+00 -0.10374808781E+04  0.10374808781E+04  0.50400001928E-02 0. -1.
    10030    2    1    2    0    0  0.00000000000E+00  0.00000000000E+00 -0.14299629945E+03  0.19319654568E+04  0.19266661840E+04 0.  0.
        1    1    3    3  502    0  0.22650760576E+02 -0.70528626913E+03  0.58610197200E+03  0.91730981679E+03  0.50400001928E-02 0.  1.
       -1    1    3    3    0  502 -0.22650760576E+02  0.70528626913E+03 -0.72909827145E+03  0.10146556400E+04  0.50400001928E-02 0. -1.
</event>
<event>
 5   0  0.2596061E-04  0.2022787E+04  0.7818609E-02  0.8596041E-01
       -2   -1    0    0    0  501  0.00000000000E+00  0.00000000000E+00  0.13389881505E+04  0.13389881505E+04  0.25500000920E-02 0. -1.
        2   -1    0    0  501    0  0.00000000000E+00  0.00000000000E+00 -0.76394731062E+03  0.76394731062E+03  0.25500000920E-02 0.  1.
    10030    2    1    2    0    0  0.00000000000E+00  0.00000000000E+00  0.57504083990E+03  0.21029354611E+04  0.20227865894E+04 0.  0.
        5    1    3    3  502    0 -0.38470440194E+03  0.23192936907E+03 -0.65453268453E+03  0.79386638310E+03  0.46999998093E+01 0.  1.
       -5    1    3    3    0  502  0.38470440194E+03 -0.23192936907E+03  0.12295735244E+04  0.13090690780E+04  0.46999998093E+01 0. -1.
</event>
<event>
 5   0  0.1210633E-04  0.1768342E+04  0.7818609E-02  0.8723318E-01
       -1   -1    0    0    0  501  0.00000000000E+00  0.00000000000E+00  0.11589490227E+04  0.11589490227E+04  0.50400001928E-02 0. -1.
        1   -1    0    0  501    0  0.00000000000E+00  0.00000000000E+00 -0.67454090831E+03  0.67454090832E+03  0.50400001928E-02 0.  1.
    10030    2    1    2    0    0  0.00000000000E+00  0.00000000000E+00  0.48440811439E+03  0.18334899310E+04  0.17683421914E+04 0.  0.
        2    1    3    3  502    0  0.64043207746E+03 -0.40545821966E+03 -0.22976816189E+03  0.79204988603E+03  0.25500000920E-02 0.  1.
       -2    1    3    3    0  502 -0.64043207746E+03  0.40545821966E+03  0.71417627628E+03  0.10414400450E+04  0.25500000920E-02 0. -1.
</event>
<event>
 5   0  0.1231056E-04  0.1981349E+04  0.7818609E-02  0.8615391E-01
       -1   -1    0    0    0  501  0.00000000000E+00  0.00000000000E+00  0.13791231123E+04  0.13791231123E+04  0.50400001928E-02 0.  1.
        1   -1    0    0  501    0  0.00000000000E+00  0.00000000000E+00 -0.71163760336E+03  0.71163760338E+03  0.50400001928E-02 0. -1.
    10030    2    1    2    0    0  0.00000000000E+00  0.00000000000E+00  0.66748550893E+03  0.20907607157E+04  0.19813489005E+04 0.  0.
        3    1    3    3  502    0 -0.86802030073E+03 -0.41445795043E+03  0.58390182160E+03  0.11252448545E+04  0.10100000352E+00 0.  1.
       -3    1    3    3    0  502  0.86802030073E+03  0.41445795043E+03  0.83583687330E+02  0.96551586116E+03  0.10100000352E+00 0. -1.
</event>
<event>
 5   0  0.1324930E-04  0.1917780E+04  0.7818609E-02  0.8646056E-01
       -1   -1    0    0    0  501  0.00000000000E+00  0.00000000000E+00  0.69393480392E+03  0.69393480394E+03  0.50400001928E-02 0. -1.
        1   -1    0    0  501    0  0.00000000000E+00  0.00000000000E+00 -0.13250092660E+04  0.13250092660E+04  0.50400001928E-02 0.  1.
    10030    2    1    2    0    0  0.00000000000E+00  0.00000000000E+00 -0.63107446207E+03  0.20189440699E+04  0.19177800137E+04 0.  0.
        5    1    3    3  502    0 -0.91898001713E+03 -0.10463656346E+03 -0.49262339989E+02  0.92624076268E+03  0.46999998093E+01 0.  1.
       -5    1    3    3    0  502  0.91898001713E+03  0.10463656346E+03 -0.58181212208E+03  0.10927033073E+04  0.46999998093E+01 0. -1.
</event>
<event>
 5   0  0.2463085E-04  0.2036832E+04  0.7818609E-02  0.8589592E-01
       -2   -1    0    0    0  501  0.00000000000E+00  0.00000000000E+00  0.74573308281E+03  0.74573308282E+03  0.25500000920E-02 0.  1.
        2   -1    0    0  501    0  0.00000000000E+00  0.00000000000E+00 -0.13908072681E+04  0.13908072681E+04  0.25500000920E-02 0. -1.
    10030    2    1    2    0    0  0.00000000000E+00  0.00000000000E+00 -0.64507418528E+03  0.21365403509E+04  0.20368318454E+04 0.  0.
        2    1    3    3  502    0  0.57961449231E+03  0.80636660354E+02  0.55176093527E+03  0.80429805445E+03  0.25500000920E-02 0.  1.
       -2    1    3    3    0  502 -0.57961449231E+03 -0.80636660354E+02 -0.11968351206E+04  0.13322422965E+04  0.25500000920E-02 0. -1.
</event>
<event>
 5   0  0.2421737E-04  0.2018552E+04  0.7818609E-02  0.8597996E-01
        2   -1    0    0  501    0  0.00000000000E+00  0.00000000000E+00  0.72284267047E+03  0.72284267048E+03  0.25500000920E-02 0.  1.
       -2   -1    0    0    0  501  0.00000000000E+00  0.00000000000E+00 -0.14092112050E+04  0.14092112050E+04  0.25500000920E-02 0. -1.
    10030    2    1    2    0    0  0.00000000000E+00  0.00000000000E+00 -0.68636853448E+03  0.21320538754E+04  0.20185519470E+04 0.  0.
        1    1    3    3  502    0  0.29722832598E+03 -0.17041872584E+03 -0.13459074804E+04  0.13888319429E+04  0.50400001928E-02 0. -1.
       -1    1    3    3    0  502 -0.29722832598E+03  0.17041872584E+03  0.65953894587E+03  0.74322193255E+03  0.50400001928E-02 0.  1.
</event>
<event>
 5   0  0.1207228E-04  0.2003146E+04  0.7818609E-02  0.8605151E-01
       -1   -1    0    0    0  501  0.00000000000E+00  0.00000000000E+00  0.11312502756E+04  0.11312502756E+04  0.50400001928E-02 0. -1.
        1   -1    0    0  501    0  0.00000000000E+00  0.00000000000E+00 -0.88676058182E+03  0.88676058184E+03  0.50400001928E-02 0.  1.
    10030    2    1    2    0    0  0.00000000000E+00  0.00000000000E+00  0.24448969378E+03  0.20180108574E+04  0.20031456788E+04 0.  0.
        1    1    3    3  502    0  0.11099261482E+03 -0.98119877293E+03 -0.46562829908E+02  0.98855373638E+03  0.50400001928E-02 0.  1.
       -1    1    3    3    0  502 -0.11099261482E+03  0.98119877293E+03  0.29105252369E+03  0.10294571211E+04  0.50400001928E-02 0. -1.
</event>
<event>
 5   0  0.1231056E-04  0.1997003E+04  0.7818609E-02  0.8608023E-01
        1   -1    0    0  501    0  0.00000000000E+00  0.00000000000E+00  0.61938501243E+03  0.61938501245E+03  0.50400001928E-02 0.  1.
       -1   -1    0    0    0  501  0.00000000000E+00  0.00000000000E+00 -0.16096699071E+04  0.16096699071E+04  0.50400001928E-02 0. -1.
    10030    2    1    2    0    0  0.00000000000E+00  0.00000000000E+00 -0.99028489470E+03  0.22290549196E+04  0.19970031702E+04 0.  0.
        3    1    3    3  502    0 -0.49143526933E+03  0.24171681710E+02 -0.14649606383E+04  0.15453810456E+04  0.10100000352E+00 0. -1.
       -3    1    3    3    0  502  0.49143526933E+03 -0.24171681710E+02  0.47467574364E+03  0.68367387396E+03  0.10100000352E+00 0.  1.
</event>
<event>
 5   0  0.1231056E-04  0.1735251E+04  0.7818609E-02  0.8741511E-01
        1   -1    0    0  501    0  0.00000000000E+00  0.00000000000E+00  0.41148499899E+03  0.41148499902E+03  0.50400001928E-02 0.  1.
       -1   -1    0    0    0  501  0.00000000000E+00  0.00000000000E+00 -0.18294074213E+04  0.18294074213E+04  0.50400001928E-02 0. -1.
    10030    2    1    2    0    0  0.00000000000E+00  0.00000000000E+00 -0.14179224224E+04  0.22408924204E+04  0.17352506574E+04 0.  0.
        3    1    3    3  502    0  0.85706672520E+02 -0.49506133588E+03  0.20450485377E+03  0.54245147747E+03  0.10100000352E+00 0.  1.
       -3    1    3    3    0  502 -0.85706672520E+02  0.49506133588E+03 -0.16224272761E+04  0.16984409429E+04  0.10100000352E+00 0. -1.
</event>
<event>
 5   0  0.1210633E-04  0.2014887E+04  0.7818609E-02  0.8599692E-01
       -1   -1    0    0    0  501  0.00000000000E+00  0.00000000000E+00  0.82876398294E+03  0.82876398295E+03  0.50400001928E-02 0.  1.
        1   -1    0    0  501    0  0.00000000000E+00  0.00000000000E+00 -0.12246457904E+04  0.12246457904E+04  0.50400001928E-02 0. -1.
    10030    2    1    2    0    0  0.00000000000E+00  0.00000000000E+00 -0.39588180748E+03  0.20534097734E+04  0.20148869179E+04 0.  0.
        2    1    3    3  502    0 -0.30570383253E+03  0.95943525722E+03 -0.22970534320E+03  0.10328288293E+04  0.25500000920E-02 0. -1.
       -2    1    3    3    0  502  0.30570383253E+03 -0.95943525722E+03 -0.16617646428E+03  0.10205809440E+04  0.25500000920E-02 0.  1.
</event>
<event>
 5   0  0.2421737E-04  0.1978910E+04  0.7818609E-02  0.8616545E-01
        2   -1    0    0  501    0  0.00000000000E+00  0.00000000000E+00  0.18721076068E+04  0.18721076068E+04  0.25500000920E-02 0. -1.
       -2   -1    0    0    0  501  0.00000000000E+00  0.00000000000E+00 -0.52295138081E+03  0.52295138082E+03  0.25500000920E-02 0.  1.
    10030    2    1    2    0    0  0.00000000000E+00  0.00000000000E+00  0.13491562260E+04  0.23950589876E+04  0.19789100617E+04 0.  0.
        1    1    3    3  502    0  0.90960605437E+03 -0.32946444885E+03  0.42334044242E+03  0.10560052686E+04  0.50400001928E-02 0.  1.
       -1    1    3    3    0  502 -0.90960605437E+03  0.32946444885E+03  0.92581578359E+03  0.13390537190E+04  0.50400001928E-02 0. -1.
</event>
<event>
 5   0  0.2488886E-04  0.2049278E+04  0.7818609E-02  0.8583922E-01
       -2   -1    0    0    0  501  0.00000000000E+00  0.00000000000E+00  0.43755382533E+03  0.43755382534E+03  0.25500000920E-02 0. -1.
        2   -1    0    0  501    0  0.00000000000E+00  0.00000000000E+00 -0.23994422852E+04  0.23994422852E+04  0.25500000920E-02 0.  1.
    10030    2    1    2    0    0  0.00000000000E+00  0.00000000000E+00 -0.19618884599E+04  0.28369961106E+04  0.20492780686E+04 0.  0.
        3    1    3    3  502    0  0.77172986664E+03 -0.55555109760E+03 -0.45254825491E+03  0.10530925611E+04  0.10100000352E+00 0. -1.
       -3    1    3    3    0  502 -0.77172986664E+03  0.55555109760E+03 -0.15093402050E+04  0.17839035494E+04  0.10100000352E+00 0.  1.
</event>
<event>
 5   0  0.1231056E-04  0.1944040E+04  0.7818609E-02  0.8633240E-01
        1   -1    0    0  501    0  0.00000000000E+00  0.00000000000E+00  0.12622825301E+04  0.12622825301E+04  0.50400001928E-02 0. -1.
       -1   -1    0    0    0  501  0.00000000000E+00  0.00000000000E+00 -0.74850336449E+03  0.74850336450E+03  0.50400001928E-02 0.  1.
    10030    2    1    2    0    0  0.00000000000E+00  0.00000000000E+00  0.51377916562E+03  0.20107858946E+04  0.19440398357E+04 0.  0.
        3    1    3    3  502    0  0.60911742056E+01 -0.75965781385E+03  0.88409644380E+03  0.11656515898E+04  0.10100000352E+00 0. -1.
       -3    1    3    3    0  502 -0.60911742056E+01  0.75965781385E+03 -0.37031727818E+03  0.84513430487E+03  0.10100000352E+00 0.  1.
</event>
<event>
 5   0  0.2540506E-04  0.2065662E+04  0.7818609E-02  0.8576522E-01
        2   -1    0    0  501    0  0.00000000000E+00  0.00000000000E+00  0.10624787296E+04  0.10624787296E+04  0.25500000920E-02 0. -1.
       -2   -1    0    0    0  501  0.00000000000E+00  0.00000000000E+00 -0.10040102527E+04  0.10040102527E+04  0.25500000920E-02 0.  1.
    10030    2    1    2    0    0  0.00000000000E+00  0.00000000000E+00  0.58468476935E+02  0.20664889824E+04  0.20656616740E+04 0.  0.
        4    1    3    3  502    0  0.46715019168E+03 -0.11743405617E+03 -0.88476062885E+03  0.10073842576E+04  0.12699999809E+01 0.  1.
       -4    1    3    3    0  502 -0.46715019168E+03  0.11743405617E+03  0.94322910579E+03  0.10591047248E+04  0.12699999809E+01 0. -1.
</event>
<event>
 5   0  0.1231056E-04  0.2031049E+04  0.7818609E-02  0.8592240E-01
        1   -1    0    0  501    0  0.00000000000E+00  0.00000000000E+00  0.55396377855E+03  0.55396377858E+03  0.50400001928E-02 0.  1.
       -1   -1    0    0    0  501  0.00000000000E+00  0.00000000000E+00 -0.18616565643E+04  0.18616565643E+04  0.50400001928E-02 0. -1.
    10030    2    1    2    0    0  0.00000000000E+00  0.00000000000E+00 -0.13076927858E+04  0.24156203429E+04  0.20310492902E+04 0.  0.
        3    1    3    3  502    0 -0.68165043108E+03  0.39522347332E+03  0.10811644444E+03  0.79532262624E+03  0.10100000352E+00 0.  1.
       -3    1    3    3    0  502  0.68165043108E+03 -0.39522347332E+03 -0.14158092302E+04  0.16202977167E+04  0.10100000352E+00 0. -1.
</event>
<event>
 5   0  0.1231056E-04  0.2043084E+04  0.7818609E-02  0.8586738E-01
       -1   -1    0    0    0  501  0.00000000000E+00  0.00000000000E+00  0.52065315038E+03  0.52065315041E+03  0.50400001928E-02 0. -1.
        1   -1    0    0  501    0  0.00000000000E+00  0.00000000000E+00 -0.20043062100E+04  0.20043062100E+04  0.50400001928E-02 0.  1.
    10030    2    1    2    0    0  0.00000000000E+00  0.00000000000E+00 -0.14836530596E+04  0.25249593604E+04  0.20430842788E+04 0.  0.
        3    1    3    3  502    0 -0.62524196077E+03  0.73564632458E+03 -0.32925523797E+03  0.10200549232E+04  0.10100000352E+00 0. -1.
       -3    1    3    3    0  502  0.62524196077E+03 -0.73564632458E+03 -0.11543978217E+04  0.15049044373E+04  0.10100000352E+00 0.  1.
</event>
<event>
 5   0  0.2488886E-04  0.1964587E+04  0.7818609E-02  0.8623359E-01
        2   -1    0    0  501    0  0.00000000000E+00  0.00000000000E+00  0.13852247537E+04  0.13852247537E+04  0.25500000920E-02 0.  1.
       -2   -1    0    0    0  501  0.00000000000E+00  0.00000000000E+00 -0.69656591873E+03  0.69656591873E+03  0.25500000920E-02 0. -1.
    10030    2    1    2    0    0  0.00000000000E+00  0.00000000000E+00  0.68865883493E+03  0.20817906724E+04  0.19645868300E+04 0.  0.
        3    1    3    3  502    0  0.55817738668E+03 -0.76244877733E+03  0.59973108388E+02  0.94682993034E+03  0.10100000352E+00 0. -1.
       -3    1    3    3    0  502 -0.55817738668E+03  0.76244877733E+03  0.62868572654E+03  0.11349607421E+04  0.10100000352E+00 0.  1.
</event>
<event>
 5   0  0.1258546E-04  0.2002811E+04  0.7818609E-02  0.8605308E-01
        1   -1    0    0  501    0  0.00000000000E+00  0.00000000000E+00  0.12962790809E+04  0.12962790809E+04  0.50400001928E-02 0.  1.
       -1   -1    0    0    0  501  0.00000000000E+00  0.00000000000E+00 -0.77360864712E+03  0.77360864713E+03  0.50400001928E-02 0. -1.
    10030    2    1    2    0    0  0.00000000000E+00  0.00000000000E+00  0.52267043378E+03  0.20698877280E+04  0.20028107310E+04 0.  0.
        4    1    3    3  502    0  0.64690415366E+03 -0.50648185755E+03 -0.33038013436E+03  0.88552893918E+03  0.12699999809E+01 0. -1.
       -4    1    3    3    0  502 -0.64690415366E+03  0.50648185755E+03  0.85305056814E+03  0.11843587889E+04  0.12699999809E+01 0.  1.
</event>
<event>
 5   0  0.1231056E-04  0.1756563E+04  0.7818609E-02  0.8729746E-01
        1   -1    0    0  501    0  0.00000000000E+00  0.00000000000E+00  0.53307379383E+03  0.53307379385E+03  0.50400001928E-02 0. -1.
       -1   -1    0    0    0  501  0.00000000000E+00  0.00000000000E+00 -0.14470393218E+04  0.14470393218E+04  0.50400001928E-02 0.  1.
    10030    2    1    2    0    0  0.00000000000E+00  0.00000000000E+00 -0.91396552792E+03  0.19801131156E+04  0.17565633961E+04 0.  0.
        3    1    3    3  502    0 -0.28825491592E+03  0.79223017040E+03 -0.17934759395E+03  0.86190783098E+03  0.10100000352E+00 0. -1.
       -3    1    3    3    0  502  0.28825491592E+03 -0.79223017040E+03 -0.73461793398E+03  0.11182052846E+04  0.10100000352E+00 0.  1.
</event>
<event>
 5   0  0.2463085E-04  0.2035525E+04  0.7818609E-02  0.8590189E-01
        2   -1    0    0  501    0  0.00000000000E+00  0.00000000000E+00  0.15990814653E+04  0.15990814653E+04  0.25500000920E-02 0.  1.
       -2   -1    0    0    0  501  0.00000000000E+00  0.00000000000E+00 -0.64777217571E+03  0.64777217571E+03  0.25500000920E-02 0. -1.
    10030    2    1    2    0    0  0.00000000000E+00  0.00000000000E+00  0.95130928963E+03  0.22468536411E+04  0.20355249740E+04 0.  0.
        2    1    3    3  502    0  0.86284961240E+02  0.99817633192E+03  0.67323351934E+03  0.12070809649E+04  0.25500000920E-02 0.  1.
       -2    1    3    3    0  502 -0.86284961240E+02 -0.99817633192E+03  0.27807577029E+03  0.10397726762E+04  0.25500000920E-02 0. -1.
</event>
<event>
 5   0  0.1258546E-04  0.1975134E+04  0.7818609E-02  0.8618335E-01
        1   -1    0    0  501    0  0.00000000000E+00  0.00000000000E+00  0.21613299978E+04  0.21613299978E+04  0.50400001928E-02 0. -1.
       -1   -1    0    0    0  501  0.00000000000E+00  0.00000000000E+00 -0.45124480806E+03  0.45124480809E+03  0.50400001928E-02 0.  1.
    10030    2    1    2    0    0  0.00000000000E+00  0.00000000000E+00  0.17100851897E+04  0.26125748059E+04  0.19751343651E+04 0.  0.
        4    1    3    3  502    0 -0.21752974634E+03  0.43187923036E+03 -0.28392816531E+03  0.56076347608E+03  0.12699999809E+01 0.  1.
       -4    1    3    3    0  502  0.21752974634E+03 -0.43187923036E+03  0.19940133550E+04  0.20518113298E+04  0.12699999809E+01 0. -1.
</event>
<event>
 5   0  0.2421737E-04  0.2009068E+04  0.7818609E-02  0.8602393E-01
        2   -1    0    0  501    0  0.00000000000E+00  0.00000000000E+00  0.12418809741E+04  0.12418809741E+04  0.25500000920E-02 0. -1.
       -2   -1    0    0    0  501  0.00000000000E+00  0.00000000000E+00 -0.81254831038E+03  0.81254831039E+03  0.25500000920E-02 0.  1.
    10030    2    1    2    0    0  0.00000000000E+00  0.00000000000E+00  0.42933266376E+03  0.20544292845E+04  0.20090677313E+04 0.  0.
        1    1    3    3  502    0  0.18085033117E+03  0.93288924274E+03 -0.11841667794E+03  0.95760727396E+03  0.50400001928E-02 0.  1.
       -1    1    3    3    0  502 -0.18085033117E+03 -0.93288924274E+03  0.54774934170E+03  0.10968220106E+04  0.50400001928E-02 0. -1.
</event>
<event>
 5   0  0.9099125E-05  0.1993966E+04  0.7818609E-02  0.8609447E-01
        4   -1    0    0  501    0  0.00000000000E+00  0.00000000000E+00  0.11849597454E+04  0.11849604259E+04  0.12699999809E+01 0. -1.
       -4   -1    0    0    0  501  0.00000000000E+00  0.00000000000E+00 -0.83882457475E+03  0.83882553616E+03  0.12699999809E+01 0.  1.
    10030    2    1    2    0    0  0.00000000000E+00  0.00000000000E+00  0.34613517060E+03  0.20237859621E+04  0.19939659134E+04 0.  0.
        5    1    3    3  502    0  0.18322207399E+03  0.90862886446E+03 -0.19954148930E+03  0.94816435162E+03  0.46999998093E+01 0. -1.
       -5    1    3    3    0  502 -0.18322207399E+03 -0.90862886446E+03  0.54567665991E+03  0.10756216105E+04  0.46999998093E+01 0.  1.
</event>
<event>
 5   0  0.1258546E-04  0.1987359E+04  0.7818609E-02  0.8612554E-01
        1   -1    0    0  501    0  0.00000000000E+00  0.00000000000E+00  0.16898945022E+04  0.16898945022E+04  0.50400001928E-02 0. -1.
       -1   -1    0    0    0  501  0.00000000000E+00  0.00000000000E+00 -0.58429617018E+03  0.58429617020E+03  0.50400001928E-02 0.  1.
    10030    2    1    2    0    0  0.00000000000E+00  0.00000000000E+00  0.11055983320E+04  0.22741906724E+04  0.19873589366E+04 0.  0.
        4    1    3    3  502    0  0.31760125044E+03  0.86129589035E+03  0.11750886906E+03  0.92547885564E+03  0.12699999809E+01 0. -1.
       -4    1    3    3    0  502 -0.31760125044E+03 -0.86129589035E+03  0.98808946299E+03  0.13487118168E+04  0.12699999809E+01 0.  1.
</event>
<event>
 5   0  0.2488886E-04  0.2025146E+04  0.7818609E-02  0.8594954E-01
       -2   -1    0    0    0  501  0.00000000000E+00  0.00000000000E+00  0.13809560274E+04  0.13809560274E+04  0.25500000920E-02 0.  1.
        2   -1    0    0  501    0  0.00000000000E+00  0.00000000000E+00 -0.74245935956E+03  0.74245935956E+03  0.25500000920E-02 0. -1.
    10030    2    1    2    0    0  0.00000000000E+00  0.00000000000E+00  0.63849666784E+03  0.21234153870E+04  0.20251456517E+04 0.  0.
        3    1    3    3  502    0  0.53506505665E+03 -0.54131959702E+03  0.10194730841E+04  0.12722605474E+04  0.10100000352E+00 0.  1.
       -3    1    3    3    0  502 -0.53506505665E+03  0.54131959702E+03 -0.38097641629E+03  0.85115483958E+03  0.10100000352E+00 0. -1.
</event>
<event>
 5   0  0.1231056E-04  0.2008011E+04  0.7818609E-02  0.8602885E-01
       -1   -1    0    0    0  501  0.00000000000E+00  0.00000000000E+00  0.54990697930E+03  0.54990697932E+03  0.50400001928E-02 0.  1.
        1   -1    0    0  501    0  0.00000000000E+00  0.00000000000E+00 -0.18330856275E+04  0.18330856275E+04  0.50400001928E-02 0. -1.
    10030    2    1    2    0    0  0.00000000000E+00  0.00000000000E+00 -0.12831786482E+04  0.23829926068E+04  0.20080105381E+04 0.  0.
        3    1    3    3  502    0 -0.67222614337E+03 -0.40024230753E+02  0.24214522102E+03  0.71562856646E+03  0.10100000352E+00 0.  1.
       -3    1    3    3    0  502  0.67222614337E+03  0.40024230753E+02 -0.15253238692E+04  0.16673640404E+04  0.10100000352E+00 0. -1.
</event>
<event>
 5   0  0.2463085E-04  0.1998438E+04  0.7818609E-02  0.8607352E-01
       -2   -1    0    0    0  501  0.00000000000E+00  0.00000000000E+00  0.54571939754E+03  0.54571939755E+03  0.25500000920E-02 0.  1.
        2   -1    0    0  501    0  0.00000000000E+00  0.00000000000E+00 -0.18295815295E+04  0.18295815295E+04  0.25500000920E-02 0. -1.
    10030    2    1    2    0    0  0.00000000000E+00  0.00000000000E+00 -0.12838621320E+04  0.23753009271E+04  0.19984375197E+04 0.  0.
        2    1    3    3  502    0  0.71911886030E+03 -0.46571221038E+03 -0.30744437724E+02  0.85730100816E+03  0.25500000920E-02 0.  1.
       -2    1    3    3    0  502 -0.71911886030E+03  0.46571221038E+03 -0.12531176942E+04  0.15179999189E+04  0.25500000920E-02 0. -1.
</event>
<event>
 5   0  0.2488886E-04  0.1989464E+04  0.7818609E-02  0.8611563E-01
        2   -1    0    0  501    0  0.00000000000E+00  0.00000000000E+00  0.15090153733E+04  0.15090153734E+04  0.25500000920E-02 0. -1.
       -2   -1    0    0    0  501  0.00000000000E+00  0.00000000000E+00 -0.65572007084E+03  0.65572007084E+03  0.25500000920E-02 0.  1.
    10030    2    1    2    0    0  0.00000000000E+00  0.00000000000E+00  0.85329530251E+03  0.21647354442E+04  0.19894639152E+04 0.  0.
        3    1    3    3  502    0 -0.32717319049E+02 -0.15651465650E+03 -0.64164501718E+03  0.66126817475E+03  0.10100000352E+00 0.  1.
       -3    1    3    3    0  502  0.32717319049E+02  0.15651465650E+03  0.14949403197E+04  0.15034672694E+04  0.10100000352E+00 0. -1.
</event>
<event>
 5   0  0.2463085E-04  0.2036917E+04  0.7818609E-02  0.8589552E-01
        2   -1    0    0  501    0  0.00000000000E+00  0.00000000000E+00  0.94280328499E+03  0.94280328499E+03  0.25500000920E-02 0. -1.
       -2   -1    0    0    0  501  0.00000000000E+00  0.00000000000E+00 -0.11001851881E+04  0.11001851881E+04  0.25500000920E-02 0.  1.
    10030    2    1    2    0    0  0.00000000000E+00  0.00000000000E+00 -0.15738190309E+03  0.20429884731E+04  0.20369174843E+04 0.  0.
        2    1    3    3  502    0  0.36700079293E+03 -0.35606763764E+03 -0.96210239260E+03  0.10895479606E+04  0.25500000920E-02 0.  1.
       -2    1    3    3    0  502 -0.36700079293E+03  0.35606763764E+03  0.80472048951E+03  0.95344051247E+03  0.25500000920E-02 0. -1.
</event>
<event>
 5   0  0.2463085E-04  0.1981184E+04  0.7818609E-02  0.8615468E-01
       -2   -1    0    0    0  501  0.00000000000E+00  0.00000000000E+00  0.88951163298E+03  0.88951163298E+03  0.25500000920E-02 0. -1.
        2   -1    0    0  501    0  0.00000000000E+00  0.00000000000E+00 -0.11031589663E+04  0.11031589663E+04  0.25500000920E-02 0.  1.
    10030    2    1    2    0    0  0.00000000000E+00  0.00000000000E+00 -0.21364733333E+03  0.19926705993E+04  0.19811842252E+04 0.  0.
        2    1    3    3  502    0 -0.22434716367E+03  0.94719359876E+03 -0.29164257872E+03  0.10161509519E+04  0.25500000920E-02 0. -1.
       -2    1    3    3    0  502  0.22434716367E+03 -0.94719359876E+03  0.77995245386E+02  0.97651964736E+03  0.25500000920E-02 0.  1.
</event>
<event>
 5   0  0.1324930E-04  0.1973749E+04  0.7818609E-02  0.8618993E-01
       -1   -1    0    0    0  501  0.00000000000E+00  0.00000000000E+00  0.56797539437E+03  0.56797539439E+03  0.50400001928E-02 0.  1.
        1   -1    0    0  501    0  0.00000000000E+00  0.00000000000E+00 -0.17147249221E+04  0.17147249221E+04  0.50400001928E-02 0. -1.
    10030    2    1    2    0    0  0.00000000000E+00  0.00000000000E+00 -0.11467495277E+04  0.22827003165E+04  0.19737492889E+04 0.  0.
        5    1    3    3  502    0  0.45207887990E+02 -0.50477134261E+03 -0.15527184983E+04  0.16333385094E+04  0.46999998093E+01 0. -1.
       -5    1    3    3    0  502 -0.45207887990E+02  0.50477134261E+03  0.40596897054E+03  0.64936180709E+03  0.46999998093E+01 0.  1.
</event>
<event>
 5   0  0.1258546E-04  0.1975826E+04  0.7818609E-02  0.8618007E-01
       -1   -1    0    0    0  501  0.00000000000E+00  0.00000000000E+00  0.10733751641E+04  0.10733751641E+04  0.50400001928E-02 0. -1.
        1   -1    0    0  501    0  0.00000000000E+00  0.00000000000E+00 -0.90925514036E+03  0.90925514037E+03  0.50400001928E-02 0.  1.
    10030    2    1    2    0    0  0.00000000000E+00  0.00000000000E+00  0.16412002377E+03  0.19826303045E+04  0.19758257874E+04 0.  0.
        4    1    3    3  502    0  0.41695377820E+03  0.89560424080E+03  0.85658914025E+02  0.99161306554E+03  0.12699999809E+01 0. -1.
       -4    1    3    3    0  502 -0.41695377820E+03 -0.89560424080E+03  0.78461109743E+02  0.99101723897E+03  0.12699999809E+01 0.  1.
</event>
<event>
 5   0  0.2463085E-04  0.2001876E+04  0.7818609E-02  0.8605744E-01
        2   -1    0    0  501    0  0.00000000000E+00  0.00000000000E+00  0.85929290094E+03  0.85929290094E+03  0.25500000920E-02 0.  1.
       -2   -1    0    0    0  501  0.00000000000E+00  0.00000000000E+00 -0.11659312407E+04  0.11659312407E+04  0.25500000920E-02 0. -1.
    10030    2    1    2    0    0  0.00000000000E+00  0.00000000000E+00 -0.30663833972E+03  0.20252241416E+04  0.20018755587E+04 0.  0.
        2    1    3    3  502    0  0.44266793424E+03  0.75135195921E+03 -0.65036593245E+03  0.10878697131E+04  0.25500000920E-02 0. -1.
       -2    1    3    3    0  502 -0.44266793424E+03 -0.75135195921E+03  0.34372759273E+03  0.93735442849E+03  0.25500000920E-02 0.  1.
</event>
<event>
 5   0  0.2463085E-04  0.1986281E+04  0.7818609E-02  0.8613062E-01
       -2   -1    0    0    0  501  0.00000000000E+00  0.00000000000E+00  0.51565359025E+03  0.51565359025E+03  0.25500000920E-02 0. -1.
        2   -1    0    0  501    0  0.00000000000E+00  0.00000000000E+00 -0.19127732677E+04  0.19127732677E+04  0.25500000920E-02 0.  1.
    10030    2    1    2    0    0  0.00000000000E+00  0.00000000000E+00 -0.13971196775E+04  0.24284268580E+04  0.19862813525E+04 0.  0.
        2    1    3    3  502    0  0.21447711186E+03  0.28302535796E+03  0.43538047510E+03  0.56183622424E+03  0.25500000920E-02 0. -1.
       -2    1    3    3    0  502 -0.21447711186E+03 -0.28302535796E+03 -0.18325001526E+04  0.18665906337E+04  0.25500000920E-02 0.  1.
</event>
<event>
 5   0  0.9099125E-05  0.2010090E+04  0.7818609E-02  0.8601918E-01
       -3   -1    0    0    0  501  0.00000000000E+00  0.00000000000E+00  0.10040767563E+04  0.10040767614E+04  0.10100000352E+00 0.  1.
        3   -1    0    0  501    0  0.00000000000E+00  0.00000000000E+00 -0.10060142559E+04  0.10060142609E+04  0.10100000352E+00 0. -1.
    10030    2    1    2    0    0  0.00000000000E+00  0.00000000000E+00 -0.19374995762E+01  0.20100910223E+04  0.20100900885E+04 0.  0.
        5    1    3    3  502    0 -0.14785769273E+03  0.46680452990E+02 -0.99397096787E+03  0.10060026526E+04  0.46999998093E+01 0. -1.
       -5    1    3    3    0  502  0.14785769273E+03 -0.46680452990E+02  0.99203346829E+03  0.10040883697E+04  0.46999998093E+01 0.  1.
</event>
<event>
 5   0  0.2488886E-04  0.2045188E+04  0.7818609E-02  0.8585781E-01
        2   -1    0    0  501    0  0.00000000000E+00  0.00000000000E+00  0.12236621019E+04  0.12236621019E+04  0.25500000920E-02 0. -1.
       -2   -1    0    0    0  501  0.00000000000E+00  0.00000000000E+00 -0.85456442804E+03  0.85456442804E+03  0.25500000920E-02 0.  1.
    10030    2    1    2    0    0  0.00000000000E+00  0.00000000000E+00  0.36909767390E+03  0.20782265300E+04  0.20451876239E+04 0.  0.
        3    1    3    3  502    0  0.71772565532E+03  0.38677164353E+03  0.81175216097E+03  0.11505059763E+04  0.10100000352E+00 0.  1.
       -3    1    3    3    0  502 -0.71772565532E+03 -0.38677164353E+03 -0.44265448707E+03  0.92772055365E+03  0.10100000352E+00 0. -1.
</event>
<event>
 5   0  0.9099125E-05  0.1863547E+04  0.7818609E-02  0.8673217E-01
        4   -1    0    0  501    0  0.00000000000E+00  0.00000000000E+00  0.65998464391E+03  0.65998586583E+03  0.12699999809E+01 0.  1.
       -4   -1    0    0    0  501  0.00000000000E+00  0.00000000000E+00 -0.13154854354E+04  0.13154860485E+04  0.12699999809E+01 0. -1.
    10030    2    1    2    0    0  0.00000000000E+00  0.00000000000E+00 -0.65550079151E+03  0.19754719143E+04  0.18635471543E+04 0.  0.
        4    1    3    3  502    0 -0.56338259628E+03 -0.69073445433E+03 -0.39994655690E+02  0.89225289104E+03  0.12699999809E+01 0. -1.
       -4    1    3    3    0  502  0.56338259628E+03  0.69073445433E+03 -0.61550613582E+03  0.10832190232E+04  0.12699999809E+01 0.  1.
</event>
<event>
 5   0  0.1207228E-04  0.1980482E+04  0.7818609E-02  0.8615801E-01
        1   -1    0    0  501    0  0.00000000000E+00  0.00000000000E+00  0.12529423998E+04  0.12529423998E+04  0.50400001928E-02 0.  1.
       -1   -1    0    0    0  501  0.00000000000E+00  0.00000000000E+00 -0.78261953819E+03  0.78261953820E+03  0.50400001928E-02 0. -1.
    10030    2    1    2    0    0  0.00000000000E+00  0.00000000000E+00  0.47032286164E+03  0.20355619380E+04  0.19804819639E+04 0.  0.
        1    1    3    3  502    0 -0.22929586236E+03  0.27446349751E+03  0.11842440563E+04  0.12370694358E+04  0.50400001928E-02 0.  1.
       -1    1    3    3    0  502  0.22929586236E+03 -0.27446349751E+03 -0.71392119467E+03  0.79849250228E+03  0.50400001928E-02 0. -1.
</event>
<event>
 5   0  0.2463085E-04  0.1970565E+04  0.7818609E-02  0.8620507E-01
       -2   -1    0    0    0  501  0.00000000000E+00  0.00000000000E+00  0.87803422491E+03  0.87803422492E+03  0.25500000920E-02 0. -1.
        2   -1    0    0  501    0  0.00000000000E+00  0.00000000000E+00 -0.11056306816E+04  0.11056306816E+04  0.25500000920E-02 0.  1.
    10030    2    1    2    0    0  0.00000000000E+00  0.00000000000E+00 -0.22759645669E+03  0.19836649065E+04  0.19705649734E+04 0.  0.
        2    1    3    3  502    0 -0.58126328610E+03 -0.40710401252E+03 -0.80184836876E+03  0.10707761163E+04  0.25500000920E-02 0.  1.
       -2    1    3    3    0  502  0.58126328610E+03  0.40710401252E+03  0.57425191206E+03  0.91288879021E+03  0.25500000920E-02 0. -1.
</event>
<event>
 5   0  0.2488886E-04  0.2217588E+04  0.7818609E-02  0.8511143E-01
        2   -1    0    0  501    0  0.00000000000E+00  0.00000000000E+00  0.12844347875E+04  0.12844347875E+04  0.25500000920E-02 0. -1.
       -2   -1    0    0    0  501  0.00000000000E+00  0.00000000000E+00 -0.95717135798E+03  0.95717135798E+03  0.25500000920E-02 0.  1.
    10030    2    1    2    0    0  0.00000000000E+00  0.00000000000E+00  0.32726342955E+03  0.22416061455E+04  0.22175880500E+04 0.  0.
        3    1    3    3  502    0 -0.99651738681E+03  0.48149891051E+03  0.95551859218E+02  0.11108637500E+04  0.10100000352E+00 0. -1.
       -3    1    3    3    0  502  0.99651738681E+03 -0.48149891051E+03  0.23171157033E+03  0.11307423955E+04  0.10100000352E+00 0.  1.
</event>
<event>
 5   0  0.9099125E-05  0.1950477E+04  0.7818609E-02  0.8630131E-01
       -4   -1    0    0    0  501  0.00000000000E+00  0.00000000000E+00  0.14479063717E+04  0.14479069287E+04  0.12699999809E+01 0. -1.
        4   -1    0    0  501    0  0.00000000000E+00  0.00000000000E+00 -0.65687137624E+03  0.65687260395E+03  0.12699999809E+01 0.  1.
    10030    2    1    2    0    0  0.00000000000E+00  0.00000000000E+00  0.79103499543E+03  0.21047795326E+04  0.19504769973E+04 0.  0.
        2    1    3    3  502    0 -0.26211831227E+02 -0.43796555320E+03  0.13353903797E+04  0.14056202730E+04  0.25500000920E-02 0. -1.
       -2    1    3    3    0  502  0.26211831227E+02  0.43796555320E+03 -0.54435538423E+03  0.69915925956E+03  0.25500000920E-02 0.  1.
</event>
<event>
 5   0  0.1324930E-04  0.1998512E+04  0.7818609E-02  0.8607317E-01
       -1   -1    0    0    0  501  0.00000000000E+00  0.00000000000E+00  0.69393705868E+03  0.69393705869E+03  0.50400001928E-02 0.  1.
        1   -1    0    0  501    0  0.00000000000E+00  0.00000000000E+00 -0.14389094550E+04  0.14389094550E+04  0.50400001928E-02 0. -1.
    10030    2    1    2    0    0  0.00000000000E+00  0.00000000000E+00 -0.74497239631E+03  0.21328465137E+04  0.19985120414E+04 0.  0.
        5    1    3    3  502    0 -0.81942185973E+03 -0.32924602936E+03  0.12652816697E+03  0.89212476654E+03  0.46999998093E+01 0.  1.
       -5    1    3    3    0  502  0.81942185973E+03  0.32924602936E+03 -0.87150056328E+03  0.12407217471E+04  0.46999998093E+01 0. -1.
</event>
<event>
 5   0  0.2540506E-04  0.1952756E+04  0.7818609E-02  0.8629033E-01
       -2   -1    0    0    0  501  0.00000000000E+00  0.00000000000E+00  0.61370723810E+03  0.61370723810E+03  0.25500000920E-02 0. -1.
        2   -1    0    0  501    0  0.00000000000E+00  0.00000000000E+00 -0.15533695361E+04  0.15533695361E+04  0.25500000920E-02 0.  1.
    10030    2    1    2    0    0  0.00000000000E+00  0.00000000000E+00 -0.93966229803E+03  0.21670767742E+04  0.19527561320E+04 0.  0.
        4    1    3    3  502    0 -0.46849542289E+03 -0.70540484736E+03 -0.10092082242E+04  0.13174167194E+04  0.12699999809E+01 0.  1.
       -4    1    3    3    0  502  0.46849542289E+03  0.70540484736E+03  0.69545926185E+02  0.84966005479E+03  0.12699999809E+01 0. -1.
</event>
<event>
 5   0  0.1231056E-04  0.2006525E+04  0.7818609E-02  0.8603576E-01
       -1   -1    0    0    0  501  0.00000000000E+00  0.00000000000E+00  0.67881296849E+03  0.67881296851E+03  0.50400001928E-02 0.  1.
        1   -1    0    0  501    0  0.00000000000E+00  0.00000000000E+00 -0.14827878870E+04  0.14827878870E+04  0.50400001928E-02 0. -1.
    10030    2    1    2    0    0  0.00000000000E+00  0.00000000000E+00 -0.80397491853E+03  0.21616008555E+04  0.20065250034E+04 0.  0.
        3    1    3    3  502    0  0.48806752757E+03 -0.87380148623E+03 -0.47659825554E+03  0.11085507910E+04  0.10100000352E+00 0. -1.
       -3    1    3    3    0  502 -0.48806752757E+03  0.87380148623E+03 -0.32737666299E+03  0.10530500646E+04  0.10100000352E+00 0.  1.
</event>
<event>
 5   0  0.1210633E-04  0.1960479E+04  0.7818609E-02  0.8625324E-01
        1   -1    0    0  501    0  0.00000000000E+00  0.00000000000E+00  0.10745307240E+04  0.10745307240E+04  0.50400001928E-02 0. -1.
       -1   -1    0    0    0  501  0.00000000000E+00  0.00000000000E+00 -0.89422209566E+03  0.89422209567E+03  0.50400001928E-02 0.  1.
    10030    2    1    2    0    0  0.00000000000E+00  0.00000000000E+00  0.18030862831E+03  0.19687528197E+04  0.19604786312E+04 0.  0.
        2    1    3    3  502    0  0.82333635157E+03  0.18735473752E+03 -0.40982706204E+03  0.93858551357E+03  0.25500000920E-02 0.  1.
       -2    1    3    3    0  502 -0.82333635157E+03 -0.18735473752E+03  0.59013569035E+03  0.10301673061E+04  0.25500000920E-02 0. -1.
</event>
<event>
 5   0  0.2463085E-04  0.2011234E+04  0.7818609E-02  0.8601386E-01
        2   -1    0    0  501    0  0.00000000000E+00  0.00000000000E+00  0.64047008511E+03  0.64047008512E+03  0.25500000920E-02 0.  1.
       -2   -1    0    0    0  501  0.00000000000E+00  0.00000000000E+00 -0.15789431579E+04  0.15789431579E+04  0.25500000920E-02 0. -1.
    10030    2    1    2    0    0  0.00000000000E+00  0.00000000000E+00 -0.93847307282E+03  0.22194132431E+04  0.20112343064E+04 0.  0.
        2    1    3    3  502    0  0.19262934597E+03  0.73846031537E+03 -0.11918752136E+04  0.14152724922E+04  0.25500000920E-02 0. -1.
       -2    1    3    3    0  502 -0.19262934597E+03 -0.73846031537E+03  0.25340214076E+03  0.80414075090E+03  0.25500000920E-02 0.  1.
</event>
<event>
 5   0  0.2488886E-04  0.2093616E+04  0.7818609E-02  0.8564061E-01
       -2   -1    0    0    0  501  0.00000000000E+00  0.00000000000E+00  0.55481942580E+03  0.55481942581E+03  0.25500000920E-02 0.  1.
        2   -1    0    0  501    0  0.00000000000E+00  0.00000000000E+00 -0.19750703805E+04  0.19750703805E+04  0.25500000920E-02 0. -1.
    10030    2    1    2    0    0  0.00000000000E+00  0.00000000000E+00 -0.14202509547E+04  0.25298898064E+04  0.20936164066E+04 0.  0.
        3    1    3    3  502    0  0.18008601246E+03  0.81291337588E+03 -0.14768043181E+04  0.16953495607E+04  0.10100000352E+00 0. -1.
       -3    1    3    3    0  502 -0.18008601246E+03 -0.81291337588E+03  0.56553363396E+02  0.83454024569E+03  0.10100000352E+00 0.  1.
</event>
<event>
 5   0  0.1258546E-04  0.1980625E+04  0.7818609E-02  0.8615733E-01
       -1   -1    0    0    0  501  0.00000000000E+00  0.00000000000E+00  0.87128013842E+03  0.87128013844E+03  0.50400001928E-02 0. -1.
        1   -1    0    0  501    0  0.00000000000E+00  0.00000000000E+00 -0.11256072171E+04  0.11256072171E+04  0.50400001928E-02 0.  1.
    10030    2    1    2    0    0  0.00000000000E+00  0.00000000000E+00 -0.25432707869E+03  0.19968873556E+04  0.19806253679E+04 0.  0.
        4    1    3    3  502    0 -0.36216318709E+03 -0.51803501075E+03  0.64145741748E+03  0.90055076358E+03  0.12699999809E+01 0. -1.
       -4    1    3    3    0  502  0.36216318709E+03  0.51803501075E+03 -0.89578449616E+03  0.10963365920E+04  0.12699999809E+01 0.  1.
</event>
<event>
 5   0  0.2488886E-04  0.1989426E+04  0.7818609E-02  0.8611580E-01
        2   -1    0    0  501    0  0.00000000000E+00  0.00000000000E+00  0.16589922015E+04  0.16589922015E+04  0.25500000920E-02 0. -1.
       -2   -1    0    0    0  501  0.00000000000E+00  0.00000000000E+00 -0.59641887015E+03  0.59641887015E+03  0.25500000920E-02 0.  1.
    10030    2    1    2    0    0  0.00000000000E+00  0.00000000000E+00  0.10625733313E+04  0.22554110716E+04  0.19894263036E+04 0.  0.
        3    1    3    3  502    0  0.28078033270E+03  0.94195295556E+03  0.35808176640E+03  0.10461049313E+04  0.10100000352E+00 0. -1.
       -3    1    3    3    0  502 -0.28078033270E+03 -0.94195295556E+03  0.70449156494E+03  0.12093061403E+04  0.10100000352E+00 0.  1.
</event>
<event>
 5   0  0.1231056E-04  0.2006414E+04  0.7818609E-02  0.8603628E-01
        1   -1    0    0  501    0  0.00000000000E+00  0.00000000000E+00  0.92170274099E+03  0.92170274100E+03  0.50400001928E-02 0. -1.
       -1   -1    0    0    0  501  0.00000000000E+00  0.00000000000E+00 -0.10919182833E+04  0.10919182833E+04  0.50400001928E-02 0.  1.
    10030    2    1    2    0    0  0.00000000000E+00  0.00000000000E+00 -0.17021554230E+03  0.20136210243E+04  0.20064137905E+04 0.  0.
        3    1    3    3  502    0 -0.26002706082E+03 -0.26137848024E+03 -0.10214604255E+04  0.10859623351E+04  0.10100000352E+00 0.  1.
       -3    1    3    3    0  502  0.26002706082E+03  0.26137848024E+03  0.85124488317E+03  0.92765868918E+03  0.10100000352E+00 0. -1.
</event>
<event>
 5   0  0.2463085E-04  0.1987810E+04  0.7818609E-02  0.8612341E-01
       -2   -1    0    0    0  501  0.00000000000E+00  0.00000000000E+00  0.55366145443E+03  0.55366145444E+03  0.25500000920E-02 0.  1.
        2   -1    0    0  501    0  0.00000000000E+00  0.00000000000E+00 -0.17842076554E+04  0.17842076554E+04  0.25500000920E-02 0. -1.
    10030    2    1    2    0    0  0.00000000000E+00  0.00000000000E+00 -0.12305462009E+04  0.23378691098E+04  0.19878098556E+04 0.  0.
        2    1    3    3  502    0  0.94866166029E+03 -0.37727270888E+02 -0.96110480469E+03  0.13509643734E+04  0.25500000920E-02 0. -1.
       -2    1    3    3    0  502 -0.94866166029E+03  0.37727270888E+02 -0.26944139624E+03  0.98690473638E+03  0.25500000920E-02 0.  1.
</event>
<event>
 5   0  0.2488886E-04  0.1963499E+04  0.7818609E-02  0.8623879E-01
       -2   -1    0    0    0  501  0.00000000000E+00  0.00000000000E+00  0.82248920600E+03  0.82248920600E+03  0.25500000920E-02 0. -1.
        2   -1    0    0  501    0  0.00000000000E+00  0.00000000000E+00 -0.11718473280E+04  0.11718473280E+04  0.25500000920E-02 0.  1.
    10030    2    1    2    0    0  0.00000000000E+00  0.00000000000E+00 -0.34935812198E+03  0.19943365340E+04  0.19634986920E+04 0.  0.
        3    1    3    3  502    0 -0.41650243279E+03  0.22969780631E+03 -0.10470018649E+04  0.11499775102E+04  0.10100000352E+00 0.  1.
       -3    1    3    3    0  502  0.41650243279E+03 -0.22969780631E+03  0.69764374292E+03  0.84435902375E+03  0.10100000352E+00 0. -1.
</event>
<event>
 5   0  0.2421737E-04  0.2028344E+04  0.7818609E-02  0.8593482E-01
       -2   -1    0    0    0  501  0.00000000000E+00  0.00000000000E+00  0.57782327076E+03  0.57782327076E+03  0.25500000920E-02 0.  1.
        2   -1    0    0  501    0  0.00000000000E+00  0.00000000000E+00 -0.17800341271E+04  0.17800341271E+04  0.25500000920E-02 0. -1.
    10030    2    1    2    0    0  0.00000000000E+00  0.00000000000E+00 -0.12022108563E+04  0.23578573979E+04  0.20283442917E+04 0.  0.
        1    1    3    3  502    0 -0.31281843102E+03 -0.22274610111E+03 -0.16922493574E+04  0.17352749303E+04  0.50400001928E-02 0. -1.
       -1    1    3    3    0  502  0.31281843102E+03  0.22274610111E+03  0.49003850103E+03  0.62258246752E+03  0.50400001928E-02 0.  1.
</event>
<event>
 5   0  0.1207228E-04  0.2017056E+04  0.7818609E-02  0.8598688E-01
        1   -1    0    0  501    0  0.00000000000E+00  0.00000000000E+00  0.16824117407E+04  0.16824117408E+04  0.50400001928E-02 0. -1.
       -1   -1    0    0    0  501  0.00000000000E+00  0.00000000000E+00 -0.60456603641E+03  0.60456603643E+03  0.50400001928E-02 0.  1.
    10030    2    1    2    0    0  0.00000000000E+00  0.00000000000E+00  0.10778457043E+04  0.22869777772E+04  0.20170562687E+04 0.  0.
        1    1    3    3  502    0  0.16502726571E+03 -0.60836636191E+03  0.14315386951E+04  0.15641760337E+04  0.50400001928E-02 0. -1.
       -1    1    3    3    0  502 -0.16502726571E+03  0.60836636191E+03 -0.35369299074E+03  0.72280174354E+03  0.50400001928E-02 0.  1.
</event>
<event>
 5   0  0.2488886E-04  0.2002609E+04  0.7818609E-02  0.8605402E-01
       -2   -1    0    0    0  501  0.00000000000E+00  0.00000000000E+00  0.12495131074E+04  0.12495131074E+04  0.25500000920E-02 0. -1.
        2   -1    0    0  501    0  0.00000000000E+00  0.00000000000E+00 -0.80240126935E+03  0.80240126935E+03  0.25500000920E-02 0.  1.
    10030    2    1    2    0    0  0.00000000000E+00  0.00000000000E+00  0.44711183807E+03  0.20519143768E+04  0.20026092015E+04 0.  0.
        3    1    3    3  502    0 -0.61293368438E+03  0.46580821341E+03 -0.43247800968E+03  0.88300749272E+03  0.10100000352E+00 0.  1.
       -3    1    3    3    0  502  0.61293368438E+03 -0.46580821341E+03  0.87958984775E+03  0.11689068841E+04  0.10100000352E+00 0. -1.
</event>
<event>
 5   0  0.1258546E-04  0.1862591E+04  0.7818609E-02  0.8673705E-01
       -1   -1    0    0    0  501  0.00000000000E+00  0.00000000000E+00  0.53960485054E+03  0.53960485056E+03  0.50400001928E-02 0. -1.
        1   -1    0    0  501    0  0.00000000000E+00  0.00000000000E+00 -0.16073083735E+04  0.16073083735E+04  0.50400001928E-02 0.  1.
    10030    2    1    2    0    0  0.00000000000E+00  0.00000000000E+00 -0.10677035230E+04  0.21469132241E+04  0.18625910927E+04 0.  0.
        4    1    3    3  502    0  0.30096804508E+03 -0.49596290136E+03  0.30588175415E+03  0.65584009035E+03  0.12699999809E+01 0. -1.
       -4    1    3    3    0  502 -0.30096804508E+03  0.49596290136E+03 -0.13735852771E+04  0.14910731337E+04  0.12699999809E+01 0.  1.
</event>
<event>
 5   0  0.2596061E-04  0.1995490E+04  0.7818609E-02  0.8608732E-01
       -2   -1    0    0    0  501  0.00000000000E+00  0.00000000000E+00  0.14553816287E+04  0.14553816287E+04  0.25500000920E-02 0.  1.
        2   -1    0    0  501    0  0.00000000000E+00  0.00000000000E+00 -0.68400994791E+03  0.68400994792E+03  0.25500000920E-02 0. -1.
    10030    2    1    2    0    0  0.00000000000E+00  0.00000000000E+00  0.77137168080E+03  0.21393915766E+04  0.19954904280E+04 0.  0.
        5    1    3    3  502    0  0.90986082978E+02 -0.49560863406E+03  0.13089284524E+04  0.14025769743E+04  0.46999998093E+01 0.  1.
       -5    1    3    3    0  502 -0.90986082978E+02  0.49560863406E+03 -0.53755677160E+03  0.73681460229E+03  0.46999998093E+01 0. -1.
</event>
<event>
 5   0  0.1258546E-04  0.1972066E+04  0.7818609E-02  0.8619793E-01
        1   -1    0    0  501    0  0.00000000000E+00  0.00000000000E+00  0.21790015673E+04  0.21790015673E+04  0.50400001928E-02 0. -1.
       -1   -1    0    0    0  501  0.00000000000E+00  0.00000000000E+00 -0.44619551650E+03  0.44619551653E+03  0.50400001928E-02 0.  1.
    10030    2    1    2    0    0  0.00000000000E+00  0.00000000000E+00  0.17328060508E+04  0.26251970838E+04  0.19720656478E+04 0.  0.
        4    1    3    3  502    0  0.28133641384E+03  0.87954651347E+03  0.13265928173E+04  0.16163546526E+04  0.12699999809E+01 0. -1.
       -4    1    3    3    0  502 -0.28133641384E+03 -0.87954651347E+03  0.40621323348E+03  0.10088424312E+04  0.12699999809E+01 0.  1.
</event>
<event>
 5   0  0.1231056E-04  0.1932230E+04  0.7818609E-02  0.8638978E-01
       -1   -1    0    0    0  501  0.00000000000E+00  0.00000000000E+00  0.67473559516E+03  0.67473559517E+03  0.50400001928E-02 0.  1.
        1   -1    0    0  501    0  0.00000000000E+00  0.00000000000E+00 -0.13833249591E+04  0.13833249591E+04  0.50400001928E-02 0. -1.
    10030    2    1    2    0    0  0.00000000000E+00  0.00000000000E+00 -0.70858936396E+03  0.20580605543E+04  0.19322304103E+04 0.  0.
        3    1    3    3  502    0  0.52343781645E+03  0.10301918116E+03  0.50362662489E+03  0.73364834007E+03  0.10100000352E+00 0.  1.
       -3    1    3    3    0  502 -0.52343781645E+03 -0.10301918116E+03 -0.12122159888E+04  0.13244122142E+04  0.10100000352E+00 0. -1.
</event>
<event>
 5   0  0.2421737E-04  0.1869577E+04  0.7818609E-02  0.8670150E-01
       -2   -1    0    0    0  501  0.00000000000E+00  0.00000000000E+00  0.23657460366E+04  0.23657460366E+04  0.25500000920E-02 0. -1.
        2   -1    0    0  501    0  0.00000000000E+00  0.00000000000E+00 -0.36936731940E+03  0.36936731941E+03  0.25500000920E-02 0.  1.
    10030    2    1    2    0    0  0.00000000000E+00  0.00000000000E+00  0.19963787172E+04  0.27351133561E+04  0.18695767135E+04 0.  0.
        1    1    3    3  502    0  0.30116123505E+03 -0.76926885463E+03  0.16381507536E+04  0.18346690579E+04  0.50400001928E-02 0. -1.
       -1    1    3    3    0  502 -0.30116123505E+03  0.76926885463E+03  0.35822796360E+03  0.90044429818E+03  0.50400001928E-02 0.  1.
</event>
<event>
 5   0  0.2540506E-04  0.1389362E+04  0.7818609E-02  0.8961555E-01
        2   -1    0    0  501    0  0.00000000000E+00  0.00000000000E+00  0.16597686774E+04  0.16597686774E+04  0.25500000920E-02 0.  1.
       -2   -1    0    0    0  501  0.00000000000E+00  0.00000000000E+00 -0.29075251417E+03  0.29075251419E+03  0.25500000920E-02 0. -1.
    10030    2    1    2    0    0  0.00000000000E+00  0.00000000000E+00  0.13690161632E+04  0.19505211916E+04  0.13893623227E+04 0.  0.
        4    1    3    3  502    0 -0.27617190003E+03 -0.63723969617E+01 -0.21032468653E+03  0.34720255251E+03  0.12699999809E+01 0. -1.
       -4    1    3    3    0  502  0.27617190003E+03  0.63723969617E+01  0.15793408497E+04  0.16033186391E+04  0.12699999809E+01 0.  1.
</event>
<event>
 5   0  0.2488886E-04  0.1258481E+04  0.7818609E-02  0.9063154E-01
       -2   -1    0    0    0  501  0.00000000000E+00  0.00000000000E+00  0.57618947029E+03  0.57618947029E+03  0.25500000920E-02 0. -1.
        2   -1    0    0  501    0  0.00000000000E+00  0.00000000000E+00 -0.68717584249E+03  0.68717584250E+03  0.25500000920E-02 0.  1.
    10030    2    1    2    0    0  0.00000000000E+00  0.00000000000E+00 -0.11098637220E+03  0.12633653128E+04  0.12584808059E+04 0.  0.
        3    1    3    3  502    0  0.33227680063E+02 -0.14355426909E+03 -0.66961222545E+03  0.68563288250E+03  0.10100000352E+00 0.  1.
       -3    1    3    3    0  502 -0.33227680063E+02  0.14355426909E+03  0.55862585324E+03  0.57773243029E+03  0.10100000352E+00 0. -1.
</event>
<event>
 5   0  0.1210633E-04  0.2032923E+04  0.7818609E-02  0.8591381E-01
        1   -1    0    0  501    0  0.00000000000E+00  0.00000000000E+00  0.11831385149E+04  0.11831385149E+04  0.50400001928E-02 0. -1.
       -1   -1    0    0    0  501  0.00000000000E+00  0.00000000000E+00 -0.87326559752E+03  0.87326559753E+03  0.50400001928E-02 0.  1.
    10030    2    1    2    0    0  0.00000000000E+00  0.00000000000E+00  0.30987291734E+03  0.20564041124E+04  0.20329231782E+04 0.  0.
        2    1    3    3  502    0  0.22464000299E+02  0.25226104436E+03  0.11507120173E+04  0.11782522703E+04  0.25500000920E-02 0. -1.
       -2    1    3    3    0  502 -0.22464000299E+02 -0.25226104436E+03 -0.84083909992E+03  0.87815184210E+03  0.25500000920E-02 0.  1.
</event>
<event>
 5   0  0.1210633E-04  0.2007165E+04  0.7818609E-02  0.8603278E-01
        1   -1    0    0  501    0  0.00000000000E+00  0.00000000000E+00  0.14959934761E+04  0.14959934761E+04  0.50400001928E-02 0. -1.
       -1   -1    0    0    0  501  0.00000000000E+00  0.00000000000E+00 -0.67325029423E+03  0.67325029425E+03  0.50400001928E-02 0.  1.
    10030    2    1    2    0    0  0.00000000000E+00  0.00000000000E+00  0.82274318186E+03  0.21692437703E+04  0.20071652129E+04 0.  0.
        2    1    3    3  502    0  0.10513114961E+03 -0.89814264605E+03 -0.59053038772E+02  0.90620087876E+03  0.25500000920E-02 0.  1.
       -2    1    3    3    0  502 -0.10513114961E+03  0.89814264605E+03  0.88179622063E+03  0.12630428916E+04  0.25500000920E-02 0. -1.
</event>
<event>
 5   0  0.2596061E-04  0.2358481E+04  0.7818609E-02  0.8455213E-01
       -2   -1    0    0    0  501  0.00000000000E+00  0.00000000000E+00  0.89288837177E+03  0.89288837178E+03  0.25500000920E-02 0.  1.
        2   -1    0    0  501    0  0.00000000000E+00  0.00000000000E+00 -0.15574267302E+04  0.15574267302E+04  0.25500000920E-02 0. -1.
    10030    2    1    2    0    0  0.00000000000E+00  0.00000000000E+00 -0.66453835847E+03  0.24503151020E+04  0.23584810513E+04 0.  0.
        5    1    3    3  502    0 -0.89823899409E+03  0.50376910389E+03 -0.92906594701E+03  0.13870119770E+04  0.46999998093E+01 0. -1.
       -5    1    3    3    0  502  0.89823899409E+03 -0.50376910389E+03  0.26452758853E+03  0.10633031250E+04  0.46999998093E+01 0.  1.
</event>
<event>
 5   0  0.1207228E-04  0.1969088E+04  0.7818609E-02  0.8621211E-01
        1   -1    0    0  501    0  0.00000000000E+00  0.00000000000E+00  0.90844262894E+03  0.90844262895E+03  0.50400001928E-02 0. -1.
       -1   -1    0    0    0  501  0.00000000000E+00  0.00000000000E+00 -0.10670208172E+04  0.10670208172E+04  0.50400001928E-02 0.  1.
    10030    2    1    2    0    0  0.00000000000E+00  0.00000000000E+00 -0.15857818829E+03  0.19754634462E+04  0.19690883133E+04 0.  0.
        1    1    3    3  502    0  0.74505847318E+03 -0.57576188274E+03  0.20924127799E+03  0.96457026001E+03  0.50400001928E-02 0.  1.
       -1    1    3    3    0  502 -0.74505847318E+03  0.57576188274E+03 -0.36781946628E+03  0.10108931862E+04  0.50400001928E-02 0. -1.
</event>
<event>
 5   0  0.2421737E-04  0.2079077E+04  0.7818609E-02  0.8570517E-01
       -2   -1    0    0    0  501  0.00000000000E+00  0.00000000000E+00  0.56172785474E+03  0.56172785474E+03  0.25500000920E-02 0. -1.
        2   -1    0    0  501    0  0.00000000000E+00  0.00000000000E+00 -0.19237787949E+04  0.19237787949E+04  0.25500000920E-02 0.  1.
    10030    2    1    2    0    0  0.00000000000E+00  0.00000000000E+00 -0.13620509401E+04  0.24855066496E+04  0.20790768485E+04 0.  0.
        1    1    3    3  502    0  0.29015710092E+03  0.68708589483E+03  0.18465970108E+03  0.76836018593E+03  0.50400001928E-02 0. -1.
       -1    1    3    3    0  502 -0.29015710092E+03 -0.68708589483E+03 -0.15467106412E+04  0.17171464637E+04  0.50400001928E-02 0.  1.
</event>
<event>
 5   0  0.1210633E-04  0.1972674E+04  0.7818609E-02  0.8619504E-01
        1   -1    0    0  501    0  0.00000000000E+00  0.00000000000E+00  0.14798587822E+04  0.14798587822E+04  0.50400001928E-02 0.  1.
       -1   -1    0    0    0  501  0.00000000000E+00  0.00000000000E+00 -0.65740096939E+03  0.65740096941E+03  0.50400001928E-02 0. -1.
    10030    2    1    2    0    0  0.00000000000E+00  0.00000000000E+00  0.82245781277E+03  0.21372597516E+04  0.19726739193E+04 0.  0.
        2    1    3    3  502    0 -0.49136339450E+03 -0.48101596837E+03 -0.35490924976E+03  0.77380548128E+03  0.25500000920E-02 0. -1.
       -2    1    3    3    0  502  0.49136339450E+03  0.48101596837E+03  0.11773670625E+04  0.13634542703E+04  0.25500000920E-02 0.  1.
</event>
<event>
 5   0  0.1258546E-04  0.1960333E+04  0.7818609E-02  0.8625394E-01
       -1   -1    0    0    0  501  0.00000000000E+00  0.00000000000E+00  0.13618342145E+04  0.13618342146E+04  0.50400001928E-02 0. -1.
        1   -1    0    0  501    0  0.00000000000E+00  0.00000000000E+00 -0.70546489659E+03  0.70546489661E+03  0.50400001928E-02 0.  1.
    10030    2    1    2    0    0  0.00000000000E+00  0.00000000000E+00  0.65636931795E+03  0.20672991112E+04  0.19603328629E+04 0.  0.
        4    1    3    3  502    0  0.94686476017E+03 -0.14696960584E+03  0.11059718073E+03  0.96456533651E+03  0.12699999809E+01 0.  1.
       -4    1    3    3    0  502 -0.94686476017E+03  0.14696960584E+03  0.54577213722E+03  0.11027337747E+04  0.12699999809E+01 0. -1.
</event>
<event>
 5   0  0.9099125E-05  0.1913947E+04  0.7818609E-02  0.8647945E-01
       -3   -1    0    0    0  501  0.00000000000E+00  0.00000000000E+00  0.19499045000E+04  0.19499045026E+04  0.10100000352E+00 0.  1.
        3   -1    0    0  501    0  0.00000000000E+00  0.00000000000E+00 -0.46966310852E+03  0.46966311938E+03  0.10100000352E+00 0. -1.
    10030    2    1    2    0    0  0.00000000000E+00  0.00000000000E+00  0.14802413914E+04  0.24195676220E+04  0.19139469429E+04 0.  0.
        4    1    3    3  502    0  0.35036546611E+02  0.14507579510E+03  0.19351003498E+04  0.19408476299E+04  0.12699999809E+01 0.  1.
       -4    1    3    3    0  502 -0.35036546611E+02 -0.14507579510E+03 -0.45485895833E+03  0.47871999206E+03  0.12699999809E+01 0. -1.
</event>
<event>
 5   0  0.2540506E-04  0.2014136E+04  0.7818609E-02  0.8600040E-01
        2   -1    0    0  501    0  0.00000000000E+00  0.00000000000E+00  0.13153458946E+04  0.13153458946E+04  0.25500000920E-02 0.  1.
       -2   -1    0    0    0  501  0.00000000000E+00  0.00000000000E+00 -0.77104088461E+03  0.77104088462E+03  0.25500000920E-02 0. -1.
    10030    2    1    2    0    0  0.00000000000E+00  0.00000000000E+00  0.54430500996E+03  0.20863867792E+04  0.20141355090E+04 0.  0.
        4    1    3    3  502    0 -0.42791840795E+03 -0.85518801297E+03 -0.54965256350E+02  0.95785358678E+03  0.12699999809E+01 0.  1.
       -4    1    3    3    0  502  0.42791840795E+03  0.85518801297E+03  0.59927026631E+03  0.11285331924E+04  0.12699999809E+01 0. -1.
</event>
<event>
 5   0  0.1324930E-04  0.1964153E+04  0.7818609E-02  0.8623566E-01
        1   -1    0    0  501    0  0.00000000000E+00  0.00000000000E+00  0.13459907135E+04  0.13459907135E+04  0.50400001928E-02 0. -1.
       -1   -1    0    0    0  501  0.00000000000E+00  0.00000000000E+00 -0.71655373400E+03  0.71655373402E+03  0.50400001928E-02 0.  1.
    10030    2    1    2    0    0  0.00000000000E+00  0.00000000000E+00  0.62943697948E+03  0.20625444475E+04  0.19641534275E+04 0.  0.
        5    1    3    3  502    0 -0.27296295674E+03  0.63082659562E+03  0.10512836454E+04  0.12560534872E+04  0.46999998093E+01 0. -1.
       -5    1    3    3    0  502  0.27296295674E+03 -0.63082659562E+03 -0.42184666597E+03  0.80649096032E+03  0.46999998093E+01 0.  1.
</event>
<event>
 5   0  0.2463085E-04  0.1997118E+04  0.7818609E-02  0.8607969E-01
        2   -1    0    0  501    0  0.00000000000E+00  0.00000000000E+00  0.11771390671E+04  0.11771390671E+04  0.25500000920E-02 0. -1.
       -2   -1    0    0    0  501  0.00000000000E+00  0.00000000000E+00 -0.84707061310E+03  0.84707061310E+03  0.25500000920E-02 0.  1.
    10030    2    1    2    0    0  0.00000000000E+00  0.00000000000E+00  0.33006845403E+03  0.20242096802E+04  0.19971178346E+04 0.  0.
        2    1    3    3  502    0 -0.58818096456E+03  0.36953543113E+03  0.89212644382E+03  0.11306647928E+04  0.25500000920E-02 0. -1.
       -2    1    3    3    0  502  0.58818096456E+03 -0.36953543113E+03 -0.56205798980E+03  0.89354488742E+03  0.25500000920E-02 0.  1.
</event>
<event>
 5   0  0.1210633E-04  0.1918958E+04  0.7818609E-02  0.8645477E-01
        1   -1    0    0  501    0  0.00000000000E+00  0.00000000000E+00  0.14364850749E+04  0.14364850749E+04  0.50400001928E-02 0.  1.
       -1   -1    0    0    0  501  0.00000000000E+00  0.00000000000E+00 -0.64086955612E+03  0.64086955614E+03  0.50400001928E-02 0. -1.
    10030    2    1    2    0    0  0.00000000000E+00  0.00000000000E+00  0.79561551880E+03  0.20773546311E+04  0.19189575841E+04 0.  0.
        2    1    3    3  502    0 -0.94432038312E+03 -0.16532891287E+03  0.35553424420E+03  0.10224867893E+04  0.25500000920E-02 0. -1.
       -2    1    3    3    0  502  0.94432038312E+03  0.16532891287E+03  0.44008127459E+03  0.10548678418E+04  0.25500000920E-02 0.  1.
</event>
<event>
 5   0  0.1207228E-04  0.1977065E+04  0.7818609E-02  0.8617419E-01
       -1   -1    0    0    0  501  0.00000000000E+00  0.00000000000E+00  0.14393031886E+04  0.14393031886E+04  0.50400001928E-02 0. -1.
        1   -1    0    0  501    0  0.00000000000E+00  0.00000000000E+00 -0.67893756003E+03  0.67893756005E+03  0.50400001928E-02 0.  1.
    10030    2    1    2    0    0  0.00000000000E+00  0.00000000000E+00  0.76036562852E+03  0.21182407486E+04  0.19770654972E+04 0.  0.
        1    1    3    3  502    0 -0.65987804844E+03 -0.12401254917E+03  0.11575093153E+04  0.13381502031E+04  0.50400001928E-02 0. -1.
       -1    1    3    3    0  502  0.65987804844E+03  0.12401254917E+03 -0.39714368676E+03  0.78009054547E+03  0.50400001928E-02 0.  1.
</event>
<event>
 5   0  0.2463085E-04  0.1967130E+04  0.7818609E-02  0.8622145E-01
        2   -1    0    0  501    0  0.00000000000E+00  0.00000000000E+00  0.19943922132E+04  0.19943922132E+04  0.25500000920E-02 0.  1.
       -2   -1    0    0    0  501  0.00000000000E+00  0.00000000000E+00 -0.48505999783E+03  0.48505999783E+03  0.25500000920E-02 0. -1.
    10030    2    1    2    0    0  0.00000000000E+00  0.00000000000E+00  0.15093322154E+04  0.24794522110E+04  0.19671297696E+04 0.  0.
        2    1    3    3  502    0 -0.51873958614E+03 -0.81659451946E+03  0.97831020580E+03  0.13758663548E+04  0.25500000920E-02 0. -1.
       -2    1    3    3    0  502  0.51873958614E+03  0.81659451946E+03  0.53102200956E+03  0.11035858562E+04  0.25500000920E-02 0.  1.
</event>
<event>
 5   0  0.2540506E-04  0.1953275E+04  0.7818609E-02  0.8628783E-01
        2   -1    0    0  501    0  0.00000000000E+00  0.00000000000E+00  0.90251839622E+03  0.90251839622E+03  0.25500000920E-02 0. -1.
       -2   -1    0    0    0  501  0.00000000000E+00  0.00000000000E+00 -0.10568434736E+04  0.10568434736E+04  0.25500000920E-02 0.  1.
    10030    2    1    2    0    0  0.00000000000E+00  0.00000000000E+00 -0.15432507736E+03  0.19593618698E+04  0.19532748673E+04 0.  0.
        4    1    3    3  502    0 -0.25900179824E+03  0.71293406448E+03  0.53994736676E+03  0.93107555201E+03  0.12699999809E+01 0. -1.
       -4    1    3    3    0  502  0.25900179824E+03 -0.71293406448E+03 -0.69427244412E+03  0.10282863178E+04  0.12699999809E+01 0.  1.
</event>
<event>
 5   0  0.1210633E-04  0.1971388E+04  0.7818609E-02  0.8620116E-01
        1   -1    0    0  501    0  0.00000000000E+00  0.00000000000E+00  0.15100053190E+04  0.15100053190E+04  0.50400001928E-02 0. -1.
       -1   -1    0    0    0  501  0.00000000000E+00  0.00000000000E+00 -0.64343657657E+03  0.64343657658E+03  0.50400001928E-02 0.  1.
    10030    2    1    2    0    0  0.00000000000E+00  0.00000000000E+00  0.86656874243E+03  0.21534418956E+04  0.19713879913E+04 0.  0.
        2    1    3    3  502    0  0.33912834963E+03 -0.76167594885E+03  0.10076085056E+04  0.13078353066E+04  0.25500000920E-02 0. -1.
       -2    1    3    3    0  502 -0.33912834963E+03  0.76167594885E+03 -0.14103976317E+03  0.84560658901E+03  0.25500000920E-02 0.  1.
</event>
<event>
 5   0  0.1207228E-04  0.2045476E+04  0.7818609E-02  0.8585649E-01
        1   -1    0    0  501    0  0.00000000000E+00  0.00000000000E+00  0.17127771807E+04  0.17127771807E+04  0.50400001928E-02 0.  1.
       -1   -1    0    0    0  501  0.00000000000E+00  0.00000000000E+00 -0.61070017389E+03  0.61070017391E+03  0.50400001928E-02 0. -1.
    10030    2    1    2    0    0  0.00000000000E+00  0.00000000000E+00  0.11020770068E+04  0.23234773547E+04  0.20454762987E+04 0.  0.
        1    1    3    3  502    0  0.10110124475E+04 -0.15419352192E+03  0.56064422350E+03  0.11662948841E+04  0.50400001928E-02 0.  1.
       -1    1    3    3    0  502 -0.10110124475E+04  0.15419352192E+03  0.54143278335E+03  0.11571824706E+04  0.50400001928E-02 0. -1.
</event>
<event>
 5   0  0.1258546E-04  0.1857484E+04  0.7818609E-02  0.8676314E-01
       -1   -1    0    0    0  501  0.00000000000E+00  0.00000000000E+00  0.13026054761E+04  0.13026054761E+04  0.50400001928E-02 0.  1.
        1   -1    0    0  501    0  0.00000000000E+00  0.00000000000E+00 -0.66218194780E+03  0.66218194782E+03  0.50400001928E-02 0. -1.
    10030    2    1    2    0    0  0.00000000000E+00  0.00000000000E+00  0.64042352830E+03  0.19647874239E+04  0.18574841387E+04 0.  0.
        4    1    3    3  502    0  0.86768227353E+03  0.21996568534E+03  0.58314736903E+02  0.89702823365E+03  0.12699999809E+01 0.  1.
       -4    1    3    3    0  502 -0.86768227353E+03 -0.21996568534E+03  0.58210879139E+03  0.10677591903E+04  0.12699999809E+01 0. -1.
</event>
<event>
 5   0  0.2540506E-04  0.1989108E+04  0.7818609E-02  0.8611730E-01
       -2   -1    0    0    0  501  0.00000000000E+00  0.00000000000E+00  0.11579299989E+04  0.11579299989E+04  0.25500000920E-02 0.  1.
        2   -1    0    0  501    0  0.00000000000E+00  0.00000000000E+00 -0.85422960427E+03  0.85422960427E+03  0.25500000920E-02 0. -1.
    10030    2    1    2    0    0  0.00000000000E+00  0.00000000000E+00  0.30370039467E+03  0.20121596032E+04  0.19891084282E+04 0.  0.
        4    1    3    3  502    0  0.84449528146E+03 -0.50272088487E+03 -0.23495808593E+01  0.98280603474E+03  0.12699999809E+01 0. -1.
       -4    1    3    3    0  502 -0.84449528146E+03  0.50272088487E+03  0.30604997553E+03  0.10293535685E+04  0.12699999809E+01 0.  1.
</event>
<event>
 5   0  0.1231056E-04  0.2032933E+04  0.7818609E-02  0.8591376E-01
       -1   -1    0    0    0  501  0.00000000000E+00  0.00000000000E+00  0.55647780438E+03  0.55647780440E+03  0.50400001928E-02 0.  1.
        1   -1    0    0  501    0  0.00000000000E+00  0.00000000000E+00 -0.18566849550E+04  0.18566849550E+04  0.50400001928E-02 0. -1.
    10030    2    1    2    0    0  0.00000000000E+00  0.00000000000E+00 -0.13002071506E+04  0.24131627594E+04  0.20329328245E+04 0.  0.
        3    1    3    3  502    0 -0.27602073324E+01  0.93655421267E+02 -0.18515479564E+04  0.18539171507E+04  0.10100000352E+00 0. -1.
       -3    1    3    3    0  502  0.27602073324E+01 -0.93655421267E+02  0.55134080571E+03  0.55924560876E+03  0.10100000352E+00 0.  1.
</event>
<event>
 5   0  0.1207228E-04  0.1995462E+04  0.7818609E-02  0.8608745E-01
       -1   -1    0    0    0  501  0.00000000000E+00  0.00000000000E+00  0.69936375867E+03  0.69936375869E+03  0.50400001928E-02 0. -1.
        1   -1    0    0  501    0  0.00000000000E+00  0.00000000000E+00 -0.14233899381E+04  0.14233899381E+04  0.50400001928E-02 0.  1.
    10030    2    1    2    0    0  0.00000000000E+00  0.00000000000E+00 -0.72402617942E+03  0.21227536968E+04  0.19954621893E+04 0.  0.
        1    1    3    3  502    0 -0.39059065315E+03 -0.59510739520E+03 -0.11057186499E+04  0.13150390119E+04  0.50400001928E-02 0.  1.
       -1    1    3    3    0  502  0.39059065315E+03  0.59510739520E+03  0.38169247045E+03  0.80771468488E+03  0.50400001928E-02 0. -1.
</event>
<event>
 5   0  0.1207228E-04  0.1987802E+04  0.7818609E-02  0.8612345E-01
       -1   -1    0    0    0  501  0.00000000000E+00  0.00000000000E+00  0.11941079383E+04  0.11941079383E+04  0.50400001928E-02 0. -1.
        1   -1    0    0  501    0  0.00000000000E+00  0.00000000000E+00 -0.82726084082E+03  0.82726084083E+03  0.50400001928E-02 0.  1.
    10030    2    1    2    0    0  0.00000000000E+00  0.00000000000E+00  0.36684709750E+03  0.20213687792E+04  0.19878015365E+04 0.  0.
        1    1    3    3  502    0 -0.47175028191E+03 -0.15927150886E+03  0.10581369772E+04  0.11694313168E+04  0.50400001928E-02 0. -1.
       -1    1    3    3    0  502  0.47175028191E+03  0.15927150886E+03 -0.69128987972E+03  0.85193746240E+03  0.50400001928E-02 0.  1.
</event>
<event>
 5   0  0.2540506E-04  0.1895272E+04  0.7818609E-02  0.8657213E-01
        2   -1    0    0  501    0  0.00000000000E+00  0.00000000000E+00  0.64638829215E+03  0.64638829215E+03  0.25500000920E-02 0. -1.
       -2   -1    0    0    0  501  0.00000000000E+00  0.00000000000E+00 -0.13892801760E+04  0.13892801760E+04  0.25500000920E-02 0.  1.
    10030    2    1    2    0    0  0.00000000000E+00  0.00000000000E+00 -0.74289188388E+03  0.20356684682E+04  0.18952724768E+04 0.  0.
        4    1    3    3  502    0 -0.24478700824E+03 -0.88528510841E+03 -0.62187504838E+03  0.11092252212E+04  0.12699999809E+01 0. -1.
       -4    1    3    3    0  502  0.24478700824E+03  0.88528510841E+03 -0.12101683550E+03  0.92644324702E+03  0.12699999809E+01 0.  1.
</event>
<event>
 5   0  0.2488886E-04  0.2012922E+04  0.7818609E-02  0.8600603E-01
       -2   -1    0    0    0  501  0.00000000000E+00  0.00000000000E+00  0.65547630095E+03  0.65547630095E+03  0.25500000920E-02 0. -1.
        2   -1    0    0  501    0  0.00000000000E+00  0.00000000000E+00 -0.15453851305E+04  0.15453851305E+04  0.25500000920E-02 0.  1.
    10030    2    1    2    0    0  0.00000000000E+00  0.00000000000E+00 -0.88990882952E+03  0.22008614314E+04  0.20129215870E+04 0.  0.
        3    1    3    3  502    0 -0.58897389531E+03  0.70731723256E+03 -0.89012441222E+03  0.12804332846E+04  0.10100000352E+00 0.  1.
       -3    1    3    3    0  502  0.58897389531E+03 -0.70731723256E+03  0.21558269184E+00  0.92042814685E+03  0.10100000352E+00 0. -1.
</event>
<event>
 5   0  0.2596061E-04  0.2110429E+04  0.7818609E-02  0.8556663E-01
       -2   -1    0    0    0  501  0.00000000000E+00  0.00000000000E+00  0.77290791429E+03  0.77290791429E+03  0.25500000920E-02 0. -1.
        2   -1    0    0  501    0  0.00000000000E+00  0.00000000000E+00 -0.14406343107E+04  0.14406343107E+04  0.25500000920E-02 0.  1.
    10030    2    1    2    0    0  0.00000000000E+00  0.00000000000E+00 -0.66772639640E+03  0.22135422250E+04  0.21104290183E+04 0.  0.
        5    1    3    3  502    0  0.79922669972E+03  0.40378135469E+02 -0.10552630158E+04  0.13243850776E+04  0.46999998093E+01 0.  1.
       -5    1    3    3    0  502 -0.79922669972E+03 -0.40378135469E+02  0.38753661936E+03  0.88915714737E+03  0.46999998093E+01 0. -1.
</event>
<event>
 5   0  0.2488886E-04  0.1994373E+04  0.7818609E-02  0.8609256E-01
        2   -1    0    0  501    0  0.00000000000E+00  0.00000000000E+00  0.10113495210E+04  0.10113495210E+04  0.25500000920E-02 0. -1.
       -2   -1    0    0    0  501  0.00000000000E+00  0.00000000000E+00 -0.98322190605E+03  0.98322190606E+03  0.25500000920E-02 0.  1.
    10030    2    1    2    0    0  0.00000000000E+00  0.00000000000E+00  0.28127614928E+02  0.19945714270E+04  0.19943730882E+04 0.  0.
        3    1    3    3  502    0  0.33639641736E+03  0.93320610884E+03  0.11578332377E+03  0.99872017074E+03  0.10100000352E+00 0.  1.
       -3    1    3    3    0  502 -0.33639641736E+03 -0.93320610884E+03 -0.87655708842E+02  0.99585125630E+03  0.10100000352E+00 0. -1.
</event>
<event>
 5   0  0.1324930E-04  0.1930602E+04  0.7818609E-02  0.8639772E-01
       -1   -1    0    0    0  501  0.00000000000E+00  0.00000000000E+00  0.10588106672E+04  0.10588106672E+04  0.50400001928E-02 0.  1.
        1   -1    0    0  501    0  0.00000000000E+00  0.00000000000E+00 -0.88005004682E+03  0.88005004683E+03  0.50400001928E-02 0. -1.
    10030    2    1    2    0    0  0.00000000000E+00  0.00000000000E+00  0.17876062039E+03  0.19388607141E+04  0.19306023695E+04 0.  0.
        5    1    3    3  502    0 -0.77222857069E+03  0.57755615653E+03  0.13288081139E+03  0.97344105079E+03  0.46999998093E+01 0.  1.
       -5    1    3    3    0  502  0.77222857069E+03 -0.57755615653E+03  0.45879808997E+02  0.96541966326E+03  0.46999998093E+01 0. -1.
</event>
<event>
 5   0  0.2596061E-04  0.1999145E+04  0.7818609E-02  0.8607021E-01
       -2   -1    0    0    0  501  0.00000000000E+00  0.00000000000E+00  0.71930188244E+03  0.71930188244E+03  0.25500000920E-02 0.  1.
        2   -1    0    0  501    0  0.00000000000E+00  0.00000000000E+00 -0.13890479432E+04  0.13890479432E+04  0.25500000920E-02 0. -1.
    10030    2    1    2    0    0  0.00000000000E+00  0.00000000000E+00 -0.66974606077E+03  0.21083498256E+04  0.19991446174E+04 0.  0.
        5    1    3    3  502    0 -0.12954413283E+03  0.62635928790E+03 -0.11449569526E+04  0.13115091129E+04  0.46999998093E+01 0. -1.
       -5    1    3    3    0  502  0.12954413283E+03 -0.62635928790E+03  0.47521089179E+03  0.79684071279E+03  0.46999998093E+01 0.  1.
</event>
<event>
 5   0  0.2463085E-04  0.1925610E+04  0.7818609E-02  0.8642212E-01
       -2   -1    0    0    0  501  0.00000000000E+00  0.00000000000E+00  0.10476256707E+04  0.10476256707E+04  0.25500000920E-02 0.  1.
        2   -1    0    0  501    0  0.00000000000E+00  0.00000000000E+00 -0.88485216192E+03  0.88485216192E+03  0.25500000920E-02 0. -1.
    10030    2    1    2    0    0  0.00000000000E+00  0.00000000000E+00  0.16277350875E+03  0.19324778326E+04  0.19256103859E+04 0.  0.
        2    1    3    3  502    0 -0.13054028036E+03 -0.88362995073E+03 -0.27927102032E+03  0.93586054379E+03  0.25500000920E-02 0.  1.
       -2    1    3    3    0  502  0.13054028036E+03  0.88362995073E+03  0.44204452907E+03  0.99661728879E+03  0.25500000920E-02 0. -1.
</event>
<event>
 5   0  0.2596061E-04  0.1995487E+04  0.7818609E-02  0.8608734E-01
        2   -1    0    0  501    0  0.00000000000E+00  0.00000000000E+00  0.17749753261E+04  0.17749753261E+04  0.25500000920E-02 0.  1.
       -2   -1    0    0    0  501  0.00000000000E+00  0.00000000000E+00 -0.56084844099E+03  0.56084844099E+03  0.25500000920E-02 0. -1.
    10030    2    1    2    0    0  0.00000000000E+00  0.00000000000E+00  0.12141268851E+04  0.23358237671E+04  0.19954870528E+04 0.  0.
        5    1    3    3  502    0 -0.21179572838E+02  0.27687475152E+03  0.17288186038E+04  0.17509837398E+04  0.46999998093E+01 0.  1.
       -5    1    3    3    0  502  0.21179572838E+02 -0.27687475152E+03 -0.51469171863E+03  0.58484002732E+03  0.46999998093E+01 0. -1.
</event>
<event>
 5   0  0.1207228E-04  0.1889727E+04  0.7818609E-02  0.8659987E-01
        1   -1    0    0  501    0  0.00000000000E+00  0.00000000000E+00  0.77859875632E+03  0.77859875633E+03  0.50400001928E-02 0.  1.
       -1   -1    0    0    0  501  0.00000000000E+00  0.00000000000E+00 -0.11466330321E+04  0.11466330321E+04  0.50400001928E-02 0. -1.
    10030    2    1    2    0    0  0.00000000000E+00  0.00000000000E+00 -0.36803427582E+03  0.19252317885E+04  0.18897270203E+04 0.  0.
        1    1    3    3  502    0 -0.74274650920E+02  0.81349485833E+03  0.29974796863E+03  0.87013760580E+03  0.50400001928E-02 0.  1.
       -1    1    3    3    0  502  0.74274650920E+02 -0.81349485833E+03 -0.66778224445E+03  0.10550941827E+04  0.50400001928E-02 0. -1.
</event>
<event>
 5   0  0.2463085E-04  0.2026146E+04  0.7818609E-02  0.8594493E-01
       -2   -1    0    0    0  501  0.00000000000E+00  0.00000000000E+00  0.46970526070E+03  0.46970526070E+03  0.25500000920E-02 0. -1.
        2   -1    0    0  501    0  0.00000000000E+00  0.00000000000E+00 -0.21850233242E+04  0.21850233242E+04  0.25500000920E-02 0.  1.
    10030    2    1    2    0    0  0.00000000000E+00  0.00000000000E+00 -0.17153180635E+04  0.26547285849E+04  0.20261460462E+04 0.  0.
        2    1    3    3  502    0  0.53140620150E+03  0.46717662525E+03 -0.18076208305E+04  0.19411696518E+04  0.25500000920E-02 0.  1.
       -2    1    3    3    0  502 -0.53140620150E+03 -0.46717662525E+03  0.92302767030E+02  0.71355893308E+03  0.25500000920E-02 0. -1.
</event>
<event>
 5   0  0.1324930E-04  0.1955384E+04  0.7818609E-02  0.8627769E-01
        1   -1    0    0  501    0  0.00000000000E+00  0.00000000000E+00  0.12382792702E+04  0.12382792702E+04  0.50400001928E-02 0.  1.
       -1   -1    0    0    0  501  0.00000000000E+00  0.00000000000E+00 -0.77194327059E+03  0.77194327061E+03  0.50400001928E-02 0. -1.
    10030    2    1    2    0    0  0.00000000000E+00  0.00000000000E+00  0.46633599960E+03  0.20102225408E+04  0.19553836961E+04 0.  0.
        5    1    3    3  502    0 -0.52493907815E+03  0.42070614519E+03 -0.49616788587E+03  0.83591827193E+03  0.46999998093E+01 0. -1.
       -5    1    3    3    0  502  0.52493907815E+03 -0.42070614519E+03  0.96250388547E+03  0.11743042689E+04  0.46999998093E+01 0.  1.
</event>
<event>
 5   0  0.1231056E-04  0.1803723E+04  0.7818609E-02  0.8704322E-01
        1   -1    0    0  501    0  0.00000000000E+00  0.00000000000E+00  0.75286521505E+03  0.75286521507E+03  0.50400001928E-02 0.  1.
       -1   -1    0    0    0  501  0.00000000000E+00  0.00000000000E+00 -0.10803450125E+04  0.10803450126E+04  0.50400001928E-02 0. -1.
    10030    2    1    2    0    0  0.00000000000E+00  0.00000000000E+00 -0.32747979749E+03  0.18332102276E+04  0.18037230167E+04 0.  0.
        3    1    3    3  502    0 -0.76584509538E+03 -0.40478331305E+03 -0.41881272563E+03  0.96217064494E+03  0.10100000352E+00 0. -1.
       -3    1    3    3    0  502  0.76584509538E+03  0.40478331305E+03  0.91332928138E+02  0.87103958268E+03  0.10100000352E+00 0.  1.
</event>
<event>
 5   0  0.2540506E-04  0.1997173E+04  0.7818609E-02  0.8607943E-01
       -2   -1    0    0    0  501  0.00000000000E+00  0.00000000000E+00  0.64762349097E+03  0.64762349098E+03  0.25500000920E-02 0.  1.
        2   -1    0    0  501    0  0.00000000000E+00  0.00000000000E+00 -0.15397457161E+04  0.15397457161E+04  0.25500000920E-02 0. -1.
    10030    2    1    2    0    0  0.00000000000E+00  0.00000000000E+00 -0.89212222509E+03  0.21873692070E+04  0.19971734986E+04 0.  0.
        4    1    3    3  502    0  0.72204045652E+03 -0.13453652414E+03 -0.11870499157E+04  0.13958981382E+04  0.12699999809E+01 0. -1.
       -4    1    3    3    0  502 -0.72204045652E+03  0.13453652414E+03  0.29492769058E+03  0.79147106880E+03  0.12699999809E+01 0.  1.
</event>
<event>
 5   0  0.1231056E-04  0.2036750E+04  0.7818609E-02  0.8589629E-01
        1   -1    0    0  501    0  0.00000000000E+00  0.00000000000E+00  0.96611748479E+03  0.96611748480E+03  0.50400001928E-02 0. -1.
       -1   -1    0    0    0  501  0.00000000000E+00  0.00000000000E+00 -0.10734587959E+04  0.10734587959E+04  0.50400001928E-02 0.  1.
    10030    2    1    2    0    0  0.00000000000E+00  0.00000000000E+00 -0.10734131106E+03  0.20395762807E+04  0.20367496772E+04 0.  0.
        3    1    3    3  502    0  0.78310958120E+03  0.22125233074E+03  0.55944867629E+03  0.98752014745E+03  0.10100000352E+00 0. -1.
       -3    1    3    3    0  502 -0.78310958120E+03 -0.22125233074E+03 -0.66678998735E+03  0.10520561332E+04  0.10100000352E+00 0.  1.
</event>
<event>
 5   0  0.1258546E-04  0.1991706E+04  0.7818609E-02  0.8610508E-01
        1   -1    0    0  501    0  0.00000000000E+00  0.00000000000E+00  0.10279145989E+04  0.10279145989E+04  0.50400001928E-02 0.  1.
       -1   -1    0    0    0  501  0.00000000000E+00  0.00000000000E+00 -0.96479158309E+03  0.96479158310E+03  0.50400001928E-02 0. -1.
    10030    2    1    2    0    0  0.00000000000E+00  0.00000000000E+00  0.63123015821E+02  0.19927061820E+04  0.19917061562E+04 0.  0.
        4    1    3    3  502    0  0.12051612502E+03  0.80857748141E+03  0.60052978218E+03  0.10143763168E+04  0.12699999809E+01 0.  1.
       -4    1    3    3    0  502 -0.12051612502E+03 -0.80857748141E+03 -0.53740676635E+03  0.97832986526E+03  0.12699999809E+01 0. -1.
</event>
<event>
 5   0  0.1231056E-04  0.2007163E+04  0.7818609E-02  0.8603279E-01
       -1   -1    0    0    0  501  0.00000000000E+00  0.00000000000E+00  0.43731687060E+03  0.43731687063E+03  0.50400001928E-02 0. -1.
        1   -1    0    0  501    0  0.00000000000E+00  0.00000000000E+00 -0.23030804480E+04  0.23030804480E+04  0.50400001928E-02 0.  1.
    10030    2    1    2    0    0  0.00000000000E+00  0.00000000000E+00 -0.18657635774E+04  0.27403973186E+04  0.20071631068E+04 0.  0.
        3    1    3    3  502    0  0.22996750602E+03 -0.96765294337E+03 -0.75001882074E+03  0.12456988056E+04  0.10100000352E+00 0. -1.
       -3    1    3    3    0  502 -0.22996750602E+03  0.96765294337E+03 -0.11157447566E+04  0.14946985130E+04  0.10100000352E+00 0.  1.
</event>
<event>
 5   0  0.2488886E-04  0.1794443E+04  0.7818609E-02  0.8709260E-01
       -2   -1    0    0    0  501  0.00000000000E+00  0.00000000000E+00  0.61013254906E+03  0.61013254907E+03  0.25500000920E-02 0.  1.
        2   -1    0    0  501    0  0.00000000000E+00  0.00000000000E+00 -0.13193958962E+04  0.13193958962E+04  0.25500000920E-02 0. -1.
    10030    2    1    2    0    0  0.00000000000E+00  0.00000000000E+00 -0.70926334715E+03  0.19295284453E+04  0.17944429569E+04 0.  0.
        3    1    3    3  502    0  0.27272931271E+02  0.46765712055E+03 -0.11774557629E+04  0.12672210064E+04  0.10100000352E+00 0. -1.
       -3    1    3    3    0  502 -0.27272931271E+02 -0.46765712055E+03  0.46819241579E+03  0.66230743888E+03  0.10100000352E+00 0.  1.
</event>
<event>
 5   0  0.1258546E-04  0.2007747E+04  0.7818609E-02  0.8603007E-01
        1   -1    0    0  501    0  0.00000000000E+00  0.00000000000E+00  0.15385355264E+04  0.15385355265E+04  0.50400001928E-02 0.  1.
       -1   -1    0    0    0  501  0.00000000000E+00  0.00000000000E+00 -0.65501389198E+03  0.65501389200E+03  0.50400001928E-02 0. -1.
    10030    2    1    2    0    0  0.00000000000E+00  0.00000000000E+00  0.88352163446E+03  0.21935494184E+04  0.20077471386E+04 0.  0.
        4    1    3    3  502    0  0.14817868792E+03  0.80614038756E+02 -0.63941765499E+03  0.66129577135E+03  0.12699999809E+01 0. -1.
       -4    1    3    3    0  502 -0.14817868792E+03 -0.80614038756E+02  0.15229392894E+04  0.15322536471E+04  0.12699999809E+01 0.  1.
</event>
<event>
 5   0  0.9099125E-05  0.1976315E+04  0.7818609E-02  0.8617775E-01
        3   -1    0    0  501    0  0.00000000000E+00  0.00000000000E+00  0.92961551253E+03  0.92961551801E+03  0.10100000352E+00 0. -1.
       -3   -1    0    0    0  501  0.00000000000E+00  0.00000000000E+00 -0.10503862880E+04  0.10503862929E+04  0.10100000352E+00 0.  1.
    10030    2    1    2    0    0  0.00000000000E+00  0.00000000000E+00 -0.12077077547E+03  0.19800018109E+04  0.19763151547E+04 0.  0.
        2    1    3    3  502    0  0.67134981946E+03  0.59107615759E+03  0.36036683079E+03  0.96433700380E+03  0.25500000920E-02 0. -1.
       -2    1    3    3    0  502 -0.67134981946E+03 -0.59107615759E+03 -0.48113760626E+03  0.10156648071E+04  0.25500000920E-02 0.  1.
</event>
<event>
 5   0  0.2596061E-04  0.1316871E+04  0.7818609E-02  0.9016292E-01
       -2   -1    0    0    0  501  0.00000000000E+00  0.00000000000E+00  0.77714288236E+03  0.77714288237E+03  0.25500000920E-02 0.  1.
        2   -1    0    0  501    0  0.00000000000E+00  0.00000000000E+00 -0.55786086019E+03  0.55786086020E+03  0.25500000920E-02 0. -1.
    10030    2    1    2    0    0  0.00000000000E+00  0.00000000000E+00  0.21928202217E+03  0.13350037426E+04  0.13168714392E+04 0.  0.
        5    1    3    3  502    0  0.46681733499E+02  0.39559484499E+03  0.64111240902E+03  0.75479909686E+03  0.46999998093E+01 0.  1.
       -5    1    3    3    0  502 -0.46681733499E+02 -0.39559484499E+03 -0.42183038686E+03  0.58020464570E+03  0.46999998093E+01 0. -1.
</event>
<event>
 5   0  0.1324930E-04  0.2039676E+04  0.7818609E-02  0.8588292E-01
        1   -1    0    0  501    0  0.00000000000E+00  0.00000000000E+00  0.23013094014E+04  0.23013094014E+04  0.50400001928E-02 0. -1.
       -1   -1    0    0    0  501  0.00000000000E+00  0.00000000000E+00 -0.45194689922E+03  0.45194689925E+03  0.50400001928E-02 0.  1.
    10030    2    1    2    0    0  0.00000000000E+00  0.00000000000E+00  0.18493625022E+04  0.27532563007E+04  0.20396761000E+04 0.  0.
        5    1    3    3  502    0  0.91825544043E+03 -0.18884588882E+03  0.14666282543E+04  0.17406540006E+04  0.46999998093E+01 0. -1.
       -5    1    3    3    0  502 -0.91825544043E+03  0.18884588882E+03  0.38273424795E+03  0.10126023001E+04  0.46999998093E+01 0.  1.
</event>
<event>
 5   0  0.2540506E-04  0.2026193E+04  0.7818609E-02  0.8594471E-01
       -2   -1    0    0    0  501  0.00000000000E+00  0.00000000000E+00  0.72708856780E+03  0.72708856781E+03  0.25500000920E-02 0.  1.
        2   -1    0    0  501    0  0.00000000000E+00  0.00000000000E+00 -0.14116091810E+04  0.14116091810E+04  0.25500000920E-02 0. -1.
    10030    2    1    2    0    0  0.00000000000E+00  0.00000000000E+00 -0.68452061321E+03  0.21386977488E+04  0.20261933745E+04 0.  0.
        4    1    3    3  502    0 -0.83992644333E+03  0.29873473577E+03 -0.85027869881E+03  0.12319473816E+04  0.12699999809E+01 0.  1.
       -4    1    3    3    0  502  0.83992644333E+03 -0.29873473577E+03  0.16575808559E+03  0.90675036719E+03  0.12699999809E+01 0. -1.
</event>
<event>
 5   0  0.1210633E-04  0.1967426E+04  0.7818609E-02  0.8622004E-01
       -1   -1    0    0    0  501  0.00000000000E+00  0.00000000000E+00  0.66120114043E+03  0.66120114044E+03  0.50400001928E-02 0.  1.
        1   -1    0    0  501    0  0.00000000000E+00  0.00000000000E+00 -0.14635346779E+04  0.14635346780E+04  0.50400001928E-02 0. -1.
    10030    2    1    2    0    0  0.00000000000E+00  0.00000000000E+00 -0.80233353752E+03  0.21247358184E+04  0.19674255240E+04 0.  0.
        2    1    3    3  502    0  0.15928003889E+03 -0.13585482560E+03  0.63686511064E+03  0.67039080661E+03  0.25500000920E-02 0.  1.
       -2    1    3    3    0  502 -0.15928003889E+03  0.13585482560E+03 -0.14391986482E+04  0.14543450118E+04  0.25500000920E-02 0. -1.
</event>
<event>
 5   0  0.1210633E-04  0.1926811E+04  0.7818609E-02  0.8641625E-01
       -1   -1    0    0    0  501  0.00000000000E+00  0.00000000000E+00  0.65671037008E+03  0.65671037010E+03  0.50400001928E-02 0. -1.
        1   -1    0    0  501    0  0.00000000000E+00  0.00000000000E+00 -0.14133328970E+04  0.14133328970E+04  0.50400001928E-02 0.  1.
    10030    2    1    2    0    0  0.00000000000E+00  0.00000000000E+00 -0.75662252687E+03  0.20700432671E+04  0.19268112205E+04 0.  0.
        2    1    3    3  502    0 -0.23782896345E+03 -0.79882757103E+03  0.14078583851E+03  0.84528619794E+03  0.25500000920E-02 0. -1.
       -2    1    3    3    0  502  0.23782896345E+03  0.79882757103E+03 -0.89740836538E+03  0.12247570691E+04  0.25500000920E-02 0.  1.
</event>
<event>
 5   0  0.1231056E-04  0.1954867E+04  0.7818609E-02  0.8628018E-01
        1   -1    0    0  501    0  0.00000000000E+00  0.00000000000E+00  0.16969728475E+04  0.16969728475E+04  0.50400001928E-02 0. -1.
       -1   -1    0    0    0  501  0.00000000000E+00  0.00000000000E+00 -0.56298832473E+03  0.56298832475E+03  0.50400001928E-02 0.  1.
    10030    2    1    2    0    0  0.00000000000E+00  0.00000000000E+00  0.11339845228E+04  0.22599611723E+04  0.19548666456E+04 0.  0.
        3    1    3    3  502    0 -0.79563564106E+03 -0.34594220355E+03  0.46550735735E+02  0.86883776547E+03  0.10100000352E+00 0.  1.
       -3    1    3    3    0  502  0.79563564106E+03  0.34594220355E+03  0.10874337871E+04  0.13911234068E+04  0.10100000352E+00 0. -1.
</event>
<event>
 5   0  0.2421737E-04  0.2035498E+04  0.7818609E-02  0.8590202E-01
       -2   -1    0    0    0  501  0.00000000000E+00  0.00000000000E+00  0.85417271612E+03  0.85417271612E+03  0.25500000920E-02 0.  1.
        2   -1    0    0  501    0  0.00000000000E+00  0.00000000000E+00 -0.12126502076E+04  0.12126502076E+04  0.25500000920E-02 0. -1.
    10030    2    1    2    0    0  0.00000000000E+00  0.00000000000E+00 -0.35847749147E+03  0.20668229237E+04  0.20354976998E+04 0.  0.
        1    1    3    3  502    0  0.12165194191E+03 -0.10234325166E+03  0.84148748660E+03  0.85637288973E+03  0.50400001928E-02 0.  1.
       -1    1    3    3    0  502 -0.12165194191E+03  0.10234325166E+03 -0.11999649781E+04  0.12104500340E+04  0.50400001928E-02 0. -1.
</event>
<event>
 5   0  0.1210633E-04  0.2022777E+04  0.7818609E-02  0.8596045E-01
       -1   -1    0    0    0  501  0.00000000000E+00  0.00000000000E+00  0.49596365832E+03  0.49596365835E+03  0.50400001928E-02 0. -1.
        1   -1    0    0  501    0  0.00000000000E+00  0.00000000000E+00 -0.20624624529E+04  0.20624624529E+04  0.50400001928E-02 0.  1.
    10030    2    1    2    0    0  0.00000000000E+00  0.00000000000E+00 -0.15664987946E+04  0.25584261113E+04  0.20227767285E+04 0.  0.
        2    1    3    3  502    0  0.72935363810E+03 -0.65537884718E+03 -0.10967288207E+04  0.14711533805E+04  0.25500000920E-02 0. -1.
       -2    1    3    3    0  502 -0.72935363810E+03  0.65537884718E+03 -0.46976997387E+03  0.10872727308E+04  0.25500000920E-02 0.  1.
</event>
<event>
 5   0  0.1210633E-04  0.1282734E+04  0.7818609E-02  0.9043370E-01
       -1   -1    0    0    0  501  0.00000000000E+00  0.00000000000E+00  0.51483395635E+03  0.51483395637E+03  0.50400001928E-02 0. -1.
        1   -1    0    0  501    0  0.00000000000E+00  0.00000000000E+00 -0.79899915683E+03  0.79899915685E+03  0.50400001928E-02 0.  1.
    10030    2    1    2    0    0  0.00000000000E+00  0.00000000000E+00 -0.28416520048E+03  0.13138331132E+04  0.12827344184E+04 0.  0.
        2    1    3    3  502    0 -0.52877103962E+03 -0.33662122537E+03 -0.28116587545E+03  0.68699847979E+03  0.25500000920E-02 0.  1.
       -2    1    3    3    0  502  0.52877103962E+03  0.33662122537E+03 -0.29993250322E+01  0.62683463343E+03  0.25500000920E-02 0. -1.
</event>
<event>
 5   0  0.2596061E-04  0.2085146E+04  0.7818609E-02  0.8567815E-01
       -2   -1    0    0    0  501  0.00000000000E+00  0.00000000000E+00  0.61832320002E+03  0.61832320002E+03  0.25500000920E-02 0. -1.
        2   -1    0    0  501    0  0.00000000000E+00  0.00000000000E+00 -0.17579134518E+04  0.17579134518E+04  0.25500000920E-02 0.  1.
    10030    2    1    2    0    0  0.00000000000E+00  0.00000000000E+00 -0.11395902518E+04  0.23762366518E+04  0.20851462020E+04 0.  0.
        5    1    3    3  502    0 -0.17518385707E+03  0.96264255610E+03 -0.97999880682E+03  0.13848428886E+04  0.46999998093E+01 0.  1.
       -5    1    3    3    0  502  0.17518385707E+03 -0.96264255610E+03 -0.15959144498E+03  0.99139376330E+03  0.46999998093E+01 0. -1.
</event>
<event>
 5   0  0.2540506E-04  0.2012308E+04  0.7818609E-02  0.8600888E-01
       -2   -1    0    0    0  501  0.00000000000E+00  0.00000000000E+00  0.71114313984E+03  0.71114313984E+03  0.25500000920E-02 0.  1.
        2   -1    0    0  501    0  0.00000000000E+00  0.00000000000E+00 -0.14235469229E+04  0.14235469229E+04  0.25500000920E-02 0. -1.
    10030    2    1    2    0    0  0.00000000000E+00  0.00000000000E+00 -0.71240378301E+03  0.21346900627E+04  0.20123077582E+04 0.  0.
        4    1    3    3  502    0  0.14413288552E+03 -0.62032891738E+03  0.47012051347E+03  0.79157890605E+03  0.12699999809E+01 0.  1.
       -4    1    3    3    0  502 -0.14413288552E+03  0.62032891738E+03 -0.11825242965E+04  0.13431111566E+04  0.12699999809E+01 0. -1.
</event>
<event>
 5   0  0.1210633E-04  0.1992229E+04  0.7818609E-02  0.8610263E-01
       -1   -1    0    0    0  501  0.00000000000E+00  0.00000000000E+00  0.10959258504E+04  0.10959258504E+04  0.50400001928E-02 0. -1.
        1   -1    0    0  501    0  0.00000000000E+00  0.00000000000E+00 -0.90539305226E+03  0.90539305227E+03  0.50400001928E-02 0.  1.
    10030    2    1    2    0    0  0.00000000000E+00  0.00000000000E+00  0.19053279811E+03  0.20013189027E+04  0.19922285519E+04 0.  0.
        2    1    3    3  502    0  0.23158650764E+03 -0.43394447145E+03 -0.77488662524E+03  0.91781773616E+03  0.25500000920E-02 0.  1.
       -2    1    3    3    0  502 -0.23158650764E+03  0.43394447145E+03  0.96541942335E+03  0.10835011665E+04  0.25500000920E-02 0. -1.
</event>
<event>
 5   0  0.1207228E-04  0.1975863E+04  0.7818609E-02  0.8617990E-01
       -1   -1    0    0    0  501  0.00000000000E+00  0.00000000000E+00  0.13896781988E+04  0.13896781988E+04  0.50400001928E-02 0.  1.
        1   -1    0    0  501    0  0.00000000000E+00  0.00000000000E+00 -0.70232679438E+03  0.70232679440E+03  0.50400001928E-02 0. -1.
    10030    2    1    2    0    0  0.00000000000E+00  0.00000000000E+00  0.68735140438E+03  0.20920049932E+04  0.19758625808E+04 0.  0.
        1    1    3    3  502    0  0.26987193640E+03  0.12932374796E+03  0.13405347930E+04  0.13735315887E+04  0.50400001928E-02 0.  1.
       -1    1    3    3    0  502 -0.26987193640E+03 -0.12932374796E+03 -0.65318338859E+03  0.71847340452E+03  0.50400001928E-02 0. -1.
</event>
<event>
 5   0  0.1231056E-04  0.2002189E+04  0.7818609E-02  0.8605598E-01
        1   -1    0    0  501    0  0.00000000000E+00  0.00000000000E+00  0.14174627656E+04  0.14174627656E+04  0.50400001928E-02 0.  1.
       -1   -1    0    0    0  501  0.00000000000E+00  0.00000000000E+00 -0.70703076014E+03  0.70703076016E+03  0.50400001928E-02 0. -1.
    10030    2    1    2    0    0  0.00000000000E+00  0.00000000000E+00  0.71043200546E+03  0.21244935258E+04  0.20021885792E+04 0.  0.
        3    1    3    3  502    0  0.59566449221E+03 -0.68699101458E+03  0.79962841399E+03  0.12108585599E+04  0.10100000352E+00 0.  1.
       -3    1    3    3    0  502 -0.59566449221E+03  0.68699101458E+03 -0.89196408534E+02  0.91363496588E+03  0.10100000352E+00 0. -1.
</event>
<event>
 5   0  0.2463085E-04  0.1307819E+04  0.7818609E-02  0.9023388E-01
       -2   -1    0    0    0  501  0.00000000000E+00  0.00000000000E+00  0.47653305318E+03  0.47653305319E+03  0.25500000920E-02 0.  1.
        2   -1    0    0  501    0  0.00000000000E+00  0.00000000000E+00 -0.89730922803E+03  0.89730922803E+03  0.25500000920E-02 0. -1.
    10030    2    1    2    0    0  0.00000000000E+00  0.00000000000E+00 -0.42077617485E+03  0.13738422812E+04  0.13078188041E+04 0.  0.
        2    1    3    3  502    0  0.53358105306E+03 -0.10470321087E+03  0.17116458858E+03  0.57006036430E+03  0.25500000920E-02 0.  1.
       -2    1    3    3    0  502 -0.53358105306E+03  0.10470321087E+03 -0.59194076343E+03  0.80378191692E+03  0.25500000920E-02 0. -1.
</event>
<event>
 5   0  0.1207228E-04  0.1959541E+04  0.7818609E-02  0.8625774E-01
        1   -1    0    0  501    0  0.00000000000E+00  0.00000000000E+00  0.66098552801E+03  0.66098552803E+03  0.50400001928E-02 0.  1.
       -1   -1    0    0    0  501  0.00000000000E+00  0.00000000000E+00 -0.14523018940E+04  0.14523018940E+04  0.50400001928E-02 0. -1.
    10030    2    1    2    0    0  0.00000000000E+00  0.00000000000E+00 -0.79131636596E+03  0.21132874220E+04  0.19595413078E+04 0.  0.
        1    1    3    3  502    0  0.96997742730E+03 -0.11854250871E+03 -0.31907992265E+03  0.10279691303E+04  0.50400001928E-02 0. -1.
       -1    1    3    3    0  502 -0.96997742730E+03  0.11854250871E+03 -0.47223644331E+03  0.10853182917E+04  0.50400001928E-02 0.  1.
</event>
<event>
 5   0  0.2596061E-04  0.2001712E+04  0.7818609E-02  0.8605820E-01
        2   -1    0    0  501    0  0.00000000000E+00  0.00000000000E+00  0.77899834572E+03  0.77899834573E+03  0.25500000920E-02 0.  1.
       -2   -1    0    0    0  501  0.00000000000E+00  0.00000000000E+00 -0.12858989969E+04  0.12858989969E+04  0.25500000920E-02 0. -1.
    10030    2    1    2    0    0  0.00000000000E+00  0.00000000000E+00 -0.50690065121E+03  0.20648973427E+04  0.20017124583E+04 0.  0.
        5    1    3    3  502    0 -0.31493578590E+03  0.42241526581E+03 -0.11312342412E+04  0.12479311698E+04  0.46999998093E+01 0. -1.
       -5    1    3    3    0  502  0.31493578590E+03 -0.42241526581E+03  0.62433359000E+03  0.81696617288E+03  0.46999998093E+01 0.  1.
</event>
<event>
 5   0  0.1231056E-04  0.1925700E+04  0.7818609E-02  0.8642169E-01
       -1   -1    0    0    0  501  0.00000000000E+00  0.00000000000E+00  0.62291646572E+03  0.62291646574E+03  0.50400001928E-02 0.  1.
        1   -1    0    0  501    0  0.00000000000E+00  0.00000000000E+00 -0.14882895544E+04  0.14882895544E+04  0.50400001928E-02 0. -1.
    10030    2    1    2    0    0  0.00000000000E+00  0.00000000000E+00 -0.86537308864E+03  0.21112060201E+04  0.19256999446E+04 0.  0.
        3    1    3    3  502    0 -0.12719577206E+03 -0.20453403113E+03 -0.14547283451E+04  0.14745329778E+04  0.10100000352E+00 0. -1.
       -3    1    3    3    0  502  0.12719577206E+03  0.20453403113E+03  0.58935525645E+03  0.63667304233E+03  0.10100000352E+00 0.  1.
</event>
<event>
 5   0  0.2463085E-04  0.1960541E+04  0.7818609E-02  0.8625295E-01
        2   -1    0    0  501    0  0.00000000000E+00  0.00000000000E+00  0.13982597605E+04  0.13982597605E+04  0.25500000920E-02 0. -1.
       -2   -1    0    0    0  501  0.00000000000E+00  0.00000000000E+00 -0.68723267219E+03  0.68723267219E+03  0.25500000920E-02 0.  1.
    10030    2    1    2    0    0  0.00000000000E+00  0.00000000000E+00  0.71102708826E+03  0.20854924326E+04  0.19605405291E+04 0.  0.
        2    1    3    3  502    0  0.38487455954E+03  0.57814704918E+03 -0.38034655316E+03  0.79186232235E+03  0.25500000920E-02 0.  1.
       -2    1    3    3    0  502 -0.38487455954E+03 -0.57814704918E+03  0.10913736414E+04  0.12936301103E+04  0.25500000920E-02 0. -1.
</event>
<event>
 5   0  0.9099125E-05  0.2029299E+04  0.7818609E-02  0.8593044E-01
        3   -1    0    0  501    0  0.00000000000E+00  0.00000000000E+00  0.51893604410E+03  0.51893605393E+03  0.10100000352E+00 0. -1.
       -3   -1    0    0    0  501  0.00000000000E+00  0.00000000000E+00 -0.19838927885E+04  0.19838927911E+04  0.10100000352E+00 0.  1.
    10030    2    1    2    0    0  0.00000000000E+00  0.00000000000E+00 -0.14649567444E+04  0.25028288450E+04  0.20292988849E+04 0.  0.
        5    1    3    3  502    0  0.49951322059E+03  0.81724107427E+03 -0.31954669749E+03  0.10097170955E+04  0.46999998093E+01 0. -1.
       -5    1    3    3    0  502 -0.49951322059E+03 -0.81724107427E+03 -0.11454100469E+04  0.14931117495E+04  0.46999998093E+01 0.  1.
</event>
<event>
 5   0  0.2488886E-04  0.2017323E+04  0.7818609E-02  0.8598564E-01
        2   -1    0    0  501    0  0.00000000000E+00  0.00000000000E+00  0.14206876864E+04  0.14206876864E+04  0.25500000920E-02 0. -1.
       -2   -1    0    0    0  501  0.00000000000E+00  0.00000000000E+00 -0.71613082521E+03  0.71613082521E+03  0.25500000920E-02 0.  1.
    10030    2    1    2    0    0  0.00000000000E+00  0.00000000000E+00  0.70455686116E+03  0.21368185116E+04  0.20173232217E+04 0.  0.
        3    1    3    3  502    0 -0.53279498692E+03  0.57028078608E+03 -0.32456132697E+03  0.84524004769E+03  0.10100000352E+00 0.  1.
       -3    1    3    3    0  502  0.53279498692E+03 -0.57028078608E+03  0.10291181881E+04  0.12915784639E+04  0.10100000352E+00 0. -1.
</event>
<event>
 5   0  0.1207228E-04  0.2041827E+04  0.7818609E-02  0.8587311E-01
        1   -1    0    0  501    0  0.00000000000E+00  0.00000000000E+00  0.10465018260E+04  0.10465018260E+04  0.50400001928E-02 0. -1.
       -1   -1    0    0    0  501  0.00000000000E+00  0.00000000000E+00 -0.99595037242E+03  0.99595037243E+03  0.50400001928E-02 0.  1.
    10030    2    1    2    0    0  0.00000000000E+00  0.00000000000E+00  0.50551453596E+02  0.20424521985E+04  0.20418265190E+04 0.  0.
        1    1    3    3  502    0  0.53257541516E+03 -0.80573486463E+03  0.35616197206E+03  0.10294156572E+04  0.50400001928E-02 0. -1.
       -1    1    3    3    0  502 -0.53257541516E+03  0.80573486463E+03 -0.30561051846E+03  0.10130365413E+04  0.50400001928E-02 0.  1.
</event>
<event>
 5   0  0.1210633E-04  0.1981935E+04  0.7818609E-02  0.8615113E-01
       -1   -1    0    0    0  501  0.00000000000E+00  0.00000000000E+00  0.63874507254E+03  0.63874507256E+03  0.50400001928E-02 0.  1.
        1   -1    0    0  501    0  0.00000000000E+00  0.00000000000E+00 -0.15374155408E+04  0.15374155408E+04  0.50400001928E-02 0. -1.
    10030    2    1    2    0    0  0.00000000000E+00  0.00000000000E+00 -0.89867046829E+03  0.21761606134E+04  0.19819350153E+04 0.  0.
        2    1    3    3  502    0 -0.49540279931E+02  0.78514197844E+03  0.21230711122E+03  0.81484751648E+03  0.25500000920E-02 0.  1.
       -2    1    3    3    0  502  0.49540279931E+02 -0.78514197844E+03 -0.11109775795E+04  0.13613130969E+04  0.25500000920E-02 0. -1.
</event>
<event>
 5   0  0.2488886E-04  0.1963556E+04  0.7818609E-02  0.8623851E-01
        2   -1    0    0  501    0  0.00000000000E+00  0.00000000000E+00  0.12587110409E+04  0.12587110409E+04  0.25500000920E-02 0.  1.
       -2   -1    0    0    0  501  0.00000000000E+00  0.00000000000E+00 -0.76577408329E+03  0.76577408329E+03  0.25500000920E-02 0. -1.
    10030    2    1    2    0    0  0.00000000000E+00  0.00000000000E+00  0.49293695759E+03  0.20244851242E+04  0.19635562568E+04 0.  0.
        3    1    3    3  502    0 -0.58931113302E+03 -0.55757091427E+03  0.81654067786E+03  0.11510480549E+04  0.10100000352E+00 0.  1.
       -3    1    3    3    0  502  0.58931113302E+03  0.55757091427E+03 -0.32360372028E+03  0.87343706924E+03  0.10100000352E+00 0. -1.
</event>
<event>
 5   0  0.1324930E-04  0.1980189E+04  0.7818609E-02  0.8615939E-01
        1   -1    0    0  501    0  0.00000000000E+00  0.00000000000E+00  0.13205911278E+04  0.13205911278E+04  0.50400001928E-02 0. -1.
       -1   -1    0    0    0  501  0.00000000000E+00  0.00000000000E+00 -0.74230930481E+03  0.74230930483E+03  0.50400001928E-02 0.  1.
    10030    2    1    2    0    0  0.00000000000E+00  0.00000000000E+00  0.57828182298E+03  0.20629004326E+04  0.19801889627E+04 0.  0.
        5    1    3    3  502    0  0.23265882070E+03  0.15131408315E+03 -0.70094516082E+03  0.75390469364E+03  0.46999998093E+01 0.  1.
       -5    1    3    3    0  502 -0.23265882070E+03 -0.15131408315E+03  0.12792269838E+04  0.13089957390E+04  0.46999998093E+01 0. -1.
</event>
<event>
 5   0  0.2421737E-04  0.1686225E+04  0.7818609E-02  0.8769260E-01
        2   -1    0    0  501    0  0.00000000000E+00  0.00000000000E+00  0.13194301369E+04  0.13194301369E+04  0.25500000920E-02 0.  1.
       -2   -1    0    0    0  501  0.00000000000E+00  0.00000000000E+00 -0.53874694055E+03  0.53874694056E+03  0.25500000920E-02 0. -1.
    10030    2    1    2    0    0  0.00000000000E+00  0.00000000000E+00  0.78068319635E+03  0.18581770775E+04  0.16862253106E+04 0.  0.
        1    1    3    3  502    0 -0.36429317552E+03  0.91242747790E+01  0.12281655309E+04  0.12810867814E+04  0.50400001928E-02 0.  1.
       -1    1    3    3    0  502  0.36429317552E+03 -0.91242747790E+01 -0.44748233452E+03  0.57709029611E+03  0.50400001928E-02 0. -1.
</event>
<event>
 5   0  0.1207228E-04  0.1969618E+04  0.7818609E-02  0.8620958E-01
        1   -1    0    0  501    0  0.00000000000E+00  0.00000000000E+00  0.23534560787E+04  0.23534560787E+04  0.50400001928E-02 0.  1.
       -1   -1    0    0    0  501  0.00000000000E+00  0.00000000000E+00 -0.41209548244E+03  0.41209548247E+03  0.50400001928E-02 0. -1.
    10030    2    1    2    0    0  0.00000000000E+00  0.00000000000E+00  0.19413605963E+04  0.27655515612E+04  0.19696178494E+04 0.  0.
        1    1    3    3  502    0 -0.91953427768E+03 -0.31427350149E+03  0.74629781513E+03  0.12252638697E+04  0.50400001928E-02 0. -1.
       -1    1    3    3    0  502  0.91953427768E+03  0.31427350149E+03  0.11950627811E+04  0.15402876914E+04  0.50400001928E-02 0.  1.
</event>
<event>
 5   0  0.2463085E-04  0.1339744E+04  0.7818609E-02  0.8998629E-01
        2   -1    0    0  501    0  0.00000000000E+00  0.00000000000E+00  0.46298732889E+03  0.46298732890E+03  0.25500000920E-02 0.  1.
       -2   -1    0    0    0  501  0.00000000000E+00  0.00000000000E+00 -0.96920198193E+03  0.96920198193E+03  0.25500000920E-02 0. -1.
    10030    2    1    2    0    0  0.00000000000E+00  0.00000000000E+00 -0.50621465304E+03  0.14321893108E+04  0.13397436125E+04 0.  0.
        2    1    3    3  502    0  0.37088341214E+03  0.54828675559E+03 -0.14327874841E+03  0.67727518153E+03  0.25500000920E-02 0.  1.
       -2    1    3    3    0  502 -0.37088341214E+03 -0.54828675559E+03 -0.36293590463E+03  0.75491412931E+03  0.25500000920E-02 0. -1.
</event>
<event>
 5   0  0.1231056E-04  0.1936399E+04  0.7818609E-02  0.8636947E-01
       -1   -1    0    0    0  501  0.00000000000E+00  0.00000000000E+00  0.83040645932E+03  0.83040645934E+03  0.50400001928E-02 0. -1.
        1   -1    0    0  501    0  0.00000000000E+00  0.00000000000E+00 -0.11288576309E+04  0.11288576310E+04  0.50400001928E-02 0.  1.
    10030    2    1    2    0    0  0.00000000000E+00  0.00000000000E+00 -0.29845117162E+03  0.19592640903E+04  0.19363994097E+04 0.  0.
        3    1    3    3  502    0  0.37421955935E+03 -0.59186269776E+03 -0.82575281329E+03  0.10826862198E+04  0.10100000352E+00 0.  1.
       -3    1    3    3    0  502 -0.37421955935E+03  0.59186269776E+03  0.52730164167E+03  0.87657787054E+03  0.10100000352E+00 0. -1.
</event>
<event>
 5   0  0.2540506E-04  0.1948887E+04  0.7818609E-02  0.8630897E-01
        2   -1    0    0  501    0  0.00000000000E+00  0.00000000000E+00  0.12181937294E+04  0.12181937294E+04  0.25500000920E-02 0.  1.
       -2   -1    0    0    0  501  0.00000000000E+00  0.00000000000E+00 -0.77946592901E+03  0.77946592902E+03  0.25500000920E-02 0. -1.
    10030    2    1    2    0    0  0.00000000000E+00  0.00000000000E+00  0.43872780037E+03  0.19976596584E+04  0.19488873821E+04 0.  0.
        4    1    3    3  502    0 -0.95493146230E+03 -0.11165336512E+03  0.38201168445E+03  0.10345506810E+04  0.12699999809E+01 0. -1.
       -4    1    3    3    0  502  0.95493146230E+03  0.11165336512E+03  0.56716115924E+02  0.96310897739E+03  0.12699999809E+01 0.  1.
</event>
<event>
 5   0  0.2421737E-04  0.1997441E+04  0.7818609E-02  0.8607818E-01
       -2   -1    0    0    0  501  0.00000000000E+00  0.00000000000E+00  0.62669000434E+03  0.62669000434E+03  0.25500000920E-02 0. -1.
        2   -1    0    0  501    0  0.00000000000E+00  0.00000000000E+00 -0.15916044675E+04  0.15916044675E+04  0.25500000920E-02 0.  1.
    10030    2    1    2    0    0  0.00000000000E+00  0.00000000000E+00 -0.96491446320E+03  0.22182944719E+04  0.19974409735E+04 0.  0.
        1    1    3    3  502    0 -0.28638733400E+03 -0.29773926110E+03 -0.14922662285E+04  0.15483942875E+04  0.50400001928E-02 0.  1.
       -1    1    3    3    0  502  0.28638733400E+03  0.29773926110E+03  0.52735176531E+03  0.66990018441E+03  0.50400001928E-02 0. -1.
</event>
<event>
 5   0  0.1231056E-04  0.1989363E+04  0.7818609E-02  0.8611610E-01
        1   -1    0    0  501    0  0.00000000000E+00  0.00000000000E+00  0.11998892478E+04  0.11998892478E+04  0.50400001928E-02 0. -1.
       -1   -1    0    0    0  501  0.00000000000E+00  0.00000000000E+00 -0.82456906870E+03  0.82456906872E+03  0.50400001928E-02 0.  1.
    10030    2    1    2    0    0  0.00000000000E+00  0.00000000000E+00  0.37532017912E+03  0.20244583166E+04  0.19893632747E+04 0.  0.
        3    1    3    3  502    0  0.28368173638E+03  0.90721625637E+03 -0.11055377433E+03  0.95694242805E+03  0.10100000352E+00 0.  1.
       -3    1    3    3    0  502 -0.28368173638E+03 -0.90721625637E+03  0.48587395344E+03  0.10675158885E+04  0.10100000352E+00 0. -1.
</event>
<event>
 5   0  0.1324930E-04  0.1782987E+04  0.7818609E-02  0.8715400E-01
       -1   -1    0    0    0  501  0.00000000000E+00  0.00000000000E+00  0.43198674306E+03  0.43198674309E+03  0.50400001928E-02 0. -1.
        1   -1    0    0  501    0  0.00000000000E+00  0.00000000000E+00 -0.18397794361E+04  0.18397794361E+04  0.50400001928E-02 0.  1.
    10030    2    1    2    0    0  0.00000000000E+00  0.00000000000E+00 -0.14077926931E+04  0.22717661792E+04  0.17829866254E+04 0.  0.
        5    1    3    3  502    0  0.32050848083E+03  0.15732334353E+03  0.33689509737E+03  0.49091416494E+03  0.46999998093E+01 0. -1.
       -5    1    3    3    0  502 -0.32050848083E+03 -0.15732334353E+03 -0.17446877904E+04  0.17808520143E+04  0.46999998093E+01 0.  1.
</event>
<event>
 5   0  0.1231056E-04  0.1692499E+04  0.7818609E-02  0.8765654E-01
       -1   -1    0    0    0  501  0.00000000000E+00  0.00000000000E+00  0.69583126881E+03  0.69583126883E+03  0.50400001928E-02 0.  1.
        1   -1    0    0  501    0  0.00000000000E+00  0.00000000000E+00 -0.10291841592E+04  0.10291841592E+04  0.50400001928E-02 0. -1.
    10030    2    1    2    0    0  0.00000000000E+00  0.00000000000E+00 -0.33335289038E+03  0.17250154280E+04  0.16924993582E+04 0.  0.
        3    1    3    3  502    0 -0.64655688946E+03 -0.57708087189E+02  0.38668377384E+03  0.75557288582E+03  0.10100000352E+00 0.  1.
       -3    1    3    3    0  502  0.64655688946E+03  0.57708087189E+02 -0.72003666422E+03  0.96944254221E+03  0.10100000352E+00 0. -1.
</event>
<event>
 5   0  0.1324930E-04  0.1995801E+04  0.7818609E-02  0.8608586E-01
       -1   -1    0    0    0  501  0.00000000000E+00  0.00000000000E+00  0.35979819339E+03  0.35979819342E+03  0.50400001928E-02 0.  1.
        1   -1    0    0  501    0  0.00000000000E+00  0.00000000000E+00 -0.27676776774E+04  0.27676776774E+04  0.50400001928E-02 0. -1.
    10030    2    1    2    0    0  0.00000000000E+00  0.00000000000E+00 -0.24078794840E+04  0.31274758708E+04  0.19958010204E+04 0.  0.
        5    1    3    3  502    0  0.56874329843E+03  0.53657695539E+03 -0.21754964928E+04  0.23117506027E+04  0.46999998093E+01 0. -1.
       -5    1    3    3    0  502 -0.56874329843E+03 -0.53657695539E+03 -0.23238299119E+03  0.81572526818E+03  0.46999998093E+01 0.  1.
</event>
<event>
 5   0  0.2463085E-04  0.2016227E+04  0.7818609E-02  0.8599071E-01
        2   -1    0    0  501    0  0.00000000000E+00  0.00000000000E+00  0.20577582856E+04  0.20577582856E+04  0.25500000920E-02 0. -1.
       -2   -1    0    0    0  501  0.00000000000E+00  0.00000000000E+00 -0.49388353382E+03  0.49388353383E+03  0.25500000920E-02 0.  1.
    10030    2    1    2    0    0  0.00000000000E+00  0.00000000000E+00  0.15638747518E+04  0.25516418195E+04  0.20162271041E+04 0.  0.
        2    1    3    3  502    0  0.73104565845E+03  0.34358645605E+03  0.18594453000E+02  0.80797596574E+03  0.25500000920E-02 0.  1.
       -2    1    3    3    0  502 -0.73104565845E+03 -0.34358645605E+03  0.15452802988E+04  0.17436658537E+04  0.25500000920E-02 0. -1.
</event>
<event>
 5   0  0.1231056E-04  0.2012112E+04  0.7818609E-02  0.8600979E-01
       -1   -1    0    0    0  501  0.00000000000E+00  0.00000000000E+00  0.11551346280E+04  0.11551346280E+04  0.50400001928E-02 0. -1.
        1   -1    0    0  501    0  0.00000000000E+00  0.00000000000E+00 -0.87621736838E+03  0.87621736840E+03  0.50400001928E-02 0.  1.
    10030    2    1    2    0    0  0.00000000000E+00  0.00000000000E+00  0.27891725963E+03  0.20313519964E+04  0.20121123467E+04 0.  0.
        3    1    3    3  502    0 -0.70853437475E+03 -0.54582499527E+03  0.60451848285E+03  0.10795316077E+04  0.10100000352E+00 0. -1.
       -3    1    3    3    0  502  0.70853437475E+03  0.54582499527E+03 -0.32560122321E+03  0.95182038874E+03  0.10100000352E+00 0.  1.
</event>
<event>
 5   0  0.2421737E-04  0.2003749E+04  0.7818609E-02  0.8604870E-01
        2   -1    0    0  501    0  0.00000000000E+00  0.00000000000E+00  0.93672247097E+03  0.93672247097E+03  0.25500000920E-02 0. -1.
       -2   -1    0    0    0  501  0.00000000000E+00  0.00000000000E+00 -0.10715582023E+04  0.10715582024E+04  0.25500000920E-02 0.  1.
    10030    2    1    2    0    0  0.00000000000E+00  0.00000000000E+00 -0.13483573138E+03  0.20082806733E+04  0.20037491331E+04 0.  0.
        1    1    3    3  502    0  0.14806415009E+02  0.40076619575E+03 -0.98760087086E+03  0.10659213169E+04  0.50400001928E-02 0.  1.
       -1    1    3    3    0  502 -0.14806415009E+02 -0.40076619575E+03  0.85276513948E+03  0.94235935647E+03  0.50400001928E-02 0. -1.
</event>
<event>
 5   0  0.2540506E-04  0.1957958E+04  0.7818609E-02  0.8626533E-01
       -2   -1    0    0    0  501  0.00000000000E+00  0.00000000000E+00  0.94663336215E+03  0.94663336216E+03  0.25500000920E-02 0. -1.
        2   -1    0    0  501    0  0.00000000000E+00  0.00000000000E+00 -0.10124300896E+04  0.10124300896E+04  0.25500000920E-02 0.  1.
    10030    2    1    2    0    0  0.00000000000E+00  0.00000000000E+00 -0.65796727487E+02  0.19590634518E+04  0.19579582219E+04 0.  0.
        4    1    3    3  502    0 -0.23423802494E+03 -0.89524271595E+03 -0.35256503601E+03  0.99026798914E+03  0.12699999809E+01 0.  1.
       -4    1    3    3    0  502  0.23423802494E+03  0.89524271595E+03  0.28676830852E+03  0.96879546266E+03  0.12699999809E+01 0. -1.
</event>
<event>
 5   0  0.1231056E-04  0.1998993E+04  0.7818609E-02  0.8607091E-01
       -1   -1    0    0    0  501  0.00000000000E+00  0.00000000000E+00  0.54044291347E+03  0.54044291349E+03  0.50400001928E-02 0. -1.
        1   -1    0    0  501    0  0.00000000000E+00  0.00000000000E+00 -0.18484720036E+04  0.18484720036E+04  0.50400001928E-02 0.  1.
    10030    2    1    2    0    0  0.00000000000E+00  0.00000000000E+00 -0.13080290902E+04  0.23889149171E+04  0.19989933418E+04 0.  0.
        3    1    3    3  502    0 -0.79036247067E+03  0.13898813693E+03 -0.13660561583E+04  0.15843295033E+04  0.10100000352E+00 0.  1.
       -3    1    3    3    0  502  0.79036247067E+03 -0.13898813693E+03  0.58027068153E+02  0.80458541380E+03  0.10100000352E+00 0. -1.
</event>
<event>
 5   0  0.2488886E-04  0.2038050E+04  0.7818609E-02  0.8589035E-01
        2   -1    0    0  501    0  0.00000000000E+00  0.00000000000E+00  0.14262529906E+04  0.14262529906E+04  0.25500000920E-02 0. -1.
       -2   -1    0    0    0  501  0.00000000000E+00  0.00000000000E+00 -0.72806977639E+03  0.72806977640E+03  0.25500000920E-02 0.  1.
    10030    2    1    2    0    0  0.00000000000E+00  0.00000000000E+00  0.69818321425E+03  0.21543227670E+04  0.20380497501E+04 0.  0.
        3    1    3    3  502    0  0.58914154647E+03 -0.27022136626E+02 -0.52933868722E+03  0.79247549718E+03  0.10100000352E+00 0.  1.
       -3    1    3    3    0  502 -0.58914154647E+03  0.27022136626E+02  0.12275219015E+04  0.13618472699E+04  0.10100000352E+00 0. -1.
</event>
<event>
 5   0  0.2421737E-04  0.1475747E+04  0.7818609E-02  0.8900743E-01
       -2   -1    0    0    0  501  0.00000000000E+00  0.00000000000E+00  0.12752346660E+04  0.12752346660E+04  0.25500000920E-02 0.  1.
        2   -1    0    0  501    0  0.00000000000E+00  0.00000000000E+00 -0.42694649783E+03  0.42694649783E+03  0.25500000920E-02 0. -1.
    10030    2    1    2    0    0  0.00000000000E+00  0.00000000000E+00  0.84828816815E+03  0.17021811638E+04  0.14757465562E+04 0.  0.
        1    1    3    3  502    0  0.50287006275E+03 -0.50646991456E+03  0.64013858296E+03  0.95873222528E+03  0.50400001928E-02 0.  1.
       -1    1    3    3    0  502 -0.50287006275E+03  0.50646991456E+03  0.20814958519E+03  0.74344893854E+03  0.50400001928E-02 0. -1.
</event>
<event>
 5   0  0.1210633E-04  0.1995841E+04  0.7818609E-02  0.8608568E-01
       -1   -1    0    0    0  501  0.00000000000E+00  0.00000000000E+00  0.27437733441E+04  0.27437733441E+04  0.50400001928E-02 0. -1.
        1   -1    0    0  501    0  0.00000000000E+00  0.00000000000E+00 -0.36294728154E+03  0.36294728158E+03  0.50400001928E-02 0.  1.
    10030    2    1    2    0    0  0.00000000000E+00  0.00000000000E+00  0.23808260625E+04  0.31067206256E+04  0.19958407516E+04 0.  0.
        2    1    3    3  502    0 -0.55051776495E+03  0.34743153211E+03  0.13079237631E+02  0.65111408024E+03  0.25500000920E-02 0.  1.
       -2    1    3    3    0  502  0.55051776495E+03 -0.34743153211E+03  0.23677468249E+04  0.24556065454E+04  0.25500000920E-02 0. -1.
</event>
<event>
 5   0  0.1324930E-04  0.2048158E+04  0.7818609E-02  0.8584431E-01
       -1   -1    0    0    0  501  0.00000000000E+00  0.00000000000E+00  0.69609476945E+03  0.69609476947E+03  0.50400001928E-02 0. -1.
        1   -1    0    0  501    0  0.00000000000E+00  0.00000000000E+00 -0.15066016545E+04  0.15066016545E+04  0.50400001928E-02 0.  1.
    10030    2    1    2    0    0  0.00000000000E+00  0.00000000000E+00 -0.81050688506E+03  0.22026964240E+04  0.20481577394E+04 0.  0.
        5    1    3    3  502    0 -0.86112408947E+03  0.20060725142E+03  0.15038977764E+03  0.89689304937E+03  0.46999998093E+01 0. -1.
       -5    1    3    3    0  502  0.86112408947E+03 -0.20060725142E+03 -0.96089666270E+03  0.13058033746E+04  0.46999998093E+01 0.  1.
</event>
<event>
 5   0  0.1207228E-04  0.1999954E+04  0.7818609E-02  0.8606642E-01
        1   -1    0    0  501    0  0.00000000000E+00  0.00000000000E+00  0.17715855139E+04  0.17715855139E+04  0.50400001928E-02 0.  1.
       -1   -1    0    0    0  501  0.00000000000E+00  0.00000000000E+00 -0.56444042983E+03  0.56444042985E+03  0.50400001928E-02 0. -1.
    10030    2    1    2    0    0  0.00000000000E+00  0.00000000000E+00  0.12071450841E+04  0.23360259438E+04  0.19999544885E+04 0.  0.
        1    1    3    3  502    0  0.42160276081E+03 -0.37459662994E+03  0.15680952784E+04  0.16664316144E+04  0.50400001928E-02 0.  1.
       -1    1    3    3    0  502 -0.42160276081E+03  0.37459662994E+03 -0.36095019438E+03  0.66959432938E+03  0.50400001928E-02 0. -1.
</event>
<event>
 5   0  0.2596061E-04  0.1974936E+04  0.7818609E-02  0.8618429E-01
       -2   -1    0    0    0  501  0.00000000000E+00  0.00000000000E+00  0.13396589542E+04  0.13396589542E+04  0.25500000920E-02 0. -1.
        2   -1    0    0  501    0  0.00000000000E+00  0.00000000000E+00 -0.72786664749E+03  0.72786664750E+03  0.25500000920E-02 0.  1.
    10030    2    1    2    0    0  0.00000000000E+00  0.00000000000E+00  0.61179230670E+03  0.20675256017E+04  0.19749360210E+04 0.  0.
        5    1    3    3  502    0 -0.33604123774E+03 -0.23822551892E+03  0.12454086568E+04  0.13117697678E+04  0.46999998093E+01 0. -1.
       -5    1    3    3    0  502  0.33604123774E+03  0.23822551892E+03 -0.63361635010E+03  0.75575583388E+03  0.46999998093E+01 0.  1.
</event>
<event>
 5   0  0.2488886E-04  0.2002306E+04  0.7818609E-02  0.8605543E-01
        2   -1    0    0  501    0  0.00000000000E+00  0.00000000000E+00  0.15942661616E+04  0.15942661616E+04  0.25500000920E-02 0.  1.
       -2   -1    0    0    0  501  0.00000000000E+00  0.00000000000E+00 -0.62869483748E+03  0.62869483749E+03  0.25500000920E-02 0. -1.
    10030    2    1    2    0    0  0.00000000000E+00  0.00000000000E+00  0.96557132410E+03  0.22229609991E+04  0.20023055764E+04 0.  0.
        3    1    3    3  502    0  0.69227020626E+03 -0.63618918772E+03  0.86468851992E+03  0.12773648530E+04  0.10100000352E+00 0.  1.
       -3    1    3    3    0  502 -0.69227020626E+03  0.63618918772E+03  0.10088280418E+03  0.94559614605E+03  0.10100000352E+00 0. -1.
</event>
<event>
 5   0  0.2540506E-04  0.2018997E+04  0.7818609E-02  0.8597790E-01
       -2   -1    0    0    0  501  0.00000000000E+00  0.00000000000E+00  0.83003158298E+03  0.83003158298E+03  0.25500000920E-02 0. -1.
        2   -1    0    0  501    0  0.00000000000E+00  0.00000000000E+00 -0.12277690319E+04  0.12277690319E+04  0.25500000920E-02 0.  1.
    10030    2    1    2    0    0  0.00000000000E+00  0.00000000000E+00 -0.39773744895E+03  0.20578006149E+04  0.20189968530E+04 0.  0.
        4    1    3    3  502    0  0.74048465357E+03  0.65529913246E+03 -0.40612637962E+03  0.10689596458E+04  0.12699999809E+01 0. -1.
       -4    1    3    3    0  502 -0.74048465357E+03 -0.65529913246E+03  0.83889306791E+01  0.98884096913E+03  0.12699999809E+01 0.  1.
</event>
<event>
 5   0  0.2488886E-04  0.1993367E+04  0.7818609E-02  0.8609728E-01
        2   -1    0    0  501    0  0.00000000000E+00  0.00000000000E+00  0.15985336388E+04  0.15985336388E+04  0.25500000920E-02 0.  1.
       -2   -1    0    0    0  501  0.00000000000E+00  0.00000000000E+00 -0.62143073546E+03  0.62143073546E+03  0.25500000920E-02 0. -1.
    10030    2    1    2    0    0  0.00000000000E+00  0.00000000000E+00  0.97710290339E+03  0.22199643743E+04  0.19933669355E+04 0.  0.
        3    1    3    3  502    0  0.86953987510E+03  0.46035184799E+03  0.66588313399E+03  0.11880335756E+04  0.10100000352E+00 0.  1.
       -3    1    3    3    0  502 -0.86953987510E+03 -0.46035184799E+03  0.31121976940E+03  0.10319307987E+04  0.10100000352E+00 0. -1.
</event>
<event>
 5   0  0.1324930E-04  0.2005251E+04  0.7818609E-02  0.8604169E-01
        1   -1    0    0  501    0  0.00000000000E+00  0.00000000000E+00  0.40069192872E+03  0.40069192875E+03  0.50400001928E-02 0. -1.
       -1   -1    0    0    0  501  0.00000000000E+00  0.00000000000E+00 -0.25088061570E+04  0.25088061570E+04  0.50400001928E-02 0.  1.
    10030    2    1    2    0    0  0.00000000000E+00  0.00000000000E+00 -0.21081142283E+04  0.29094980857E+04  0.20052514834E+04 0.  0.
        5    1    3    3  502    0 -0.14884242268E+03  0.58584836072E+03 -0.22146851055E+04  0.22956969694E+04  0.46999998093E+01 0.  1.
       -5    1    3    3    0  502  0.14884242268E+03 -0.58584836072E+03  0.10657087727E+03  0.61380111635E+03  0.46999998093E+01 0. -1.
</event>
<event>
 5   0  0.1258546E-04  0.1942988E+04  0.7818609E-02  0.8633749E-01
        1   -1    0    0  501    0  0.00000000000E+00  0.00000000000E+00  0.13322630087E+04  0.13322630087E+04  0.50400001928E-02 0.  1.
       -1   -1    0    0    0  501  0.00000000000E+00  0.00000000000E+00 -0.70841935518E+03  0.70841935520E+03  0.50400001928E-02 0. -1.
    10030    2    1    2    0    0  0.00000000000E+00  0.00000000000E+00  0.62384365348E+03  0.20406823639E+04  0.19429883186E+04 0.  0.
        4    1    3    3  502    0 -0.18063670435E+03 -0.68301046004E+03 -0.38843984328E+03  0.80623819819E+03  0.12699999809E+01 0.  1.
       -4    1    3    3    0  502  0.18063670435E+03  0.68301046004E+03  0.10122834968E+04  0.12344441657E+04  0.12699999809E+01 0. -1.
</event>
<event>
 5   0  0.1324930E-04  0.1987710E+04  0.7818609E-02  0.8612388E-01
        1   -1    0    0  501    0  0.00000000000E+00  0.00000000000E+00  0.12114875633E+04  0.12114875633E+04  0.50400001928E-02 0.  1.
       -1   -1    0    0    0  501  0.00000000000E+00  0.00000000000E+00 -0.81531807268E+03  0.81531807269E+03  0.50400001928E-02 0. -1.
    10030    2    1    2    0    0  0.00000000000E+00  0.00000000000E+00  0.39616949058E+03  0.20268056360E+04  0.19877099438E+04 0.  0.
        5    1    3    3  502    0 -0.60186468565E+03 -0.46331794466E+03 -0.45547517224E+03  0.88565475226E+03  0.46999998093E+01 0. -1.
       -5    1    3    3    0  502  0.60186468565E+03  0.46331794466E+03  0.85164466282E+03  0.11411508837E+04  0.46999998093E+01 0.  1.
</event>
<event>
 5   0  0.1258546E-04  0.2021070E+04  0.7818609E-02  0.8596833E-01
        1   -1    0    0  501    0  0.00000000000E+00  0.00000000000E+00  0.15982222248E+04  0.15982222248E+04  0.50400001928E-02 0.  1.
       -1   -1    0    0    0  501  0.00000000000E+00  0.00000000000E+00 -0.63894793941E+03  0.63894793943E+03  0.50400001928E-02 0. -1.
    10030    2    1    2    0    0  0.00000000000E+00  0.00000000000E+00  0.95927428542E+03  0.22371701643E+04  0.20210698130E+04 0.  0.
        4    1    3    3  502    0  0.59037714599E+03  0.88898382836E+02 -0.42284932428E+03  0.73160868018E+03  0.12699999809E+01 0. -1.
       -4    1    3    3    0  502 -0.59037714599E+03 -0.88898382836E+02  0.13821236097E+04  0.15055614841E+04  0.12699999809E+01 0.  1.
</event>
<event>
 5   0  0.2488886E-04  0.1683954E+04  0.7818609E-02  0.8770569E-01
       -2   -1    0    0    0  501  0.00000000000E+00  0.00000000000E+00  0.13065685500E+04  0.13065685500E+04  0.25500000920E-02 0.  1.
        2   -1    0    0  501    0  0.00000000000E+00  0.00000000000E+00 -0.54258532995E+03  0.54258532995E+03  0.25500000920E-02 0. -1.
    10030    2    1    2    0    0  0.00000000000E+00  0.00000000000E+00  0.76398322008E+03  0.18491538800E+04  0.16839535954E+04 0.  0.
        3    1    3    3  502    0  0.59261572443E+02 -0.73043538771E+03 -0.73260510863E+02  0.73648822275E+03  0.10100000352E+00 0. -1.
       -3    1    3    3    0  502 -0.59261572443E+02  0.73043538771E+03  0.83724373095E+03  0.11126656572E+04  0.10100000352E+00 0.  1.
</event>
<event>
 5   0  0.1231056E-04  0.1996021E+04  0.7818609E-02  0.8608483E-01
       -1   -1    0    0    0  501  0.00000000000E+00  0.00000000000E+00  0.10212639211E+04  0.10212639211E+04  0.50400001928E-02 0. -1.
        1   -1    0    0  501    0  0.00000000000E+00  0.00000000000E+00 -0.97528646116E+03  0.97528646118E+03  0.50400001928E-02 0.  1.
    10030    2    1    2    0    0  0.00000000000E+00  0.00000000000E+00  0.45977459963E+02  0.19965503823E+04  0.19960209173E+04 0.  0.
        3    1    3    3  502    0 -0.27074392740E+03 -0.65554197907E+03 -0.67932806420E+03  0.98210192422E+03  0.10100000352E+00 0.  1.
       -3    1    3    3    0  502  0.27074392740E+03  0.65554197907E+03  0.72530552417E+03  0.10144484581E+04  0.10100000352E+00 0. -1.
</event>
<event>
 5   0  0.2596061E-04  0.1874908E+04  0.7818609E-02  0.8667448E-01
        2   -1    0    0  501    0  0.00000000000E+00  0.00000000000E+00  0.14120873744E+04  0.14120873744E+04  0.25500000920E-02 0. -1.
       -2   -1    0    0    0  501  0.00000000000E+00  0.00000000000E+00 -0.62235512879E+03  0.62235512879E+03  0.25500000920E-02 0.  1.
    10030    2    1    2    0    0  0.00000000000E+00  0.00000000000E+00  0.78973224564E+03  0.20344425032E+04  0.18749078055E+04 0.  0.
        5    1    3    3  502    0  0.68345865166E+03  0.40952858389E+03  0.93082595092E+03  0.12252707580E+04  0.46999998093E+01 0. -1.
       -5    1    3    3    0  502 -0.68345865166E+03 -0.40952858389E+03 -0.14109370528E+03  0.80917174520E+03  0.46999998093E+01 0.  1.
</event>
<event>
 5   0  0.2488886E-04  0.1907330E+04  0.7818609E-02  0.8651216E-01
       -2   -1    0    0    0  501  0.00000000000E+00  0.00000000000E+00  0.71068164761E+03  0.71068164762E+03  0.25500000920E-02 0. -1.
        2   -1    0    0  501    0  0.00000000000E+00  0.00000000000E+00 -0.12797251111E+04  0.12797251111E+04  0.25500000920E-02 0.  1.
    10030    2    1    2    0    0  0.00000000000E+00  0.00000000000E+00 -0.56904346349E+03  0.19904067587E+04  0.19073302288E+04 0.  0.
        3    1    3    3  502    0 -0.74011981316E+03  0.20859907034E+03  0.30412757451E+03  0.82691263248E+03  0.10100000352E+00 0. -1.
       -3    1    3    3    0  502  0.74011981316E+03 -0.20859907034E+03 -0.87317103800E+03  0.11634941262E+04  0.10100000352E+00 0.  1.
</event>
<event>
 5   0  0.1231056E-04  0.2011486E+04  0.7818609E-02  0.8601270E-01
        1   -1    0    0  501    0  0.00000000000E+00  0.00000000000E+00  0.11871523155E+04  0.11871523155E+04  0.50400001928E-02 0. -1.
       -1   -1    0    0    0  501  0.00000000000E+00  0.00000000000E+00 -0.85205459947E+03  0.85205459949E+03  0.50400001928E-02 0.  1.
    10030    2    1    2    0    0  0.00000000000E+00  0.00000000000E+00  0.33509771600E+03  0.20392069150E+04  0.20114856109E+04 0.  0.
        3    1    3    3  502    0  0.11504274574E+03 -0.74902972439E+03 -0.50280393522E+03  0.90944607803E+03  0.10100000352E+00 0.  1.
       -3    1    3    3    0  502 -0.11504274574E+03  0.74902972439E+03  0.83790165122E+03  0.11297608369E+04  0.10100000352E+00 0. -1.
</event>
<event>
 5   0  0.2540506E-04  0.1959081E+04  0.7818609E-02  0.8625994E-01
       -2   -1    0    0    0  501  0.00000000000E+00  0.00000000000E+00  0.63605831845E+03  0.63605831846E+03  0.25500000920E-02 0. -1.
        2   -1    0    0  501    0  0.00000000000E+00  0.00000000000E+00 -0.15085081583E+04  0.15085081584E+04  0.25500000920E-02 0.  1.
    10030    2    1    2    0    0  0.00000000000E+00  0.00000000000E+00 -0.87244983990E+03  0.21445664768E+04  0.19590805625E+04 0.  0.
        4    1    3    3  502    0  0.68182062388E+03 -0.61301611882E+03 -0.81357914276E+03  0.12257980093E+04  0.12699999809E+01 0.  1.
       -4    1    3    3    0  502 -0.68182062388E+03  0.61301611882E+03 -0.58870697139E+02  0.91876846755E+03  0.12699999809E+01 0. -1.
</event>
<event>
 5   0  0.2596061E-04  0.1999761E+04  0.7818609E-02  0.8606732E-01
       -2   -1    0    0    0  501  0.00000000000E+00  0.00000000000E+00  0.77460063076E+03  0.77460063076E+03  0.25500000920E-02 0. -1.
        2   -1    0    0  501    0  0.00000000000E+00  0.00000000000E+00 -0.12906794696E+04  0.12906794696E+04  0.25500000920E-02 0.  1.
    10030    2    1    2    0    0  0.00000000000E+00  0.00000000000E+00 -0.51607883887E+03  0.20652801004E+04  0.19997611170E+04 0.  0.
        5    1    3    3  502    0  0.62341502356E+03 -0.59810451309E+03  0.26180462426E+03  0.90273974737E+03  0.46999998093E+01 0. -1.
       -5    1    3    3    0  502 -0.62341502356E+03  0.59810451309E+03 -0.77788346313E+03  0.11625403530E+04  0.46999998093E+01 0.  1.
</event>
<event>
 5   0  0.1210633E-04  0.2018595E+04  0.7818609E-02  0.8597976E-01
       -1   -1    0    0    0  501  0.00000000000E+00  0.00000000000E+00  0.10639145966E+04  0.10639145966E+04  0.50400001928E-02 0. -1.
        1   -1    0    0  501    0  0.00000000000E+00  0.00000000000E+00 -0.95748403778E+03  0.95748403780E+03  0.50400001928E-02 0.  1.
    10030    2    1    2    0    0  0.00000000000E+00  0.00000000000E+00  0.10643055884E+03  0.20213986344E+04  0.20185948022E+04 0.  0.
        2    1    3    3  502    0  0.61462309312E+03  0.13657741765E+03  0.84314955839E+03  0.10522908892E+04  0.25500000920E-02 0. -1.
       -2    1    3    3    0  502 -0.61462309312E+03 -0.13657741765E+03 -0.73671899955E+03  0.96910774526E+03  0.25500000920E-02 0.  1.
</event>
<event>
 5   0  0.1258546E-04  0.2080068E+04  0.7818609E-02  0.8570075E-01
       -1   -1    0    0    0  501  0.00000000000E+00  0.00000000000E+00  0.96371381676E+03  0.96371381677E+03  0.50400001928E-02 0. -1.
        1   -1    0    0  501    0  0.00000000000E+00  0.00000000000E+00 -0.11223982315E+04  0.11223982315E+04  0.50400001928E-02 0.  1.
    10030    2    1    2    0    0  0.00000000000E+00  0.00000000000E+00 -0.15868441478E+03  0.20861120483E+04  0.20800679639E+04 0.  0.
        4    1    3    3  502    0  0.22171984223E+03  0.19625042505E+03  0.92054782577E+03  0.96699732689E+03  0.12699999809E+01 0. -1.
       -4    1    3    3    0  502 -0.22171984223E+03 -0.19625042505E+03 -0.10792322406E+04  0.11191147214E+04  0.12699999809E+01 0.  1.
</event>
<event>
 5   0  0.1231056E-04  0.2054448E+04  0.7818609E-02  0.8581579E-01
        1   -1    0    0  501    0  0.00000000000E+00  0.00000000000E+00  0.12828426960E+04  0.12828426960E+04  0.50400001928E-02 0.  1.
       -1   -1    0    0    0  501  0.00000000000E+00  0.00000000000E+00 -0.82253941144E+03  0.82253941145E+03  0.50400001928E-02 0. -1.
    10030    2    1    2    0    0  0.00000000000E+00  0.00000000000E+00  0.46030328456E+03  0.21053821075E+04  0.20544475424E+04 0.  0.
        3    1    3    3  502    0 -0.68615561287E+03  0.71066998373E+03  0.51878548336E+03  0.11157955632E+04  0.10100000352E+00 0.  1.
       -3    1    3    3    0  502  0.68615561287E+03 -0.71066998373E+03 -0.58482198802E+02  0.98958654429E+03  0.10100000352E+00 0. -1.
</event>
<event>
 5   0  0.1324930E-04  0.2221118E+04  0.7818609E-02  0.8509689E-01
       -1   -1    0    0    0  501  0.00000000000E+00  0.00000000000E+00  0.22042284091E+04  0.22042284091E+04  0.50400001928E-02 0.  1.
        1   -1    0    0  501    0  0.00000000000E+00  0.00000000000E+00 -0.55953421429E+03  0.55953421431E+03  0.50400001928E-02 0. -1.
    10030    2    1    2    0    0  0.00000000000E+00  0.00000000000E+00  0.16446941948E+04  0.27637626234E+04  0.22211179266E+04 0.  0.
        5    1    3    3  502    0  0.52177454934E+03  0.27462126989E+03  0.19933583483E+04  0.20787412338E+04  0.46999998093E+01 0.  1.
       -5    1    3    3    0  502 -0.52177454934E+03 -0.27462126989E+03 -0.34866415356E+03  0.68502138958E+03  0.46999998093E+01 0. -1.
</event>
<event>
 5   0  0.2421737E-04  0.1957541E+04  0.7818609E-02  0.8626733E-01
       -2   -1    0    0    0  501  0.00000000000E+00  0.00000000000E+00  0.15222228491E+04  0.15222228491E+04  0.25500000920E-02 0. -1.
        2   -1    0    0  501    0  0.00000000000E+00  0.00000000000E+00 -0.62933714309E+03  0.62933714310E+03  0.25500000920E-02 0.  1.
    10030    2    1    2    0    0  0.00000000000E+00  0.00000000000E+00  0.89288570597E+03  0.21515599922E+04  0.19575406805E+04 0.  0.
        1    1    3    3  502    0  0.68917124947E+03 -0.11298185581E+03  0.12001732943E+04  0.13885740337E+04  0.50400001928E-02 0. -1.
       -1    1    3    3    0  502 -0.68917124947E+03  0.11298185581E+03 -0.30728758829E+03  0.76298595844E+03  0.50400001928E-02 0.  1.
</event>
<event>
 5   0  0.1207228E-04  0.1973247E+04  0.7818609E-02  0.8619232E-01
       -1   -1    0    0    0  501  0.00000000000E+00  0.00000000000E+00  0.11608396011E+04  0.11608396011E+04  0.50400001928E-02 0. -1.
        1   -1    0    0  501    0  0.00000000000E+00  0.00000000000E+00 -0.83855311819E+03  0.83855311821E+03  0.50400001928E-02 0.  1.
    10030    2    1    2    0    0  0.00000000000E+00  0.00000000000E+00  0.32228648292E+03  0.19993927193E+04  0.19732467329E+04 0.  0.
        1    1    3    3  502    0  0.49025983658E+02  0.73884524051E+03 -0.49951598392E+03  0.89320325499E+03  0.50400001928E-02 0.  1.
       -1    1    3    3    0  502 -0.49025983658E+02 -0.73884524051E+03  0.82180246684E+03  0.11061894643E+04  0.50400001928E-02 0. -1.
</event>
<event>
 5   0  0.2421737E-04  0.2060536E+04  0.7818609E-02  0.8578830E-01
        2   -1    0    0  501    0  0.00000000000E+00  0.00000000000E+00  0.17043175904E+04  0.17043175904E+04  0.25500000920E-02 0.  1.
       -2   -1    0    0    0  501  0.00000000000E+00  0.00000000000E+00 -0.62280191024E+03  0.62280191024E+03  0.25500000920E-02 0. -1.
    10030    2    1    2    0    0  0.00000000000E+00  0.00000000000E+00  0.10815156802E+04  0.23271195007E+04  0.20605360963E+04 0.  0.
        1    1    3    3  502    0  0.22594238542E+03 -0.50195206039E+03 -0.44280227939E+03  0.70645572481E+03  0.50400001928E-02 0. -1.
       -1    1    3    3    0  502 -0.22594238542E+03  0.50195206039E+03  0.15243179596E+04  0.16206637759E+04  0.50400001928E-02 0.  1.
</event>
<event>
 5   0  0.1231056E-04  0.2014882E+04  0.7818609E-02  0.8599694E-01
        1   -1    0    0  501    0  0.00000000000E+00  0.00000000000E+00  0.10902382398E+04  0.10902382398E+04  0.50400001928E-02 0. -1.
       -1   -1    0    0    0  501  0.00000000000E+00  0.00000000000E+00 -0.93093169490E+03  0.93093169491E+03  0.50400001928E-02 0.  1.
    10030    2    1    2    0    0  0.00000000000E+00  0.00000000000E+00  0.15930654485E+03  0.20211699347E+04  0.20148819642E+04 0.  0.
        3    1    3    3  502    0  0.19976396198E+03 -0.30035493487E+03 -0.86393023298E+03  0.93621268154E+03  0.10100000352E+00 0.  1.
       -3    1    3    3    0  502 -0.19976396198E+03  0.30035493487E+03  0.10232367778E+04  0.10849572531E+04  0.10100000352E+00 0. -1.
</event>
<event>
 5   0  0.1210633E-04  0.2001318E+04  0.7818609E-02  0.8606005E-01
        1   -1    0    0  501    0  0.00000000000E+00  0.00000000000E+00  0.22105335653E+04  0.22105335653E+04  0.50400001928E-02 0.  1.
       -1   -1    0    0    0  501  0.00000000000E+00  0.00000000000E+00 -0.45297601318E+03  0.45297601321E+03  0.50400001928E-02 0. -1.
    10030    2    1    2    0    0  0.00000000000E+00  0.00000000000E+00  0.17575575521E+04  0.26635095785E+04  0.20013182470E+04 0.  0.
        2    1    3    3  502    0 -0.91869967785E+03  0.25893648415E+03  0.47893592609E+03  0.10679123664E+04  0.25500000920E-02 0. -1.
       -2    1    3    3    0  502  0.91869967785E+03 -0.25893648415E+03  0.12786216260E+04  0.15955972122E+04  0.25500000920E-02 0.  1.
</event>
<event>
 5   0  0.1324930E-04  0.2027753E+04  0.7818609E-02  0.8593754E-01
        1   -1    0    0  501    0  0.00000000000E+00  0.00000000000E+00  0.58748838933E+03  0.58748838936E+03  0.50400001928E-02 0.  1.
       -1   -1    0    0    0  501  0.00000000000E+00  0.00000000000E+00 -0.17497291182E+04  0.17497291182E+04  0.50400001928E-02 0. -1.
    10030    2    1    2    0    0  0.00000000000E+00  0.00000000000E+00 -0.11622407288E+04  0.23372175075E+04  0.20277529844E+04 0.  0.
        5    1    3    3  502    0 -0.22569066978E+02  0.11439810802E+03 -0.17419623547E+04  0.17458668979E+04  0.46999998093E+01 0. -1.
       -5    1    3    3    0  502  0.22569066978E+02 -0.11439810802E+03  0.57972162593E+03  0.59135060959E+03  0.46999998093E+01 0.  1.
</event>
<event>
 5   0  0.2596061E-04  0.1978355E+04  0.7818609E-02  0.8616808E-01
       -2   -1    0    0    0  501  0.00000000000E+00  0.00000000000E+00  0.77932804801E+03  0.77932804801E+03  0.25500000920E-02 0. -1.
        2   -1    0    0  501    0  0.00000000000E+00  0.00000000000E+00 -0.12555329913E+04  0.12555329913E+04  0.25500000920E-02 0.  1.
    10030    2    1    2    0    0  0.00000000000E+00  0.00000000000E+00 -0.47620494329E+03  0.20348610393E+04  0.19783549483E+04 0.  0.
        5    1    3    3  502    0  0.91778357494E+02 -0.18536264004E+03 -0.12330296498E+04  0.12502666845E+04  0.46999998093E+01 0.  1.
       -5    1    3    3    0  502 -0.91778357494E+02  0.18536264004E+03  0.75682470648E+03  0.78459435479E+03  0.46999998093E+01 0. -1.
</event>
<event>
 5   0  0.2596061E-04  0.2013429E+04  0.7818609E-02  0.8600368E-01
       -2   -1    0    0    0  501  0.00000000000E+00  0.00000000000E+00  0.17848863591E+04  0.17848863591E+04  0.25500000920E-02 0. -1.
        2   -1    0    0  501    0  0.00000000000E+00  0.00000000000E+00 -0.56780892122E+03  0.56780892122E+03  0.25500000920E-02 0.  1.
    10030    2    1    2    0    0  0.00000000000E+00  0.00000000000E+00  0.12170774379E+04  0.23526952803E+04  0.20134293115E+04 0.  0.
        5    1    3    3  502    0  0.45537802967E+02 -0.94139031611E+03  0.19514194376E+03  0.96249253866E+03  0.46999998093E+01 0. -1.
       -5    1    3    3    0  502 -0.45537802967E+02  0.94139031611E+03  0.10219354941E+04  0.13902027417E+04  0.46999998093E+01 0.  1.
</event>
<event>
 5   0  0.2596061E-04  0.1926284E+04  0.7818609E-02  0.8641883E-01
        2   -1    0    0  501    0  0.00000000000E+00  0.00000000000E+00  0.10446001398E+04  0.10446001398E+04  0.25500000920E-02 0.  1.
       -2   -1    0    0    0  501  0.00000000000E+00  0.00000000000E+00 -0.88803594063E+03  0.88803594063E+03  0.25500000920E-02 0. -1.
    10030    2    1    2    0    0  0.00000000000E+00  0.00000000000E+00  0.15656419920E+03  0.19326360805E+04  0.19262839539E+04 0.  0.
        5    1    3    3  502    0 -0.84215768985E+03 -0.45455477685E+03 -0.30568792387E+02  0.95749995342E+03  0.46999998093E+01 0.  1.
       -5    1    3    3    0  502  0.84215768985E+03  0.45455477685E+03  0.18713299159E+03  0.97513612704E+03  0.46999998093E+01 0. -1.
</event>
<event>
 5   0  0.1258546E-04  0.1998958E+04  0.7818609E-02  0.8607108E-01
       -1   -1    0    0    0  501  0.00000000000E+00  0.00000000000E+00  0.75080338728E+03  0.75080338730E+03  0.50400001928E-02 0. -1.
        1   -1    0    0  501    0  0.00000000000E+00  0.00000000000E+00 -0.13305192994E+04  0.13305192994E+04  0.50400001928E-02 0.  1.
    10030    2    1    2    0    0  0.00000000000E+00  0.00000000000E+00 -0.57971591207E+03  0.20813226867E+04  0.19989581254E+04 0.  0.
        4    1    3    3  502    0  0.57655177172E+03 -0.18893421243E+03 -0.11168442816E+04  0.12710038727E+04  0.12699999809E+01 0. -1.
       -4    1    3    3    0  502 -0.57655177172E+03  0.18893421243E+03  0.53712836951E+03  0.81031881400E+03  0.12699999809E+01 0.  1.
</event>
<event>
 5   0  0.2463085E-04  0.1947636E+04  0.7818609E-02  0.8631502E-01
       -2   -1    0    0    0  501  0.00000000000E+00  0.00000000000E+00  0.12973157121E+04  0.12973157121E+04  0.25500000920E-02 0. -1.
        2   -1    0    0  501    0  0.00000000000E+00  0.00000000000E+00 -0.73098726737E+03  0.73098726738E+03  0.25500000920E-02 0.  1.
    10030    2    1    2    0    0  0.00000000000E+00  0.00000000000E+00  0.56632844471E+03  0.20283029795E+04  0.19476357640E+04 0.  0.
        2    1    3    3  502    0  0.33071878309E+03  0.91589770119E+03  0.27398113800E+03  0.10115874537E+04  0.25500000920E-02 0.  1.
       -2    1    3    3    0  502 -0.33071878309E+03 -0.91589770119E+03  0.29234730671E+03  0.10167155257E+04  0.25500000920E-02 0. -1.
</event>
<event>
 5   0  0.2488886E-04  0.2202971E+04  0.7818609E-02  0.8517192E-01
       -2   -1    0    0    0  501  0.00000000000E+00  0.00000000000E+00  0.91467452448E+03  0.91467452448E+03  0.25500000920E-02 0.  1.
        2   -1    0    0  501    0  0.00000000000E+00  0.00000000000E+00 -0.13264507950E+04  0.13264507950E+04  0.25500000920E-02 0. -1.
    10030    2    1    2    0    0  0.00000000000E+00  0.00000000000E+00 -0.41177627050E+03  0.22411253195E+04  0.22029714026E+04 0.  0.
        3    1    3    3  502    0  0.95022669765E+03  0.39789688820E+02  0.35939432290E+03  0.10166997029E+04  0.10100000352E+00 0.  1.
       -3    1    3    3    0  502 -0.95022669765E+03 -0.39789688820E+02 -0.77117059340E+03  0.12244256166E+04  0.10100000352E+00 0. -1.
</event>
<event>
 5   0  0.1207228E-04  0.1934818E+04  0.7818609E-02  0.8637717E-01
       -1   -1    0    0    0  501  0.00000000000E+00  0.00000000000E+00  0.48494770051E+03  0.48494770053E+03  0.50400001928E-02 0.  1.
        1   -1    0    0  501    0  0.00000000000E+00  0.00000000000E+00 -0.19298571420E+04  0.19298571420E+04  0.50400001928E-02 0. -1.
    10030    2    1    2    0    0  0.00000000000E+00  0.00000000000E+00 -0.14449094415E+04  0.24148048426E+04  0.19348175970E+04 0.  0.
        1    1    3    3  502    0 -0.10902856514E+03  0.72102380230E+03 -0.15158611114E+04  0.16821407374E+04  0.50400001928E-02 0. -1.
       -1    1    3    3    0  502  0.10902856514E+03 -0.72102380230E+03  0.70951669847E+02  0.73266410515E+03  0.50400001928E-02 0.  1.
</event>
<event>
 5   0  0.2488886E-04  0.2021178E+04  0.7818609E-02  0.8596783E-01
        2   -1    0    0  501    0  0.00000000000E+00  0.00000000000E+00  0.91503385136E+03  0.91503385136E+03  0.25500000920E-02 0. -1.
       -2   -1    0    0    0  501  0.00000000000E+00  0.00000000000E+00 -0.11161224435E+04  0.11161224435E+04  0.25500000920E-02 0.  1.
    10030    2    1    2    0    0  0.00000000000E+00  0.00000000000E+00 -0.20108859217E+03  0.20311562949E+04  0.20211776944E+04 0.  0.
        3    1    3    3  502    0  0.71002290287E+03 -0.62608934199E+03 -0.45608388690E+03  0.10507772879E+04  0.10100000352E+00 0. -1.
       -3    1    3    3    0  502 -0.71002290287E+03  0.62608934199E+03  0.25499529473E+03  0.98037900696E+03  0.10100000352E+00 0.  1.
</event>
<event>
 5   0  0.1258546E-04  0.2007776E+04  0.7818609E-02  0.8602994E-01
       -1   -1    0    0    0  501  0.00000000000E+00  0.00000000000E+00  0.13887637588E+04  0.13887637588E+04  0.50400001928E-02 0. -1.
        1   -1    0    0  501    0  0.00000000000E+00  0.00000000000E+00 -0.72567523897E+03  0.72567523899E+03  0.50400001928E-02 0.  1.
    10030    2    1    2    0    0  0.00000000000E+00  0.00000000000E+00  0.66308851983E+03  0.21144389978E+04  0.20077763546E+04 0.  0.
        4    1    3    3  502    0  0.56625732225E+03 -0.80665098120E+03  0.13046443549E+03  0.99416082315E+03  0.12699999809E+01 0.  1.
       -4    1    3    3    0  502 -0.56625732225E+03  0.80665098120E+03  0.53262408434E+03  0.11202781746E+04  0.12699999809E+01 0. -1.
</event>
<event>
 5   0  0.2596061E-04  0.2007880E+04  0.7818609E-02  0.8602945E-01
       -2   -1    0    0    0  501  0.00000000000E+00  0.00000000000E+00  0.62822842516E+03  0.62822842517E+03  0.25500000920E-02 0.  1.
        2   -1    0    0  501    0  0.00000000000E+00  0.00000000000E+00 -0.16043457305E+04  0.16043457305E+04  0.25500000920E-02 0. -1.
    10030    2    1    2    0    0  0.00000000000E+00  0.00000000000E+00 -0.97611730536E+03  0.22325741557E+04  0.20078800678E+04 0.  0.
        5    1    3    3  502    0 -0.26467607712E+03 -0.89569324872E+03 -0.89743597485E+03  0.12952734231E+04  0.46999998093E+01 0.  1.
       -5    1    3    3    0  502  0.26467607712E+03  0.89569324872E+03 -0.78681330517E+02  0.93730073262E+03  0.46999998093E+01 0. -1.
</event>
<event>
 5   0  0.1231056E-04  0.2018346E+04  0.7818609E-02  0.8598091E-01
       -1   -1    0    0    0  501  0.00000000000E+00  0.00000000000E+00  0.78830352136E+03  0.78830352137E+03  0.50400001928E-02 0. -1.
        1   -1    0    0  501    0  0.00000000000E+00  0.00000000000E+00 -0.12919267256E+04  0.12919267256E+04  0.50400001928E-02 0.  1.
    10030    2    1    2    0    0  0.00000000000E+00  0.00000000000E+00 -0.50362320425E+03  0.20802302470E+04  0.20183462410E+04 0.  0.
        3    1    3    3  502    0  0.59607060890E+03 -0.76021722854E+03 -0.55265152012E+03  0.11129483898E+04  0.10100000352E+00 0. -1.
       -3    1    3    3    0  502 -0.59607060890E+03  0.76021722854E+03  0.49028315872E+02  0.96728185723E+03  0.10100000352E+00 0.  1.
</event>
<event>
 5   0  0.2463085E-04  0.2011079E+04  0.7818609E-02  0.8601458E-01
       -2   -1    0    0    0  501  0.00000000000E+00  0.00000000000E+00  0.84542788214E+03  0.84542788215E+03  0.25500000920E-02 0. -1.
        2   -1    0    0  501    0  0.00000000000E+00  0.00000000000E+00 -0.11959736922E+04  0.11959736922E+04  0.25500000920E-02 0.  1.
    10030    2    1    2    0    0  0.00000000000E+00  0.00000000000E+00 -0.35054581008E+03  0.20414015744E+04  0.20110788207E+04 0.  0.
        2    1    3    3  502    0  0.37955384212E+03  0.76481604795E+03  0.36387086414E+03  0.92811998795E+03  0.25500000920E-02 0. -1.
       -2    1    3    3    0  502 -0.37955384212E+03 -0.76481604795E+03 -0.71441667422E+03  0.11132815864E+04  0.25500000920E-02 0.  1.
</event>
<event>
 5   0  0.1324930E-04  0.1965834E+04  0.7818609E-02  0.8622763E-01
       -1   -1    0    0    0  501  0.00000000000E+00  0.00000000000E+00  0.62386481808E+03  0.62386481810E+03  0.50400001928E-02 0. -1.
        1   -1    0    0  501    0  0.00000000000E+00  0.00000000000E+00 -0.15486144791E+04  0.15486144791E+04  0.50400001928E-02 0.  1.
    10030    2    1    2    0    0  0.00000000000E+00  0.00000000000E+00 -0.92474966106E+03  0.21724792972E+04  0.19658342660E+04 0.  0.
        5    1    3    3  502    0 -0.17782637306E+03  0.19724364882E+03 -0.15082025405E+04  0.15314125078E+04  0.46999998093E+01 0.  1.
       -5    1    3    3    0  502  0.17782637306E+03 -0.19724364882E+03  0.58345287944E+03  0.64106678941E+03  0.46999998093E+01 0. -1.
</event>
<event>
 5   0  0.1210633E-04  0.1332481E+04  0.7818609E-02  0.9004196E-01
        1   -1    0    0  501    0  0.00000000000E+00  0.00000000000E+00  0.35255579864E+03  0.35255579868E+03  0.50400001928E-02 0. -1.
       -1   -1    0    0    0  501  0.00000000000E+00  0.00000000000E+00 -0.12590252192E+04  0.12590252192E+04  0.50400001928E-02 0.  1.
    10030    2    1    2    0    0  0.00000000000E+00  0.00000000000E+00 -0.90646942057E+03  0.16115810179E+04  0.13324813570E+04 0.  0.
        2    1    3    3  502    0  0.58254490751E+03  0.17675801832E+03 -0.12584279281E+03  0.62164167718E+03  0.25500000920E-02 0. -1.
       -2    1    3    3    0  502 -0.58254490751E+03 -0.17675801832E+03 -0.78062662777E+03  0.98993934071E+03  0.25500000920E-02 0.  1.
</event>
<event>
 5   0  0.1324930E-04  0.1988834E+04  0.7818609E-02  0.8611859E-01
        1   -1    0    0  501    0  0.00000000000E+00  0.00000000000E+00  0.11881957545E+04  0.11881957545E+04  0.50400001928E-02 0.  1.
       -1   -1    0    0    0  501  0.00000000000E+00  0.00000000000E+00 -0.83224074502E+03  0.83224074504E+03  0.50400001928E-02 0. -1.
    10030    2    1    2    0    0  0.00000000000E+00  0.00000000000E+00  0.35595500948E+03  0.20204364995E+04  0.19888337487E+04 0.  0.
        5    1    3    3  502    0 -0.89573342764E+03 -0.43184921515E+03  0.17465258437E+03  0.10096324743E+04  0.46999998093E+01 0. -1.
       -5    1    3    3    0  502  0.89573342764E+03  0.43184921515E+03  0.18130242511E+03  0.10108040252E+04  0.46999998093E+01 0.  1.
</event>
<event>
 5   0  0.2488886E-04  0.2029246E+04  0.7818609E-02  0.8593068E-01
        2   -1    0    0  501    0  0.00000000000E+00  0.00000000000E+00  0.12388509126E+04  0.12388509126E+04  0.25500000920E-02 0. -1.
       -2   -1    0    0    0  501  0.00000000000E+00  0.00000000000E+00 -0.83097972404E+03  0.83097972404E+03  0.25500000920E-02 0.  1.
    10030    2    1    2    0    0  0.00000000000E+00  0.00000000000E+00  0.40787118853E+03  0.20698306366E+04  0.20292461551E+04 0.  0.
        3    1    3    3  502    0 -0.73184263438E+03 -0.68035951179E+03  0.24411945281E+02  0.99953922386E+03  0.10100000352E+00 0.  1.
       -3    1    3    3    0  502  0.73184263438E+03  0.68035951179E+03  0.38345924325E+03  0.10702914127E+04  0.10100000352E+00 0. -1.
</event>
<event>
 5   0  0.1324930E-04  0.1992447E+04  0.7818609E-02  0.8610160E-01
        1   -1    0    0  501    0  0.00000000000E+00  0.00000000000E+00  0.68285619336E+03  0.68285619338E+03  0.50400001928E-02 0.  1.
       -1   -1    0    0    0  501  0.00000000000E+00  0.00000000000E+00 -0.14533965556E+04  0.14533965556E+04  0.50400001928E-02 0. -1.
    10030    2    1    2    0    0  0.00000000000E+00  0.00000000000E+00 -0.77054036225E+03  0.21362527490E+04  0.19924465759E+04 0.  0.
        5    1    3    3  502    0  0.55451238111E+03 -0.17469183479E+03  0.48209113347E+03  0.75527158619E+03  0.46999998093E+01 0.  1.
       -5    1    3    3    0  502 -0.55451238111E+03  0.17469183479E+03 -0.12526314957E+04  0.13809811628E+04  0.46999998093E+01 0. -1.
</event>
<event>
 5   0  0.2421737E-04  0.2006558E+04  0.7818609E-02  0.8603561E-01
        2   -1    0    0  501    0  0.00000000000E+00  0.00000000000E+00  0.15763034258E+04  0.15763034258E+04  0.25500000920E-02 0.  1.
       -2   -1    0    0    0  501  0.00000000000E+00  0.00000000000E+00 -0.63856267473E+03  0.63856267473E+03  0.25500000920E-02 0. -1.
    10030    2    1    2    0    0  0.00000000000E+00  0.00000000000E+00  0.93774075106E+03  0.22148661005E+04  0.20065577806E+04 0.  0.
        1    1    3    3  502    0  0.79199849732E+03  0.19070729856E+03  0.11152734037E+04  0.13811102992E+04  0.50400001928E-02 0.  1.
       -1    1    3    3    0  502 -0.79199849732E+03 -0.19070729856E+03 -0.17753265265E+03  0.83375580134E+03  0.50400001928E-02 0. -1.
</event>
<event>
 5   0  0.2596061E-04  0.2049140E+04  0.7818609E-02  0.8583985E-01
       -2   -1    0    0    0  501  0.00000000000E+00  0.00000000000E+00  0.94198547138E+03  0.94198547138E+03  0.25500000920E-02 0. -1.
        2   -1    0    0  501    0  0.00000000000E+00  0.00000000000E+00 -0.11143945872E+04  0.11143945872E+04  0.25500000920E-02 0.  1.
    10030    2    1    2    0    0  0.00000000000E+00  0.00000000000E+00 -0.17240911578E+03  0.20563800585E+04  0.20491398298E+04 0.  0.
        5    1    3    3  502    0  0.64659408847E+03  0.47399585648E+03  0.55398789526E+03  0.97451560546E+03  0.46999998093E+01 0.  1.
       -5    1    3    3    0  502 -0.64659408847E+03 -0.47399585648E+03 -0.72639701103E+03  0.10818644531E+04  0.46999998093E+01 0. -1.
</event>
<event>
 5   0  0.2596061E-04  0.2105290E+04  0.7818609E-02  0.8558917E-01
        2   -1    0    0  501    0  0.00000000000E+00  0.00000000000E+00  0.10157668366E+04  0.10157668366E+04  0.25500000920E-02 0. -1.
       -2   -1    0    0    0  501  0.00000000000E+00  0.00000000000E+00 -0.10908615609E+04  0.10908615609E+04  0.25500000920E-02 0.  1.
    10030    2    1    2    0    0  0.00000000000E+00  0.00000000000E+00 -0.75094724303E+02  0.21066283975E+04  0.21052895259E+04 0.  0.
        5    1    3    3  502    0 -0.81149042739E+03  0.66375413115E+03 -0.13222596140E+03  0.10566891952E+04  0.46999998093E+01 0.  1.
       -5    1    3    3    0  502  0.81149042739E+03 -0.66375413115E+03  0.57131237097E+02  0.10499392023E+04  0.46999998093E+01 0. -1.
</event>
<event>
 5   0  0.1324930E-04  0.1985360E+04  0.7818609E-02  0.8613496E-01
        1   -1    0    0  501    0  0.00000000000E+00  0.00000000000E+00  0.12011764674E+04  0.12011764674E+04  0.50400001928E-02 0. -1.
       -1   -1    0    0    0  501  0.00000000000E+00  0.00000000000E+00 -0.82037354500E+03  0.82037354501E+03  0.50400001928E-02 0.  1.
    10030    2    1    2    0    0  0.00000000000E+00  0.00000000000E+00  0.38080292241E+03  0.20215500124E+04  0.19853598130E+04 0.  0.
        5    1    3    3  502    0 -0.48592250555E+03 -0.65328084859E+03  0.76863941407E+03  0.11196987039E+04  0.46999998093E+01 0. -1.
       -5    1    3    3    0  502  0.48592250555E+03  0.65328084859E+03 -0.38783649166E+03  0.90185130859E+03  0.46999998093E+01 0.  1.
</event>
<event>
 5   0  0.1324930E-04  0.2001516E+04  0.7818609E-02  0.8605912E-01
        1   -1    0    0  501    0  0.00000000000E+00  0.00000000000E+00  0.20169598403E+04  0.20169598403E+04  0.50400001928E-02 0.  1.
       -1   -1    0    0    0  501  0.00000000000E+00  0.00000000000E+00 -0.49654762488E+03  0.49654762490E+03  0.50400001928E-02 0. -1.
    10030    2    1    2    0    0  0.00000000000E+00  0.00000000000E+00  0.15204122155E+04  0.25135074652E+04  0.20015160436E+04 0.  0.
        5    1    3    3  502    0  0.63328571725E+03  0.24906528661E+03  0.16816687819E+04  0.18141434063E+04  0.46999998093E+01 0.  1.
       -5    1    3    3    0  502 -0.63328571725E+03 -0.24906528661E+03 -0.16125656647E+03  0.69936405890E+03  0.46999998093E+01 0. -1.
</event>
<event>
 5   0  0.2596061E-04  0.1790723E+04  0.7818609E-02  0.8711248E-01
        2   -1    0    0  501    0  0.00000000000E+00  0.00000000000E+00  0.19762968565E+04  0.19762968565E+04  0.25500000920E-02 0.  1.
       -2   -1    0    0    0  501  0.00000000000E+00  0.00000000000E+00 -0.40564375646E+03  0.40564375647E+03  0.25500000920E-02 0. -1.
    10030    2    1    2    0    0  0.00000000000E+00  0.00000000000E+00  0.15706531000E+04  0.23819406130E+04  0.17907232961E+04 0.  0.
        5    1    3    3  502    0  0.18999447229E+03 -0.58376201518E+03 -0.81598623124E+02  0.61931931599E+03  0.46999998093E+01 0. -1.
       -5    1    3    3    0  502 -0.18999447229E+03  0.58376201518E+03  0.16522517232E+04  0.17626212970E+04  0.46999998093E+01 0.  1.
</event>
<event>
 5   0  0.1258546E-04  0.1742217E+04  0.7818609E-02  0.8737646E-01
       -1   -1    0    0    0  501  0.00000000000E+00  0.00000000000E+00  0.66018529033E+03  0.66018529035E+03  0.50400001928E-02 0. -1.
        1   -1    0    0  501    0  0.00000000000E+00  0.00000000000E+00 -0.11494203076E+04  0.11494203076E+04  0.50400001928E-02 0.  1.
    10030    2    1    2    0    0  0.00000000000E+00  0.00000000000E+00 -0.48923501729E+03  0.18096055980E+04  0.17422174141E+04 0.  0.
        4    1    3    3  502    0 -0.12805148342E+03  0.83444939558E+03 -0.46769383888E+03  0.96511248879E+03  0.12699999809E+01 0.  1.
       -4    1    3    3    0  502  0.12805148342E+03 -0.83444939558E+03 -0.21541178414E+02  0.84449310919E+03  0.12699999809E+01 0. -1.
</event>
<event>
 5   0  0.2421737E-04  0.2036690E+04  0.7818609E-02  0.8589657E-01
       -2   -1    0    0    0  501  0.00000000000E+00  0.00000000000E+00  0.99561119011E+03  0.99561119012E+03  0.25500000920E-02 0.  1.
        2   -1    0    0  501    0  0.00000000000E+00  0.00000000000E+00 -0.10415975457E+04  0.10415975457E+04  0.25500000920E-02 0. -1.
    10030    2    1    2    0    0  0.00000000000E+00  0.00000000000E+00 -0.45986355565E+02  0.20372087358E+04  0.20366896397E+04 0.  0.
        1    1    3    3  502    0  0.49789987430E+03  0.43816859981E+03  0.74994575140E+03  0.10011566495E+04  0.50400001928E-02 0.  1.
       -1    1    3    3    0  502 -0.49789987430E+03 -0.43816859981E+03 -0.79593210697E+03  0.10360520863E+04  0.50400001928E-02 0. -1.
</event>
<event>
 5   0  0.1324930E-04  0.2014529E+04  0.7818609E-02  0.8599858E-01
        1   -1    0    0  501    0  0.00000000000E+00  0.00000000000E+00  0.15598810133E+04  0.15598810133E+04  0.50400001928E-02 0.  1.
       -1   -1    0    0    0  501  0.00000000000E+00  0.00000000000E+00 -0.65042277395E+03  0.65042277397E+03  0.50400001928E-02 0. -1.
    10030    2    1    2    0    0  0.00000000000E+00  0.00000000000E+00  0.90945823933E+03  0.22103037873E+04  0.20145293602E+04 0.  0.
        5    1    3    3  502    0 -0.47128770072E+03 -0.87190669182E+03  0.65169276805E+03  0.11861951484E+04  0.46999998093E+01 0.  1.
       -5    1    3    3    0  502  0.47128770072E+03  0.87190669182E+03  0.25776547128E+03  0.10241086389E+04  0.46999998093E+01 0. -1.
</event>
<event>
 5   0  0.1207228E-04  0.2005220E+04  0.7818609E-02  0.8604184E-01
       -1   -1    0    0    0  501  0.00000000000E+00  0.00000000000E+00  0.52409347350E+03  0.52409347353E+03  0.50400001928E-02 0.  1.
        1   -1    0    0  501    0  0.00000000000E+00  0.00000000000E+00 -0.19180300565E+04  0.19180300565E+04  0.50400001928E-02 0. -1.
    10030    2    1    2    0    0  0.00000000000E+00  0.00000000000E+00 -0.13939365830E+04  0.24421235300E+04  0.20052202219E+04 0.  0.
        1    1    3    3  502    0  0.72881104337E+03  0.12268026453E+03 -0.15220883083E+04  0.16920309697E+04  0.50400001928E-02 0. -1.
       -1    1    3    3    0  502 -0.72881104337E+03 -0.12268026453E+03  0.12815172533E+03  0.75009256027E+03  0.50400001928E-02 0.  1.
</event>
<event>
 5   0  0.1207228E-04  0.2068443E+04  0.7818609E-02  0.8575273E-01
       -1   -1    0    0    0  501  0.00000000000E+00  0.00000000000E+00  0.80012126441E+03  0.80012126442E+03  0.50400001928E-02 0. -1.
        1   -1    0    0  501    0  0.00000000000E+00  0.00000000000E+00 -0.13368153169E+04  0.13368153169E+04  0.50400001928E-02 0.  1.
    10030    2    1    2    0    0  0.00000000000E+00  0.00000000000E+00 -0.53669405249E+03  0.21369365813E+04  0.20684432423E+04 0.  0.
        1    1    3    3  502    0  0.50682022153E+03  0.68370056137E+03  0.33873454334E+03  0.91599906410E+03  0.50400001928E-02 0. -1.
       -1    1    3    3    0  502 -0.50682022153E+03 -0.68370056137E+03 -0.87542859582E+03  0.12209375172E+04  0.50400001928E-02 0.  1.
</event>
<event>
 5   0  0.1258546E-04  0.1891431E+04  0.7818609E-02  0.8659134E-01
        1   -1    0    0  501    0  0.00000000000E+00  0.00000000000E+00  0.10308138210E+04  0.10308138210E+04  0.50400001928E-02 0. -1.
       -1   -1    0    0    0  501  0.00000000000E+00  0.00000000000E+00 -0.86764214873E+03  0.86764214875E+03  0.50400001928E-02 0.  1.
    10030    2    1    2    0    0  0.00000000000E+00  0.00000000000E+00  0.16317167226E+03  0.18984559698E+04  0.18914306951E+04 0.  0.
        4    1    3    3  502    0 -0.44756411942E+03 -0.18065769442E+03 -0.73471533550E+03  0.87906716505E+03  0.12699999809E+01 0.  1.
       -4    1    3    3    0  502  0.44756411942E+03  0.18065769442E+03  0.89788700776E+03  0.10193888047E+04  0.12699999809E+01 0. -1.
</event>
<event>
 5   0  0.2540506E-04  0.2018852E+04  0.7818609E-02  0.8597857E-01
        2   -1    0    0  501    0  0.00000000000E+00  0.00000000000E+00  0.12473413520E+04  0.12473413520E+04  0.25500000920E-02 0.  1.
       -2   -1    0    0    0  501  0.00000000000E+00  0.00000000000E+00 -0.81689052653E+03  0.81689052653E+03  0.25500000920E-02 0. -1.
    10030    2    1    2    0    0  0.00000000000E+00  0.00000000000E+00  0.43045082548E+03  0.20642318785E+04  0.20188524798E+04 0.  0.
        4    1    3    3  502    0  0.22045203235E+03 -0.77596909541E+03 -0.40521947326E+03  0.90273560360E+03  0.12699999809E+01 0. -1.
       -4    1    3    3    0  502 -0.22045203235E+03  0.77596909541E+03  0.83567029874E+03  0.11614962749E+04  0.12699999809E+01 0.  1.
</event>
<event>
 5   0  0.2421737E-04  0.1997874E+04  0.7818609E-02  0.8607615E-01
       -2   -1    0    0    0  501  0.00000000000E+00  0.00000000000E+00  0.47772616239E+03  0.47772616240E+03  0.25500000920E-02 0. -1.
        2   -1    0    0  501    0  0.00000000000E+00  0.00000000000E+00 -0.20888020782E+04  0.20888020782E+04  0.25500000920E-02 0.  1.
    10030    2    1    2    0    0  0.00000000000E+00  0.00000000000E+00 -0.16110759159E+04  0.25665282406E+04  0.19978742712E+04 0.  0.
        1    1    3    3  502    0  0.94991542172E+03 -0.20173115812E+03 -0.50470243292E+03  0.10944219088E+04  0.50400001928E-02 0. -1.
       -1    1    3    3    0  502 -0.94991542172E+03  0.20173115812E+03 -0.11063734829E+04  0.14721063319E+04  0.50400001928E-02 0.  1.
</event>
<event>
 5   0  0.1258546E-04  0.1969218E+04  0.7818609E-02  0.8621149E-01
        1   -1    0    0  501    0  0.00000000000E+00  0.00000000000E+00  0.60091083648E+03  0.60091083650E+03  0.50400001928E-02 0.  1.
       -1   -1    0    0    0  501  0.00000000000E+00  0.00000000000E+00 -0.16133097537E+04  0.16133097537E+04  0.50400001928E-02 0. -1.
    10030    2    1    2    0    0  0.00000000000E+00  0.00000000000E+00 -0.10123989172E+04  0.22142205902E+04  0.19692184375E+04 0.  0.
        4    1    3    3  502    0  0.73822212438E+03 -0.59873360858E+03 -0.79506684004E+03  0.12391879325E+04  0.12699999809E+01 0. -1.
       -4    1    3    3    0  502 -0.73822212438E+03  0.59873360858E+03 -0.21733207718E+03  0.97503265773E+03  0.12699999809E+01 0.  1.
</event>
<event>
 5   0  0.2596061E-04  0.1955985E+04  0.7818609E-02  0.8627480E-01
       -2   -1    0    0    0  501  0.00000000000E+00  0.00000000000E+00  0.97561016488E+03  0.97561016488E+03  0.25500000920E-02 0. -1.
        2   -1    0    0  501    0  0.00000000000E+00  0.00000000000E+00 -0.98038065363E+03  0.98038065363E+03  0.25500000920E-02 0.  1.
    10030    2    1    2    0    0  0.00000000000E+00  0.00000000000E+00 -0.47704887458E+01  0.19559908185E+04  0.19559850011E+04 0.  0.
        5    1    3    3  502    0 -0.35294799363E+03  0.71347457013E+03 -0.57056735690E+03  0.97938115522E+03  0.46999998093E+01 0.  1.
       -5    1    3    3    0  502  0.35294799363E+03 -0.71347457013E+03  0.56579686816E+03  0.97660966330E+03  0.46999998093E+01 0. -1.
</event>
<event>
 5   0  0.2488886E-04  0.1709107E+04  0.7818609E-02  0.8756187E-01
       -2   -1    0    0    0  501  0.00000000000E+00  0.00000000000E+00  0.44447152143E+03  0.44447152144E+03  0.25500000920E-02 0.  1.
        2   -1    0    0  501    0  0.00000000000E+00  0.00000000000E+00 -0.16429896293E+04  0.16429896293E+04  0.25500000920E-02 0. -1.
    10030    2    1    2    0    0  0.00000000000E+00  0.00000000000E+00 -0.11985181078E+04  0.20874611507E+04  0.17091074866E+04 0.  0.
        3    1    3    3  502    0 -0.39520760059E+03  0.62412427299E+03 -0.11239415299E+04  0.13449775941E+04  0.10100000352E+00 0. -1.
       -3    1    3    3    0  502  0.39520760059E+03 -0.62412427299E+03 -0.74576577932E+02  0.74248355664E+03  0.10100000352E+00 0.  1.
</event>
<event>
 5   0  0.2540506E-04  0.1938425E+04  0.7818609E-02  0.8635963E-01
        2   -1    0    0  501    0  0.00000000000E+00  0.00000000000E+00  0.21932924809E+04  0.21932924809E+04  0.25500000920E-02 0.  1.
       -2   -1    0    0    0  501  0.00000000000E+00  0.00000000000E+00 -0.42829331308E+03  0.42829331309E+03  0.25500000920E-02 0. -1.
    10030    2    1    2    0    0  0.00000000000E+00  0.00000000000E+00  0.17649991678E+04  0.26215857940E+04  0.19384246214E+04 0.  0.
        4    1    3    3  502    0 -0.49288563286E+02 -0.39426792558E+03 -0.31307885245E+03  0.50586217526E+03  0.12699999809E+01 0. -1.
       -4    1    3    3    0  502  0.49288563286E+02  0.39426792558E+03  0.20780780203E+04  0.21157236187E+04  0.12699999809E+01 0.  1.
</event>
<event>
 5   0  0.2463085E-04  0.1945134E+04  0.7818609E-02  0.8632711E-01
        2   -1    0    0  501    0  0.00000000000E+00  0.00000000000E+00  0.13980123332E+04  0.13980123332E+04  0.25500000920E-02 0.  1.
       -2   -1    0    0    0  501  0.00000000000E+00  0.00000000000E+00 -0.67659384058E+03  0.67659384059E+03  0.25500000920E-02 0. -1.
    10030    2    1    2    0    0  0.00000000000E+00  0.00000000000E+00  0.72141849259E+03  0.20746061738E+04  0.19451339632E+04 0.  0.
        2    1    3    3  502    0 -0.24155536071E+03 -0.36049520006E+02 -0.64335459265E+03  0.68815237562E+03  0.25500000920E-02 0. -1.
       -2    1    3    3    0  502  0.24155536071E+03  0.36049520006E+02  0.13647730852E+04  0.13864537981E+04  0.25500000920E-02 0.  1.
</event>
<event>
 5   0  0.2463085E-04  0.2016953E+04  0.7818609E-02  0.8598735E-01
       -2   -1    0    0    0  501  0.00000000000E+00  0.00000000000E+00  0.80264126845E+03  0.80264126845E+03  0.25500000920E-02 0. -1.
        2   -1    0    0  501    0  0.00000000000E+00  0.00000000000E+00 -0.12670982341E+04  0.12670982341E+04  0.25500000920E-02 0.  1.
    10030    2    1    2    0    0  0.00000000000E+00  0.00000000000E+00 -0.46445696568E+03  0.20697395026E+04  0.20169534788E+04 0.  0.
        2    1    3    3  502    0 -0.99704310576E+03 -0.14283583357E+03 -0.18063029672E+03  0.10232909333E+04  0.25500000920E-02 0.  1.
       -2    1    3    3    0  502  0.99704310576E+03  0.14283583357E+03 -0.28382666896E+03  0.10464485693E+04  0.25500000920E-02 0. -1.
</event>
<event>
 5   0  0.2463085E-04  0.2029366E+04  0.7818609E-02  0.8593013E-01
       -2   -1    0    0    0  501  0.00000000000E+00  0.00000000000E+00  0.12535368153E+04  0.12535368153E+04  0.25500000920E-02 0. -1.
        2   -1    0    0  501    0  0.00000000000E+00  0.00000000000E+00 -0.82134149480E+03  0.82134149480E+03  0.25500000920E-02 0.  1.
    10030    2    1    2    0    0  0.00000000000E+00  0.00000000000E+00  0.43219532047E+03  0.20748783101E+04  0.20293662081E+04 0.  0.
        2    1    3    3  502    0  0.28652618531E+03 -0.81512574792E+03  0.76005806165E+03  0.11507456265E+04  0.25500000920E-02 0. -1.
       -2    1    3    3    0  502 -0.28652618531E+03  0.81512574792E+03 -0.32786274119E+03  0.92413268358E+03  0.25500000920E-02 0.  1.
</event>
<event>
 5   0  0.2488886E-04  0.1972276E+04  0.7818609E-02  0.8619694E-01
       -2   -1    0    0    0  501  0.00000000000E+00  0.00000000000E+00  0.80342543643E+03  0.80342543644E+03  0.25500000920E-02 0. -1.
        2   -1    0    0  501    0  0.00000000000E+00  0.00000000000E+00 -0.12104020320E+04  0.12104020320E+04  0.25500000920E-02 0.  1.
    10030    2    1    2    0    0  0.00000000000E+00  0.00000000000E+00 -0.40697659558E+03  0.20138274685E+04  0.19722756205E+04 0.  0.
        3    1    3    3  502    0  0.98312614604E+03 -0.10178109027E+02 -0.28143236060E+03  0.10226655351E+04  0.10100000352E+00 0.  1.
       -3    1    3    3    0  502 -0.98312614604E+03  0.10178109027E+02 -0.12554423498E+03  0.99116193333E+03  0.10100000352E+00 0. -1.
</event>
<event>
 5   0  0.2540506E-04  0.2201347E+04  0.7818609E-02  0.8517868E-01
       -2   -1    0    0    0  501  0.00000000000E+00  0.00000000000E+00  0.89564225143E+03  0.89564225143E+03  0.25500000920E-02 0.  1.
        2   -1    0    0  501    0  0.00000000000E+00  0.00000000000E+00 -0.13526403641E+04  0.13526403641E+04  0.25500000920E-02 0. -1.
    10030    2    1    2    0    0  0.00000000000E+00  0.00000000000E+00 -0.45699811268E+03  0.22482826156E+04  0.22013467343E+04 0.  0.
        4    1    3    3  502    0 -0.51528838061E+03 -0.77599397111E+03 -0.82733796427E+03  0.12458645506E+04  0.12699999809E+01 0.  1.
       -4    1    3    3    0  502  0.51528838061E+03  0.77599397111E+03  0.37033985159E+03  0.10024180650E+04  0.12699999809E+01 0. -1.
</event>
<event>
 5   0  0.2421737E-04  0.1959451E+04  0.7818609E-02  0.8625817E-01
        2   -1    0    0  501    0  0.00000000000E+00  0.00000000000E+00  0.22077621805E+04  0.22077621805E+04  0.25500000920E-02 0.  1.
       -2   -1    0    0    0  501  0.00000000000E+00  0.00000000000E+00 -0.43476691810E+03  0.43476691811E+03  0.25500000920E-02 0. -1.
    10030    2    1    2    0    0  0.00000000000E+00  0.00000000000E+00  0.17729952624E+04  0.26425290986E+04  0.19594509018E+04 0.  0.
        1    1    3    3  502    0  0.65415980315E+03 -0.59645250938E+03  0.14525613449E+04  0.17010629338E+04  0.50400001928E-02 0.  1.
       -1    1    3    3    0  502 -0.65415980315E+03  0.59645250938E+03  0.32043391754E+03  0.94146616484E+03  0.50400001928E-02 0. -1.
</event>
<event>
 5   0  0.1207228E-04  0.1842724E+04  0.7818609E-02  0.8683904E-01
       -1   -1    0    0    0  501  0.00000000000E+00  0.00000000000E+00  0.42646752569E+03  0.42646752572E+03  0.50400001928E-02 0.  1.
        1   -1    0    0  501    0  0.00000000000E+00  0.00000000000E+00 -0.19905569739E+04  0.19905569739E+04  0.50400001928E-02 0. -1.
    10030    2    1    2    0    0  0.00000000000E+00  0.00000000000E+00 -0.15640894482E+04  0.24170244996E+04  0.18427239700E+04 0.  0.
        1    1    3    3  502    0  0.51645512915E+03  0.59139025599E+03 -0.14144213384E+04  0.16177317633E+04  0.50400001928E-02 0. -1.
       -1    1    3    3    0  502 -0.51645512915E+03 -0.59139025599E+03 -0.14966810983E+03  0.79929273638E+03  0.50400001928E-02 0.  1.
</event>
<event>
 5   0  0.1231056E-04  0.1990004E+04  0.7818609E-02  0.8611309E-01
       -1   -1    0    0    0  501  0.00000000000E+00  0.00000000000E+00  0.99010727979E+03  0.99010727981E+03  0.50400001928E-02 0.  1.
        1   -1    0    0  501    0  0.00000000000E+00  0.00000000000E+00 -0.99992049254E+03  0.99992049255E+03  0.50400001928E-02 0. -1.
    10030    2    1    2    0    0  0.00000000000E+00  0.00000000000E+00 -0.98132127427E+01  0.19900277724E+04  0.19900035768E+04 0.  0.
        3    1    3    3  502    0 -0.14693780054E+03  0.29296074844E+03 -0.94439226036E+03  0.99964667207E+03  0.10100000352E+00 0. -1.
       -3    1    3    3    0  502  0.14693780054E+03 -0.29296074844E+03  0.93457904762E+03  0.99038110028E+03  0.10100000352E+00 0.  1.
</event>
<event>
 5   0  0.1207228E-04  0.2009133E+04  0.7818609E-02  0.8602363E-01
       -1   -1    0    0    0  501  0.00000000000E+00  0.00000000000E+00  0.63020373569E+03  0.63020373571E+03  0.50400001928E-02 0.  1.
        1   -1    0    0  501    0  0.00000000000E+00  0.00000000000E+00 -0.16013130106E+04  0.16013130107E+04  0.50400001928E-02 0. -1.
    10030    2    1    2    0    0  0.00000000000E+00  0.00000000000E+00 -0.97110927495E+03  0.22315167464E+04  0.20091325903E+04 0.  0.
        1    1    3    3  502    0 -0.39195693304E+03 -0.86464995217E+03 -0.12070858789E+03  0.95698502619E+03  0.50400001928E-02 0. -1.
       -1    1    3    3    0  502  0.39195693304E+03  0.86464995217E+03 -0.85040068706E+03  0.12745317202E+04  0.50400001928E-02 0.  1.
</event>
<event>
 5   0  0.2540506E-04  0.1942371E+04  0.7818609E-02  0.8634049E-01
        2   -1    0    0  501    0  0.00000000000E+00  0.00000000000E+00  0.16690834613E+04  0.16690834614E+04  0.25500000920E-02 0.  1.
       -2   -1    0    0    0  501  0.00000000000E+00  0.00000000000E+00 -0.56510118728E+03  0.56510118729E+03  0.25500000920E-02 0. -1.
    10030    2    1    2    0    0  0.00000000000E+00  0.00000000000E+00  0.11039822741E+04  0.22341846486E+04  0.19423707635E+04 0.  0.
        4    1    3    3  502    0  0.45696827879E+03 -0.63215475943E+02  0.15350110763E+04  0.16028339969E+04  0.12699999809E+01 0.  1.
       -4    1    3    3    0  502 -0.45696827879E+03  0.63215475943E+02 -0.43102880225E+03  0.63135065176E+03  0.12699999809E+01 0. -1.
</event>
<event>
 5   0  0.2463085E-04  0.1931241E+04  0.7818609E-02  0.8639460E-01
        2   -1    0    0  501    0  0.00000000000E+00  0.00000000000E+00  0.10645358737E+04  0.10645358737E+04  0.25500000920E-02 0.  1.
       -2   -1    0    0    0  501  0.00000000000E+00  0.00000000000E+00 -0.87589605473E+03  0.87589605473E+03  0.25500000920E-02 0. -1.
    10030    2    1    2    0    0  0.00000000000E+00  0.00000000000E+00  0.18863981901E+03  0.19404319285E+04  0.19312408156E+04 0.  0.
        2    1    3    3  502    0  0.55740938546E+03 -0.38662644139E+03 -0.59614599261E+03  0.90309206213E+03  0.25500000920E-02 0. -1.
       -2    1    3    3    0  502 -0.55740938546E+03  0.38662644139E+03  0.78478581162E+03  0.10373398663E+04  0.25500000920E-02 0.  1.
</event>
<event>
 5   0  0.2463085E-04  0.2034944E+04  0.7818609E-02  0.8590455E-01
       -2   -1    0    0    0  501  0.00000000000E+00  0.00000000000E+00  0.76173047496E+03  0.76173047496E+03  0.25500000920E-02 0. -1.
        2   -1    0    0  501    0  0.00000000000E+00  0.00000000000E+00 -0.13590751320E+04  0.13590751320E+04  0.25500000920E-02 0.  1.
    10030    2    1    2    0    0  0.00000000000E+00  0.00000000000E+00 -0.59734465708E+03  0.21208056070E+04  0.20349436806E+04 0.  0.
        2    1    3    3  502    0 -0.68444748390E+03 -0.46271778057E+02  0.48445810378E+03  0.83982682143E+03  0.25500000920E-02 0. -1.
       -2    1    3    3    0  502  0.68444748390E+03  0.46271778057E+02 -0.10818027609E+04  0.12809787856E+04  0.25500000920E-02 0.  1.
</event>
<event>
 5   0  0.2421737E-04  0.1998012E+04  0.7818609E-02  0.8607551E-01
       -2   -1    0    0    0  501  0.00000000000E+00  0.00000000000E+00  0.13793959400E+04  0.13793959400E+04  0.25500000920E-02 0. -1.
        2   -1    0    0  501    0  0.00000000000E+00  0.00000000000E+00 -0.72351443751E+03  0.72351443752E+03  0.25500000920E-02 0.  1.
    10030    2    1    2    0    0  0.00000000000E+00  0.00000000000E+00  0.65588150248E+03  0.21029103775E+04  0.19980118895E+04 0.  0.
        1    1    3    3  502    0  0.25764165979E+03  0.85166066582E+03  0.80599863101E+03  0.12005577486E+04  0.50400001928E-02 0. -1.
       -1    1    3    3    0  502 -0.25764165979E+03 -0.85166066582E+03 -0.15011712853E+03  0.90235262889E+03  0.50400001928E-02 0.  1.
</event>
<event>
 5   0  0.2596061E-04  0.1986405E+04  0.7818609E-02  0.8613003E-01
       -2   -1    0    0    0  501  0.00000000000E+00  0.00000000000E+00  0.13634744618E+04  0.13634744618E+04  0.25500000920E-02 0.  1.
        2   -1    0    0  501    0  0.00000000000E+00  0.00000000000E+00 -0.72348325417E+03  0.72348325418E+03  0.25500000920E-02 0. -1.
    10030    2    1    2    0    0  0.00000000000E+00  0.00000000000E+00  0.63999120766E+03  0.20869577160E+04  0.19864047328E+04 0.  0.
        5    1    3    3  502    0 -0.47881407025E+03 -0.27547928093E+03 -0.54718150464E+03  0.77754835033E+03  0.46999998093E+01 0. -1.
       -5    1    3    3    0  502  0.47881407025E+03  0.27547928093E+03  0.11871727123E+04  0.13094093657E+04  0.46999998093E+01 0.  1.
</event>
<event>
 5   0  0.1210633E-04  0.2006726E+04  0.7818609E-02  0.8603482E-01
       -1   -1    0    0    0  501  0.00000000000E+00  0.00000000000E+00  0.10935074625E+04  0.10935074625E+04  0.50400001928E-02 0. -1.
        1   -1    0    0  501    0  0.00000000000E+00  0.00000000000E+00 -0.92065005791E+03  0.92065005792E+03  0.50400001928E-02 0.  1.
    10030    2    1    2    0    0  0.00000000000E+00  0.00000000000E+00  0.17285740455E+03  0.20141575204E+04  0.20067263976E+04 0.  0.
        2    1    3    3  502    0  0.88828413311E+03  0.46352740261E+03  0.13983622036E+03  0.10116622572E+04  0.25500000920E-02 0.  1.
       -2    1    3    3    0  502 -0.88828413311E+03 -0.46352740261E+03  0.33021184189E+02  0.10024952632E+04  0.25500000920E-02 0. -1.
</event>
<event>
 5   0  0.1231056E-04  0.1996297E+04  0.7818609E-02  0.8608354E-01
       -1   -1    0    0    0  501  0.00000000000E+00  0.00000000000E+00  0.14594007207E+04  0.14594007207E+04  0.50400001928E-02 0. -1.
        1   -1    0    0  501    0  0.00000000000E+00  0.00000000000E+00 -0.68267801633E+03  0.68267801635E+03  0.50400001928E-02 0.  1.
    10030    2    1    2    0    0  0.00000000000E+00  0.00000000000E+00  0.77672270437E+03  0.21420787371E+04  0.19962973617E+04 0.  0.
        3    1    3    3  502    0 -0.58187693660E+03 -0.19072587280E+03 -0.45745510294E+03  0.76434436565E+03  0.10100000352E+00 0.  1.
       -3    1    3    3    0  502  0.58187693660E+03  0.19072587280E+03  0.12341778073E+04  0.13777343714E+04  0.10100000352E+00 0. -1.
</event>
<event>
 5   0  0.1207228E-04  0.2046811E+04  0.7818609E-02  0.8585042E-01
        1   -1    0    0  501    0  0.00000000000E+00  0.00000000000E+00  0.14391149709E+04  0.14391149709E+04  0.50400001928E-02 0. -1.
       -1   -1    0    0    0  501  0.00000000000E+00  0.00000000000E+00 -0.72777975206E+03  0.72777975207E+03  0.50400001928E-02 0.  1.
    10030    2    1    2    0    0  0.00000000000E+00  0.00000000000E+00  0.71133521887E+03  0.21668947230E+04  0.20468109212E+04 0.  0.
        1    1    3    3  502    0 -0.46809999875E+03  0.67673853256E+03 -0.28852695242E+03  0.87197502979E+03  0.50400001928E-02 0.  1.
       -1    1    3    3    0  502  0.46809999875E+03 -0.67673853256E+03  0.99986217129E+03  0.12949196932E+04  0.50400001928E-02 0. -1.
</event>
<event>
 5   0  0.1210633E-04  0.2009931E+04  0.7818609E-02  0.8601992E-01
       -1   -1    0    0    0  501  0.00000000000E+00  0.00000000000E+00  0.11260212566E+04  0.11260212566E+04  0.50400001928E-02 0.  1.
        1   -1    0    0  501    0  0.00000000000E+00  0.00000000000E+00 -0.89692382827E+03  0.89692382829E+03  0.50400001928E-02 0. -1.
    10030    2    1    2    0    0  0.00000000000E+00  0.00000000000E+00  0.22909742828E+03  0.20229450849E+04  0.20099306418E+04 0.  0.
        2    1    3    3  502    0 -0.28681553997E+03 -0.41763169027E+03 -0.75898578740E+03  0.91254523623E+03  0.25500000920E-02 0. -1.
       -2    1    3    3    0  502  0.28681553997E+03  0.41763169027E+03  0.98808321569E+03  0.11103998486E+04  0.25500000920E-02 0.  1.
</event>
<event>
 5   0  0.2488886E-04  0.1992882E+04  0.7818609E-02  0.8609956E-01
       -2   -1    0    0    0  501  0.00000000000E+00  0.00000000000E+00  0.70813731406E+03  0.70813731407E+03  0.25500000920E-02 0. -1.
        2   -1    0    0  501    0  0.00000000000E+00  0.00000000000E+00 -0.14021211467E+04  0.14021211467E+04  0.25500000920E-02 0.  1.
    10030    2    1    2    0    0  0.00000000000E+00  0.00000000000E+00 -0.69398383260E+03  0.21102584607E+04  0.19928816350E+04 0.  0.
        3    1    3    3  502    0 -0.80050823531E+03  0.53555260630E+03 -0.76476595634E+02  0.96616701910E+03  0.10100000352E+00 0. -1.
       -3    1    3    3    0  502  0.80050823531E+03 -0.53555260630E+03 -0.61750723696E+03  0.11440914416E+04  0.10100000352E+00 0.  1.
</event>
<event>
 5   0  0.1210633E-04  0.1976784E+04  0.7818609E-02  0.8617552E-01
       -1   -1    0    0    0  501  0.00000000000E+00  0.00000000000E+00  0.66235248724E+03  0.66235248726E+03  0.50400001928E-02 0.  1.
        1   -1    0    0  501    0  0.00000000000E+00  0.00000000000E+00 -0.14749230078E+04  0.14749230078E+04  0.50400001928E-02 0. -1.
    10030    2    1    2    0    0  0.00000000000E+00  0.00000000000E+00 -0.81257052057E+03  0.21372754951E+04  0.19767841792E+04 0.  0.
        2    1    3    3  502    0  0.85401268410E+03 -0.49533449378E+03 -0.45728477033E+03  0.10880272453E+04  0.25500000920E-02 0. -1.
       -2    1    3    3    0  502 -0.85401268410E+03  0.49533449378E+03 -0.35528575024E+03  0.10492482498E+04  0.25500000920E-02 0.  1.
</event>
<event>
 5   0  0.2488886E-04  0.1978240E+04  0.7818609E-02  0.8616862E-01
       -2   -1    0    0    0  501  0.00000000000E+00  0.00000000000E+00  0.64703389429E+03  0.64703389429E+03  0.25500000920E-02 0.  1.
        2   -1    0    0  501    0  0.00000000000E+00  0.00000000000E+00 -0.15120665231E+04  0.15120665231E+04  0.25500000920E-02 0. -1.
    10030    2    1    2    0    0  0.00000000000E+00  0.00000000000E+00 -0.86503262881E+03  0.21591004174E+04  0.19782399156E+04 0.  0.
        3    1    3    3  502    0  0.56056818546E+02  0.76299345489E+03 -0.11167770092E+04  0.13536957847E+04  0.10100000352E+00 0. -1.
       -3    1    3    3    0  502 -0.56056818546E+02 -0.76299345489E+03  0.25174438036E+03  0.80540463269E+03  0.10100000352E+00 0.  1.
</event>
<event>
 5   0  0.2540506E-04  0.1275518E+04  0.7818609E-02  0.9049208E-01
       -2   -1    0    0    0  501  0.00000000000E+00  0.00000000000E+00  0.52217627112E+03  0.52217627113E+03  0.25500000920E-02 0. -1.
        2   -1    0    0  501    0  0.00000000000E+00  0.00000000000E+00 -0.77892549915E+03  0.77892549916E+03  0.25500000920E-02 0.  1.
    10030    2    1    2    0    0  0.00000000000E+00  0.00000000000E+00 -0.25674922803E+03  0.13011017703E+04  0.12755177970E+04 0.  0.
        4    1    3    3  502    0 -0.20023164448E+03  0.49972591983E+03 -0.47716290164E+03  0.71937803275E+03  0.12699999809E+01 0.  1.
       -4    1    3    3    0  502  0.20023164448E+03 -0.49972591983E+03  0.22041367361E+03  0.58172373754E+03  0.12699999809E+01 0. -1.
</event>
<event>
 5   0  0.1324930E-04  0.2040337E+04  0.7818609E-02  0.8587991E-01
       -1   -1    0    0    0  501  0.00000000000E+00  0.00000000000E+00  0.13912764221E+04  0.13912764221E+04  0.50400001928E-02 0.  1.
        1   -1    0    0  501    0  0.00000000000E+00  0.00000000000E+00 -0.74804967783E+03  0.74804967785E+03  0.50400001928E-02 0. -1.
    10030    2    1    2    0    0  0.00000000000E+00  0.00000000000E+00  0.64322674428E+03  0.21393261000E+04  0.20403371088E+04 0.  0.
        5    1    3    3  502    0  0.33633800780E+03 -0.31736227938E+03  0.12750596571E+04  0.13563337683E+04  0.46999998093E+01 0.  1.
       -5    1    3    3    0  502 -0.33633800780E+03  0.31736227938E+03 -0.63183291277E+03  0.78299233171E+03  0.46999998093E+01 0. -1.
</event>
<event>
 5   0  0.1231056E-04  0.2008193E+04  0.7818609E-02  0.8602800E-01
       -1   -1    0    0    0  501  0.00000000000E+00  0.00000000000E+00  0.10808476912E+04  0.10808476912E+04  0.50400001928E-02 0. -1.
        1   -1    0    0  501    0  0.00000000000E+00  0.00000000000E+00 -0.93279504114E+03  0.93279504116E+03  0.50400001928E-02 0.  1.
    10030    2    1    2    0    0  0.00000000000E+00  0.00000000000E+00  0.14805265001E+03  0.20136427323E+04  0.20081925869E+04 0.  0.
        3    1    3    3  502    0  0.60355535816E+03  0.80217937732E+03  0.53028321748E+02  0.10052774925E+04  0.10100000352E+00 0.  1.
       -3    1    3    3    0  502 -0.60355535816E+03 -0.80217937732E+03  0.95024328264E+02  0.10083652398E+04  0.10100000352E+00 0. -1.
</event>
<event>
 5   0  0.1258546E-04  0.2000209E+04  0.7818609E-02  0.8606523E-01
       -1   -1    0    0    0  501  0.00000000000E+00  0.00000000000E+00  0.13344240813E+04  0.13344240814E+04  0.50400001928E-02 0. -1.
        1   -1    0    0  501    0  0.00000000000E+00  0.00000000000E+00 -0.74954357414E+03  0.74954357415E+03  0.50400001928E-02 0.  1.
    10030    2    1    2    0    0  0.00000000000E+00  0.00000000000E+00  0.58488050720E+03  0.20839676555E+04  0.20002089845E+04 0.  0.
        4    1    3    3  502    0 -0.21764856306E+03  0.87958110017E+03  0.73345445880E+03  0.11657576355E+04  0.12699999809E+01 0. -1.
       -4    1    3    3    0  502  0.21764856306E+03 -0.87958110017E+03 -0.14857395159E+03  0.91821001997E+03  0.12699999809E+01 0.  1.
</event>
<event>
 5   0  0.1324930E-04  0.2017410E+04  0.7818609E-02  0.8598524E-01
       -1   -1    0    0    0  501  0.00000000000E+00  0.00000000000E+00  0.63726255163E+03  0.63726255165E+03  0.50400001928E-02 0. -1.
        1   -1    0    0  501    0  0.00000000000E+00  0.00000000000E+00 -0.15966509931E+04  0.15966509931E+04  0.50400001928E-02 0.  1.
    10030    2    1    2    0    0  0.00000000000E+00  0.00000000000E+00 -0.95938844150E+03  0.22339135448E+04  0.20174101080E+04 0.  0.
        5    1    3    3  502    0  0.26023244633E+03  0.81835266723E+03 -0.10656752889E+04  0.13686153314E+04  0.46999998093E+01 0.  1.
       -5    1    3    3    0  502 -0.26023244633E+03 -0.81835266723E+03  0.10628684739E+03  0.86529821335E+03  0.46999998093E+01 0. -1.
</event>
<event>
 5   0  0.2463085E-04  0.1992249E+04  0.7818609E-02  0.8610253E-01
        2   -1    0    0  501    0  0.00000000000E+00  0.00000000000E+00  0.17774762209E+04  0.17774762209E+04  0.25500000920E-02 0. -1.
       -2   -1    0    0    0  501  0.00000000000E+00  0.00000000000E+00 -0.55824322383E+03  0.55824322383E+03  0.25500000920E-02 0.  1.
    10030    2    1    2    0    0  0.00000000000E+00  0.00000000000E+00  0.12192329971E+04  0.23357194448E+04  0.19922490365E+04 0.  0.
        2    1    3    3  502    0 -0.46830170537E+03 -0.20090035627E+03 -0.39386531201E+03  0.64404761036E+03  0.25500000920E-02 0.  1.
       -2    1    3    3    0  502  0.46830170537E+03  0.20090035627E+03  0.16130983091E+04  0.16916718344E+04  0.25500000920E-02 0. -1.
</event>
<event>
 5   0  0.1210633E-04  0.2017494E+04  0.7818609E-02  0.8598485E-01
        1   -1    0    0  501    0  0.00000000000E+00  0.00000000000E+00  0.18629360913E+04  0.18629360913E+04  0.50400001928E-02 0.  1.
       -1   -1    0    0    0  501  0.00000000000E+00  0.00000000000E+00 -0.54621861253E+03  0.54621861255E+03  0.50400001928E-02 0. -1.
    10030    2    1    2    0    0  0.00000000000E+00  0.00000000000E+00  0.13167174787E+04  0.24091547038E+04  0.20174938583E+04 0.  0.
        2    1    3    3  502    0 -0.20352076988E+03 -0.85887277101E+03  0.12415151165E+04  0.15233000115E+04  0.25500000920E-02 0.  1.
       -2    1    3    3    0  502  0.20352076988E+03  0.85887277101E+03  0.75202362210E+02  0.88585469229E+03  0.25500000920E-02 0. -1.
</event>
<event>
 5   0  0.2488886E-04  0.1987073E+04  0.7818609E-02  0.8612688E-01
        2   -1    0    0  501    0  0.00000000000E+00  0.00000000000E+00  0.16037340612E+04  0.16037340612E+04  0.25500000920E-02 0.  1.
       -2   -1    0    0    0  501  0.00000000000E+00  0.00000000000E+00 -0.61551047902E+03  0.61551047902E+03  0.25500000920E-02 0. -1.
    10030    2    1    2    0    0  0.00000000000E+00  0.00000000000E+00  0.98822358222E+03  0.22192445403E+04  0.19870733457E+04 0.  0.
        3    1    3    3  502    0 -0.65971779759E+03 -0.12455799740E+03  0.13120578285E+04  0.14738514249E+04  0.10100000352E+00 0.  1.
       -3    1    3    3    0  502  0.65971779759E+03  0.12455799740E+03 -0.32383424627E+03  0.74539311536E+03  0.10100000352E+00 0. -1.
</event>
<event>
 5   0  0.1207228E-04  0.1256288E+04  0.7818609E-02  0.9064966E-01
       -1   -1    0    0    0  501  0.00000000000E+00  0.00000000000E+00  0.39398113944E+03  0.39398113947E+03  0.50400001928E-02 0. -1.
        1   -1    0    0  501    0  0.00000000000E+00  0.00000000000E+00 -0.10014818255E+04  0.10014818255E+04  0.50400001928E-02 0.  1.
    10030    2    1    2    0    0  0.00000000000E+00  0.00000000000E+00 -0.60750068606E+03  0.13954629650E+04  0.12562881051E+04 0.  0.
        1    1    3    3  502    0  0.87310962365E+02 -0.17481004722E+03 -0.96686354604E+03  0.98641110773E+03  0.50400001928E-02 0.  1.
       -1    1    3    3    0  502 -0.87310962365E+02  0.17481004722E+03  0.35936285998E+03  0.40905185725E+03  0.50400001928E-02 0. -1.
</event>
<event>
 5   0  0.2488886E-04  0.1682463E+04  0.7818609E-02  0.8771430E-01
       -2   -1    0    0    0  501  0.00000000000E+00  0.00000000000E+00  0.82479730543E+03  0.82479730543E+03  0.25500000920E-02 0. -1.
        2   -1    0    0  501    0  0.00000000000E+00  0.00000000000E+00 -0.85799299908E+03  0.85799299908E+03  0.25500000920E-02 0.  1.
    10030    2    1    2    0    0  0.00000000000E+00  0.00000000000E+00 -0.33195693647E+02  0.16827903045E+04  0.16824628539E+04 0.  0.
        3    1    3    3  502    0  0.39051162010E+03  0.21398870174E+03 -0.73044524631E+03  0.85547691843E+03  0.10100000352E+00 0.  1.
       -3    1    3    3    0  502 -0.39051162010E+03 -0.21398870174E+03  0.69724955266E+03  0.82731338608E+03  0.10100000352E+00 0. -1.
</event>
<event>
 5   0  0.2596061E-04  0.2015142E+04  0.7818609E-02  0.8599574E-01
        2   -1    0    0  501    0  0.00000000000E+00  0.00000000000E+00  0.80579655573E+03  0.80579655574E+03  0.25500000920E-02 0.  1.
       -2   -1    0    0    0  501  0.00000000000E+00  0.00000000000E+00 -0.12598710896E+04  0.12598710896E+04  0.25500000920E-02 0. -1.
    10030    2    1    2    0    0  0.00000000000E+00  0.00000000000E+00 -0.45407453382E+03  0.20656676453E+04  0.20151424611E+04 0.  0.
        5    1    3    3  502    0 -0.82842021718E+03  0.15616212906E+03 -0.79269822612E+03  0.11571772701E+04  0.46999998093E+01 0.  1.
       -5    1    3    3    0  502  0.82842021718E+03 -0.15616212906E+03  0.33862369230E+03  0.90849037517E+03  0.46999998093E+01 0. -1.
</event>
<event>
 5   0  0.2596061E-04  0.1990519E+04  0.7818609E-02  0.8611066E-01
        2   -1    0    0  501    0  0.00000000000E+00  0.00000000000E+00  0.11245648490E+04  0.11245648490E+04  0.25500000920E-02 0. -1.
       -2   -1    0    0    0  501  0.00000000000E+00  0.00000000000E+00 -0.88082160501E+03  0.88082160502E+03  0.25500000920E-02 0.  1.
    10030    2    1    2    0    0  0.00000000000E+00  0.00000000000E+00  0.24374324399E+03  0.20053864540E+04  0.19905185407E+04 0.  0.
        5    1    3    3  502    0 -0.70220716483E+03  0.22740633619E+03  0.79447373077E+03  0.10844441631E+04  0.46999998093E+01 0. -1.
       -5    1    3    3    0  502  0.70220716483E+03 -0.22740633619E+03 -0.55073048678E+03  0.92094229089E+03  0.46999998093E+01 0.  1.
</event>
<event>
 5   0  0.2488886E-04  0.1405208E+04  0.7818609E-02  0.8950057E-01
        2   -1    0    0  501    0  0.00000000000E+00  0.00000000000E+00  0.92118113877E+03  0.92118113877E+03  0.25500000920E-02 0.  1.
       -2   -1    0    0    0  501  0.00000000000E+00  0.00000000000E+00 -0.53589093064E+03  0.53589093065E+03  0.25500000920E-02 0. -1.
    10030    2    1    2    0    0  0.00000000000E+00  0.00000000000E+00  0.38529020813E+03  0.14570720694E+04  0.14052083372E+04 0.  0.
        3    1    3    3  502    0  0.50224046063E+03  0.38594279365E+03 -0.12264198851E+03  0.64516539570E+03  0.10100000352E+00 0. -1.
       -3    1    3    3    0  502 -0.50224046063E+03 -0.38594279365E+03  0.50793219664E+03  0.81190667372E+03  0.10100000352E+00 0.  1.
</event>
<event>
 5   0  0.1207228E-04  0.1997733E+04  0.7818609E-02  0.8607681E-01
        1   -1    0    0  501    0  0.00000000000E+00  0.00000000000E+00  0.19763912693E+04  0.19763912693E+04  0.50400001928E-02 0.  1.
       -1   -1    0    0    0  501  0.00000000000E+00  0.00000000000E+00 -0.50482620145E+03  0.50482620148E+03  0.50400001928E-02 0. -1.
    10030    2    1    2    0    0  0.00000000000E+00  0.00000000000E+00  0.14715650678E+04  0.24812174708E+04  0.19977328121E+04 0.  0.
        1    1    3    3  502    0 -0.71164658741E+03 -0.41483813631E+03  0.34067784144E+02  0.82443444776E+03  0.50400001928E-02 0. -1.
       -1    1    3    3    0  502  0.71164658741E+03  0.41483813631E+03  0.14374972837E+04  0.16567830230E+04  0.50400001928E-02 0.  1.
</event>
<event>
 5   0  0.1210633E-04  0.1253900E+04  0.7818609E-02  0.9066944E-01
       -1   -1    0    0    0  501  0.00000000000E+00  0.00000000000E+00  0.17890696951E+03  0.17890696958E+03  0.50400001928E-02 0. -1.
        1   -1    0    0  501    0  0.00000000000E+00  0.00000000000E+00 -0.21970425887E+04  0.21970425887E+04  0.50400001928E-02 0.  1.
    10030    2    1    2    0    0  0.00000000000E+00  0.00000000000E+00 -0.20181356192E+04  0.23759495583E+04  0.12538998868E+04 0.  0.
        2    1    3    3  502    0  0.58889310235E+03 -0.21039528429E+03 -0.10939132049E+04  0.12600426031E+04  0.25500000920E-02 0.  1.
       -2    1    3    3    0  502 -0.58889310235E+03  0.21039528429E+03 -0.92422241423E+03  0.11159069552E+04  0.25500000920E-02 0. -1.
</event>
<event>
 5   0  0.1324930E-04  0.1997736E+04  0.7818609E-02  0.8607680E-01
        1   -1    0    0  501    0  0.00000000000E+00  0.00000000000E+00  0.20548308004E+04  0.20548308004E+04  0.50400001928E-02 0. -1.
       -1   -1    0    0    0  501  0.00000000000E+00  0.00000000000E+00 -0.48555705715E+03  0.48555705717E+03  0.50400001928E-02 0.  1.
    10030    2    1    2    0    0  0.00000000000E+00  0.00000000000E+00  0.15692737433E+04  0.25403878576E+04  0.19977363154E+04 0.  0.
        5    1    3    3  502    0 -0.32397781400E+03 -0.94310264950E+03  0.85781132510E+03  0.13153959826E+04  0.46999998093E+01 0.  1.
       -5    1    3    3    0  502  0.32397781400E+03  0.94310264950E+03  0.71146241818E+03  0.12249918750E+04  0.46999998093E+01 0. -1.
</event>
<event>
 5   0  0.2463085E-04  0.1358626E+04  0.7818609E-02  0.8984324E-01
       -2   -1    0    0    0  501  0.00000000000E+00  0.00000000000E+00  0.36971788515E+03  0.36971788516E+03  0.25500000920E-02 0. -1.
        2   -1    0    0  501    0  0.00000000000E+00  0.00000000000E+00 -0.12481572580E+04  0.12481572580E+04  0.25500000920E-02 0.  1.
    10030    2    1    2    0    0  0.00000000000E+00  0.00000000000E+00 -0.87843937290E+03  0.16178751432E+04  0.13586258672E+04 0.  0.
        2    1    3    3  502    0 -0.59599359305E+03 -0.26963358740E+03 -0.22108410548E+03  0.69049896170E+03  0.25500000920E-02 0.  1.
       -2    1    3    3    0  502  0.59599359305E+03  0.26963358740E+03 -0.65735526741E+03  0.92737618150E+03  0.25500000920E-02 0. -1.
</event>
<event>
 5   0  0.1231056E-04  0.1258563E+04  0.7818609E-02  0.9063086E-01
       -1   -1    0    0    0  501  0.00000000000E+00  0.00000000000E+00  0.24050597926E+03  0.24050597931E+03  0.50400001928E-02 0. -1.
        1   -1    0    0  501    0  0.00000000000E+00  0.00000000000E+00 -0.16465094703E+04  0.16465094703E+04  0.50400001928E-02 0.  1.
    10030    2    1    2    0    0  0.00000000000E+00  0.00000000000E+00 -0.14060034910E+04  0.18870154496E+04  0.12585632643E+04 0.  0.
        3    1    3    3  502    0 -0.55645298656E+03  0.24754999859E+01 -0.11435868757E+04  0.12717849688E+04  0.10100000352E+00 0.  1.
       -3    1    3    3    0  502  0.55645298656E+03 -0.24754999859E+01 -0.26241661536E+03  0.61523048086E+03  0.10100000352E+00 0. -1.
</event>
<event>
 5   0  0.1258546E-04  0.1975697E+04  0.7818609E-02  0.8618068E-01
       -1   -1    0    0    0  501  0.00000000000E+00  0.00000000000E+00  0.87327314476E+03  0.87327314478E+03  0.50400001928E-02 0. -1.
        1   -1    0    0  501    0  0.00000000000E+00  0.00000000000E+00 -0.11174561465E+04  0.11174561465E+04  0.50400001928E-02 0.  1.
    10030    2    1    2    0    0  0.00000000000E+00  0.00000000000E+00 -0.24418300177E+03  0.19907292913E+04  0.19756967816E+04 0.  0.
        4    1    3    3  502    0 -0.69852821612E+03 -0.36630247943E+02 -0.82493695767E+03  0.10815757213E+04  0.12699999809E+01 0.  1.
       -4    1    3    3    0  502  0.69852821612E+03  0.36630247943E+02  0.58075395589E+03  0.90915357007E+03  0.12699999809E+01 0. -1.
</event>
<event>
 5   0  0.2540506E-04  0.2036932E+04  0.7818609E-02  0.8589546E-01
        2   -1    0    0  501    0  0.00000000000E+00  0.00000000000E+00  0.76864465739E+03  0.76864465739E+03  0.25500000920E-02 0.  1.
       -2   -1    0    0    0  501  0.00000000000E+00  0.00000000000E+00 -0.13494827225E+04  0.13494827225E+04  0.25500000920E-02 0. -1.
    10030    2    1    2    0    0  0.00000000000E+00  0.00000000000E+00 -0.58083806515E+03  0.21181273799E+04  0.20369316974E+04 0.  0.
        4    1    3    3  502    0 -0.10041535985E+04  0.16944015144E+03 -0.27442212735E+03  0.10546769795E+04  0.12699999809E+01 0.  1.
       -4    1    3    3    0  502  0.10041535985E+04 -0.16944015144E+03 -0.30641593779E+03  0.10634504004E+04  0.12699999809E+01 0. -1.
</event>
<event>
 5   0  0.1258546E-04  0.1459243E+04  0.7818609E-02  0.8912018E-01
       -1   -1    0    0    0  501  0.00000000000E+00  0.00000000000E+00  0.40441480175E+03  0.40441480178E+03  0.50400001928E-02 0. -1.
        1   -1    0    0  501    0  0.00000000000E+00  0.00000000000E+00 -0.13163400851E+04  0.13163400851E+04  0.50400001928E-02 0.  1.
    10030    2    1    2    0    0  0.00000000000E+00  0.00000000000E+00 -0.91192528338E+03  0.17207548869E+04  0.14592428374E+04 0.  0.
        4    1    3    3  502    0 -0.22447044200E+03  0.47116157311E+03  0.14527945206E+03  0.54174527169E+03  0.12699999809E+01 0. -1.
       -4    1    3    3    0  502  0.22447044200E+03 -0.47116157311E+03 -0.10572047354E+04  0.11790096152E+04  0.12699999809E+01 0.  1.
</event>
<event>
 5   0  0.1258546E-04  0.1967512E+04  0.7818609E-02  0.8621962E-01
        1   -1    0    0  501    0  0.00000000000E+00  0.00000000000E+00  0.18331228800E+04  0.18331228800E+04  0.50400001928E-02 0. -1.
       -1   -1    0    0    0  501  0.00000000000E+00  0.00000000000E+00 -0.52793846486E+03  0.52793846488E+03  0.50400001928E-02 0.  1.
    10030    2    1    2    0    0  0.00000000000E+00  0.00000000000E+00  0.13051844151E+04  0.23610613449E+04  0.19675122152E+04 0.  0.
        4    1    3    3  502    0  0.25852880022E+03 -0.66913360506E+03  0.14604475618E+04  0.16271095893E+04  0.12699999809E+01 0. -1.
       -4    1    3    3    0  502 -0.25852880022E+03  0.66913360506E+03 -0.15526314662E+03  0.73395175561E+03  0.12699999809E+01 0.  1.
</event>
<event>
 5   0  0.1207228E-04  0.1453222E+04  0.7818609E-02  0.8916170E-01
        1   -1    0    0  501    0  0.00000000000E+00  0.00000000000E+00  0.53266075911E+03  0.53266075914E+03  0.50400001928E-02 0.  1.
       -1   -1    0    0    0  501  0.00000000000E+00  0.00000000000E+00 -0.99118215568E+03  0.99118215569E+03  0.50400001928E-02 0. -1.
    10030    2    1    2    0    0  0.00000000000E+00  0.00000000000E+00 -0.45852139657E+03  0.15238429148E+04  0.14532224049E+04 0.  0.
        1    1    3    3  502    0 -0.46203551962E+03  0.23592453568E+03 -0.76273388430E+03  0.92244251106E+03  0.50400001928E-02 0. -1.
       -1    1    3    3    0  502  0.46203551962E+03 -0.23592453568E+03  0.30421248774E+03  0.60140040376E+03  0.50400001928E-02 0.  1.
</event>
<event>
 5   0  0.2421737E-04  0.1871714E+04  0.7818609E-02  0.8669066E-01
        2   -1    0    0  501    0  0.00000000000E+00  0.00000000000E+00  0.15818637521E+04  0.15818637521E+04  0.25500000920E-02 0. -1.
       -2   -1    0    0    0  501  0.00000000000E+00  0.00000000000E+00 -0.55366860367E+03  0.55366860368E+03  0.25500000920E-02 0.  1.
    10030    2    1    2    0    0  0.00000000000E+00  0.00000000000E+00  0.10281951484E+04  0.21355323557E+04  0.18717139683E+04 0.  0.
        1    1    3    3  502    0 -0.45473290555E+03 -0.79783033279E+03  0.71982654818E+03  0.11668185441E+04  0.50400001928E-02 0. -1.
       -1    1    3    3    0  502  0.45473290555E+03  0.79783033279E+03  0.30836860021E+03  0.96871381167E+03  0.50400001928E-02 0.  1.
</event>
<event>
 5   0  0.1231056E-04  0.2090966E+04  0.7818609E-02  0.8565234E-01
       -1   -1    0    0    0  501  0.00000000000E+00  0.00000000000E+00  0.68553241501E+03  0.68553241503E+03  0.50400001928E-02 0.  1.
        1   -1    0    0  501    0  0.00000000000E+00  0.00000000000E+00 -0.15944312529E+04  0.15944312530E+04  0.50400001928E-02 0. -1.
    10030    2    1    2    0    0  0.00000000000E+00  0.00000000000E+00 -0.90889883793E+03  0.22799636680E+04  0.20909656214E+04 0.  0.
        3    1    3    3  502    0 -0.12160235819E+03  0.57785809969E+03  0.48627620372E+03  0.76496514522E+03  0.10100000352E+00 0.  1.
       -3    1    3    3    0  502  0.12160235819E+03 -0.57785809969E+03 -0.13951750417E+04  0.15149985228E+04  0.10100000352E+00 0. -1.
</event>
<event>
 5   0  0.2463085E-04  0.1971467E+04  0.7818609E-02  0.8620078E-01
        2   -1    0    0  501    0  0.00000000000E+00  0.00000000000E+00  0.26650927557E+04  0.26650927557E+04  0.25500000920E-02 0. -1.
       -2   -1    0    0    0  501  0.00000000000E+00  0.00000000000E+00 -0.36459154161E+03  0.36459154162E+03  0.25500000920E-02 0.  1.
    10030    2    1    2    0    0  0.00000000000E+00  0.00000000000E+00  0.23005012141E+04  0.30296842974E+04  0.19714667396E+04 0.  0.
        2    1    3    3  502    0 -0.73555060599E+03  0.55261942265E+03  0.60638423719E+03  0.11018732973E+04  0.25500000920E-02 0.  1.
       -2    1    3    3    0  502  0.73555060599E+03 -0.55261942265E+03  0.16941169769E+04  0.19278110000E+04  0.25500000920E-02 0. -1.
</event>
<event>
 5   0  0.2488886E-04  0.1754740E+04  0.7818609E-02  0.8730746E-01
       -2   -1    0    0    0  501  0.00000000000E+00  0.00000000000E+00  0.43880887923E+03  0.43880887924E+03  0.25500000920E-02 0. -1.
        2   -1    0    0  501    0  0.00000000000E+00  0.00000000000E+00 -0.17542445108E+04  0.17542445108E+04  0.25500000920E-02 0.  1.
    10030    2    1    2    0    0  0.00000000000E+00  0.00000000000E+00 -0.13154356315E+04  0.21930533900E+04  0.17547399439E+04 0.  0.
        3    1    3    3  502    0  0.60554592258E+03 -0.56714395059E+03 -0.10143784232E+04  0.13104585917E+04  0.10100000352E+00 0.  1.
       -3    1    3    3    0  502 -0.60554592258E+03  0.56714395059E+03 -0.30105720834E+03  0.88259479827E+03  0.10100000352E+00 0. -1.
</event>
<event>
 5   0  0.1324930E-04  0.2192974E+04  0.7818609E-02  0.8521358E-01
       -1   -1    0    0    0  501  0.00000000000E+00  0.00000000000E+00  0.71876494216E+03  0.71876494218E+03  0.50400001928E-02 0. -1.
        1   -1    0    0  501    0  0.00000000000E+00  0.00000000000E+00 -0.16727084627E+04  0.16727084627E+04  0.50400001928E-02 0.  1.
    10030    2    1    2    0    0  0.00000000000E+00  0.00000000000E+00 -0.95394352054E+03  0.23914734049E+04  0.21929744198E+04 0.  0.
        5    1    3    3  502    0  0.47163101591E+03  0.70370464399E+03  0.28219183924E+03  0.89291117434E+03  0.46999998093E+01 0. -1.
       -5    1    3    3    0  502 -0.47163101591E+03 -0.70370464399E+03 -0.12361353598E+04  0.14985622306E+04  0.46999998093E+01 0.  1.
</event>
<event>
 5   0  0.2540506E-04  0.2300440E+04  0.7818609E-02  0.8477748E-01
       -2   -1    0    0    0  501  0.00000000000E+00  0.00000000000E+00  0.14848396925E+04  0.14848396925E+04  0.25500000920E-02 0. -1.
        2   -1    0    0  501    0  0.00000000000E+00  0.00000000000E+00 -0.89100956224E+03  0.89100956224E+03  0.25500000920E-02 0.  1.
    10030    2    1    2    0    0  0.00000000000E+00  0.00000000000E+00  0.59383013025E+03  0.23758492547E+04  0.23004402747E+04 0.  0.
        4    1    3    3  502    0  0.94760005825E+03 -0.63724162515E+03  0.15462361165E+03  0.11523596806E+04  0.12699999809E+01 0.  1.
       -4    1    3    3    0  502 -0.94760005825E+03  0.63724162515E+03  0.43920651860E+03  0.12234895742E+04  0.12699999809E+01 0. -1.
</event>
<event>
 5   0  0.2540506E-04  0.1968624E+04  0.7818609E-02  0.8621432E-01
       -2   -1    0    0    0  501  0.00000000000E+00  0.00000000000E+00  0.96153102556E+03  0.96153102556E+03  0.25500000920E-02 0. -1.
        2   -1    0    0  501    0  0.00000000000E+00  0.00000000000E+00 -0.10076328514E+04  0.10076328514E+04  0.25500000920E-02 0.  1.
    10030    2    1    2    0    0  0.00000000000E+00  0.00000000000E+00 -0.46101825820E+02  0.19691638769E+04  0.19686241378E+04 0.  0.
        4    1    3    3  502    0 -0.17024576180E+03  0.82085200600E+03 -0.53902855531E+03  0.99666194444E+03  0.12699999809E+01 0.  1.
       -4    1    3    3    0  502  0.17024576180E+03 -0.82085200600E+03  0.49292672949E+03  0.97250193250E+03  0.12699999809E+01 0. -1.
</event>
<event>
 5   0  0.2463085E-04  0.1985839E+04  0.7818609E-02  0.8613270E-01
        2   -1    0    0  501    0  0.00000000000E+00  0.00000000000E+00  0.17159177477E+04  0.17159177477E+04  0.25500000920E-02 0.  1.
       -2   -1    0    0    0  501  0.00000000000E+00  0.00000000000E+00 -0.57455497364E+03  0.57455497365E+03  0.25500000920E-02 0. -1.
    10030    2    1    2    0    0  0.00000000000E+00  0.00000000000E+00  0.11413627740E+04  0.22904727213E+04  0.19858389424E+04 0.  0.
        2    1    3    3  502    0 -0.19255273913E+03  0.87695229627E+03  0.10597123019E+04  0.13889247820E+04  0.25500000920E-02 0.  1.
       -2    1    3    3    0  502  0.19255273913E+03 -0.87695229627E+03  0.81650472162E+02  0.90154793932E+03  0.25500000920E-02 0. -1.
</event>
<event>
 5   0  0.1324930E-04  0.2026545E+04  0.7818609E-02  0.8594310E-01
        1   -1    0    0  501    0  0.00000000000E+00  0.00000000000E+00  0.17527507788E+04  0.17527507788E+04  0.50400001928E-02 0. -1.
       -1   -1    0    0    0  501  0.00000000000E+00  0.00000000000E+00 -0.58577680553E+03  0.58577680555E+03  0.50400001928E-02 0.  1.
    10030    2    1    2    0    0  0.00000000000E+00  0.00000000000E+00  0.11669739733E+04  0.23385275844E+04  0.20265445982E+04 0.  0.
        5    1    3    3  502    0  0.91380043898E+03  0.43053905707E+03  0.49186945330E+03  0.11235447348E+04  0.46999998093E+01 0.  1.
       -5    1    3    3    0  502 -0.91380043898E+03 -0.43053905707E+03  0.67510452000E+03  0.12149828496E+04  0.46999998093E+01 0. -1.
</event>
<event>
 5   0  0.2488886E-04  0.2004124E+04  0.7818609E-02  0.8604695E-01
       -2   -1    0    0    0  501  0.00000000000E+00  0.00000000000E+00  0.46809545756E+03  0.46809545757E+03  0.25500000920E-02 0. -1.
        2   -1    0    0  501    0  0.00000000000E+00  0.00000000000E+00 -0.21451360236E+04  0.21451360236E+04  0.25500000920E-02 0.  1.
    10030    2    1    2    0    0  0.00000000000E+00  0.00000000000E+00 -0.16770405660E+04  0.26132314812E+04  0.20041241763E+04 0.  0.
        3    1    3    3  502    0  0.74118008628E+03 -0.51198840172E+02  0.38276462378E+02  0.74393167651E+03  0.10100000352E+00 0. -1.
       -3    1    3    3    0  502 -0.74118008628E+03  0.51198840172E+02 -0.17153170284E+04  0.18692998047E+04  0.10100000352E+00 0.  1.
</event>
<event>
 5   0  0.9099125E-05  0.2049081E+04  0.7818609E-02  0.8584011E-01
       -3   -1    0    0    0  501  0.00000000000E+00  0.00000000000E+00  0.12974382314E+04  0.12974382354E+04  0.10100000352E+00 0. -1.
        3   -1    0    0  501    0  0.00000000000E+00  0.00000000000E+00 -0.80904312309E+03  0.80904312940E+03  0.10100000352E+00 0.  1.
    10030    2    1    2    0    0  0.00000000000E+00  0.00000000000E+00  0.48839510834E+03  0.21064813648E+04  0.20490812473E+04 0.  0.
        1    1    3    3  502    0 -0.89211398229E+03  0.36730514699E+03  0.59868018519E+03  0.11354287263E+04  0.50400001928E-02 0. -1.
       -1    1    3    3    0  502  0.89211398229E+03 -0.36730514699E+03 -0.11028507685E+03  0.97105263843E+03  0.50400001928E-02 0.  1.
</event>
<event>
 5   0  0.1231056E-04  0.2000477E+04  0.7818609E-02  0.8606397E-01
       -1   -1    0    0    0  501  0.00000000000E+00  0.00000000000E+00  0.10428448499E+04  0.10428448499E+04  0.50400001928E-02 0.  1.
        1   -1    0    0  501    0  0.00000000000E+00  0.00000000000E+00 -0.95937330877E+03  0.95937330878E+03  0.50400001928E-02 0. -1.
    10030    2    1    2    0    0  0.00000000000E+00  0.00000000000E+00  0.83471541095E+02  0.20022181587E+04  0.20004774572E+04 0.  0.
        3    1    3    3  502    0  0.28241783999E+03 -0.26383186793E+01  0.10021074194E+04  0.10411465254E+04  0.10100000352E+00 0.  1.
       -3    1    3    3    0  502 -0.28241783999E+03  0.26383186793E+01 -0.91863587834E+03  0.96107163325E+03  0.10100000352E+00 0. -1.
</event>
<event>
 5   0  0.9099125E-05  0.2019657E+04  0.7818609E-02  0.8597485E-01
        3   -1    0    0  501    0  0.00000000000E+00  0.00000000000E+00  0.17712376186E+04  0.17712376215E+04  0.10100000352E+00 0.  1.
       -3   -1    0    0    0  501  0.00000000000E+00  0.00000000000E+00 -0.57572915039E+03  0.57572915925E+03  0.10100000352E+00 0. -1.
    10030    2    1    2    0    0  0.00000000000E+00  0.00000000000E+00  0.11955084682E+04  0.23469667807E+04  0.20196565481E+04 0.  0.
        3    1    3    3  502    0  0.69886818907E+03 -0.56595105899E+03  0.63918706074E+02  0.90155585409E+03  0.10100000352E+00 0. -1.
       -3    1    3    3    0  502 -0.69886818907E+03  0.56595105899E+03  0.11315897621E+04  0.14454109266E+04  0.10100000352E+00 0.  1.
</event>
<event>
 5   0  0.2540506E-04  0.2011904E+04  0.7818609E-02  0.8601075E-01
        2   -1    0    0  501    0  0.00000000000E+00  0.00000000000E+00  0.13878493106E+04  0.13878493106E+04  0.25500000920E-02 0.  1.
       -2   -1    0    0    0  501  0.00000000000E+00  0.00000000000E+00 -0.72914221347E+03  0.72914221347E+03  0.25500000920E-02 0. -1.
    10030    2    1    2    0    0  0.00000000000E+00  0.00000000000E+00  0.65870709714E+03  0.21169915241E+04  0.20119040915E+04 0.  0.
        4    1    3    3  502    0 -0.73284775341E+03 -0.55285041948E+03 -0.10350757689E+03  0.92380996280E+03  0.12699999809E+01 0. -1.
       -4    1    3    3    0  502  0.73284775341E+03  0.55285041948E+03  0.76221467403E+03  0.11931815613E+04  0.12699999809E+01 0.  1.
</event>
<event>
 5   0  0.1258546E-04  0.1556595E+04  0.7818609E-02  0.8847666E-01
       -1   -1    0    0    0  501  0.00000000000E+00  0.00000000000E+00  0.72847083825E+03  0.72847083826E+03  0.50400001928E-02 0.  1.
        1   -1    0    0  501    0  0.00000000000E+00  0.00000000000E+00 -0.83153278027E+03  0.83153278029E+03  0.50400001928E-02 0. -1.
    10030    2    1    2    0    0  0.00000000000E+00  0.00000000000E+00 -0.10306194202E+03  0.15600036186E+04  0.15565954921E+04 0.  0.
        4    1    3    3  502    0 -0.26093952774E+03  0.10360773472E+03 -0.77901406944E+03  0.82806312146E+03  0.12699999809E+01 0. -1.
       -4    1    3    3    0  502  0.26093952774E+03 -0.10360773472E+03  0.67595212741E+03  0.73194049709E+03  0.12699999809E+01 0.  1.
</event>
<event>
 5   0  0.1231056E-04  0.1848969E+04  0.7818609E-02  0.8680683E-01
        1   -1    0    0  501    0  0.00000000000E+00  0.00000000000E+00  0.54393599162E+03  0.54393599165E+03  0.50400001928E-02 0.  1.
       -1   -1    0    0    0  501  0.00000000000E+00  0.00000000000E+00 -0.15712722872E+04  0.15712722872E+04  0.50400001928E-02 0. -1.
    10030    2    1    2    0    0  0.00000000000E+00  0.00000000000E+00 -0.10273362955E+04  0.21152082788E+04  0.18489689556E+04 0.  0.
        3    1    3    3  502    0  0.63021730404E+03 -0.62568918268E+02  0.25679490377E+03  0.68339765339E+03  0.10100000352E+00 0.  1.
       -3    1    3    3    0  502 -0.63021730404E+03  0.62568918268E+02 -0.12841311993E+04  0.14318106254E+04  0.10100000352E+00 0. -1.
</event>
<event>
 5   0  0.2463085E-04  0.1916584E+04  0.7818609E-02  0.8646645E-01
        2   -1    0    0  501    0  0.00000000000E+00  0.00000000000E+00  0.10735539296E+04  0.10735539296E+04  0.25500000920E-02 0. -1.
       -2   -1    0    0    0  501  0.00000000000E+00  0.00000000000E+00 -0.85540555538E+03  0.85540555538E+03  0.25500000920E-02 0.  1.
    10030    2    1    2    0    0  0.00000000000E+00  0.00000000000E+00  0.21814837426E+03  0.19289594850E+04  0.19165844572E+04 0.  0.
        2    1    3    3  502    0 -0.46453500203E+03  0.65758779165E+03 -0.41400217252E+03  0.90532440081E+03  0.25500000920E-02 0.  1.
       -2    1    3    3    0  502  0.46453500203E+03 -0.65758779165E+03  0.63215054677E+03  0.10236350842E+04  0.25500000920E-02 0. -1.
</event>
<event>
 5   0  0.1231056E-04  0.2007871E+04  0.7818609E-02  0.8602950E-01
        1   -1    0    0  501    0  0.00000000000E+00  0.00000000000E+00  0.84245556669E+03  0.84245556671E+03  0.50400001928E-02 0. -1.
       -1   -1    0    0    0  501  0.00000000000E+00  0.00000000000E+00 -0.11963670446E+04  0.11963670446E+04  0.50400001928E-02 0.  1.
    10030    2    1    2    0    0  0.00000000000E+00  0.00000000000E+00 -0.35391147786E+03  0.20388226113E+04  0.20078705900E+04 0.  0.
        3    1    3    3  502    0 -0.35614049221E+03  0.73888451242E+03  0.41084582628E+03  0.91737706318E+03  0.10100000352E+00 0. -1.
       -3    1    3    3    0  502  0.35614049221E+03 -0.73888451242E+03 -0.76475730415E+03  0.11214455481E+04  0.10100000352E+00 0.  1.
</event>
<event>
 5   0  0.2540506E-04  0.1831419E+04  0.7818609E-02  0.8689768E-01
        2   -1    0    0  501    0  0.00000000000E+00  0.00000000000E+00  0.49848394980E+03  0.49848394981E+03  0.25500000920E-02 0.  1.
       -2   -1    0    0    0  501  0.00000000000E+00  0.00000000000E+00 -0.16821475032E+04  0.16821475032E+04  0.25500000920E-02 0. -1.
    10030    2    1    2    0    0  0.00000000000E+00  0.00000000000E+00 -0.11836635534E+04  0.21806314530E+04  0.18314186103E+04 0.  0.
        4    1    3    3  502    0  0.47115420889E+03 -0.98267627475E+02  0.33573618754E+03  0.58682468906E+03  0.12699999809E+01 0.  1.
       -4    1    3    3    0  502 -0.47115420889E+03  0.98267627475E+02 -0.15193997409E+04  0.15938067639E+04  0.12699999809E+01 0. -1.
</event>
<event>
 5   0  0.2421737E-04  0.2024967E+04  0.7818609E-02  0.8595036E-01
       -2   -1    0    0    0  501  0.00000000000E+00  0.00000000000E+00  0.52873482745E+03  0.52873482745E+03  0.25500000920E-02 0.  1.
        2   -1    0    0  501    0  0.00000000000E+00  0.00000000000E+00 -0.19388231567E+04  0.19388231567E+04  0.25500000920E-02 0. -1.
    10030    2    1    2    0    0  0.00000000000E+00  0.00000000000E+00 -0.14100883293E+04  0.24675579842E+04  0.20249674834E+04 0.  0.
        1    1    3    3  502    0 -0.71274444965E+03  0.70204961962E+03 -0.89478485723E+03  0.13422064892E+04  0.50400001928E-02 0.  1.
       -1    1    3    3    0  502  0.71274444965E+03 -0.70204961962E+03 -0.51530347207E+03  0.11253514950E+04  0.50400001928E-02 0. -1.
</event>
<event>
 5   0  0.2421737E-04  0.1992652E+04  0.7818609E-02  0.8610064E-01
        2   -1    0    0  501    0  0.00000000000E+00  0.00000000000E+00  0.20255466396E+04  0.20255466396E+04  0.25500000920E-02 0.  1.
       -2   -1    0    0    0  501  0.00000000000E+00  0.00000000000E+00 -0.49007272539E+03  0.49007272540E+03  0.25500000920E-02 0. -1.
    10030    2    1    2    0    0  0.00000000000E+00  0.00000000000E+00  0.15354739142E+04  0.25156193650E+04  0.19926516626E+04 0.  0.
        1    1    3    3  502    0 -0.10526712868E+03  0.20662321115E+02  0.20182344070E+04  0.20210834277E+04  0.50400001928E-02 0.  1.
       -1    1    3    3    0  502  0.10526712868E+03 -0.20662321115E+02 -0.48276049280E+03  0.49453593735E+03  0.50400001928E-02 0. -1.
</event>
<event>
 5   0  0.2488886E-04  0.1930698E+04  0.7818609E-02  0.8639725E-01
       -2   -1    0    0    0  501  0.00000000000E+00  0.00000000000E+00  0.76173854274E+03  0.76173854274E+03  0.25500000920E-02 0.  1.
        2   -1    0    0  501    0  0.00000000000E+00  0.00000000000E+00 -0.12233838633E+04  0.12233838633E+04  0.25500000920E-02 0. -1.
    10030    2    1    2    0    0  0.00000000000E+00  0.00000000000E+00 -0.46164532056E+03  0.19851224060E+04  0.19306979476E+04 0.  0.
        3    1    3    3  502    0 -0.44057314635E+03 -0.43719539399E+03  0.52937979799E+03  0.81577416638E+03  0.10100000352E+00 0.  1.
       -3    1    3    3    0  502  0.44057314635E+03  0.43719539399E+03 -0.99102511855E+03  0.11693482397E+04  0.10100000352E+00 0. -1.
</event>
<event>
 5   0  0.2596061E-04  0.2059705E+04  0.7818609E-02  0.8579204E-01
       -2   -1    0    0    0  501  0.00000000000E+00  0.00000000000E+00  0.49327298556E+03  0.49327298557E+03  0.25500000920E-02 0.  1.
        2   -1    0    0  501    0  0.00000000000E+00  0.00000000000E+00 -0.21501200405E+04  0.21501200405E+04  0.25500000920E-02 0. -1.
    10030    2    1    2    0    0  0.00000000000E+00  0.00000000000E+00 -0.16568470550E+04  0.26433930261E+04  0.20597049611E+04 0.  0.
        5    1    3    3  502    0 -0.89773412220E+02  0.39263430887E+03 -0.20448342909E+04  0.20841281950E+04  0.46999998093E+01 0. -1.
       -5    1    3    3    0  502  0.89773412220E+02 -0.39263430887E+03  0.38798723593E+03  0.55926483108E+03  0.46999998093E+01 0.  1.
</event>
<event>
 5   0  0.1231056E-04  0.2053126E+04  0.7818609E-02  0.8582178E-01
       -1   -1    0    0    0  501  0.00000000000E+00  0.00000000000E+00  0.13488448198E+04  0.13488448198E+04  0.50400001928E-02 0.  1.
        1   -1    0    0  501    0  0.00000000000E+00  0.00000000000E+00 -0.78128438199E+03  0.78128438201E+03  0.50400001928E-02 0. -1.
    10030    2    1    2    0    0  0.00000000000E+00  0.00000000000E+00  0.56756043784E+03  0.21301292019E+04  0.20531258037E+04 0.  0.
        3    1    3    3  502    0  0.46876540946E+03  0.28104118113E+03 -0.61777931558E+03  0.82484934840E+03  0.10100000352E+00 0. -1.
       -3    1    3    3    0  502 -0.46876540946E+03 -0.28104118113E+03  0.11853397534E+04  0.13052798535E+04  0.10100000352E+00 0.  1.
</event>
<event>
 5   0  0.1258546E-04  0.1529720E+04  0.7818609E-02  0.8864926E-01
        1   -1    0    0  501    0  0.00000000000E+00  0.00000000000E+00  0.12560003037E+04  0.12560003037E+04  0.50400001928E-02 0.  1.
       -1   -1    0    0    0  501  0.00000000000E+00  0.00000000000E+00 -0.46577285625E+03  0.46577285628E+03  0.50400001928E-02 0. -1.
    10030    2    1    2    0    0  0.00000000000E+00  0.00000000000E+00  0.79022744745E+03  0.17217731600E+04  0.15297200384E+04 0.  0.
        4    1    3    3  502    0  0.33628497068E+03  0.64218275238E+02  0.11649404843E+04  0.12142073601E+04  0.12699999809E+01 0.  1.
       -4    1    3    3    0  502 -0.33628497068E+03 -0.64218275238E+02 -0.37471303684E+03  0.50756579993E+03  0.12699999809E+01 0. -1.
</event>
<event>
 5   0  0.2540506E-04  0.1999092E+04  0.7818609E-02  0.8607045E-01
        2   -1    0    0  501    0  0.00000000000E+00  0.00000000000E+00  0.13693560223E+04  0.13693560223E+04  0.25500000920E-02 0. -1.
       -2   -1    0    0    0  501  0.00000000000E+00  0.00000000000E+00 -0.72960705459E+03  0.72960705459E+03  0.25500000920E-02 0.  1.
    10030    2    1    2    0    0  0.00000000000E+00  0.00000000000E+00  0.63974896772E+03  0.20989630769E+04  0.19990916078E+04 0.  0.
        4    1    3    3  502    0 -0.48426802671E+03  0.73840867598E+03  0.81159514376E+03  0.11993544867E+04  0.12699999809E+01 0. -1.
       -4    1    3    3    0  502  0.48426802671E+03 -0.73840867598E+03 -0.17184617604E+03  0.89960859021E+03  0.12699999809E+01 0.  1.
</event>
<event>
 5   0  0.1231056E-04  0.1969361E+04  0.7818609E-02  0.8621081E-01
        1   -1    0    0  501    0  0.00000000000E+00  0.00000000000E+00  0.98956131620E+03  0.98956131621E+03  0.50400001928E-02 0. -1.
       -1   -1    0    0    0  501  0.00000000000E+00  0.00000000000E+00 -0.97982423506E+03  0.97982423507E+03  0.50400001928E-02 0.  1.
    10030    2    1    2    0    0  0.00000000000E+00  0.00000000000E+00  0.97370811424E+01  0.19693855513E+04  0.19693614800E+04 0.  0.
        3    1    3    3  502    0  0.17923533479E+02 -0.50883687717E+03 -0.83797028999E+03  0.98052559259E+03  0.10100000352E+00 0.  1.
       -3    1    3    3    0  502 -0.17923533479E+02  0.50883687717E+03  0.84770737113E+03  0.98885995869E+03  0.10100000352E+00 0. -1.
</event>
<event>
 5   0  0.1210633E-04  0.2030311E+04  0.7818609E-02  0.8592579E-01
        1   -1    0    0  501    0  0.00000000000E+00  0.00000000000E+00  0.12801251614E+04  0.12801251614E+04  0.50400001928E-02 0.  1.
       -1   -1    0    0    0  501  0.00000000000E+00  0.00000000000E+00 -0.80503100028E+03  0.80503100029E+03  0.50400001928E-02 0. -1.
    10030    2    1    2    0    0  0.00000000000E+00  0.00000000000E+00  0.47509416111E+03  0.20851561617E+04  0.20303107537E+04 0.  0.
        2    1    3    3  502    0  0.88368371443E+03 -0.27708436747E+03 -0.18945806150E+03  0.94528673476E+03  0.25500000920E-02 0. -1.
       -2    1    3    3    0  502 -0.88368371443E+03  0.27708436747E+03  0.66455222261E+03  0.11398694269E+04  0.25500000920E-02 0.  1.
</event>
<event>
 5   0  0.1231056E-04  0.2013459E+04  0.7818609E-02  0.8600354E-01
       -1   -1    0    0    0  501  0.00000000000E+00  0.00000000000E+00  0.82622310258E+03  0.82622310259E+03  0.50400001928E-02 0. -1.
        1   -1    0    0  501    0  0.00000000000E+00  0.00000000000E+00 -0.12266710171E+04  0.12266710171E+04  0.50400001928E-02 0.  1.
    10030    2    1    2    0    0  0.00000000000E+00  0.00000000000E+00 -0.40044791451E+03  0.20528941197E+04  0.20134586498E+04 0.  0.
        3    1    3    3  502    0 -0.24483968237E+03 -0.31932956983E+03  0.74066443890E+03  0.84291260845E+03  0.10100000352E+00 0. -1.
       -3    1    3    3    0  502  0.24483968237E+03  0.31932956983E+03 -0.11411123534E+04  0.12099815112E+04  0.10100000352E+00 0.  1.
</event>
<event>
 5   0  0.1231056E-04  0.1970761E+04  0.7818609E-02  0.8620414E-01
       -1   -1    0    0    0  501  0.00000000000E+00  0.00000000000E+00  0.12605974313E+04  0.12605974313E+04  0.50400001928E-02 0.  1.
        1   -1    0    0  501    0  0.00000000000E+00  0.00000000000E+00 -0.77024979988E+03  0.77024979989E+03  0.50400001928E-02 0. -1.
    10030    2    1    2    0    0  0.00000000000E+00  0.00000000000E+00  0.49034763144E+03  0.20308472312E+04  0.19707611922E+04 0.  0.
        3    1    3    3  502    0  0.65176839583E+03 -0.39680021453E+03 -0.39731129723E+03  0.86029572193E+03  0.10100000352E+00 0. -1.
       -3    1    3    3    0  502 -0.65176839583E+03  0.39680021453E+03  0.88765892867E+03  0.11705515093E+04  0.10100000352E+00 0.  1.
</event>
<event>
 5   0  0.1324930E-04  0.1963843E+04  0.7818609E-02  0.8623714E-01
        1   -1    0    0  501    0  0.00000000000E+00  0.00000000000E+00  0.12655395575E+04  0.12655395575E+04  0.50400001928E-02 0. -1.
       -1   -1    0    0    0  501  0.00000000000E+00  0.00000000000E+00 -0.76186466505E+03  0.76186466506E+03  0.50400001928E-02 0.  1.
    10030    2    1    2    0    0  0.00000000000E+00  0.00000000000E+00  0.50367489248E+03  0.20274042226E+04  0.19638430397E+04 0.  0.
        5    1    3    3  502    0  0.24554606226E+03 -0.47738953681E+03  0.11006116852E+04  0.12245659680E+04  0.46999998093E+01 0. -1.
       -5    1    3    3    0  502 -0.24554606226E+03  0.47738953681E+03 -0.59693679268E+03  0.80283825457E+03  0.46999998093E+01 0.  1.
</event>
<event>
 5   0  0.1210633E-04  0.1983455E+04  0.7818609E-02  0.8614395E-01
        1   -1    0    0  501    0  0.00000000000E+00  0.00000000000E+00  0.13337061522E+04  0.13337061522E+04  0.50400001928E-02 0.  1.
       -1   -1    0    0    0  501  0.00000000000E+00  0.00000000000E+00 -0.73743644340E+03  0.73743644342E+03  0.50400001928E-02 0. -1.
    10030    2    1    2    0    0  0.00000000000E+00  0.00000000000E+00  0.59626970876E+03  0.20711425956E+04  0.19834550879E+04 0.  0.
        2    1    3    3  502    0 -0.84907598197E+03 -0.41907021355E+03  0.60608576216E+03  0.11242285436E+04  0.25500000920E-02 0.  1.
       -2    1    3    3    0  502  0.84907598197E+03  0.41907021355E+03 -0.98160533948E+01  0.94691405204E+03  0.25500000920E-02 0. -1.
</event>
<event>
 5   0  0.9099125E-05  0.1920344E+04  0.7818609E-02  0.8644795E-01
       -4   -1    0    0    0  501  0.00000000000E+00  0.00000000000E+00  0.53166463269E+03  0.53166614952E+03  0.12699999809E+01 0. -1.
        4   -1    0    0  501    0  0.00000000000E+00  0.00000000000E+00 -0.17340410053E+04  0.17340414704E+04  0.12699999809E+01 0.  1.
    10030    2    1    2    0    0  0.00000000000E+00  0.00000000000E+00 -0.12023763726E+04  0.22657076199E+04  0.19203442601E+04 0.  0.
        5    1    3    3  502    0  0.67281300233E+03  0.13919224145E+03  0.19014946240E+03  0.71290302583E+03  0.46999998093E+01 0. -1.
       -5    1    3    3    0  502 -0.67281300233E+03 -0.13919224145E+03 -0.13925258350E+04  0.15528045941E+04  0.46999998093E+01 0.  1.
</event>
<event>
 5   0  0.2596061E-04  0.2010802E+04  0.7818609E-02  0.8601587E-01
        2   -1    0    0  501    0  0.00000000000E+00  0.00000000000E+00  0.12162305190E+04  0.12162305190E+04  0.25500000920E-02 0. -1.
       -2   -1    0    0    0  501  0.00000000000E+00  0.00000000000E+00 -0.83111836720E+03  0.83111836720E+03  0.25500000920E-02 0.  1.
    10030    2    1    2    0    0  0.00000000000E+00  0.00000000000E+00  0.38511215178E+03  0.20473488862E+04  0.20108023504E+04 0.  0.
        5    1    3    3  502    0  0.35993693513E+03  0.92549443437E+03  0.32489080259E+02  0.99356538570E+03  0.46999998093E+01 0.  1.
       -5    1    3    3    0  502 -0.35993693513E+03 -0.92549443437E+03  0.35262307153E+03  0.10537835005E+04  0.46999998093E+01 0. -1.
</event>
<event>
 5   0  0.1231056E-04  0.1959373E+04  0.7818609E-02  0.8625854E-01
        1   -1    0    0  501    0  0.00000000000E+00  0.00000000000E+00  0.11626405422E+04  0.11626405422E+04  0.50400001928E-02 0. -1.
       -1   -1    0    0    0  501  0.00000000000E+00  0.00000000000E+00 -0.82552213386E+03  0.82552213387E+03  0.50400001928E-02 0.  1.
    10030    2    1    2    0    0  0.00000000000E+00  0.00000000000E+00  0.33711840836E+03  0.19881626761E+04  0.19593728602E+04 0.  0.
        3    1    3    3  502    0  0.48788035791E+03  0.21359148264E+03  0.10029166687E+04  0.11355573168E+04  0.10100000352E+00 0. -1.
       -3    1    3    3    0  502 -0.48788035791E+03 -0.21359148264E+03 -0.66579826035E+03  0.85260535934E+03  0.10100000352E+00 0.  1.
</event>
<event>
 5   0  0.2596061E-04  0.1995464E+04  0.7818609E-02  0.8608744E-01
       -2   -1    0    0    0  501  0.00000000000E+00  0.00000000000E+00  0.82600400671E+03  0.82600400672E+03  0.25500000920E-02 0. -1.
        2   -1    0    0  501    0  0.00000000000E+00  0.00000000000E+00 -0.12051623938E+04  0.12051623938E+04  0.25500000920E-02 0.  1.
    10030    2    1    2    0    0  0.00000000000E+00  0.00000000000E+00 -0.37915838710E+03  0.20311664005E+04  0.19954638218E+04 0.  0.
        5    1    3    3  502    0  0.56661788706E+03 -0.71113402369E+03 -0.60763352652E+03  0.10936215169E+04  0.46999998093E+01 0.  1.
       -5    1    3    3    0  502 -0.56661788706E+03  0.71113402369E+03  0.22847513941E+03  0.93754488368E+03  0.46999998093E+01 0. -1.
</event>
<event>
 5   0  0.1231056E-04  0.1982145E+04  0.7818609E-02  0.8615014E-01
       -1   -1    0    0    0  501  0.00000000000E+00  0.00000000000E+00  0.14560311879E+04  0.14560311879E+04  0.50400001928E-02 0. -1.
        1   -1    0    0  501    0  0.00000000000E+00  0.00000000000E+00 -0.67459068156E+03  0.67459068158E+03  0.50400001928E-02 0.  1.
    10030    2    1    2    0    0  0.00000000000E+00  0.00000000000E+00  0.78144050634E+03  0.21306218695E+04  0.19821453745E+04 0.  0.
        3    1    3    3  502    0 -0.44606735594E+03 -0.60296186413E+03 -0.30563859843E+03  0.80990990775E+03  0.10100000352E+00 0.  1.
       -3    1    3    3    0  502  0.44606735594E+03  0.60296186413E+03  0.10870791048E+04  0.13207119617E+04  0.10100000352E+00 0. -1.
</event>
<event>
 5   0  0.2540506E-04  0.1991706E+04  0.7818609E-02  0.8610508E-01
       -2   -1    0    0    0  501  0.00000000000E+00  0.00000000000E+00  0.11691272123E+04  0.11691272123E+04  0.25500000920E-02 0. -1.
        2   -1    0    0  501    0  0.00000000000E+00  0.00000000000E+00 -0.84825968007E+03  0.84825968007E+03  0.25500000920E-02 0.  1.
    10030    2    1    2    0    0  0.00000000000E+00  0.00000000000E+00  0.32086753226E+03  0.20173868924E+04  0.19917062786E+04 0.  0.
        4    1    3    3  502    0 -0.93698518947E+03  0.28600662563E+03 -0.20703891501E+02  0.97988330898E+03  0.12699999809E+01 0.  1.
       -4    1    3    3    0  502  0.93698518947E+03 -0.28600662563E+03  0.34157142376E+03  0.10375035834E+04  0.12699999809E+01 0. -1.
</event>
<event>
 5   0  0.1258546E-04  0.2066212E+04  0.7818609E-02  0.8576275E-01
       -1   -1    0    0    0  501  0.00000000000E+00  0.00000000000E+00  0.11716347587E+04  0.11716347587E+04  0.50400001928E-02 0.  1.
        1   -1    0    0  501    0  0.00000000000E+00  0.00000000000E+00 -0.91095585120E+03  0.91095585122E+03  0.50400001928E-02 0. -1.
    10030    2    1    2    0    0  0.00000000000E+00  0.00000000000E+00  0.26067890754E+03  0.20825906100E+04  0.20662115467E+04 0.  0.
        4    1    3    3  502    0  0.28405565070E+03 -0.48262035631E+03  0.10053780303E+04  0.11508243210E+04  0.12699999809E+01 0.  1.
       -4    1    3    3    0  502 -0.28405565070E+03  0.48262035631E+03 -0.74469912275E+03  0.93176628901E+03  0.12699999809E+01 0. -1.
</event>
<event>
 5   0  0.2540506E-04  0.1962652E+04  0.7818609E-02  0.8624284E-01
       -2   -1    0    0    0  501  0.00000000000E+00  0.00000000000E+00  0.89636145160E+03  0.89636145160E+03  0.25500000920E-02 0. -1.
        2   -1    0    0  501    0  0.00000000000E+00  0.00000000000E+00 -0.10743442541E+04  0.10743442541E+04  0.25500000920E-02 0.  1.
    10030    2    1    2    0    0  0.00000000000E+00  0.00000000000E+00 -0.17798280247E+03  0.19707057057E+04  0.19626520579E+04 0.  0.
        4    1    3    3  502    0 -0.46831009015E+03 -0.22775997690E+03 -0.92415574613E+03  0.10607800920E+04  0.12699999809E+01 0.  1.
       -4    1    3    3    0  502  0.46831009015E+03  0.22775997690E+03  0.74617294367E+03  0.90992561365E+03  0.12699999809E+01 0. -1.
</event>
<event>
 5   0  0.2463085E-04  0.1719667E+04  0.7818609E-02  0.8750226E-01
        2   -1    0    0  501    0  0.00000000000E+00  0.00000000000E+00  0.69532406828E+03  0.69532406829E+03  0.25500000920E-02 0. -1.
       -2   -1    0    0    0  501  0.00000000000E+00  0.00000000000E+00 -0.10632654102E+04  0.10632654102E+04  0.25500000920E-02 0.  1.
    10030    2    1    2    0    0  0.00000000000E+00  0.00000000000E+00 -0.36794134188E+03  0.17585894785E+04  0.17196674454E+04 0.  0.
        2    1    3    3  502    0  0.28275426721E+03 -0.38995124346E+03  0.54440146489E+03  0.72690088931E+03  0.25500000920E-02 0. -1.
       -2    1    3    3    0  502 -0.28275426721E+03  0.38995124346E+03 -0.91234280677E+03  0.10316885891E+04  0.25500000920E-02 0.  1.
</event>
<event>
 5   0  0.1207228E-04  0.1863375E+04  0.7818609E-02  0.8673305E-01
       -1   -1    0    0    0  501  0.00000000000E+00  0.00000000000E+00  0.15551039180E+04  0.15551039180E+04  0.50400001928E-02 0.  1.
        1   -1    0    0  501    0  0.00000000000E+00  0.00000000000E+00 -0.55818905391E+03  0.55818905394E+03  0.50400001928E-02 0. -1.
    10030    2    1    2    0    0  0.00000000000E+00  0.00000000000E+00  0.99691486406E+03  0.21132929719E+04  0.18633754155E+04 0.  0.
        1    1    3    3  502    0 -0.85746200855E+03 -0.10339463023E+03  0.10214678150E+03  0.86969276797E+03  0.50400001928E-02 0.  1.
       -1    1    3    3    0  502  0.85746200855E+03  0.10339463023E+03  0.89476808256E+03  0.12436002039E+04  0.50400001928E-02 0. -1.
</event>
<event>
 5   0  0.9099125E-05  0.1993231E+04  0.7818609E-02  0.8609792E-01
        3   -1    0    0  501    0  0.00000000000E+00  0.00000000000E+00  0.19256788898E+04  0.19256788924E+04  0.10100000352E+00 0. -1.
       -3   -1    0    0    0  501  0.00000000000E+00  0.00000000000E+00 -0.51578806135E+03  0.51578807124E+03  0.10100000352E+00 0.  1.
    10030    2    1    2    0    0  0.00000000000E+00  0.00000000000E+00  0.14098908284E+04  0.24414669637E+04  0.19932307409E+04 0.  0.
        3    1    3    3  502    0 -0.63323336962E+03 -0.29632018244E+02  0.16468923898E+04  0.17646861224E+04  0.10100000352E+00 0. -1.
       -3    1    3    3    0  502  0.63323336962E+03  0.29632018244E+02 -0.23700156131E+03  0.67678084131E+03  0.10100000352E+00 0.  1.
</event>
<event>
 5   0  0.1207228E-04  0.1979322E+04  0.7818609E-02  0.8616350E-01
       -1   -1    0    0    0  501  0.00000000000E+00  0.00000000000E+00  0.45040156234E+03  0.45040156237E+03  0.50400001928E-02 0.  1.
        1   -1    0    0  501    0  0.00000000000E+00  0.00000000000E+00 -0.21745688969E+04  0.21745688969E+04  0.50400001928E-02 0. -1.
    10030    2    1    2    0    0  0.00000000000E+00  0.00000000000E+00 -0.17241673346E+04  0.26249704593E+04  0.19793223372E+04 0.  0.
        1    1    3    3  502    0  0.26355670621E+03  0.43352391796E+03 -0.19889794214E+04  0.20526675970E+04  0.50400001928E-02 0. -1.
       -1    1    3    3    0  502 -0.26355670621E+03 -0.43352391796E+03  0.26481208685E+03  0.57230286231E+03  0.50400001928E-02 0.  1.
</event>
<event>
 5   0  0.2596061E-04  0.2094781E+04  0.7818609E-02  0.8563546E-01
       -2   -1    0    0    0  501  0.00000000000E+00  0.00000000000E+00  0.76520646868E+03  0.76520646868E+03  0.25500000920E-02 0. -1.
        2   -1    0    0  501    0  0.00000000000E+00  0.00000000000E+00 -0.14336348324E+04  0.14336348324E+04  0.25500000920E-02 0.  1.
    10030    2    1    2    0    0  0.00000000000E+00  0.00000000000E+00 -0.66842836370E+03  0.21988413011E+04  0.20947807976E+04 0.  0.
        5    1    3    3  502    0  0.78269075102E+03 -0.29339017844E+03  0.32826528286E+03  0.89803273574E+03  0.46999998093E+01 0. -1.
       -5    1    3    3    0  502 -0.78269075102E+03  0.29339017844E+03 -0.99669364656E+03  0.13008085653E+04  0.46999998093E+01 0.  1.
</event>
<event>
 5   0  0.2488886E-04  0.2116664E+04  0.7818609E-02  0.8553938E-01
        2   -1    0    0  501    0  0.00000000000E+00  0.00000000000E+00  0.14107385261E+04  0.14107385261E+04  0.25500000920E-02 0. -1.
       -2   -1    0    0    0  501  0.00000000000E+00  0.00000000000E+00 -0.79395783523E+03  0.79395783524E+03  0.25500000920E-02 0.  1.
    10030    2    1    2    0    0  0.00000000000E+00  0.00000000000E+00  0.61678069086E+03  0.22046963613E+04  0.21166642684E+04 0.  0.
        3    1    3    3  502    0 -0.87560972777E+03  0.53647565983E+03  0.57510322663E+03  0.11769631517E+04  0.10100000352E+00 0. -1.
       -3    1    3    3    0  502  0.87560972777E+03 -0.53647565983E+03  0.41677464225E+02  0.10277332096E+04  0.10100000352E+00 0.  1.
</event>
<event>
 5   0  0.2488886E-04  0.2019076E+04  0.7818609E-02  0.8597753E-01
        2   -1    0    0  501    0  0.00000000000E+00  0.00000000000E+00  0.12315940382E+04  0.12315940382E+04  0.25500000920E-02 0. -1.
       -2   -1    0    0    0  501  0.00000000000E+00  0.00000000000E+00 -0.82751884297E+03  0.82751884297E+03  0.25500000920E-02 0.  1.
    10030    2    1    2    0    0  0.00000000000E+00  0.00000000000E+00  0.40407519521E+03  0.20591128811E+04  0.20190762972E+04 0.  0.
        3    1    3    3  502    0  0.50857131633E+03  0.80691799820E+03  0.53936191096E+03  0.10957521256E+04  0.10100000352E+00 0. -1.
       -3    1    3    3    0  502 -0.50857131633E+03 -0.80691799820E+03 -0.13528671576E+03  0.96336075552E+03  0.10100000352E+00 0.  1.
</event>
<event>
 5   0  0.1210633E-04  0.2013481E+04  0.7818609E-02  0.8600344E-01
        1   -1    0    0  501    0  0.00000000000E+00  0.00000000000E+00  0.10579445261E+04  0.10579445262E+04  0.50400001928E-02 0.  1.
       -1   -1    0    0    0  501  0.00000000000E+00  0.00000000000E+00 -0.95801486271E+03  0.95801486272E+03  0.50400001928E-02 0. -1.
    10030    2    1    2    0    0  0.00000000000E+00  0.00000000000E+00  0.99929663433E+02  0.20159593889E+04  0.20134811447E+04 0.  0.
        2    1    3    3  502    0 -0.20361909604E+03 -0.91392966454E+03  0.42028276162E+03  0.10263360891E+04  0.25500000920E-02 0.  1.
       -2    1    3    3    0  502  0.20361909604E+03  0.91392966454E+03 -0.32035309819E+03  0.98962329981E+03  0.25500000920E-02 0. -1.
</event>
<event>
 5   0  0.2540506E-04  0.1932523E+04  0.7818609E-02  0.8638835E-01
        2   -1    0    0  501    0  0.00000000000E+00  0.00000000000E+00  0.69101982387E+03  0.69101982388E+03  0.25500000920E-02 0. -1.
       -2   -1    0    0    0  501  0.00000000000E+00  0.00000000000E+00 -0.13511353983E+04  0.13511353983E+04  0.25500000920E-02 0.  1.
    10030    2    1    2    0    0  0.00000000000E+00  0.00000000000E+00 -0.66011557443E+03  0.20421552222E+04  0.19325230606E+04 0.  0.
        4    1    3    3  502    0  0.48923372266E+02  0.70712485838E+03 -0.10240009810E+04  0.12453909762E+04  0.12699999809E+01 0.  1.
       -4    1    3    3    0  502 -0.48923372266E+02 -0.70712485838E+03  0.36388540653E+03  0.79676424598E+03  0.12699999809E+01 0. -1.
</event>
<event>
 5   0  0.1207228E-04  0.1973711E+04  0.7818609E-02  0.8619011E-01
       -1   -1    0    0    0  501  0.00000000000E+00  0.00000000000E+00  0.99769239858E+03  0.99769239859E+03  0.50400001928E-02 0.  1.
        1   -1    0    0  501    0  0.00000000000E+00  0.00000000000E+00 -0.97613649023E+03  0.97613649025E+03  0.50400001928E-02 0. -1.
    10030    2    1    2    0    0  0.00000000000E+00  0.00000000000E+00  0.21555908345E+02  0.19738288888E+04  0.19737111808E+04 0.  0.
        1    1    3    3  502    0 -0.11166258352E+03 -0.35796203034E+03  0.92367334880E+03  0.99688404693E+03  0.50400001928E-02 0.  1.
       -1    1    3    3    0  502  0.11166258352E+03  0.35796203034E+03 -0.90211744046E+03  0.97694484190E+03  0.50400001928E-02 0. -1.
</event>
<event>
 5   0  0.2488886E-04  0.1961636E+04  0.7818609E-02  0.8624770E-01
       -2   -1    0    0    0  501  0.00000000000E+00  0.00000000000E+00  0.12199326988E+04  0.12199326988E+04  0.25500000920E-02 0.  1.
        2   -1    0    0  501    0  0.00000000000E+00  0.00000000000E+00 -0.78857131917E+03  0.78857131917E+03  0.25500000920E-02 0. -1.
    10030    2    1    2    0    0  0.00000000000E+00  0.00000000000E+00  0.43136137959E+03  0.20085040179E+04  0.19616359882E+04 0.  0.
        3    1    3    3  502    0  0.77305675727E+03 -0.58370941903E+03  0.58152630505E+02  0.97042010205E+03  0.10100000352E+00 0. -1.
       -3    1    3    3    0  502 -0.77305675727E+03  0.58370941903E+03  0.37320874908E+03  0.10380839159E+04  0.10100000352E+00 0.  1.
</event>
<event>
 5   0  0.1207228E-04  0.1776943E+04  0.7818609E-02  0.8718658E-01
       -1   -1    0    0    0  501  0.00000000000E+00  0.00000000000E+00  0.82680703516E+03  0.82680703518E+03  0.50400001928E-02 0.  1.
        1   -1    0    0  501    0  0.00000000000E+00  0.00000000000E+00 -0.95473446146E+03  0.95473446148E+03  0.50400001928E-02 0. -1.
    10030    2    1    2    0    0  0.00000000000E+00  0.00000000000E+00 -0.12792742630E+03  0.17815414967E+04  0.17769425083E+04 0.  0.
        1    1    3    3  502    0  0.51816980977E+03 -0.25169645103E+03  0.61419665825E+03  0.84207398146E+03  0.50400001928E-02 0.  1.
       -1    1    3    3    0  502 -0.51816980977E+03  0.25169645103E+03 -0.74212408455E+03  0.93946751520E+03  0.50400001928E-02 0. -1.
</event>
<event>
 5   0  0.2596061E-04  0.2017266E+04  0.7818609E-02  0.8598591E-01
        2   -1    0    0  501    0  0.00000000000E+00  0.00000000000E+00  0.14770155724E+04  0.14770155724E+04  0.25500000920E-02 0. -1.
       -2   -1    0    0    0  501  0.00000000000E+00  0.00000000000E+00 -0.68878118489E+03  0.68878118489E+03  0.25500000920E-02 0.  1.
    10030    2    1    2    0    0  0.00000000000E+00  0.00000000000E+00  0.78823438749E+03  0.21657967573E+04  0.20172660073E+04 0.  0.
        5    1    3    3  502    0 -0.16499258108E+03 -0.87489572907E+03  0.90299204166E+03  0.12681016544E+04  0.46999998093E+01 0. -1.
       -5    1    3    3    0  502  0.16499258108E+03  0.87489572907E+03 -0.11475765416E+03  0.89769510289E+03  0.46999998093E+01 0.  1.
</event>
<event>
 5   0  0.9099125E-05  0.2006372E+04  0.7818609E-02  0.8603647E-01
       -3   -1    0    0    0  501  0.00000000000E+00  0.00000000000E+00  0.10421638104E+04  0.10421638153E+04  0.10100000352E+00 0.  1.
        3   -1    0    0  501    0  0.00000000000E+00  0.00000000000E+00 -0.96566586847E+03  0.96566587375E+03  0.10100000352E+00 0. -1.
    10030    2    1    2    0    0  0.00000000000E+00  0.00000000000E+00  0.76497941946E+02  0.20078296891E+04  0.20063718811E+04 0.  0.
        5    1    3    3  502    0 -0.57348571193E+03  0.43345779883E+03 -0.66196537753E+03  0.97723680661E+03  0.46999998093E+01 0. -1.
       -5    1    3    3    0  502  0.57348571193E+03 -0.43345779883E+03  0.73846331948E+03  0.10305928825E+04  0.46999998093E+01 0.  1.
</event>
<event>
 5   0  0.1258546E-04  0.2000289E+04  0.7818609E-02  0.8606485E-01
        1   -1    0    0  501    0  0.00000000000E+00  0.00000000000E+00  0.17703817881E+04  0.17703817881E+04  0.50400001928E-02 0.  1.
       -1   -1    0    0    0  501  0.00000000000E+00  0.00000000000E+00 -0.56501340830E+03  0.56501340832E+03  0.50400001928E-02 0. -1.
    10030    2    1    2    0    0  0.00000000000E+00  0.00000000000E+00  0.12053683798E+04  0.23353951964E+04  0.20002894272E+04 0.  0.
        4    1    3    3  502    0  0.67629377212E+03 -0.45997389596E+03 -0.69368848878E+02  0.82083061667E+03  0.12699999809E+01 0. -1.
       -4    1    3    3    0  502 -0.67629377212E+03  0.45997389596E+03  0.12747372287E+04  0.15145645797E+04  0.12699999809E+01 0.  1.
</event>
<event>
 5   0  0.2463085E-04  0.1608584E+04  0.7818609E-02  0.8815292E-01
        2   -1    0    0  501    0  0.00000000000E+00  0.00000000000E+00  0.14773512025E+04  0.14773512025E+04  0.25500000920E-02 0.  1.
       -2   -1    0    0    0  501  0.00000000000E+00  0.00000000000E+00 -0.43786831348E+03  0.43786831349E+03  0.25500000920E-02 0. -1.
    10030    2    1    2    0    0  0.00000000000E+00  0.00000000000E+00  0.10394828890E+04  0.19152195160E+04  0.16085835750E+04 0.  0.
        2    1    3    3  502    0  0.72369444262E+03 -0.18999537620E+03  0.16844983808E+03  0.76694669777E+03  0.25500000920E-02 0.  1.
       -2    1    3    3    0  502 -0.72369444262E+03  0.18999537620E+03  0.87103305095E+03  0.11482728182E+04  0.25500000920E-02 0. -1.
</event>
<event>
 5   0  0.2488886E-04  0.1786216E+04  0.7818609E-02  0.8713664E-01
        2   -1    0    0  501    0  0.00000000000E+00  0.00000000000E+00  0.15738072460E+04  0.15738072460E+04  0.25500000920E-02 0. -1.
       -2   -1    0    0    0  501  0.00000000000E+00  0.00000000000E+00 -0.50682325500E+03  0.50682325500E+03  0.25500000920E-02 0.  1.
    10030    2    1    2    0    0  0.00000000000E+00  0.00000000000E+00  0.10669839910E+04  0.20806305010E+04  0.17862162368E+04 0.  0.
        3    1    3    3  502    0 -0.23732409240E+03  0.28426905076E+03 -0.41318273623E+03  0.55484376339E+03  0.10100000352E+00 0.  1.
       -3    1    3    3    0  502  0.23732409240E+03 -0.28426905076E+03  0.14801667272E+04  0.15257867376E+04  0.10100000352E+00 0. -1.
</event>
<event>
 5   0  0.1324930E-04  0.1978382E+04  0.7818609E-02  0.8616795E-01
       -1   -1    0    0    0  501  0.00000000000E+00  0.00000000000E+00  0.12388481637E+04  0.12388481637E+04  0.50400001928E-02 0. -1.
        1   -1    0    0  501    0  0.00000000000E+00  0.00000000000E+00 -0.78984545830E+03  0.78984545832E+03  0.50400001928E-02 0.  1.
    10030    2    1    2    0    0  0.00000000000E+00  0.00000000000E+00  0.44900270542E+03  0.20286936220E+04  0.19783817586E+04 0.  0.
        5    1    3    3  502    0 -0.12098767937E+03  0.37514544357E+03  0.11548244900E+04  0.12202515376E+04  0.46999998093E+01 0. -1.
       -5    1    3    3    0  502  0.12098767937E+03 -0.37514544357E+03 -0.70582178454E+03  0.80844208446E+03  0.46999998093E+01 0.  1.
</event>
<event>
 5   0  0.2596061E-04  0.2029294E+04  0.7818609E-02  0.8593046E-01
        2   -1    0    0  501    0  0.00000000000E+00  0.00000000000E+00  0.15474381405E+04  0.15474381405E+04  0.25500000920E-02 0. -1.
       -2   -1    0    0    0  501  0.00000000000E+00  0.00000000000E+00 -0.66529842737E+03  0.66529842737E+03  0.25500000920E-02 0.  1.
    10030    2    1    2    0    0  0.00000000000E+00  0.00000000000E+00  0.88213971312E+03  0.22127365679E+04  0.20292936321E+04 0.  0.
        5    1    3    3  502    0  0.24704012228E+03  0.17264038135E+01 -0.63199106576E+03  0.67857689298E+03  0.46999998093E+01 0.  1.
       -5    1    3    3    0  502 -0.24704012228E+03 -0.17264038135E+01  0.15141307789E+04  0.15341596749E+04  0.46999998093E+01 0. -1.
</event>
<event>
 5   0  0.2540506E-04  0.1969908E+04  0.7818609E-02  0.8620820E-01
       -2   -1    0    0    0  501  0.00000000000E+00  0.00000000000E+00  0.99321308128E+03  0.99321308128E+03  0.25500000920E-02 0. -1.
        2   -1    0    0  501    0  0.00000000000E+00  0.00000000000E+00 -0.97676364964E+03  0.97676364965E+03  0.25500000920E-02 0.  1.
    10030    2    1    2    0    0  0.00000000000E+00  0.00000000000E+00  0.16449431635E+02  0.19699767309E+04  0.19699080528E+04 0.  0.
        4    1    3    3  502    0 -0.53200745027E+02 -0.23195002715E+03  0.96403085930E+03  0.99296940786E+03  0.12699999809E+01 0. -1.
       -4    1    3    3    0  502  0.53200745027E+02  0.23195002715E+03 -0.94758142767E+03  0.97700732307E+03  0.12699999809E+01 0.  1.
</event>
<event>
 5   0  0.2463085E-04  0.1989243E+04  0.7818609E-02  0.8611666E-01
        2   -1    0    0  501    0  0.00000000000E+00  0.00000000000E+00  0.10370142037E+04  0.10370142037E+04  0.25500000920E-02 0. -1.
       -2   -1    0    0    0  501  0.00000000000E+00  0.00000000000E+00 -0.95396180680E+03  0.95396180681E+03  0.25500000920E-02 0.  1.
    10030    2    1    2    0    0  0.00000000000E+00  0.00000000000E+00  0.83052396919E+02  0.19909760105E+04  0.19892430153E+04 0.  0.
        2    1    3    3  502    0  0.94067488304E+03  0.27280968486E+03  0.21481739390E+03  0.10027167459E+04  0.25500000920E-02 0. -1.
       -2    1    3    3    0  502 -0.94067488304E+03 -0.27280968486E+03 -0.13176499698E+03  0.98825926466E+03  0.25500000920E-02 0.  1.
</event>
<event>
 5   0  0.1210633E-04  0.2028755E+04  0.7818609E-02  0.8593293E-01
       -1   -1    0    0    0  501  0.00000000000E+00  0.00000000000E+00  0.52804660918E+03  0.52804660921E+03  0.50400001928E-02 0.  1.
        1   -1    0    0  501    0  0.00000000000E+00  0.00000000000E+00 -0.19486197989E+04  0.19486197989E+04  0.50400001928E-02 0. -1.
    10030    2    1    2    0    0  0.00000000000E+00  0.00000000000E+00 -0.14205731897E+04  0.24766664081E+04  0.20287553598E+04 0.  0.
        2    1    3    3  502    0 -0.45197062128E+03  0.54337749907E+03 -0.15985469373E+04  0.17478240357E+04  0.25500000920E-02 0.  1.
       -2    1    3    3    0  502  0.45197062128E+03 -0.54337749907E+03  0.17797374758E+03  0.72884237242E+03  0.25500000920E-02 0. -1.
</event>
<event>
 5   0  0.2463085E-04  0.1666926E+04  0.7818609E-02  0.8780456E-01
       -2   -1    0    0    0  501  0.00000000000E+00  0.00000000000E+00  0.57293116896E+03  0.57293116897E+03  0.25500000920E-02 0.  1.
        2   -1    0    0  501    0  0.00000000000E+00  0.00000000000E+00 -0.12124676482E+04  0.12124676482E+04  0.25500000920E-02 0. -1.
    10030    2    1    2    0    0  0.00000000000E+00  0.00000000000E+00 -0.63953647926E+03  0.17853988172E+04  0.16669259216E+04 0.  0.
        2    1    3    3  502    0 -0.30062899443E+03  0.22200652620E+03 -0.11176964094E+04  0.11785202389E+04  0.25500000920E-02 0. -1.
       -2    1    3    3    0  502  0.30062899443E+03 -0.22200652620E+03  0.47815993014E+03  0.60687857827E+03  0.25500000920E-02 0.  1.
</event>
<event>
 5   0  0.2596061E-04  0.1992258E+04  0.7818609E-02  0.8610249E-01
       -2   -1    0    0    0  501  0.00000000000E+00  0.00000000000E+00  0.95753148498E+03  0.95753148499E+03  0.25500000920E-02 0.  1.
        2   -1    0    0  501    0  0.00000000000E+00  0.00000000000E+00 -0.10362827053E+04  0.10362827053E+04  0.25500000920E-02 0. -1.
    10030    2    1    2    0    0  0.00000000000E+00  0.00000000000E+00 -0.78751220304E+02  0.19938141903E+04  0.19922583343E+04 0.  0.
        5    1    3    3  502    0 -0.15261087640E+03 -0.68421159591E+03  0.66886034657E+03  0.96893335208E+03  0.46999998093E+01 0.  1.
       -5    1    3    3    0  502  0.15261087640E+03  0.68421159591E+03 -0.74761156688E+03  0.10248808382E+04  0.46999998093E+01 0. -1.
</event>
<event>
 5   0  0.2540506E-04  0.2002155E+04  0.7818609E-02  0.8605614E-01
       -2   -1    0    0    0  501  0.00000000000E+00  0.00000000000E+00  0.37736392114E+03  0.37736392114E+03  0.25500000920E-02 0. -1.
        2   -1    0    0  501    0  0.00000000000E+00  0.00000000000E+00 -0.26556757622E+04  0.26556757622E+04  0.25500000920E-02 0.  1.
    10030    2    1    2    0    0  0.00000000000E+00  0.00000000000E+00 -0.22783118410E+04  0.30330396833E+04  0.20021550578E+04 0.  0.
        4    1    3    3  502    0  0.32975589548E+03  0.57703852565E+03 -0.50704231979E+01  0.66463503728E+03  0.12699999809E+01 0. -1.
       -4    1    3    3    0  502 -0.32975589548E+03 -0.57703852565E+03 -0.22732414178E+04  0.23684046460E+04  0.12699999809E+01 0.  1.
</event>
<event>
 5   0  0.2463085E-04  0.2009501E+04  0.7818609E-02  0.8602192E-01
       -2   -1    0    0    0  501  0.00000000000E+00  0.00000000000E+00  0.98234764437E+03  0.98234764438E+03  0.25500000920E-02 0.  1.
        2   -1    0    0  501    0  0.00000000000E+00  0.00000000000E+00 -0.10276640388E+04  0.10276640388E+04  0.25500000920E-02 0. -1.
    10030    2    1    2    0    0  0.00000000000E+00  0.00000000000E+00 -0.45316394471E+02  0.20100116832E+04  0.20095007816E+04 0.  0.
        2    1    3    3  502    0  0.35435864428E+03  0.39426172868E+03 -0.87640375250E+03  0.10242538244E+04  0.25500000920E-02 0. -1.
       -2    1    3    3    0  502 -0.35435864428E+03 -0.39426172868E+03  0.83108735803E+03  0.98575785879E+03  0.25500000920E-02 0.  1.
</event>
<event>
 5   0  0.2596061E-04  0.1960152E+04  0.7818609E-02  0.8625481E-01
        2   -1    0    0  501    0  0.00000000000E+00  0.00000000000E+00  0.16742434785E+04  0.16742434785E+04  0.25500000920E-02 0.  1.
       -2   -1    0    0    0  501  0.00000000000E+00  0.00000000000E+00 -0.57372114628E+03  0.57372114628E+03  0.25500000920E-02 0. -1.
    10030    2    1    2    0    0  0.00000000000E+00  0.00000000000E+00  0.11005223322E+04  0.22479646248E+04  0.19601519203E+04 0.  0.
        5    1    3    3  502    0  0.10234742721E+03  0.87849875130E+03  0.10345064045E+04  0.13610513006E+04  0.46999998093E+01 0.  1.
       -5    1    3    3    0  502 -0.10234742721E+03 -0.87849875130E+03  0.66015927722E+02  0.88691332418E+03  0.46999998093E+01 0. -1.
</event>
<event>
 5   0  0.1207228E-04  0.1324028E+04  0.7818609E-02  0.9010725E-01
        1   -1    0    0  501    0  0.00000000000E+00  0.00000000000E+00  0.54696949912E+03  0.54696949914E+03  0.50400001928E-02 0.  1.
       -1   -1    0    0    0  501  0.00000000000E+00  0.00000000000E+00 -0.80125562542E+03  0.80125562543E+03  0.50400001928E-02 0. -1.
    10030    2    1    2    0    0  0.00000000000E+00  0.00000000000E+00 -0.25428612630E+03  0.13482251246E+04  0.13240277763E+04 0.  0.
        1    1    3    3  502    0  0.41273778979E+03  0.50248773481E+03 -0.71283895423E+00  0.65026680287E+03  0.50400001928E-02 0. -1.
       -1    1    3    3    0  502 -0.41273778979E+03 -0.50248773481E+03 -0.25357328734E+03  0.69795832170E+03  0.50400001928E-02 0.  1.
</event>
<event>
 5   0  0.2488886E-04  0.1987627E+04  0.7818609E-02  0.8612427E-01
       -2   -1    0    0    0  501  0.00000000000E+00  0.00000000000E+00  0.42799071957E+03  0.42799071958E+03  0.25500000920E-02 0.  1.
        2   -1    0    0  501    0  0.00000000000E+00  0.00000000000E+00 -0.23076787403E+04  0.23076787403E+04  0.25500000920E-02 0. -1.
    10030    2    1    2    0    0  0.00000000000E+00  0.00000000000E+00 -0.18796880207E+04  0.27356694598E+04  0.19876268106E+04 0.  0.
        3    1    3    3  502    0 -0.59312069322E+02  0.59337587588E+02  0.42310786922E+03  0.43134574307E+03  0.10100000352E+00 0.  1.
       -3    1    3    3    0  502  0.59312069322E+02 -0.59337587588E+02 -0.23027958899E+04  0.23043237168E+04  0.10100000352E+00 0. -1.
</event>
<event>
 5   0  0.1207228E-04  0.1964852E+04  0.7818609E-02  0.8623232E-01
       -1   -1    0    0    0  501  0.00000000000E+00  0.00000000000E+00  0.62025707797E+03  0.62025707799E+03  0.50400001928E-02 0.  1.
        1   -1    0    0  501    0  0.00000000000E+00  0.00000000000E+00 -0.15560653638E+04  0.15560653638E+04  0.50400001928E-02 0. -1.
    10030    2    1    2    0    0  0.00000000000E+00  0.00000000000E+00 -0.93580828578E+03  0.21763224418E+04  0.19648517050E+04 0.  0.
        1    1    3    3  502    0 -0.64066321449E+03  0.21194551404E+03 -0.12587452699E+04  0.14282191393E+04  0.50400001928E-02 0.  1.
       -1    1    3    3    0  502  0.64066321449E+03 -0.21194551404E+03  0.32293698416E+03  0.74810330242E+03  0.50400001928E-02 0. -1.
</event>
<event>
 5   0  0.2463085E-04  0.1918941E+04  0.7818609E-02  0.8645485E-01
       -2   -1    0    0    0  501  0.00000000000E+00  0.00000000000E+00  0.58574742188E+03  0.58574742189E+03  0.25500000920E-02 0.  1.
        2   -1    0    0  501    0  0.00000000000E+00  0.00000000000E+00 -0.15716396574E+04  0.15716396574E+04  0.25500000920E-02 0. -1.
    10030    2    1    2    0    0  0.00000000000E+00  0.00000000000E+00 -0.98589223555E+03  0.21573870793E+04  0.19189412471E+04 0.  0.
        2    1    3    3  502    0 -0.21127306549E+03  0.52792876654E+03 -0.13617872996E+04  0.14757404040E+04  0.25500000920E-02 0. -1.
       -2    1    3    3    0  502  0.21127306549E+03 -0.52792876654E+03  0.37589506405E+03  0.68164667529E+03  0.25500000920E-02 0.  1.
</event>
<event>
 5   0  0.2596061E-04  0.2016792E+04  0.7818609E-02  0.8598810E-01
       -2   -1    0    0    0  501  0.00000000000E+00  0.00000000000E+00  0.94708319419E+03  0.94708319420E+03  0.25500000920E-02 0. -1.
        2   -1    0    0  501    0  0.00000000000E+00  0.00000000000E+00 -0.10736777600E+04  0.10736777600E+04  0.25500000920E-02 0.  1.
    10030    2    1    2    0    0  0.00000000000E+00  0.00000000000E+00 -0.12659456583E+03  0.20207609542E+04  0.20167916724E+04 0.  0.
        5    1    3    3  502    0  0.92827828341E+03 -0.36848431621E+03  0.76112492731E+02  0.10016468760E+04  0.46999998093E+01 0. -1.
       -5    1    3    3    0  502 -0.92827828341E+03  0.36848431621E+03 -0.20270705856E+03  0.10191140782E+04  0.46999998093E+01 0.  1.
</event>
<event>
 5   0  0.1207228E-04  0.1990164E+04  0.7818609E-02  0.8611233E-01
        1   -1    0    0  501    0  0.00000000000E+00  0.00000000000E+00  0.21544079266E+04  0.21544079266E+04  0.50400001928E-02 0. -1.
       -1   -1    0    0    0  501  0.00000000000E+00  0.00000000000E+00 -0.45961018708E+03  0.45961018710E+03  0.50400001928E-02 0.  1.
    10030    2    1    2    0    0  0.00000000000E+00  0.00000000000E+00  0.16947977395E+04  0.26140181137E+04  0.19901636417E+04 0.  0.
        1    1    3    3  502    0  0.61881308317E+03  0.28236936019E+03  0.18013840620E+04  0.19255250261E+04  0.50400001928E-02 0. -1.
       -1    1    3    3    0  502 -0.61881308317E+03 -0.28236936019E+03 -0.10658632246E+03  0.68849308758E+03  0.50400001928E-02 0.  1.
</event>
<event>
 5   0  0.1258546E-04  0.2197172E+04  0.7818609E-02  0.8519606E-01
        1   -1    0    0  501    0  0.00000000000E+00  0.00000000000E+00  0.16829158090E+04  0.16829158090E+04  0.50400001928E-02 0. -1.
       -1   -1    0    0    0  501  0.00000000000E+00  0.00000000000E+00 -0.71714309443E+03  0.71714309445E+03  0.50400001928E-02 0.  1.
    10030    2    1    2    0    0  0.00000000000E+00  0.00000000000E+00  0.96577271456E+03  0.24000589034E+04  0.21971722290E+04 0.  0.
        4    1    3    3  502    0  0.32457909484E+03 -0.50195165857E+03 -0.52395408188E+03  0.79488146862E+03  0.12699999809E+01 0.  1.
       -4    1    3    3    0  502 -0.32457909484E+03  0.50195165857E+03  0.14897267964E+04  0.16051774348E+04  0.12699999809E+01 0. -1.
</event>
<event>
 5   0  0.1324930E-04  0.1994222E+04  0.7818609E-02  0.8609327E-01
       -1   -1    0    0    0  501  0.00000000000E+00  0.00000000000E+00  0.14105081879E+04  0.14105081879E+04  0.50400001928E-02 0. -1.
        1   -1    0    0  501    0  0.00000000000E+00  0.00000000000E+00 -0.70487368765E+03  0.70487368766E+03  0.50400001928E-02 0.  1.
    10030    2    1    2    0    0  0.00000000000E+00  0.00000000000E+00  0.70563450022E+03  0.21153818755E+04  0.19942217608E+04 0.  0.
        5    1    3    3  502    0  0.89747583882E+03  0.17467117101E+03  0.77477286133E+03  0.11984439811E+04  0.46999998093E+01 0. -1.
       -5    1    3    3    0  502 -0.89747583882E+03 -0.17467117101E+03 -0.69138361107E+02  0.91693789442E+03  0.46999998093E+01 0.  1.
</event>
<event>
 5   0  0.9099125E-05  0.2111481E+04  0.7818609E-02  0.8556203E-01
        3   -1    0    0  501    0  0.00000000000E+00  0.00000000000E+00  0.41196428467E+03  0.41196429705E+03  0.10100000352E+00 0. -1.
       -3   -1    0    0    0  501  0.00000000000E+00  0.00000000000E+00 -0.27055447022E+04  0.27055447041E+04  0.10100000352E+00 0.  1.
    10030    2    1    2    0    0  0.00000000000E+00  0.00000000000E+00 -0.22935804176E+04  0.31175090012E+04  0.21114808170E+04 0.  0.
        5    1    3    3  502    0 -0.20437296969E+03 -0.34120249413E+03  0.29710416873E+03  0.49646795447E+03  0.46999998093E+01 0. -1.
       -5    1    3    3    0  502  0.20437296969E+03  0.34120249413E+03 -0.25906845863E+04  0.26210410467E+04  0.46999998093E+01 0.  1.
</event>
<event>
 5   0  0.9099125E-05  0.1962216E+04  0.7818609E-02  0.8624493E-01
        3   -1    0    0  501    0  0.00000000000E+00  0.00000000000E+00  0.48919622437E+03  0.48919623480E+03  0.10100000352E+00 0. -1.
       -3   -1    0    0    0  501  0.00000000000E+00  0.00000000000E+00 -0.19676613471E+04  0.19676613497E+04  0.10100000352E+00 0.  1.
    10030    2    1    2    0    0  0.00000000000E+00  0.00000000000E+00 -0.14784651227E+04  0.24568575845E+04  0.19622156027E+04 0.  0.
        1    1    3    3  502    0  0.74301502073E+03 -0.63820109527E+03 -0.66839784475E+03  0.11858025291E+04  0.50400001928E-02 0. -1.
       -1    1    3    3    0  502 -0.74301502073E+03  0.63820109527E+03 -0.81006727794E+03  0.12710550554E+04  0.50400001928E-02 0.  1.
</event>
<event>
 5   0  0.1231056E-04  0.1998502E+04  0.7818609E-02  0.8607322E-01
        1   -1    0    0  501    0  0.00000000000E+00  0.00000000000E+00  0.73088455453E+03  0.73088455455E+03  0.50400001928E-02 0.  1.
       -1   -1    0    0    0  501  0.00000000000E+00  0.00000000000E+00 -0.13661558362E+04  0.13661558362E+04  0.50400001928E-02 0. -1.
    10030    2    1    2    0    0  0.00000000000E+00  0.00000000000E+00 -0.63527128166E+03  0.20970403908E+04  0.19985016385E+04 0.  0.
        3    1    3    3  502    0 -0.18925663248E+03 -0.81032138379E+03 -0.89814331562E+03  0.12243774923E+04  0.10100000352E+00 0. -1.
       -3    1    3    3    0  502  0.18925663248E+03  0.81032138379E+03  0.26287203396E+03  0.87266289849E+03  0.10100000352E+00 0.  1.
</event>
<event>
 5   0  0.2596061E-04  0.2030814E+04  0.7818609E-02  0.8592348E-01
        2   -1    0    0  501    0  0.00000000000E+00  0.00000000000E+00  0.10377413866E+04  0.10377413866E+04  0.25500000920E-02 0. -1.
       -2   -1    0    0    0  501  0.00000000000E+00  0.00000000000E+00 -0.99355358898E+03  0.99355358898E+03  0.25500000920E-02 0.  1.
    10030    2    1    2    0    0  0.00000000000E+00  0.00000000000E+00  0.44187797606E+02  0.20312949756E+04  0.20308142988E+04 0.  0.
        5    1    3    3  502    0 -0.75923741126E+03  0.13246343345E+03  0.68334157848E+03  0.10300319465E+04  0.46999998093E+01 0. -1.
       -5    1    3    3    0  502  0.75923741126E+03 -0.13246343345E+03 -0.63915378088E+03  0.10012630291E+04  0.46999998093E+01 0.  1.
</event>
<event>
 5   0  0.9099125E-05  0.2003542E+04  0.7818609E-02  0.8604966E-01
        3   -1    0    0  501    0  0.00000000000E+00  0.00000000000E+00  0.15906725416E+04  0.15906725448E+04  0.10100000352E+00 0.  1.
       -3   -1    0    0    0  501  0.00000000000E+00  0.00000000000E+00 -0.63089363993E+03  0.63089364802E+03  0.10100000352E+00 0. -1.
    10030    2    1    2    0    0  0.00000000000E+00  0.00000000000E+00  0.95977890170E+03  0.22215661929E+04  0.20035420657E+04 0.  0.
        1    1    3    3  502    0  0.45848965877E+03 -0.12635589943E+03  0.14575176886E+04  0.15331459139E+04  0.50400001928E-02 0.  1.
       -1    1    3    3    0  502 -0.45848965877E+03  0.12635589943E+03 -0.49773878691E+03  0.68842027900E+03  0.50400001928E-02 0. -1.
</event>
<event>
 5   0  0.2596061E-04  0.1749863E+04  0.7818609E-02  0.8733426E-01
       -2   -1    0    0    0  501  0.00000000000E+00  0.00000000000E+00  0.64958462166E+03  0.64958462167E+03  0.25500000920E-02 0.  1.
        2   -1    0    0  501    0  0.00000000000E+00  0.00000000000E+00 -0.11784531206E+04  0.11784531206E+04  0.25500000920E-02 0. -1.
    10030    2    1    2    0    0  0.00000000000E+00  0.00000000000E+00 -0.52886849894E+03  0.18280377423E+04  0.17498628798E+04 0.  0.
        5    1    3    3  502    0 -0.19316572740E+03 -0.85093175215E+03 -0.19766416515E+03  0.89470165823E+03  0.46999998093E+01 0.  1.
       -5    1    3    3    0  502  0.19316572740E+03  0.85093175215E+03 -0.33120433379E+03  0.93333608404E+03  0.46999998093E+01 0. -1.
</event>
<event>
 5   0  0.1258546E-04  0.1953518E+04  0.7818609E-02  0.8628666E-01
       -1   -1    0    0    0  501  0.00000000000E+00  0.00000000000E+00  0.47639582865E+03  0.47639582868E+03  0.50400001928E-02 0. -1.
        1   -1    0    0  501    0  0.00000000000E+00  0.00000000000E+00 -0.20026586481E+04  0.20026586481E+04  0.50400001928E-02 0.  1.
    10030    2    1    2    0    0  0.00000000000E+00  0.00000000000E+00 -0.15262628195E+04  0.24790544768E+04  0.19535180841E+04 0.  0.
        4    1    3    3  502    0 -0.87776087867E+03 -0.37498353293E+03 -0.50004352701E+03  0.10775536886E+04  0.12699999809E+01 0.  1.
       -4    1    3    3    0  502  0.87776087867E+03  0.37498353293E+03 -0.10262192925E+04  0.14015007882E+04  0.12699999809E+01 0. -1.
</event>
<event>
 5   0  0.1324930E-04  0.2031941E+04  0.7818609E-02  0.8591831E-01
        1   -1    0    0  501    0  0.00000000000E+00  0.00000000000E+00  0.12800392351E+04  0.12800392351E+04  0.50400001928E-02 0.  1.
       -1   -1    0    0    0  501  0.00000000000E+00  0.00000000000E+00 -0.80637857375E+03  0.80637857377E+03  0.50400001928E-02 0. -1.
    10030    2    1    2    0    0  0.00000000000E+00  0.00000000000E+00  0.47366066138E+03  0.20864178089E+04  0.20319411535E+04 0.  0.
        5    1    3    3  502    0 -0.45278879055E+03 -0.99886261630E+01 -0.69697809172E+03  0.83121478081E+03  0.46999998093E+01 0. -1.
       -5    1    3    3    0  502  0.45278879055E+03  0.99886261630E+01  0.11706387531E+04  0.12552030281E+04  0.46999998093E+01 0.  1.
</event>
<event>
 5   0  0.2488886E-04  0.1980368E+04  0.7818609E-02  0.8615855E-01
        2   -1    0    0  501    0  0.00000000000E+00  0.00000000000E+00  0.21760306106E+04  0.21760306106E+04  0.25500000920E-02 0.  1.
       -2   -1    0    0    0  501  0.00000000000E+00  0.00000000000E+00 -0.45057482019E+03  0.45057482020E+03  0.25500000920E-02 0. -1.
    10030    2    1    2    0    0  0.00000000000E+00  0.00000000000E+00  0.17254557904E+04  0.26266054308E+04  0.19803682497E+04 0.  0.
        3    1    3    3  502    0 -0.51074846095E+03 -0.12829211536E+03 -0.24943991426E+03  0.58270330208E+03  0.10100000352E+00 0. -1.
       -3    1    3    3    0  502  0.51074846095E+03  0.12829211536E+03  0.19748957046E+04  0.20439021287E+04  0.10100000352E+00 0.  1.
</event>
<event>
 5   0  0.2596061E-04  0.2035606E+04  0.7818609E-02  0.8590152E-01
        2   -1    0    0  501    0  0.00000000000E+00  0.00000000000E+00  0.67692647596E+03  0.67692647597E+03  0.25500000920E-02 0. -1.
       -2   -1    0    0    0  501  0.00000000000E+00  0.00000000000E+00 -0.15303333947E+04  0.15303333947E+04  0.25500000920E-02 0.  1.
    10030    2    1    2    0    0  0.00000000000E+00  0.00000000000E+00 -0.85340691874E+03  0.22072598707E+04  0.20356062408E+04 0.  0.
        5    1    3    3  502    0  0.81185169655E+03  0.55870059390E+03 -0.15099554335E+03  0.99703123067E+03  0.46999998093E+01 0. -1.
       -5    1    3    3    0  502 -0.81185169655E+03 -0.55870059390E+03 -0.70241137540E+03  0.12102286400E+04  0.46999998093E+01 0.  1.
</event>
<event>
 5   0  0.9099125E-05  0.1333852E+04  0.7818609E-02  0.9003142E-01
       -3   -1    0    0    0  501  0.00000000000E+00  0.00000000000E+00  0.10656152696E+04  0.10656152744E+04  0.10100000352E+00 0.  1.
        3   -1    0    0  501    0  0.00000000000E+00  0.00000000000E+00 -0.41740253621E+03  0.41740254843E+03  0.10100000352E+00 0. -1.
    10030    2    1    2    0    0  0.00000000000E+00  0.00000000000E+00  0.64821273343E+03  0.14830178229E+04  0.13338523588E+04 0.  0.
        3    1    3    3  502    0  0.38184071209E+03  0.30253067192E+02 -0.28290927980E+03  0.47618824879E+03  0.10100000352E+00 0. -1.
       -3    1    3    3    0  502 -0.38184071209E+03 -0.30253067192E+02  0.93112201323E+03  0.10068295741E+04  0.10100000352E+00 0.  1.
</event>
<event>
 5   0  0.2540506E-04  0.1225000E+04  0.7818609E-02  0.9091251E-01
        2   -1    0    0  501    0  0.00000000000E+00  0.00000000000E+00  0.12015638110E+04  0.12015638110E+04  0.25500000920E-02 0. -1.
       -2   -1    0    0    0  501  0.00000000000E+00  0.00000000000E+00 -0.31222315598E+03  0.31222315599E+03  0.25500000920E-02 0.  1.
    10030    2    1    2    0    0  0.00000000000E+00  0.00000000000E+00  0.88934065501E+03  0.15137869670E+04  0.12249996656E+04 0.  0.
        4    1    3    3  502    0 -0.56891031362E+03  0.31694425997E+02  0.72234455082E+03  0.92002540432E+03  0.12699999809E+01 0. -1.
       -4    1    3    3    0  502  0.56891031362E+03 -0.31694425997E+02  0.16699610419E+03  0.59376156267E+03  0.12699999809E+01 0.  1.
</event>
<event>
 5   0  0.1207228E-04  0.1975101E+04  0.7818609E-02  0.8618351E-01
        1   -1    0    0  501    0  0.00000000000E+00  0.00000000000E+00  0.68689792100E+03  0.68689792102E+03  0.50400001928E-02 0.  1.
       -1   -1    0    0    0  501  0.00000000000E+00  0.00000000000E+00 -0.14197976193E+04  0.14197976193E+04  0.50400001928E-02 0. -1.
    10030    2    1    2    0    0  0.00000000000E+00  0.00000000000E+00 -0.73289969829E+03  0.21066955403E+04  0.19751010435E+04 0.  0.
        1    1    3    3  502    0  0.76559221308E+03 -0.76037206975E+02  0.29394882358E+03  0.82360124119E+03  0.50400001928E-02 0.  1.
       -1    1    3    3    0  502 -0.76559221308E+03  0.76037206975E+02 -0.10268485219E+04  0.12830942991E+04  0.50400001928E-02 0. -1.
</event>
<event>
 5   0  0.1210633E-04  0.1907690E+04  0.7818609E-02  0.8651038E-01
       -1   -1    0    0    0  501  0.00000000000E+00  0.00000000000E+00  0.62222965237E+03  0.62222965239E+03  0.50400001928E-02 0. -1.
        1   -1    0    0  501    0  0.00000000000E+00  0.00000000000E+00 -0.14621931426E+04  0.14621931426E+04  0.50400001928E-02 0.  1.
    10030    2    1    2    0    0  0.00000000000E+00  0.00000000000E+00 -0.83996349026E+03  0.20844227950E+04  0.19076896297E+04 0.  0.
        2    1    3    3  502    0  0.14497775228E+03 -0.81896198170E+03 -0.93026177344E+03  0.12478398308E+04  0.25500000920E-02 0. -1.
       -2    1    3    3    0  502 -0.14497775228E+03  0.81896198170E+03  0.90298283177E+02  0.83658296426E+03  0.25500000920E-02 0.  1.
</event>
<event>
 5   0  0.1258546E-04  0.2001275E+04  0.7818609E-02  0.8606025E-01
        1   -1    0    0  501    0  0.00000000000E+00  0.00000000000E+00  0.79509245160E+03  0.79509245161E+03  0.50400001928E-02 0.  1.
       -1   -1    0    0    0  501  0.00000000000E+00  0.00000000000E+00 -0.12593190828E+04  0.12593190829E+04  0.50400001928E-02 0. -1.
    10030    2    1    2    0    0  0.00000000000E+00  0.00000000000E+00 -0.46422663125E+03  0.20544115345E+04  0.20012746907E+04 0.  0.
        4    1    3    3  502    0 -0.29395508940E+03  0.72724273873E+02 -0.12111523687E+04  0.12484350554E+04  0.12699999809E+01 0. -1.
       -4    1    3    3    0  502  0.29395508940E+03 -0.72724273873E+02  0.74692573743E+03  0.80597647902E+03  0.12699999809E+01 0.  1.
</event>
<event>
 5   0  0.1258546E-04  0.1923621E+04  0.7818609E-02  0.8643187E-01
       -1   -1    0    0    0  501  0.00000000000E+00  0.00000000000E+00  0.15113073394E+04  0.15113073394E+04  0.50400001928E-02 0.  1.
        1   -1    0    0  501    0  0.00000000000E+00  0.00000000000E+00 -0.61210530570E+03  0.61210530572E+03  0.50400001928E-02 0. -1.
    10030    2    1    2    0    0  0.00000000000E+00  0.00000000000E+00  0.89920203368E+03  0.21234126451E+04  0.19236207953E+04 0.  0.
        4    1    3    3  502    0 -0.22309007875E+03 -0.18975527748E+03 -0.56168477217E+03  0.63345690047E+03  0.12699999809E+01 0. -1.
       -4    1    3    3    0  502  0.22309007875E+03  0.18975527748E+03  0.14608868059E+04  0.14899557446E+04  0.12699999809E+01 0.  1.
</event>
<event>
 5   0  0.1207228E-04  0.2069590E+04  0.7818609E-02  0.8574759E-01
       -1   -1    0    0    0  501  0.00000000000E+00  0.00000000000E+00  0.11181934024E+04  0.11181934024E+04  0.50400001928E-02 0.  1.
        1   -1    0    0  501    0  0.00000000000E+00  0.00000000000E+00 -0.95761634760E+03  0.95761634761E+03  0.50400001928E-02 0. -1.
    10030    2    1    2    0    0  0.00000000000E+00  0.00000000000E+00  0.16057705476E+03  0.20758097500E+04  0.20695896037E+04 0.  0.
        1    1    3    3  502    0 -0.19273167602E+03  0.91183407859E+03 -0.37074442747E+03  0.10030146142E+04  0.50400001928E-02 0. -1.
       -1    1    3    3    0  502  0.19273167602E+03 -0.91183407859E+03  0.53132148223E+03  0.10727951358E+04  0.50400001928E-02 0.  1.
</event>
<event>
 5   0  0.1324930E-04  0.1990912E+04  0.7818609E-02  0.8610881E-01
        1   -1    0    0  501    0  0.00000000000E+00  0.00000000000E+00  0.12707799999E+04  0.12707799999E+04  0.50400001928E-02 0. -1.
       -1   -1    0    0    0  501  0.00000000000E+00  0.00000000000E+00 -0.77978317804E+03  0.77978317805E+03  0.50400001928E-02 0.  1.
    10030    2    1    2    0    0  0.00000000000E+00  0.00000000000E+00  0.49099682185E+03  0.20505631780E+04  0.19909122200E+04 0.  0.
        5    1    3    3  502    0  0.50596249052E+02 -0.50958211761E+03 -0.63370331484E+03  0.81476125107E+03  0.46999998093E+01 0.  1.
       -5    1    3    3    0  502 -0.50596249052E+02  0.50958211761E+03  0.11247001367E+04  0.12358019269E+04  0.46999998093E+01 0. -1.
</event>
<event>
 5   0  0.2540506E-04  0.2365185E+04  0.7818609E-02  0.8452654E-01
        2   -1    0    0  501    0  0.00000000000E+00  0.00000000000E+00  0.13583004507E+04  0.13583004507E+04  0.25500000920E-02 0.  1.
       -2   -1    0    0    0  501  0.00000000000E+00  0.00000000000E+00 -0.10296140743E+04  0.10296140743E+04  0.25500000920E-02 0. -1.
    10030    2    1    2    0    0  0.00000000000E+00  0.00000000000E+00  0.32868637641E+03  0.23879145249E+04  0.23651852030E+04 0.  0.
        4    1    3    3  502    0  0.45786610591E+03  0.30294567955E+03  0.12218372982E+04  0.13395168725E+04  0.12699999809E+01 0.  1.
       -4    1    3    3    0  502 -0.45786610591E+03 -0.30294567955E+03 -0.89315092174E+03  0.10483976524E+04  0.12699999809E+01 0. -1.
</event>
<event>
 5   0  0.1324930E-04  0.1913718E+04  0.7818609E-02  0.8648058E-01
       -1   -1    0    0    0  501  0.00000000000E+00  0.00000000000E+00  0.83274976548E+03  0.83274976550E+03  0.50400001928E-02 0. -1.
        1   -1    0    0  501    0  0.00000000000E+00  0.00000000000E+00 -0.10994651963E+04  0.10994651963E+04  0.50400001928E-02 0.  1.
    10030    2    1    2    0    0  0.00000000000E+00  0.00000000000E+00 -0.26671543079E+03  0.19322149618E+04  0.19137182493E+04 0.  0.
        5    1    3    3  502    0  0.60749826340E+03  0.38917325704E+03  0.50124511970E+03  0.87850937618E+03  0.46999998093E+01 0. -1.
       -5    1    3    3    0  502 -0.60749826340E+03 -0.38917325704E+03 -0.76796055049E+03  0.10537055856E+04  0.46999998093E+01 0.  1.
</event>
<event>
 5   0  0.2540506E-04  0.2087672E+04  0.7818609E-02  0.8566693E-01
       -2   -1    0    0    0  501  0.00000000000E+00  0.00000000000E+00  0.76328836379E+03  0.76328836380E+03  0.25500000920E-02 0. -1.
        2   -1    0    0  501    0  0.00000000000E+00  0.00000000000E+00 -0.14274995308E+04  0.14274995308E+04  0.25500000920E-02 0.  1.
    10030    2    1    2    0    0  0.00000000000E+00  0.00000000000E+00 -0.66421116703E+03  0.21907878946E+04  0.20876721785E+04 0.  0.
        4    1    3    3  502    0  0.94936713404E+03  0.43371138309E+03 -0.31769221100E+03  0.10910240478E+04  0.12699999809E+01 0.  1.
       -4    1    3    3    0  502 -0.94936713404E+03 -0.43371138309E+03 -0.34651895602E+03  0.10997638468E+04  0.12699999809E+01 0. -1.
</event>
<event>
 5   0  0.1207228E-04  0.1977271E+04  0.7818609E-02  0.8617322E-01
       -1   -1    0    0    0  501  0.00000000000E+00  0.00000000000E+00  0.14367497975E+04  0.14367497975E+04  0.50400001928E-02 0.  1.
        1   -1    0    0  501    0  0.00000000000E+00  0.00000000000E+00 -0.68028539976E+03  0.68028539978E+03  0.50400001928E-02 0. -1.
    10030    2    1    2    0    0  0.00000000000E+00  0.00000000000E+00  0.75646439770E+03  0.21170351973E+04  0.19772707557E+04 0.  0.
        1    1    3    3  502    0  0.31717921535E+03 -0.74829937910E+03  0.98091051557E+03  0.12738681466E+04  0.50400001928E-02 0.  1.
       -1    1    3    3    0  502 -0.31717921535E+03  0.74829937910E+03 -0.22444611787E+03  0.84316705063E+03  0.50400001928E-02 0. -1.
</event>
<event>
 5   0  0.2421737E-04  0.1968118E+04  0.7818609E-02  0.8621673E-01
       -2   -1    0    0    0  501  0.00000000000E+00  0.00000000000E+00  0.51616479082E+03  0.51616479083E+03  0.25500000920E-02 0. -1.
        2   -1    0    0  501    0  0.00000000000E+00  0.00000000000E+00 -0.18760910731E+04  0.18760910731E+04  0.25500000920E-02 0.  1.
    10030    2    1    2    0    0  0.00000000000E+00  0.00000000000E+00 -0.13599262823E+04  0.23922558640E+04  0.19681180415E+04 0.  0.
        1    1    3    3  502    0 -0.67661901028E+03  0.32053672594E+03  0.96262750676E+02  0.75486660738E+03  0.50400001928E-02 0. -1.
       -1    1    3    3    0  502  0.67661901028E+03 -0.32053672594E+03 -0.14561890330E+04  0.16373892566E+04  0.50400001928E-02 0.  1.
</event>
<event>
 5   0  0.1231056E-04  0.1983804E+04  0.7818609E-02  0.8614230E-01
        1   -1    0    0  501    0  0.00000000000E+00  0.00000000000E+00  0.15968249999E+04  0.15968249999E+04  0.50400001928E-02 0. -1.
       -1   -1    0    0    0  501  0.00000000000E+00  0.00000000000E+00 -0.61614142049E+03  0.61614142051E+03  0.50400001928E-02 0.  1.
    10030    2    1    2    0    0  0.00000000000E+00  0.00000000000E+00  0.98068357939E+03  0.22129664204E+04  0.19838044498E+04 0.  0.
        3    1    3    3  502    0  0.57804348773E+03  0.54536566173E+03  0.11524663588E+04  0.13999059600E+04  0.10100000352E+00 0. -1.
       -3    1    3    3    0  502 -0.57804348773E+03 -0.54536566173E+03 -0.17178277937E+03  0.81306046036E+03  0.10100000352E+00 0.  1.
</event>
<event>
 5   0  0.2463085E-04  0.1989757E+04  0.7818609E-02  0.8611424E-01
       -2   -1    0    0    0  501  0.00000000000E+00  0.00000000000E+00  0.88406984056E+03  0.88406984057E+03  0.25500000920E-02 0. -1.
        2   -1    0    0  501    0  0.00000000000E+00  0.00000000000E+00 -0.11195763161E+04  0.11195763161E+04  0.25500000920E-02 0.  1.
    10030    2    1    2    0    0  0.00000000000E+00  0.00000000000E+00 -0.23550647557E+03  0.20036461567E+04  0.19897574277E+04 0.  0.
        2    1    3    3  502    0  0.74251437426E+03  0.22374063322E+03  0.50981126830E+03  0.92805980207E+03  0.25500000920E-02 0. -1.
       -2    1    3    3    0  502 -0.74251437426E+03 -0.22374063322E+03 -0.74531774386E+03  0.10755863546E+04  0.25500000920E-02 0.  1.
</event>
<event>
 5   0  0.1207228E-04  0.1992995E+04  0.7818609E-02  0.8609903E-01
        1   -1    0    0  501    0  0.00000000000E+00  0.00000000000E+00  0.17013175359E+04  0.17013175359E+04  0.50400001928E-02 0. -1.
       -1   -1    0    0    0  501  0.00000000000E+00  0.00000000000E+00 -0.58366973684E+03  0.58366973687E+03  0.50400001928E-02 0.  1.
    10030    2    1    2    0    0  0.00000000000E+00  0.00000000000E+00  0.11176477990E+04  0.22849872728E+04  0.19929952920E+04 0.  0.
        1    1    3    3  502    0 -0.48723285023E+03  0.16521050496E+03 -0.41962420218E+03  0.66390875305E+03  0.50400001928E-02 0.  1.
       -1    1    3    3    0  502  0.48723285023E+03 -0.16521050496E+03  0.15372720012E+04  0.16210785197E+04  0.50400001928E-02 0. -1.
</event>
<event>
 5   0  0.1231056E-04  0.2046846E+04  0.7818609E-02  0.8585027E-01
        1   -1    0    0  501    0  0.00000000000E+00  0.00000000000E+00  0.61927054147E+03  0.61927054149E+03  0.50400001928E-02 0.  1.
       -1   -1    0    0    0  501  0.00000000000E+00  0.00000000000E+00 -0.16913358808E+04  0.16913358808E+04  0.50400001928E-02 0. -1.
    10030    2    1    2    0    0  0.00000000000E+00  0.00000000000E+00 -0.10720653393E+04  0.23106064223E+04  0.20468458532E+04 0.  0.
        3    1    3    3  502    0  0.31155242359E+03 -0.49904158412E+03  0.40930889168E+03  0.71668765466E+03  0.10100000352E+00 0.  1.
       -3    1    3    3    0  502 -0.31155242359E+03  0.49904158412E+03 -0.14813742310E+04  0.15939187676E+04  0.10100000352E+00 0. -1.
</event>
<event>
 5   0  0.1207228E-04  0.1990760E+04  0.7818609E-02  0.8610953E-01
       -1   -1    0    0    0  501  0.00000000000E+00  0.00000000000E+00  0.22597230348E+04  0.22597230348E+04  0.50400001928E-02 0. -1.
        1   -1    0    0  501    0  0.00000000000E+00  0.00000000000E+00 -0.43845244006E+03  0.43845244009E+03  0.50400001928E-02 0.  1.
    10030    2    1    2    0    0  0.00000000000E+00  0.00000000000E+00  0.18212705947E+04  0.26981754749E+04  0.19907597329E+04 0.  0.
        1    1    3    3  502    0  0.94047717389E+03  0.56679481074E+01  0.46884196184E+03  0.10508768841E+04  0.50400001928E-02 0.  1.
       -1    1    3    3    0  502 -0.94047717389E+03 -0.56679481074E+01  0.13524286329E+04  0.16472985908E+04  0.50400001928E-02 0. -1.
</event>
<event>
 5   0  0.2596061E-04  0.1971015E+04  0.7818609E-02  0.8620293E-01
        2   -1    0    0  501    0  0.00000000000E+00  0.00000000000E+00  0.17319230742E+04  0.17319230742E+04  0.25500000920E-02 0.  1.
       -2   -1    0    0    0  501  0.00000000000E+00  0.00000000000E+00 -0.56077858188E+03  0.56077858189E+03  0.25500000920E-02 0. -1.
    10030    2    1    2    0    0  0.00000000000E+00  0.00000000000E+00  0.11711444923E+04  0.22927016561E+04  0.19710153378E+04 0.  0.
        5    1    3    3  502    0 -0.70514041634E+02 -0.35713318568E+03  0.16508368070E+04  0.16905030599E+04  0.46999998093E+01 0.  1.
       -5    1    3    3    0  502  0.70514041634E+02  0.35713318568E+03 -0.47969231470E+03  0.60219859611E+03  0.46999998093E+01 0. -1.
</event>
<event>
 5   0  0.2421737E-04  0.1979777E+04  0.7818609E-02  0.8616134E-01
        2   -1    0    0  501    0  0.00000000000E+00  0.00000000000E+00  0.10632375547E+04  0.10632375547E+04  0.25500000920E-02 0.  1.
       -2   -1    0    0    0  501  0.00000000000E+00  0.00000000000E+00 -0.92159930254E+03  0.92159930254E+03  0.25500000920E-02 0. -1.
    10030    2    1    2    0    0  0.00000000000E+00  0.00000000000E+00  0.14163825213E+03  0.19848368572E+04  0.19797767438E+04 0.  0.
        1    1    3    3  502    0  0.46455954281E+03  0.59945360340E+03  0.70862025778E+03  0.10379320118E+04  0.50400001928E-02 0.  1.
       -1    1    3    3    0  502 -0.46455954281E+03 -0.59945360340E+03 -0.56698200565E+03  0.94690484538E+03  0.50400001928E-02 0. -1.
</event>
<event>
 5   0  0.2421737E-04  0.2023894E+04  0.7818609E-02  0.8595530E-01
       -2   -1    0    0    0  501  0.00000000000E+00  0.00000000000E+00  0.62533965507E+03  0.62533965508E+03  0.25500000920E-02 0. -1.
        2   -1    0    0  501    0  0.00000000000E+00  0.00000000000E+00 -0.16375687974E+04  0.16375687974E+04  0.25500000920E-02 0.  1.
    10030    2    1    2    0    0  0.00000000000E+00  0.00000000000E+00 -0.10122291423E+04  0.22629084525E+04  0.20238939764E+04 0.  0.
        1    1    3    3  502    0  0.14099768385E+03  0.21738997635E+03 -0.15998493969E+04  0.16206964063E+04  0.50400001928E-02 0.  1.
       -1    1    3    3    0  502 -0.14099768385E+03 -0.21738997635E+03  0.58762025455E+03  0.64221204618E+03  0.50400001928E-02 0. -1.
</event>
<event>
 5   0  0.1210633E-04  0.2016582E+04  0.7818609E-02  0.8598907E-01
       -1   -1    0    0    0  501  0.00000000000E+00  0.00000000000E+00  0.11734513474E+04  0.11734513474E+04  0.50400001928E-02 0. -1.
        1   -1    0    0  501    0  0.00000000000E+00  0.00000000000E+00 -0.86637646070E+03  0.86637646072E+03  0.50400001928E-02 0.  1.
    10030    2    1    2    0    0  0.00000000000E+00  0.00000000000E+00  0.30707488671E+03  0.20398278081E+04  0.20165818855E+04 0.  0.
        2    1    3    3  502    0  0.42693877444E+03  0.36055026101E+03  0.10024840139E+04  0.11477139914E+04  0.25500000920E-02 0. -1.
       -2    1    3    3    0  502 -0.42693877444E+03 -0.36055026101E+03 -0.69540912721E+03  0.89211381676E+03  0.25500000920E-02 0.  1.
</event>
<event>
 5   0  0.1207228E-04  0.1897157E+04  0.7818609E-02  0.8656273E-01
       -1   -1    0    0    0  501  0.00000000000E+00  0.00000000000E+00  0.83304627044E+03  0.83304627046E+03  0.50400001928E-02 0. -1.
        1   -1    0    0  501    0  0.00000000000E+00  0.00000000000E+00 -0.10801338895E+04  0.10801338895E+04  0.50400001928E-02 0.  1.
    10030    2    1    2    0    0  0.00000000000E+00  0.00000000000E+00 -0.24708761901E+03  0.19131801599E+04  0.18971573558E+04 0.  0.
        1    1    3    3  502    0 -0.69910151097E+03  0.27808180679E+03  0.45902811261E+03  0.88135079401E+03  0.50400001928E-02 0. -1.
       -1    1    3    3    0  502  0.69910151097E+03 -0.27808180679E+03 -0.70611573161E+03  0.10318293659E+04  0.50400001928E-02 0.  1.
</event>
<event>
 5   0  0.2596061E-04  0.2029263E+04  0.7818609E-02  0.8593060E-01
        2   -1    0    0  501    0  0.00000000000E+00  0.00000000000E+00  0.10508525274E+04  0.10508525274E+04  0.25500000920E-02 0. -1.
       -2   -1    0    0    0  501  0.00000000000E+00  0.00000000000E+00 -0.97965942186E+03  0.97965942186E+03  0.25500000920E-02 0.  1.
    10030    2    1    2    0    0  0.00000000000E+00  0.00000000000E+00  0.71193105543E+02  0.20305119493E+04  0.20292634915E+04 0.  0.
        5    1    3    3  502    0 -0.14253084460E+03  0.16578751874E+03 -0.95579802021E+03  0.98049604205E+03  0.46999998093E+01 0.  1.
       -5    1    3    3    0  502  0.14253084460E+03 -0.16578751874E+03  0.10269911258E+04  0.10500159072E+04  0.46999998093E+01 0. -1.
</event>
<event>
 5   0  0.1231056E-04  0.2001619E+04  0.7818609E-02  0.8605864E-01
       -1   -1    0    0    0  501  0.00000000000E+00  0.00000000000E+00  0.17097174900E+04  0.17097174900E+04  0.50400001928E-02 0. -1.
        1   -1    0    0  501    0  0.00000000000E+00  0.00000000000E+00 -0.58583904204E+03  0.58583904206E+03  0.50400001928E-02 0.  1.
    10030    2    1    2    0    0  0.00000000000E+00  0.00000000000E+00  0.11238784479E+04  0.22955565321E+04  0.20016186016E+04 0.  0.
        3    1    3    3  502    0 -0.93392108573E+03  0.34746780556E+03  0.66876741112E+03  0.12000801351E+04  0.10100000352E+00 0. -1.
       -3    1    3    3    0  502  0.93392108573E+03 -0.34746780556E+03  0.45511103683E+03  0.10954763970E+04  0.10100000352E+00 0.  1.
</event>
<event>
 5   0  0.1258546E-04  0.1945008E+04  0.7818609E-02  0.8632772E-01
       -1   -1    0    0    0  501  0.00000000000E+00  0.00000000000E+00  0.66615762100E+03  0.66615762102E+03  0.50400001928E-02 0.  1.
        1   -1    0    0  501    0  0.00000000000E+00  0.00000000000E+00 -0.14197299755E+04  0.14197299755E+04  0.50400001928E-02 0. -1.
    10030    2    1    2    0    0  0.00000000000E+00  0.00000000000E+00 -0.75357235449E+03  0.20858875965E+04  0.19450079105E+04 0.  0.
        4    1    3    3  502    0 -0.20631907419E+03  0.94136512740E+03 -0.23684942343E+03  0.99238859613E+03  0.12699999809E+01 0.  1.
       -4    1    3    3    0  502  0.20631907419E+03 -0.94136512740E+03 -0.51672293106E+03  0.10934990004E+04  0.12699999809E+01 0. -1.
</event>
<event>
 5   0  0.2488886E-04  0.2009036E+04  0.7818609E-02  0.8602408E-01
       -2   -1    0    0    0  501  0.00000000000E+00  0.00000000000E+00  0.33650711739E+03  0.33650711740E+03  0.25500000920E-02 0. -1.
        2   -1    0    0  501    0  0.00000000000E+00  0.00000000000E+00 -0.29986193705E+04  0.29986193705E+04  0.25500000920E-02 0.  1.
    10030    2    1    2    0    0  0.00000000000E+00  0.00000000000E+00 -0.26621122531E+04  0.33351264879E+04  0.20090363466E+04 0.  0.
        3    1    3    3  502    0 -0.33963958622E+02  0.20063674294E+03  0.30193279787E+03  0.36410448739E+03  0.10100000352E+00 0. -1.
       -3    1    3    3    0  502  0.33963958622E+02 -0.20063674294E+03 -0.29640450510E+04  0.29710220005E+04  0.10100000352E+00 0.  1.
</event>
<event>
 5   0  0.9099125E-05  0.2021105E+04  0.7818609E-02  0.8596816E-01
       -3   -1    0    0    0  501  0.00000000000E+00  0.00000000000E+00  0.10772553721E+04  0.10772553768E+04  0.10100000352E+00 0. -1.
        3   -1    0    0  501    0  0.00000000000E+00  0.00000000000E+00 -0.94797990379E+03  0.94797990917E+03  0.10100000352E+00 0.  1.
    10030    2    1    2    0    0  0.00000000000E+00  0.00000000000E+00  0.12927546831E+03  0.20252352860E+04  0.20211050980E+04 0.  0.
        2    1    3    3  502    0  0.59666224002E+03 -0.67358104952E+03  0.52546795044E+03  0.10420335052E+04  0.25500000920E-02 0. -1.
       -2    1    3    3    0  502 -0.59666224002E+03  0.67358104952E+03 -0.39619248213E+03  0.98320178084E+03  0.25500000920E-02 0.  1.
</event>
<event>
 5   0  0.2596061E-04  0.2021403E+04  0.7818609E-02  0.8596679E-01
       -2   -1    0    0    0  501  0.00000000000E+00  0.00000000000E+00  0.80837590843E+03  0.80837590844E+03  0.25500000920E-02 0. -1.
        2   -1    0    0  501    0  0.00000000000E+00  0.00000000000E+00 -0.12636658528E+04  0.12636658528E+04  0.25500000920E-02 0.  1.
    10030    2    1    2    0    0  0.00000000000E+00  0.00000000000E+00 -0.45528994434E+03  0.20720417612E+04  0.20214025148E+04 0.  0.
        5    1    3    3  502    0  0.27825756882E+03  0.33840288493E+02  0.76772309189E+03  0.81730855590E+03  0.46999998093E+01 0. -1.
       -5    1    3    3    0  502 -0.27825756882E+03 -0.33840288493E+02 -0.12230130362E+04  0.12547332053E+04  0.46999998093E+01 0.  1.
</event>
<event>
 5   0  0.2540506E-04  0.2254090E+04  0.7818609E-02  0.8496246E-01
        2   -1    0    0  501    0  0.00000000000E+00  0.00000000000E+00  0.25016158311E+04  0.25016158311E+04  0.25500000920E-02 0.  1.
       -2   -1    0    0    0  501  0.00000000000E+00  0.00000000000E+00 -0.50776411872E+03  0.50776411873E+03  0.25500000920E-02 0. -1.
    10030    2    1    2    0    0  0.00000000000E+00  0.00000000000E+00  0.19938517124E+04  0.30093799499E+04  0.22540902891E+04 0.  0.
        4    1    3    3  502    0  0.99246579962E+03 -0.38343377613E+03  0.50057349460E+03  0.11758338575E+04  0.12699999809E+01 0.  1.
       -4    1    3    3    0  502 -0.99246579962E+03  0.38343377613E+03  0.14932782178E+04  0.18335460923E+04  0.12699999809E+01 0. -1.
</event>
<event>
 5   0  0.2421737E-04  0.2018418E+04  0.7818609E-02  0.8598058E-01
        2   -1    0    0  501    0  0.00000000000E+00  0.00000000000E+00  0.13107885206E+04  0.13107885206E+04  0.25500000920E-02 0.  1.
       -2   -1    0    0    0  501  0.00000000000E+00  0.00000000000E+00 -0.77701531420E+03  0.77701531420E+03  0.25500000920E-02 0. -1.
    10030    2    1    2    0    0  0.00000000000E+00  0.00000000000E+00  0.53377320644E+03  0.20878038348E+04  0.20184179490E+04 0.  0.
        1    1    3    3  502    0 -0.48666249230E+02  0.62694438767E+03  0.10833726817E+04  0.12526468123E+04  0.50400001928E-02 0.  1.
       -1    1    3    3    0  502  0.48666249230E+02 -0.62694438767E+03 -0.54959947523E+03  0.83515702251E+03  0.50400001928E-02 0. -1.
</event>
<event>
 5   0  0.2421737E-04  0.1753386E+04  0.7818609E-02  0.8731488E-01
        2   -1    0    0  501    0  0.00000000000E+00  0.00000000000E+00  0.92154729170E+03  0.92154729170E+03  0.25500000920E-02 0. -1.
       -2   -1    0    0    0  501  0.00000000000E+00  0.00000000000E+00 -0.83402229364E+03  0.83402229365E+03  0.25500000920E-02 0.  1.
    10030    2    1    2    0    0  0.00000000000E+00  0.00000000000E+00  0.87524998058E+02  0.17555695854E+04  0.17533864217E+04 0.  0.
        1    1    3    3  502    0  0.20486502671E+03  0.19041714312E+03  0.87567766725E+03  0.91926043345E+03  0.50400001928E-02 0. -1.
       -1    1    3    3    0  502 -0.20486502671E+03 -0.19041714312E+03 -0.78815266919E+03  0.83630915190E+03  0.50400001928E-02 0.  1.
</event>
<event>
 5   0  0.1210633E-04  0.1990304E+04  0.7818609E-02  0.8611167E-01
       -1   -1    0    0    0  501  0.00000000000E+00  0.00000000000E+00  0.10609414897E+04  0.10609414897E+04  0.50400001928E-02 0.  1.
        1   -1    0    0  501    0  0.00000000000E+00  0.00000000000E+00 -0.93344197176E+03  0.93344197178E+03  0.50400001928E-02 0. -1.
    10030    2    1    2    0    0  0.00000000000E+00  0.00000000000E+00  0.12749951791E+03  0.19943834615E+04  0.19903038121E+04 0.  0.
        2    1    3    3  502    0 -0.29291129559E+03 -0.53739272845E+03 -0.72254927439E+03  0.94692419210E+03  0.25500000920E-02 0. -1.
       -2    1    3    3    0  502  0.29291129559E+03  0.53739272845E+03  0.85004879230E+03  0.10474592694E+04  0.25500000920E-02 0.  1.
</event>
<event>
 5   0  0.2421737E-04  0.1952875E+04  0.7818609E-02  0.8628976E-01
       -2   -1    0    0    0  501  0.00000000000E+00  0.00000000000E+00  0.10467459353E+04  0.10467459353E+04  0.25500000920E-02 0.  1.
        2   -1    0    0  501    0  0.00000000000E+00  0.00000000000E+00 -0.91085139869E+03  0.91085139869E+03  0.25500000920E-02 0. -1.
    10030    2    1    2    0    0  0.00000000000E+00  0.00000000000E+00  0.13589453666E+03  0.19575973340E+04  0.19528748032E+04 0.  0.
        1    1    3    3  502    0 -0.89996137370E+03 -0.32811099851E+03 -0.12183223601E+03  0.96562435514E+03  0.50400001928E-02 0. -1.
       -1    1    3    3    0  502  0.89996137370E+03  0.32811099851E+03  0.25772677267E+03  0.99197297890E+03  0.50400001928E-02 0.  1.
</event>
<event>
 5   0  0.1324930E-04  0.2115897E+04  0.7818609E-02  0.8554273E-01
       -1   -1    0    0    0  501  0.00000000000E+00  0.00000000000E+00  0.20601032446E+04  0.20601032446E+04  0.50400001928E-02 0. -1.
        1   -1    0    0  501    0  0.00000000000E+00  0.00000000000E+00 -0.54330046854E+03  0.54330046857E+03  0.50400001928E-02 0.  1.
    10030    2    1    2    0    0  0.00000000000E+00  0.00000000000E+00  0.15168027760E+04  0.26034037132E+04  0.21158970278E+04 0.  0.
        5    1    3    3  502    0  0.77090580375E+03  0.62668473276E+03  0.12057729716E+04  0.15623508126E+04  0.46999998093E+01 0. -1.
       -5    1    3    3    0  502 -0.77090580375E+03 -0.62668473276E+03  0.31102980442E+03  0.10410529006E+04  0.46999998093E+01 0.  1.
</event>
<event>
 5   0  0.1231056E-04  0.2014777E+04  0.7818609E-02  0.8599743E-01
        1   -1    0    0  501    0  0.00000000000E+00  0.00000000000E+00  0.73000930122E+03  0.73000930124E+03  0.50400001928E-02 0. -1.
       -1   -1    0    0    0  501  0.00000000000E+00  0.00000000000E+00 -0.13901628581E+04  0.13901628581E+04  0.50400001928E-02 0.  1.
    10030    2    1    2    0    0  0.00000000000E+00  0.00000000000E+00 -0.66015355685E+03  0.21201721593E+04  0.20147772250E+04 0.  0.
        3    1    3    3  502    0 -0.60371939474E+03  0.25300952861E+03  0.47570822537E+03  0.80919049367E+03  0.10100000352E+00 0. -1.
       -3    1    3    3    0  502  0.60371939474E+03 -0.25300952861E+03 -0.11358617822E+04  0.13109816656E+04  0.10100000352E+00 0.  1.
</event>
<event>
 5   0  0.2540506E-04  0.1998209E+04  0.7818609E-02  0.8607459E-01
        2   -1    0    0  501    0  0.00000000000E+00  0.00000000000E+00  0.78948457523E+03  0.78948457524E+03  0.25500000920E-02 0.  1.
       -2   -1    0    0    0  501  0.00000000000E+00  0.00000000000E+00 -0.12643810933E+04  0.12643810933E+04  0.25500000920E-02 0. -1.
    10030    2    1    2    0    0  0.00000000000E+00  0.00000000000E+00 -0.47489651810E+03  0.20538656686E+04  0.19982085681E+04 0.  0.
        4    1    3    3  502    0 -0.91257212818E+02 -0.53846689482E+02 -0.12585887221E+04  0.12630417765E+04  0.12699999809E+01 0. -1.
       -4    1    3    3    0  502  0.91257212818E+02  0.53846689482E+02  0.78369220397E+03  0.79082389211E+03  0.12699999809E+01 0.  1.
</event>
<event>
 5   0  0.1258546E-04  0.1951418E+04  0.7818609E-02  0.8629677E-01
        1   -1    0    0  501    0  0.00000000000E+00  0.00000000000E+00  0.12531384063E+04  0.12531384063E+04  0.50400001928E-02 0.  1.
       -1   -1    0    0    0  501  0.00000000000E+00  0.00000000000E+00 -0.75969885843E+03  0.75969885844E+03  0.50400001928E-02 0. -1.
    10030    2    1    2    0    0  0.00000000000E+00  0.00000000000E+00  0.49343954789E+03  0.20128372648E+04  0.19514177582E+04 0.  0.
        4    1    3    3  502    0 -0.18026408036E+03 -0.58585691448E+03 -0.53630628930E+03  0.81446271354E+03  0.12699999809E+01 0. -1.
       -4    1    3    3    0  502  0.18026408036E+03  0.58585691448E+03  0.10297458372E+04  0.11983745512E+04  0.12699999809E+01 0.  1.
</event>
<event>
 5   0  0.2421737E-04  0.1409626E+04  0.7818609E-02  0.8946880E-01
        2   -1    0    0  501    0  0.00000000000E+00  0.00000000000E+00  0.11008107341E+04  0.11008107341E+04  0.25500000920E-02 0. -1.
       -2   -1    0    0    0  501  0.00000000000E+00  0.00000000000E+00 -0.45126879365E+03  0.45126879365E+03  0.25500000920E-02 0.  1.
    10030    2    1    2    0    0  0.00000000000E+00  0.00000000000E+00  0.64954194049E+03  0.15520795278E+04  0.14096262370E+04 0.  0.
        1    1    3    3  502    0 -0.14158025974E+03  0.92131662766E+01  0.10849247307E+04  0.10941624759E+04  0.50400001928E-02 0. -1.
       -1    1    3    3    0  502  0.14158025974E+03 -0.92131662766E+01 -0.43538279020E+03  0.45791705189E+03  0.50400001928E-02 0.  1.
</event>
<event>
 5   0  0.2488886E-04  0.2005192E+04  0.7818609E-02  0.8604197E-01
       -2   -1    0    0    0  501  0.00000000000E+00  0.00000000000E+00  0.79207319109E+03  0.79207319110E+03  0.25500000920E-02 0. -1.
        2   -1    0    0  501    0  0.00000000000E+00  0.00000000000E+00 -0.12690731468E+04  0.12690731468E+04  0.25500000920E-02 0.  1.
    10030    2    1    2    0    0  0.00000000000E+00  0.00000000000E+00 -0.47699995570E+03  0.20611463379E+04  0.20051920777E+04 0.  0.
        3    1    3    3  502    0  0.19811643442E+03  0.61250066003E+03 -0.10285780576E+04  0.12134166683E+04  0.10100000352E+00 0.  1.
       -3    1    3    3    0  502 -0.19811643442E+03 -0.61250066003E+03  0.55157810185E+03  0.84772966963E+03  0.10100000352E+00 0. -1.
</event>
<event>
 5   0  0.2488886E-04  0.1985067E+04  0.7818609E-02  0.8613634E-01
       -2   -1    0    0    0  501  0.00000000000E+00  0.00000000000E+00  0.82692144781E+03  0.82692144781E+03  0.25500000920E-02 0.  1.
        2   -1    0    0  501    0  0.00000000000E+00  0.00000000000E+00 -0.11913137763E+04  0.11913137763E+04  0.25500000920E-02 0. -1.
    10030    2    1    2    0    0  0.00000000000E+00  0.00000000000E+00 -0.36439232852E+03  0.20182352241E+04  0.19850671653E+04 0.  0.
        3    1    3    3  502    0 -0.77295203403E+03 -0.22885137074E+03 -0.77091805249E+03  0.11154113370E+04  0.10100000352E+00 0. -1.
       -3    1    3    3    0  502  0.77295203403E+03  0.22885137074E+03  0.40652572397E+03  0.90282388717E+03  0.10100000352E+00 0.  1.
</event>
<event>
 5   0  0.1210633E-04  0.2027879E+04  0.7818609E-02  0.8593696E-01
        1   -1    0    0  501    0  0.00000000000E+00  0.00000000000E+00  0.17996355990E+04  0.17996355990E+04  0.50400001928E-02 0.  1.
       -1   -1    0    0    0  501  0.00000000000E+00  0.00000000000E+00 -0.57126728803E+03  0.57126728805E+03  0.50400001928E-02 0. -1.
    10030    2    1    2    0    0  0.00000000000E+00  0.00000000000E+00  0.12283683109E+04  0.23709028870E+04  0.20278786434E+04 0.  0.
        2    1    3    3  502    0  0.28201706136E+03  0.40210184286E+02 -0.52351913538E+03  0.59600567693E+03  0.25500000920E-02 0. -1.
       -2    1    3    3    0  502 -0.28201706136E+03 -0.40210184286E+02  0.17518874463E+04  0.17748972101E+04  0.25500000920E-02 0.  1.
</event>
<event>
 5   0  0.2596061E-04  0.1972610E+04  0.7818609E-02  0.8619535E-01
       -2   -1    0    0    0  501  0.00000000000E+00  0.00000000000E+00  0.45888432865E+03  0.45888432866E+03  0.25500000920E-02 0. -1.
        2   -1    0    0  501    0  0.00000000000E+00  0.00000000000E+00 -0.21199184674E+04  0.21199184674E+04  0.25500000920E-02 0.  1.
    10030    2    1    2    0    0  0.00000000000E+00  0.00000000000E+00 -0.16610341388E+04  0.25788027961E+04  0.19726098071E+04 0.  0.
        5    1    3    3  502    0  0.45184146845E+03 -0.34317166840E+03  0.22415307889E+03  0.61007720772E+03  0.46999998093E+01 0. -1.
       -5    1    3    3    0  502 -0.45184146845E+03  0.34317166840E+03 -0.18851872177E+04  0.19687255884E+04  0.46999998093E+01 0.  1.
</event>
<event>
 5   0  0.2596061E-04  0.1983492E+04  0.7818609E-02  0.8614378E-01
       -2   -1    0    0    0  501  0.00000000000E+00  0.00000000000E+00  0.91520356989E+03  0.91520356990E+03  0.25500000920E-02 0. -1.
        2   -1    0    0  501    0  0.00000000000E+00  0.00000000000E+00 -0.10746899155E+04  0.10746899155E+04  0.25500000920E-02 0.  1.
    10030    2    1    2    0    0  0.00000000000E+00  0.00000000000E+00 -0.15948634557E+03  0.19898934854E+04  0.19834919180E+04 0.  0.
        5    1    3    3  502    0 -0.64833218115E+03 -0.67923407890E+03  0.24041750079E+03  0.96928644669E+03  0.46999998093E+01 0. -1.
       -5    1    3    3    0  502  0.64833218115E+03  0.67923407890E+03 -0.39990384636E+03  0.10206070387E+04  0.46999998093E+01 0.  1.
</event>
<event>
 5   0  0.2540506E-04  0.1659809E+04  0.7818609E-02  0.8784625E-01
       -2   -1    0    0    0  501  0.00000000000E+00  0.00000000000E+00  0.96888158104E+03  0.96888158104E+03  0.25500000920E-02 0. -1.
        2   -1    0    0  501    0  0.00000000000E+00  0.00000000000E+00 -0.71086212079E+03  0.71086212079E+03  0.25500000920E-02 0.  1.
    10030    2    1    2    0    0  0.00000000000E+00  0.00000000000E+00  0.25801946025E+03  0.16797437018E+04  0.16598086823E+04 0.  0.
        4    1    3    3  502    0  0.27971778785E+03  0.75546819211E+03 -0.72797869443E+02  0.80887290277E+03  0.12699999809E+01 0.  1.
       -4    1    3    3    0  502 -0.27971778785E+03 -0.75546819211E+03  0.33081732969E+03  0.87087079906E+03  0.12699999809E+01 0. -1.
</event>
<event>
 5   0  0.2540506E-04  0.1914044E+04  0.7818609E-02  0.8647897E-01
        2   -1    0    0  501    0  0.00000000000E+00  0.00000000000E+00  0.17976377413E+04  0.17976377413E+04  0.25500000920E-02 0.  1.
       -2   -1    0    0    0  501  0.00000000000E+00  0.00000000000E+00 -0.50949730461E+03  0.50949730462E+03  0.25500000920E-02 0. -1.
    10030    2    1    2    0    0  0.00000000000E+00  0.00000000000E+00  0.12881404367E+04  0.23071350460E+04  0.19140444968E+04 0.  0.
        4    1    3    3  502    0 -0.27889524768E+03  0.62738112548E+03 -0.15956143223E+03  0.70487665542E+03  0.12699999809E+01 0. -1.
       -4    1    3    3    0  502  0.27889524768E+03 -0.62738112548E+03  0.14477018690E+04  0.16022583906E+04  0.12699999809E+01 0.  1.
</event>
<event>
 5   0  0.1210633E-04  0.2027991E+04  0.7818609E-02  0.8593645E-01
       -1   -1    0    0    0  501  0.00000000000E+00  0.00000000000E+00  0.96062842550E+03  0.96062842552E+03  0.50400001928E-02 0.  1.
        1   -1    0    0  501    0  0.00000000000E+00  0.00000000000E+00 -0.10703271819E+04  0.10703271819E+04  0.50400001928E-02 0. -1.
    10030    2    1    2    0    0  0.00000000000E+00  0.00000000000E+00 -0.10969875642E+03  0.20309556075E+04  0.20279908437E+04 0.  0.
        2    1    3    3  502    0  0.67908628365E+03  0.78107345244E+02 -0.80489540432E+03  0.10559903172E+04  0.25500000920E-02 0. -1.
       -2    1    3    3    0  502 -0.67908628365E+03 -0.78107345244E+02  0.69519664790E+03  0.97496529030E+03  0.25500000920E-02 0.  1.
</event>
<event>
 5   0  0.2488886E-04  0.2001643E+04  0.7818609E-02  0.8605853E-01
       -2   -1    0    0    0  501  0.00000000000E+00  0.00000000000E+00  0.55349296856E+03  0.55349296856E+03  0.25500000920E-02 0.  1.
        2   -1    0    0  501    0  0.00000000000E+00  0.00000000000E+00 -0.18096778962E+04  0.18096778962E+04  0.25500000920E-02 0. -1.
    10030    2    1    2    0    0  0.00000000000E+00  0.00000000000E+00 -0.12561849276E+04  0.23631708648E+04  0.20016433158E+04 0.  0.
        3    1    3    3  502    0 -0.85027005292E+03 -0.30623218029E+03 -0.11357662291E+04  0.14514483279E+04  0.10100000352E+00 0. -1.
       -3    1    3    3    0  502  0.85027005292E+03  0.30623218029E+03 -0.12041869857E+03  0.91172253691E+03  0.10100000352E+00 0.  1.
</event>
<event>
 5   0  0.1258546E-04  0.2040041E+04  0.7818609E-02  0.8588126E-01
        1   -1    0    0  501    0  0.00000000000E+00  0.00000000000E+00  0.10035859134E+04  0.10035859135E+04  0.50400001928E-02 0.  1.
       -1   -1    0    0    0  501  0.00000000000E+00  0.00000000000E+00 -0.10367244447E+04  0.10367244447E+04  0.50400001928E-02 0. -1.
    10030    2    1    2    0    0  0.00000000000E+00  0.00000000000E+00 -0.33138531244E+02  0.20403103582E+04  0.20400412239E+04 0.  0.
        4    1    3    3  502    0  0.84316384142E+03  0.27140457832E+03  0.48931831033E+03  0.10119386001E+04  0.12699999809E+01 0.  1.
       -4    1    3    3    0  502 -0.84316384142E+03 -0.27140457832E+03 -0.52245684158E+03  0.10283717581E+04  0.12699999809E+01 0. -1.
</event>
<event>
 5   0  0.2421737E-04  0.2036777E+04  0.7818609E-02  0.8589617E-01
        2   -1    0    0  501    0  0.00000000000E+00  0.00000000000E+00  0.19520994736E+04  0.19520994736E+04  0.25500000920E-02 0.  1.
       -2   -1    0    0    0  501  0.00000000000E+00  0.00000000000E+00 -0.53128185138E+03  0.53128185138E+03  0.25500000920E-02 0. -1.
    10030    2    1    2    0    0  0.00000000000E+00  0.00000000000E+00  0.14208176222E+04  0.24833813249E+04  0.20367768875E+04 0.  0.
        1    1    3    3  502    0  0.86011609227E+03 -0.45627251363E+02  0.13729040456E+04  0.16207242383E+04  0.50400001928E-02 0.  1.
       -1    1    3    3    0  502 -0.86011609227E+03  0.45627251363E+02  0.47913576577E+02  0.86265708662E+03  0.50400001928E-02 0. -1.
</event>
<event>
 5   0  0.2463085E-04  0.1793908E+04  0.7818609E-02  0.8709546E-01
       -2   -1    0    0    0  501  0.00000000000E+00  0.00000000000E+00  0.11818265180E+04  0.11818265180E+04  0.25500000920E-02 0. -1.
        2   -1    0    0  501    0  0.00000000000E+00  0.00000000000E+00 -0.68074806215E+03  0.68074806215E+03  0.25500000920E-02 0.  1.
    10030    2    1    2    0    0  0.00000000000E+00  0.00000000000E+00  0.50107845581E+03  0.18625745801E+04  0.17939075917E+04 0.  0.
        2    1    3    3  502    0 -0.16464769002E+03  0.30044498056E+03  0.11112146462E+04  0.11628301846E+04  0.25500000920E-02 0. -1.
       -2    1    3    3    0  502  0.16464769002E+03 -0.30044498056E+03 -0.61013619043E+03  0.69974439552E+03  0.25500000920E-02 0.  1.
</event>
<event>
 5   0  0.1258546E-04  0.2025000E+04  0.7818609E-02  0.8595021E-01
       -1   -1    0    0    0  501  0.00000000000E+00  0.00000000000E+00  0.12857657291E+04  0.12857657291E+04  0.50400001928E-02 0.  1.
        1   -1    0    0  501    0  0.00000000000E+00  0.00000000000E+00 -0.79731160431E+03  0.79731160433E+03  0.50400001928E-02 0. -1.
    10030    2    1    2    0    0  0.00000000000E+00  0.00000000000E+00  0.48845412475E+03  0.20830773334E+04  0.20249996901E+04 0.  0.
        4    1    3    3  502    0 -0.86177564153E+03 -0.44999993845E+02  0.78901218641E+03  0.11692835836E+04  0.12699999809E+01 0.  1.
       -4    1    3    3    0  502  0.86177564153E+03  0.44999993845E+02 -0.30055806166E+03  0.91379374976E+03  0.12699999809E+01 0. -1.
</event>
<event>
 5   0  0.1210633E-04  0.2014790E+04  0.7818609E-02  0.8599737E-01
        1   -1    0    0  501    0  0.00000000000E+00  0.00000000000E+00  0.80808155699E+03  0.80808155700E+03  0.50400001928E-02 0. -1.
       -1   -1    0    0    0  501  0.00000000000E+00  0.00000000000E+00 -0.12558694764E+04  0.12558694765E+04  0.50400001928E-02 0.  1.
    10030    2    1    2    0    0  0.00000000000E+00  0.00000000000E+00 -0.44778791946E+03  0.20639510335E+04  0.20147902739E+04 0.  0.
        2    1    3    3  502    0  0.44402729458E+03 -0.71613234787E+03 -0.78948814904E+03  0.11546849421E+04  0.25500000920E-02 0.  1.
       -2    1    3    3    0  502 -0.44402729458E+03  0.71613234787E+03  0.34170022958E+03  0.90926609137E+03  0.25500000920E-02 0. -1.
</event>
<event>
 5   0  0.2540506E-04  0.1935326E+04  0.7818609E-02  0.8637470E-01
        2   -1    0    0  501    0  0.00000000000E+00  0.00000000000E+00  0.22372063288E+04  0.22372063288E+04  0.25500000920E-02 0.  1.
       -2   -1    0    0    0  501  0.00000000000E+00  0.00000000000E+00 -0.41854488103E+03  0.41854488104E+03  0.25500000920E-02 0. -1.
    10030    2    1    2    0    0  0.00000000000E+00  0.00000000000E+00  0.18186614477E+04  0.26557512098E+04  0.19353255610E+04 0.  0.
        4    1    3    3  502    0 -0.17295088221E+03 -0.40147779171E+03  0.20939835996E+04  0.21391272410E+04  0.12699999809E+01 0.  1.
       -4    1    3    3    0  502  0.17295088221E+03  0.40147779171E+03 -0.27532215189E+03  0.51662396878E+03  0.12699999809E+01 0. -1.
</event>
<event>
 5   0  0.2540506E-04  0.1979936E+04  0.7818609E-02  0.8616059E-01
       -2   -1    0    0    0  501  0.00000000000E+00  0.00000000000E+00  0.62316176830E+03  0.62316176831E+03  0.25500000920E-02 0. -1.
        2   -1    0    0  501    0  0.00000000000E+00  0.00000000000E+00 -0.15726844075E+04  0.15726844075E+04  0.25500000920E-02 0.  1.
    10030    2    1    2    0    0  0.00000000000E+00  0.00000000000E+00 -0.94952263924E+03  0.21958461759E+04  0.19799361569E+04 0.  0.
        4    1    3    3  502    0 -0.21178165985E+03 -0.92310012999E+03 -0.79440967296E+03  0.12361446771E+04  0.12699999809E+01 0.  1.
       -4    1    3    3    0  502  0.21178165985E+03  0.92310012999E+03 -0.15511296629E+03  0.95970149872E+03  0.12699999809E+01 0. -1.
</event>
<event>
 5   0  0.1258546E-04  0.2005545E+04  0.7818609E-02  0.8604032E-01
       -1   -1    0    0    0  501  0.00000000000E+00  0.00000000000E+00  0.50145812264E+03  0.50145812267E+03  0.50400001928E-02 0. -1.
        1   -1    0    0  501    0  0.00000000000E+00  0.00000000000E+00 -0.20052583244E+04  0.20052583244E+04  0.50400001928E-02 0.  1.
    10030    2    1    2    0    0  0.00000000000E+00  0.00000000000E+00 -0.15038002017E+04  0.25067164470E+04  0.20055453870E+04 0.  0.
        4    1    3    3  502    0  0.68384298667E+03  0.10318052528E+03 -0.16594839945E+04  0.17978254064E+04  0.12699999809E+01 0.  1.
       -4    1    3    3    0  502 -0.68384298667E+03 -0.10318052528E+03  0.15568379276E+03  0.70889104060E+03  0.12699999809E+01 0. -1.
</event>
<event>
 5   0  0.1210633E-04  0.1978593E+04  0.7818609E-02  0.8616695E-01
       -1   -1    0    0    0  501  0.00000000000E+00  0.00000000000E+00  0.18822863527E+04  0.18822863527E+04  0.50400001928E-02 0.  1.
        1   -1    0    0  501    0  0.00000000000E+00  0.00000000000E+00 -0.51995697801E+03  0.51995697803E+03  0.50400001928E-02 0. -1.
    10030    2    1    2    0    0  0.00000000000E+00  0.00000000000E+00  0.13623293747E+04  0.24022433307E+04  0.19785933627E+04 0.  0.
        2    1    3    3  502    0  0.79767415689E+03 -0.52644807426E+03  0.37096727243E+03  0.10252064927E+04  0.25500000920E-02 0.  1.
       -2    1    3    3    0  502 -0.79767415689E+03  0.52644807426E+03  0.99136210222E+03  0.13770368380E+04  0.25500000920E-02 0. -1.
</event>
<event>
 5   0  0.2596061E-04  0.2007802E+04  0.7818609E-02  0.8602982E-01
       -2   -1    0    0    0  501  0.00000000000E+00  0.00000000000E+00  0.64723000305E+03  0.64723000306E+03  0.25500000920E-02 0.  1.
        2   -1    0    0  501    0  0.00000000000E+00  0.00000000000E+00 -0.15571235700E+04  0.15571235700E+04  0.25500000920E-02 0. -1.
    10030    2    1    2    0    0  0.00000000000E+00  0.00000000000E+00 -0.90989356699E+03  0.22043535731E+04  0.20078018757E+04 0.  0.
        5    1    3    3  502    0 -0.73422988083E+03 -0.68451141867E+03 -0.46819462929E+03  0.11076451151E+04  0.46999998093E+01 0.  1.
       -5    1    3    3    0  502  0.73422988083E+03  0.68451141867E+03 -0.44169893770E+03  0.10967084580E+04  0.46999998093E+01 0. -1.
</event>
<event>
 5   0  0.2596061E-04  0.1933984E+04  0.7818609E-02  0.8638123E-01
       -2   -1    0    0    0  501  0.00000000000E+00  0.00000000000E+00  0.46554365237E+03  0.46554365238E+03  0.25500000920E-02 0.  1.
        2   -1    0    0  501    0  0.00000000000E+00  0.00000000000E+00 -0.20085625065E+04  0.20085625065E+04  0.25500000920E-02 0. -1.
    10030    2    1    2    0    0  0.00000000000E+00  0.00000000000E+00 -0.15430188541E+04  0.24741061589E+04  0.19339839971E+04 0.  0.
        5    1    3    3  502    0  0.11075681960E+03 -0.76705484505E+03 -0.15112950362E+04  0.16984330969E+04  0.46999998093E+01 0. -1.
       -5    1    3    3    0  502 -0.11075681960E+03  0.76705484505E+03 -0.31723817964E+02  0.77567306195E+03  0.46999998093E+01 0.  1.
</event>
<event>
 5   0  0.1324930E-04  0.1989488E+04  0.7818609E-02  0.8611551E-01
        1   -1    0    0  501    0  0.00000000000E+00  0.00000000000E+00  0.12086878647E+04  0.12086878647E+04  0.50400001928E-02 0.  1.
       -1   -1    0    0    0  501  0.00000000000E+00  0.00000000000E+00 -0.81866956824E+03  0.81866956825E+03  0.50400001928E-02 0. -1.
    10030    2    1    2    0    0  0.00000000000E+00  0.00000000000E+00  0.39001829644E+03  0.20273574329E+04  0.19894883486E+04 0.  0.
        5    1    3    3  502    0  0.62550891729E+03  0.59757514770E+03  0.69541263561E+03  0.11099451728E+04  0.46999998093E+01 0.  1.
       -5    1    3    3    0  502 -0.62550891729E+03 -0.59757514770E+03 -0.30539433917E+03  0.91741226019E+03  0.46999998093E+01 0. -1.
</event>
<event>
 5   0  0.2463085E-04  0.2086250E+04  0.7818609E-02  0.8567325E-01
       -2   -1    0    0    0  501  0.00000000000E+00  0.00000000000E+00  0.36496512484E+03  0.36496512485E+03  0.25500000920E-02 0.  1.
        2   -1    0    0  501    0  0.00000000000E+00  0.00000000000E+00 -0.29814082208E+04  0.29814082208E+04  0.25500000920E-02 0. -1.
    10030    2    1    2    0    0  0.00000000000E+00  0.00000000000E+00 -0.26164430960E+04  0.33463733456E+04  0.20862502472E+04 0.  0.
        2    1    3    3  502    0  0.50615349999E+01  0.88966867892E+03 -0.43469810987E+03  0.99020120386E+03  0.25500000920E-02 0.  1.
       -2    1    3    3    0  502 -0.50615349999E+01 -0.88966867892E+03 -0.21817449861E+04  0.23561721418E+04  0.25500000920E-02 0. -1.
</event>
<event>
 5   0  0.1258546E-04  0.2213149E+04  0.7818609E-02  0.8512975E-01
        1   -1    0    0  501    0  0.00000000000E+00  0.00000000000E+00  0.97126898402E+03  0.97126898403E+03  0.50400001928E-02 0. -1.
       -1   -1    0    0    0  501  0.00000000000E+00  0.00000000000E+00 -0.12607292965E+04  0.12607292965E+04  0.50400001928E-02 0.  1.
    10030    2    1    2    0    0  0.00000000000E+00  0.00000000000E+00 -0.28946031246E+03  0.22319982805E+04  0.22131491255E+04 0.  0.
        4    1    3    3  502    0 -0.55307980269E+02  0.97428444299E+03 -0.67091750425E+03  0.11842385988E+04  0.12699999809E+01 0.  1.
       -4    1    3    3    0  502  0.55307980269E+02 -0.97428444299E+03  0.38145719179E+03  0.10477596817E+04  0.12699999809E+01 0. -1.
</event>
<event>
 5   0  0.2488886E-04  0.1747847E+04  0.7818609E-02  0.8734536E-01
       -2   -1    0    0    0  501  0.00000000000E+00  0.00000000000E+00  0.49154712348E+03  0.49154712349E+03  0.25500000920E-02 0.  1.
        2   -1    0    0  501    0  0.00000000000E+00  0.00000000000E+00 -0.15537521832E+04  0.15537521832E+04  0.25500000920E-02 0. -1.
    10030    2    1    2    0    0  0.00000000000E+00  0.00000000000E+00 -0.10622050597E+04  0.20452993066E+04  0.17478471515E+04 0.  0.
        3    1    3    3  502    0 -0.50874245215E+03 -0.20564815681E+03 -0.13270262051E+04  0.14360043893E+04  0.10100000352E+00 0. -1.
       -3    1    3    3    0  502  0.50874245215E+03  0.20564815681E+03  0.26482114539E+03  0.60929491732E+03  0.10100000352E+00 0.  1.
</event>
<event>
 5   0  0.2596061E-04  0.2003387E+04  0.7818609E-02  0.8605039E-01
       -2   -1    0    0    0  501  0.00000000000E+00  0.00000000000E+00  0.43513480749E+03  0.43513480750E+03  0.25500000920E-02 0. -1.
        2   -1    0    0  501    0  0.00000000000E+00  0.00000000000E+00 -0.23059287469E+04  0.23059287469E+04  0.25500000920E-02 0.  1.
    10030    2    1    2    0    0  0.00000000000E+00  0.00000000000E+00 -0.18707939394E+04  0.27410635544E+04  0.20033869935E+04 0.  0.
        5    1    3    3  502    0 -0.90360418245E+03  0.25322859499E+03 -0.14147459341E+04  0.16976906043E+04  0.46999998093E+01 0.  1.
       -5    1    3    3    0  502  0.90360418245E+03 -0.25322859499E+03 -0.45604800531E+03  0.10433729501E+04  0.46999998093E+01 0. -1.
</event>
<event>
 5   0  0.2463085E-04  0.2604709E+04  0.7818609E-02  0.8366603E-01
        2   -1    0    0  501    0  0.00000000000E+00  0.00000000000E+00  0.10914722425E+04  0.10914722425E+04  0.25500000920E-02 0. -1.
       -2   -1    0    0    0  501  0.00000000000E+00  0.00000000000E+00 -0.15539814629E+04  0.15539814629E+04  0.25500000920E-02 0.  1.
    10030    2    1    2    0    0  0.00000000000E+00  0.00000000000E+00 -0.46250922043E+03  0.26454537054E+04  0.26047092982E+04 0.  0.
        2    1    3    3  502    0  0.81303110017E+03  0.35371036030E+03 -0.12001143202E+04  0.14921142618E+04  0.25500000920E-02 0.  1.
       -2    1    3    3    0  502 -0.81303110017E+03 -0.35371036030E+03  0.73760509977E+03  0.11533394435E+04  0.25500000920E-02 0. -1.
</event>
<event>
 5   0  0.1231056E-04  0.1984353E+04  0.7818609E-02  0.8613971E-01
        1   -1    0    0  501    0  0.00000000000E+00  0.00000000000E+00  0.11133879603E+04  0.11133879603E+04  0.50400001928E-02 0. -1.
       -1   -1    0    0    0  501  0.00000000000E+00  0.00000000000E+00 -0.88416097277E+03  0.88416097278E+03  0.50400001928E-02 0.  1.
    10030    2    1    2    0    0  0.00000000000E+00  0.00000000000E+00  0.22922698753E+03  0.19975489331E+04  0.19843529747E+04 0.  0.
        3    1    3    3  502    0  0.63460697358E+03 -0.68922422233E+03  0.44337085621E+03  0.10365007313E+04  0.10100000352E+00 0. -1.
       -3    1    3    3    0  502 -0.63460697358E+03  0.68922422233E+03 -0.21414386868E+03  0.96104820184E+03  0.10100000352E+00 0.  1.
</event>
<event>
 5   0  0.2463085E-04  0.2005217E+04  0.7818609E-02  0.8604186E-01
       -2   -1    0    0    0  501  0.00000000000E+00  0.00000000000E+00  0.11794466582E+04  0.11794466582E+04  0.25500000920E-02 0.  1.
        2   -1    0    0  501    0  0.00000000000E+00  0.00000000000E+00 -0.85228387960E+03  0.85228387960E+03  0.25500000920E-02 0. -1.
    10030    2    1    2    0    0  0.00000000000E+00  0.00000000000E+00  0.32716277864E+03  0.20317305378E+04  0.20052165705E+04 0.  0.
        2    1    3    3  502    0  0.69674431135E+01 -0.41095175090E+03 -0.76300129648E+03  0.86666075559E+03  0.25500000920E-02 0. -1.
       -2    1    3    3    0  502 -0.69674431135E+01  0.41095175090E+03  0.10901640751E+04  0.11650697823E+04  0.25500000920E-02 0.  1.
</event>
<event>
 5   0  0.1324930E-04  0.1994806E+04  0.7818609E-02  0.8609053E-01
        1   -1    0    0  501    0  0.00000000000E+00  0.00000000000E+00  0.26656497618E+04  0.26656497618E+04  0.50400001928E-02 0. -1.
       -1   -1    0    0    0  501  0.00000000000E+00  0.00000000000E+00 -0.37319698743E+03  0.37319698747E+03  0.50400001928E-02 0.  1.
    10030    2    1    2    0    0  0.00000000000E+00  0.00000000000E+00  0.22924527744E+04  0.30388467493E+04  0.19948057156E+04 0.  0.
        5    1    3    3  502    0  0.12856249008E+03  0.91389549138E+01 -0.36044055522E+03  0.38282021655E+03  0.46999998093E+01 0.  1.
       -5    1    3    3    0  502 -0.12856249008E+03 -0.91389549138E+01  0.26528933296E+04  0.26560265327E+04  0.46999998093E+01 0. -1.
</event>
<event>
 5   0  0.1258546E-04  0.1961658E+04  0.7818609E-02  0.8624759E-01
       -1   -1    0    0    0  501  0.00000000000E+00  0.00000000000E+00  0.19065770848E+04  0.19065770848E+04  0.50400001928E-02 0.  1.
        1   -1    0    0  501    0  0.00000000000E+00  0.00000000000E+00 -0.50458270424E+03  0.50458270427E+03  0.50400001928E-02 0. -1.
    10030    2    1    2    0    0  0.00000000000E+00  0.00000000000E+00  0.14019943805E+04  0.24111597890E+04  0.19616582998E+04 0.  0.
        4    1    3    3  502    0  0.37476474179E+03 -0.75977400467E+03  0.93448197358E+02  0.85231410193E+03  0.12699999809E+01 0. -1.
       -4    1    3    3    0  502 -0.37476474179E+03  0.75977400467E+03  0.13085461832E+04  0.15588456871E+04  0.12699999809E+01 0.  1.
</event>
<event>
 5   0  0.2488886E-04  0.1965884E+04  0.7818609E-02  0.8622739E-01
       -2   -1    0    0    0  501  0.00000000000E+00  0.00000000000E+00  0.77938308455E+03  0.77938308456E+03  0.25500000920E-02 0.  1.
        2   -1    0    0  501    0  0.00000000000E+00  0.00000000000E+00 -0.12396663180E+04  0.12396663180E+04  0.25500000920E-02 0. -1.
    10030    2    1    2    0    0  0.00000000000E+00  0.00000000000E+00 -0.46028323348E+03  0.20190494026E+04  0.19658839831E+04 0.  0.
        3    1    3    3  502    0 -0.75246520835E+03  0.49054938938E+03  0.17981797251E+03  0.91606610385E+03  0.10100000352E+00 0.  1.
       -3    1    3    3    0  502  0.75246520835E+03 -0.49054938938E+03 -0.64010120599E+03  0.11029832987E+04  0.10100000352E+00 0. -1.
</event>
<event>
 5   0  0.1231056E-04  0.1987867E+04  0.7818609E-02  0.8612315E-01
       -1   -1    0    0    0  501  0.00000000000E+00  0.00000000000E+00  0.88906073442E+03  0.88906073443E+03  0.50400001928E-02 0.  1.
        1   -1    0    0  501    0  0.00000000000E+00  0.00000000000E+00 -0.11111764838E+04  0.11111764838E+04  0.50400001928E-02 0. -1.
    10030    2    1    2    0    0  0.00000000000E+00  0.00000000000E+00 -0.22211574938E+03  0.20002372182E+04  0.19878665758E+04 0.  0.
        3    1    3    3  502    0  0.20373672129E+03  0.45514098831E+03  0.75408415827E+03  0.90404916835E+03  0.10100000352E+00 0.  1.
       -3    1    3    3    0  502 -0.20373672129E+03 -0.45514098831E+03 -0.97619990765E+03  0.10961880499E+04  0.10100000352E+00 0. -1.
</event>
<event>
 5   0  0.1210633E-04  0.1932774E+04  0.7818609E-02  0.8638713E-01
        1   -1    0    0  501    0  0.00000000000E+00  0.00000000000E+00  0.14814110109E+04  0.14814110109E+04  0.50400001928E-02 0.  1.
       -1   -1    0    0    0  501  0.00000000000E+00  0.00000000000E+00 -0.63041498889E+03  0.63041498891E+03  0.50400001928E-02 0. -1.
    10030    2    1    2    0    0  0.00000000000E+00  0.00000000000E+00  0.85099602199E+03  0.21118259998E+04  0.19327738678E+04 0.  0.
        2    1    3    3  502    0  0.52581176200E+03  0.79519169638E+03  0.59859047268E+03  0.11256635363E+04  0.25500000920E-02 0.  1.
       -2    1    3    3    0  502 -0.52581176200E+03 -0.79519169638E+03  0.25240554931E+03  0.98616246348E+03  0.25500000920E-02 0. -1.
</event>
<event>
 5   0  0.1210633E-04  0.1990942E+04  0.7818609E-02  0.8610867E-01
       -1   -1    0    0    0  501  0.00000000000E+00  0.00000000000E+00  0.87863712139E+03  0.87863712141E+03  0.50400001928E-02 0.  1.
        1   -1    0    0  501    0  0.00000000000E+00  0.00000000000E+00 -0.11278407020E+04  0.11278407020E+04  0.50400001928E-02 0. -1.
    10030    2    1    2    0    0  0.00000000000E+00  0.00000000000E+00 -0.24920358061E+03  0.20064778234E+04  0.19909421969E+04 0.  0.
        2    1    3    3  502    0 -0.95127514035E+02 -0.80775711108E+03 -0.70305087549E+03  0.10750820099E+04  0.25500000920E-02 0. -1.
       -2    1    3    3    0  502  0.95127514035E+02  0.80775711108E+03  0.45384729488E+03  0.93139581355E+03  0.25500000920E-02 0.  1.
</event>
<event>
 5   0  0.2540506E-04  0.2008778E+04  0.7818609E-02  0.8602528E-01
        2   -1    0    0  501    0  0.00000000000E+00  0.00000000000E+00  0.27636811059E+04  0.27636811059E+04  0.25500000920E-02 0. -1.
       -2   -1    0    0    0  501  0.00000000000E+00  0.00000000000E+00 -0.36501943181E+03  0.36501943182E+03  0.25500000920E-02 0.  1.
    10030    2    1    2    0    0  0.00000000000E+00  0.00000000000E+00  0.23986616741E+04  0.31287005377E+04  0.20087780435E+04 0.  0.
        4    1    3    3  502    0  0.32581694384E+03 -0.44361150487E+03  0.25078726088E+04  0.25675619725E+04  0.12699999809E+01 0. -1.
       -4    1    3    3    0  502 -0.32581694384E+03  0.44361150487E+03 -0.10921093470E+03  0.56113856516E+03  0.12699999809E+01 0.  1.
</event>
<event>
 5   0  0.1258546E-04  0.1960242E+04  0.7818609E-02  0.8625438E-01
       -1   -1    0    0    0  501  0.00000000000E+00  0.00000000000E+00  0.98108095068E+03  0.98108095069E+03  0.50400001928E-02 0. -1.
        1   -1    0    0  501    0  0.00000000000E+00  0.00000000000E+00 -0.97916217394E+03  0.97916217396E+03  0.50400001928E-02 0.  1.
    10030    2    1    2    0    0  0.00000000000E+00  0.00000000000E+00  0.19187767323E+01  0.19602431246E+04  0.19602421856E+04 0.  0.
        4    1    3    3  502    0  0.37574095448E+03  0.23653473004E+03 -0.87282921980E+03  0.97926625758E+03  0.12699999809E+01 0.  1.
       -4    1    3    3    0  502 -0.37574095448E+03 -0.23653473004E+03  0.87474799653E+03  0.98097686707E+03  0.12699999809E+01 0. -1.
</event>
<event>
 5   0  0.1207228E-04  0.1994620E+04  0.7818609E-02  0.8609140E-01
        1   -1    0    0  501    0  0.00000000000E+00  0.00000000000E+00  0.13931628725E+04  0.13931628725E+04  0.50400001928E-02 0.  1.
       -1   -1    0    0    0  501  0.00000000000E+00  0.00000000000E+00 -0.71393467875E+03  0.71393467876E+03  0.50400001928E-02 0. -1.
    10030    2    1    2    0    0  0.00000000000E+00  0.00000000000E+00  0.67922819376E+03  0.21070975513E+04  0.19946200519E+04 0.  0.
        1    1    3    3  502    0  0.44031099997E+03 -0.70057047638E+02 -0.60279365540E+03  0.74976126709E+03  0.50400001928E-02 0. -1.
       -1    1    3    3    0  502 -0.44031099997E+03  0.70057047638E+02  0.12820218492E+04  0.13573362842E+04  0.50400001928E-02 0.  1.
</event>
<event>
 5   0  0.2596061E-04  0.2042823E+04  0.7818609E-02  0.8586857E-01
       -2   -1    0    0    0  501  0.00000000000E+00  0.00000000000E+00  0.43535376826E+03  0.43535376827E+03  0.25500000920E-02 0.  1.
        2   -1    0    0  501    0  0.00000000000E+00  0.00000000000E+00 -0.23963997870E+04  0.23963997870E+04  0.25500000920E-02 0. -1.
    10030    2    1    2    0    0  0.00000000000E+00  0.00000000000E+00 -0.19610460188E+04  0.28317535553E+04  0.20428232205E+04 0.  0.
        5    1    3    3  502    0 -0.11475865952E+03  0.93845895958E+02 -0.23813926292E+04  0.23860070298E+04  0.46999998093E+01 0. -1.
       -5    1    3    3    0  502  0.11475865952E+03 -0.93845895958E+02  0.42034661039E+03  0.44574652549E+03  0.46999998093E+01 0.  1.
</event>
<event>
 5   0  0.2421737E-04  0.2045351E+04  0.7818609E-02  0.8585706E-01
       -2   -1    0    0    0  501  0.00000000000E+00  0.00000000000E+00  0.58142816526E+03  0.58142816527E+03  0.25500000920E-02 0. -1.
        2   -1    0    0  501    0  0.00000000000E+00  0.00000000000E+00 -0.17987859961E+04  0.17987859961E+04  0.25500000920E-02 0.  1.
    10030    2    1    2    0    0  0.00000000000E+00  0.00000000000E+00 -0.12173578308E+04  0.23802141614E+04  0.20453506706E+04 0.  0.
        1    1    3    3  502    0 -0.85545509370E+02 -0.20427104001E+03  0.55318873869E+03  0.59587118793E+03  0.50400001928E-02 0. -1.
       -1    1    3    3    0  502  0.85545509370E+02  0.20427104001E+03 -0.17705465695E+04  0.17843429734E+04  0.50400001928E-02 0.  1.
</event>
<event>
 5   0  0.2421737E-04  0.1899189E+04  0.7818609E-02  0.8655260E-01
       -2   -1    0    0    0  501  0.00000000000E+00  0.00000000000E+00  0.81552504845E+03  0.81552504845E+03  0.25500000920E-02 0. -1.
        2   -1    0    0  501    0  0.00000000000E+00  0.00000000000E+00 -0.11057049395E+04  0.11057049395E+04  0.25500000920E-02 0.  1.
    10030    2    1    2    0    0  0.00000000000E+00  0.00000000000E+00 -0.29017989109E+03  0.19212299880E+04  0.18991893791E+04 0.  0.
        1    1    3    3  502    0  0.59901419664E+03 -0.49645398344E+03 -0.69587674304E+03  0.10438050618E+04  0.50400001928E-02 0.  1.
       -1    1    3    3    0  502 -0.59901419664E+03  0.49645398344E+03  0.40569685195E+03  0.87742492622E+03  0.50400001928E-02 0. -1.
</event>
<event>
 5   0  0.1231056E-04  0.2047128E+04  0.7818609E-02  0.8584898E-01
       -1   -1    0    0    0  501  0.00000000000E+00  0.00000000000E+00  0.10739756557E+04  0.10739756557E+04  0.50400001928E-02 0.  1.
        1   -1    0    0  501    0  0.00000000000E+00  0.00000000000E+00 -0.97551868843E+03  0.97551868844E+03  0.50400001928E-02 0. -1.
    10030    2    1    2    0    0  0.00000000000E+00  0.00000000000E+00  0.98456967283E+02  0.20494943442E+04  0.20471280596E+04 0.  0.
        3    1    3    3  502    0  0.72853283539E+03 -0.31417015365E+03  0.69667557765E+03  0.10558502964E+04  0.10100000352E+00 0.  1.
       -3    1    3    3    0  502 -0.72853283539E+03  0.31417015365E+03 -0.59821861036E+03  0.99364404777E+03  0.10100000352E+00 0. -1.
</event>
<event>
 5   0  0.2596061E-04  0.1995694E+04  0.7818609E-02  0.8608637E-01
        2   -1    0    0  501    0  0.00000000000E+00  0.00000000000E+00  0.14795324487E+04  0.14795324487E+04  0.25500000920E-02 0.  1.
       -2   -1    0    0    0  501  0.00000000000E+00  0.00000000000E+00 -0.67298172147E+03  0.67298172147E+03  0.25500000920E-02 0. -1.
    10030    2    1    2    0    0  0.00000000000E+00  0.00000000000E+00  0.80655072726E+03  0.21525141702E+04  0.19956936582E+04 0.  0.
        5    1    3    3  502    0  0.69938782105E+03 -0.46799432764E+03  0.98161343623E+03  0.12929613463E+04  0.46999998093E+01 0.  1.
       -5    1    3    3    0  502 -0.69938782105E+03  0.46799432764E+03 -0.17506270897E+03  0.85955282386E+03  0.46999998093E+01 0. -1.
</event>
<event>
 5   0  0.2463085E-04  0.1884410E+04  0.7818609E-02  0.8662655E-01
        2   -1    0    0  501    0  0.00000000000E+00  0.00000000000E+00  0.16306142973E+04  0.16306142973E+04  0.25500000920E-02 0.  1.
       -2   -1    0    0    0  501  0.00000000000E+00  0.00000000000E+00 -0.54442710702E+03  0.54442710702E+03  0.25500000920E-02 0. -1.
    10030    2    1    2    0    0  0.00000000000E+00  0.00000000000E+00  0.10861871903E+04  0.21750414044E+04  0.18844103848E+04 0.  0.
        2    1    3    3  502    0  0.42133519491E+03 -0.41291071389E+03 -0.30487766217E+03  0.66405496234E+03  0.25500000920E-02 0. -1.
       -2    1    3    3    0  502 -0.42133519491E+03  0.41291071389E+03  0.13910648525E+04  0.15109864420E+04  0.25500000920E-02 0.  1.
</event>
<event>
 5   0  0.1324930E-04  0.1975881E+04  0.7818609E-02  0.8617981E-01
       -1   -1    0    0    0  501  0.00000000000E+00  0.00000000000E+00  0.65444201103E+03  0.65444201105E+03  0.50400001928E-02 0.  1.
        1   -1    0    0  501    0  0.00000000000E+00  0.00000000000E+00 -0.14913877291E+04  0.14913877292E+04  0.50400001928E-02 0. -1.
    10030    2    1    2    0    0  0.00000000000E+00  0.00000000000E+00 -0.83694571812E+03  0.21458297402E+04  0.19758813575E+04 0.  0.
        5    1    3    3  502    0  0.32835567841E+03 -0.12688488275E+03 -0.14209546339E+04  0.14639164548E+04  0.46999998093E+01 0. -1.
       -5    1    3    3    0  502 -0.32835567841E+03  0.12688488275E+03  0.58400891583E+03  0.68191328538E+03  0.46999998093E+01 0.  1.
</event>
<event>
 5   0  0.2421737E-04  0.2009643E+04  0.7818609E-02  0.8602125E-01
        2   -1    0    0  501    0  0.00000000000E+00  0.00000000000E+00  0.20160230894E+04  0.20160230894E+04  0.25500000920E-02 0. -1.
       -2   -1    0    0    0  501  0.00000000000E+00  0.00000000000E+00 -0.50082090883E+03  0.50082090884E+03  0.25500000920E-02 0.  1.
    10030    2    1    2    0    0  0.00000000000E+00  0.00000000000E+00  0.15152021806E+04  0.25168439982E+04  0.20096432677E+04 0.  0.
        1    1    3    3  502    0  0.66481440127E+03  0.70861560893E+03  0.43695118591E+03  0.10653828459E+04  0.50400001928E-02 0. -1.
       -1    1    3    3    0  502 -0.66481440127E+03 -0.70861560893E+03  0.10782509947E+04  0.14514611524E+04  0.50400001928E-02 0.  1.
</event>
<event>
 5   0  0.2540506E-04  0.1995635E+04  0.7818609E-02  0.8608664E-01
        2   -1    0    0  501    0  0.00000000000E+00  0.00000000000E+00  0.17207591491E+04  0.17207591491E+04  0.25500000920E-02 0.  1.
       -2   -1    0    0    0  501  0.00000000000E+00  0.00000000000E+00 -0.57860511116E+03  0.57860511117E+03  0.25500000920E-02 0. -1.
    10030    2    1    2    0    0  0.00000000000E+00  0.00000000000E+00  0.11421540380E+04  0.22993642603E+04  0.19956352761E+04 0.  0.
        4    1    3    3  502    0 -0.27166365431E+03 -0.89003612898E+03  0.15616946672E+03  0.94358675658E+03  0.12699999809E+01 0.  1.
       -4    1    3    3    0  502  0.27166365431E+03  0.89003612898E+03  0.98598457125E+03  0.13557775037E+04  0.12699999809E+01 0. -1.
</event>
<event>
 5   0  0.2421737E-04  0.2063661E+04  0.7818609E-02  0.8577422E-01
        2   -1    0    0  501    0  0.00000000000E+00  0.00000000000E+00  0.15940259865E+04  0.15940259865E+04  0.25500000920E-02 0.  1.
       -2   -1    0    0    0  501  0.00000000000E+00  0.00000000000E+00 -0.66791526136E+03  0.66791526137E+03  0.25500000920E-02 0. -1.
    10030    2    1    2    0    0  0.00000000000E+00  0.00000000000E+00  0.92611072518E+03  0.22619412479E+04  0.20636610995E+04 0.  0.
        1    1    3    3  502    0  0.18600194013E+03  0.19916768355E+03 -0.62775789110E+03  0.68435696662E+03  0.50400001928E-02 0. -1.
       -1    1    3    3    0  502 -0.18600194013E+03 -0.19916768355E+03  0.15538686163E+04  0.15775842813E+04  0.50400001928E-02 0.  1.
</event>
<event>
 5   0  0.2463085E-04  0.1826609E+04  0.7818609E-02  0.8692276E-01
       -2   -1    0    0    0  501  0.00000000000E+00  0.00000000000E+00  0.19957123644E+04  0.19957123644E+04  0.25500000920E-02 0.  1.
        2   -1    0    0  501    0  0.00000000000E+00  0.00000000000E+00 -0.41795838179E+03  0.41795838180E+03  0.25500000920E-02 0. -1.
    10030    2    1    2    0    0  0.00000000000E+00  0.00000000000E+00  0.15777539826E+04  0.24136707462E+04  0.18266085627E+04 0.  0.
        2    1    3    3  502    0  0.74537497264E+03  0.27656789881E+03  0.13828450650E+04  0.15950969019E+04  0.25500000920E-02 0. -1.
       -2    1    3    3    0  502 -0.74537497264E+03 -0.27656789881E+03  0.19490891761E+03  0.81857384436E+03  0.25500000920E-02 0.  1.
</event>
<event>
 5   0  0.1210633E-04  0.2039132E+04  0.7818609E-02  0.8588540E-01
       -1   -1    0    0    0  501  0.00000000000E+00  0.00000000000E+00  0.61385474982E+03  0.61385474985E+03  0.50400001928E-02 0.  1.
        1   -1    0    0  501    0  0.00000000000E+00  0.00000000000E+00 -0.16934222668E+04  0.16934222668E+04  0.50400001928E-02 0. -1.
    10030    2    1    2    0    0  0.00000000000E+00  0.00000000000E+00 -0.10795675170E+04  0.23072770167E+04  0.20391324645E+04 0.  0.
        2    1    3    3  502    0 -0.95532365319E+03  0.35535541060E+03 -0.56737359598E+03  0.11665477048E+04  0.25500000920E-02 0.  1.
       -2    1    3    3    0  502  0.95532365319E+03 -0.35535541060E+03 -0.51219392101E+03  0.11407293119E+04  0.25500000920E-02 0. -1.
</event>
<event>
 5   0  0.1210633E-04  0.2028246E+04  0.7818609E-02  0.8593527E-01
        1   -1    0    0  501    0  0.00000000000E+00  0.00000000000E+00  0.10894678195E+04  0.10894678195E+04  0.50400001928E-02 0.  1.
       -1   -1    0    0    0  501  0.00000000000E+00  0.00000000000E+00 -0.94398889392E+03  0.94398889394E+03  0.50400001928E-02 0. -1.
    10030    2    1    2    0    0  0.00000000000E+00  0.00000000000E+00  0.14547892558E+03  0.20334567135E+04  0.20282460619E+04 0.  0.
        2    1    3    3  502    0 -0.75702069242E+03  0.43375356002E+03 -0.44552477582E+03  0.97965034857E+03  0.25500000920E-02 0. -1.
       -2    1    3    3    0  502  0.75702069242E+03 -0.43375356002E+03  0.59100370140E+03  0.10538063649E+04  0.25500000920E-02 0.  1.
</event>
<event>
 5   0  0.2421737E-04  0.2022299E+04  0.7818609E-02  0.8596265E-01
        2   -1    0    0  501    0  0.00000000000E+00  0.00000000000E+00  0.84270421486E+03  0.84270421487E+03  0.25500000920E-02 0.  1.
       -2   -1    0    0    0  501  0.00000000000E+00  0.00000000000E+00 -0.12132652070E+04  0.12132652070E+04  0.25500000920E-02 0. -1.
    10030    2    1    2    0    0  0.00000000000E+00  0.00000000000E+00 -0.37056099214E+03  0.20559694219E+04  0.20222993880E+04 0.  0.
        1    1    3    3  502    0 -0.36290377425E+03  0.52650312846E+03  0.61103508376E+03  0.88445947745E+03  0.50400001928E-02 0.  1.
       -1    1    3    3    0  502  0.36290377425E+03 -0.52650312846E+03 -0.98159607590E+03  0.11715099444E+04  0.50400001928E-02 0. -1.
</event>
<event>
 5   0  0.1207228E-04  0.2006153E+04  0.7818609E-02  0.8603749E-01
       -1   -1    0    0    0  501  0.00000000000E+00  0.00000000000E+00  0.90404607342E+03  0.90404607343E+03  0.50400001928E-02 0. -1.
        1   -1    0    0  501    0  0.00000000000E+00  0.00000000000E+00 -0.11129547705E+04  0.11129547705E+04  0.50400001928E-02 0.  1.
    10030    2    1    2    0    0  0.00000000000E+00  0.00000000000E+00 -0.20890869709E+03  0.20170008439E+04  0.20061529256E+04 0.  0.
        1    1    3    3  502    0  0.14128502849E+03 -0.39427794730E+03 -0.10208354618E+04  0.11034136120E+04  0.50400001928E-02 0.  1.
       -1    1    3    3    0  502 -0.14128502849E+03  0.39427794730E+03  0.81192676475E+03  0.91358723193E+03  0.50400001928E-02 0. -1.
</event>
<event>
 5   0  0.1324930E-04  0.1992030E+04  0.7818609E-02  0.8610356E-01
       -1   -1    0    0    0  501  0.00000000000E+00  0.00000000000E+00  0.56192356861E+03  0.56192356863E+03  0.50400001928E-02 0.  1.
        1   -1    0    0  501    0  0.00000000000E+00  0.00000000000E+00 -0.17654463737E+04  0.17654463737E+04  0.50400001928E-02 0. -1.
    10030    2    1    2    0    0  0.00000000000E+00  0.00000000000E+00 -0.12035228051E+04  0.23273699423E+04  0.19920300465E+04 0.  0.
        5    1    3    3  502    0 -0.95126674169E+03  0.28477938019E+03 -0.69238223435E+03  0.12105465533E+04  0.46999998093E+01 0. -1.
       -5    1    3    3    0  502  0.95126674169E+03 -0.28477938019E+03 -0.51114057071E+03  0.11168233890E+04  0.46999998093E+01 0.  1.
</event>
<event>
 5   0  0.2421737E-04  0.1983472E+04  0.7818609E-02  0.8614387E-01
       -2   -1    0    0    0  501  0.00000000000E+00  0.00000000000E+00  0.55749124117E+03  0.55749124118E+03  0.25500000920E-02 0. -1.
        2   -1    0    0  501    0  0.00000000000E+00  0.00000000000E+00 -0.17642253359E+04  0.17642253359E+04  0.25500000920E-02 0.  1.
    10030    2    1    2    0    0  0.00000000000E+00  0.00000000000E+00 -0.12067340948E+04  0.23217165771E+04  0.19834718775E+04 0.  0.
        1    1    3    3  502    0 -0.67421690702E+02  0.75795791434E+03 -0.13478235909E+04  0.15477966005E+04  0.50400001928E-02 0.  1.
       -1    1    3    3    0  502  0.67421690702E+02 -0.75795791434E+03  0.14108949612E+03  0.77391997663E+03  0.50400001928E-02 0. -1.
</event>
<event>
 5   0  0.1258546E-04  0.1975285E+04  0.7818609E-02  0.8618264E-01
        1   -1    0    0  501    0  0.00000000000E+00  0.00000000000E+00  0.10423699016E+04  0.10423699016E+04  0.50400001928E-02 0. -1.
       -1   -1    0    0    0  501  0.00000000000E+00  0.00000000000E+00 -0.93578841002E+03  0.93578841003E+03  0.50400001928E-02 0.  1.
    10030    2    1    2    0    0  0.00000000000E+00  0.00000000000E+00  0.10658149161E+03  0.19781583117E+04  0.19752849647E+04 0.  0.
        4    1    3    3  502    0  0.13859605834E+03 -0.48717430696E+03  0.90239696384E+03  0.10348282785E+04  0.12699999809E+01 0. -1.
       -4    1    3    3    0  502 -0.13859605834E+03  0.48717430696E+03 -0.79581547223E+03  0.94333003317E+03  0.12699999809E+01 0.  1.
</event>
<event>
 5   0  0.2463085E-04  0.1953909E+04  0.7818609E-02  0.8628478E-01
        2   -1    0    0  501    0  0.00000000000E+00  0.00000000000E+00  0.14713460450E+04  0.14713460450E+04  0.25500000920E-02 0.  1.
       -2   -1    0    0    0  501  0.00000000000E+00  0.00000000000E+00 -0.64868506475E+03  0.64868506476E+03  0.25500000920E-02 0. -1.
    10030    2    1    2    0    0  0.00000000000E+00  0.00000000000E+00  0.82266098021E+03  0.21200311097E+04  0.19539091120E+04 0.  0.
        2    1    3    3  502    0  0.83667905135E+03  0.98205359676E+02  0.94812951071E+03  0.12683160871E+04  0.25500000920E-02 0.  1.
       -2    1    3    3    0  502 -0.83667905135E+03 -0.98205359676E+02 -0.12546853050E+03  0.85171502264E+03  0.25500000920E-02 0. -1.
</event>
<event>
 5   0  0.1258546E-04  0.2283198E+04  0.7818609E-02  0.8484575E-01
       -1   -1    0    0    0  501  0.00000000000E+00  0.00000000000E+00  0.85226736989E+03  0.85226736990E+03  0.50400001928E-02 0. -1.
        1   -1    0    0  501    0  0.00000000000E+00  0.00000000000E+00 -0.15291546702E+04  0.15291546702E+04  0.50400001928E-02 0.  1.
    10030    2    1    2    0    0  0.00000000000E+00  0.00000000000E+00 -0.67688730026E+03  0.23814220401E+04  0.22831983084E+04 0.  0.
        4    1    3    3  502    0 -0.54063194159E+03  0.68984140018E+03  0.42451903150E+03  0.97384910262E+03  0.12699999809E+01 0. -1.
       -4    1    3    3    0  502  0.54063194159E+03 -0.68984140018E+03 -0.11014063318E+04  0.14075729374E+04  0.12699999809E+01 0.  1.
</event>
<event>
 5   0  0.1207228E-04  0.2065156E+04  0.7818609E-02  0.8576750E-01
       -1   -1    0    0    0  501  0.00000000000E+00  0.00000000000E+00  0.63580186634E+03  0.63580186636E+03  0.50400001928E-02 0. -1.
        1   -1    0    0  501    0  0.00000000000E+00  0.00000000000E+00 -0.16769652778E+04  0.16769652779E+04  0.50400001928E-02 0.  1.
    10030    2    1    2    0    0  0.00000000000E+00  0.00000000000E+00 -0.10411634115E+04  0.23127671442E+04  0.20651563171E+04 0.  0.
        1    1    3    3  502    0 -0.27603221512E+03 -0.20629389637E+03  0.56950478098E+03  0.66564754267E+03  0.50400001928E-02 0. -1.
       -1    1    3    3    0  502  0.27603221512E+03  0.20629389637E+03 -0.16106681925E+04  0.16471196015E+04  0.50400001928E-02 0.  1.
</event>
<event>
 5   0  0.2596061E-04  0.2014985E+04  0.7818609E-02  0.8599646E-01
        2   -1    0    0  501    0  0.00000000000E+00  0.00000000000E+00  0.11810656460E+04  0.11810656460E+04  0.25500000920E-02 0.  1.
       -2   -1    0    0    0  501  0.00000000000E+00  0.00000000000E+00 -0.85942848332E+03  0.85942848332E+03  0.25500000920E-02 0. -1.
    10030    2    1    2    0    0  0.00000000000E+00  0.00000000000E+00  0.32163716270E+03  0.20404941293E+04  0.20149853169E+04 0.  0.
        5    1    3    3  502    0 -0.68890852550E+03 -0.71561451622E+03 -0.95981351685E+01  0.99338477265E+03  0.46999998093E+01 0. -1.
       -5    1    3    3    0  502  0.68890852550E+03  0.71561451622E+03  0.33123529787E+03  0.10471093567E+04  0.46999998093E+01 0.  1.
</event>
<event>
 5   0  0.1231056E-04  0.1972733E+04  0.7818609E-02  0.8619476E-01
        1   -1    0    0  501    0  0.00000000000E+00  0.00000000000E+00  0.20217957317E+04  0.20217957317E+04  0.50400001928E-02 0. -1.
       -1   -1    0    0    0  501  0.00000000000E+00  0.00000000000E+00 -0.48121526347E+03  0.48121526350E+03  0.50400001928E-02 0.  1.
    10030    2    1    2    0    0  0.00000000000E+00  0.00000000000E+00  0.15405804682E+04  0.25030109952E+04  0.19727330947E+04 0.  0.
        3    1    3    3  502    0 -0.84478909965E+03 -0.88996609768E+02  0.14063772599E+04  0.16430112680E+04  0.10100000352E+00 0. -1.
       -3    1    3    3    0  502  0.84478909965E+03  0.88996609768E+02  0.13420320832E+03  0.85999972719E+03  0.10100000352E+00 0.  1.
</event>
<event>
 5   0  0.1231056E-04  0.2015014E+04  0.7818609E-02  0.8599633E-01
        1   -1    0    0  501    0  0.00000000000E+00  0.00000000000E+00  0.88170216693E+03  0.88170216694E+03  0.50400001928E-02 0.  1.
       -1   -1    0    0    0  501  0.00000000000E+00  0.00000000000E+00 -0.11512623767E+04  0.11512623767E+04  0.50400001928E-02 0. -1.
    10030    2    1    2    0    0  0.00000000000E+00  0.00000000000E+00 -0.26956020976E+03  0.20329645436E+04  0.20150141759E+04 0.  0.
        3    1    3    3  502    0 -0.91741481631E+03 -0.20214501923E+03 -0.50210859836E+03  0.10651880626E+04  0.10100000352E+00 0. -1.
       -3    1    3    3    0  502  0.91741481631E+03  0.20214501923E+03  0.23254838860E+03  0.96777648102E+03  0.10100000352E+00 0.  1.
</event>
<event>
 5   0  0.2463085E-04  0.1986463E+04  0.7818609E-02  0.8612976E-01
       -2   -1    0    0    0  501  0.00000000000E+00  0.00000000000E+00  0.12074751530E+04  0.12074751530E+04  0.25500000920E-02 0.  1.
        2   -1    0    0  501    0  0.00000000000E+00  0.00000000000E+00 -0.81700097758E+03  0.81700097759E+03  0.25500000920E-02 0. -1.
    10030    2    1    2    0    0  0.00000000000E+00  0.00000000000E+00  0.39047417541E+03  0.20244761306E+04  0.19864625649E+04 0.  0.
        2    1    3    3  502    0  0.50313461758E+03 -0.74397823859E+03  0.62745220551E+03  0.10956022696E+04  0.25500000920E-02 0.  1.
       -2    1    3    3    0  502 -0.50313461758E+03  0.74397823859E+03 -0.23697803010E+03  0.92887386100E+03  0.25500000920E-02 0. -1.
</event>
<event>
 5   0  0.2540506E-04  0.1907919E+04  0.7818609E-02  0.8650924E-01
       -2   -1    0    0    0  501  0.00000000000E+00  0.00000000000E+00  0.45678791606E+03  0.45678791607E+03  0.25500000920E-02 0.  1.
        2   -1    0    0  501    0  0.00000000000E+00  0.00000000000E+00 -0.19922571432E+04  0.19922571432E+04  0.25500000920E-02 0. -1.
    10030    2    1    2    0    0  0.00000000000E+00  0.00000000000E+00 -0.15354692271E+04  0.24490450593E+04  0.19079192737E+04 0.  0.
        4    1    3    3  502    0 -0.38749923494E+03 -0.81279399907E+03 -0.36334791580E+03  0.97098561411E+03  0.12699999809E+01 0.  1.
       -4    1    3    3    0  502  0.38749923494E+03  0.81279399907E+03 -0.11721213113E+04  0.14780594452E+04  0.12699999809E+01 0. -1.
</event>
<event>
 5   0  0.1231056E-04  0.2161078E+04  0.7818609E-02  0.8534805E-01
        1   -1    0    0  501    0  0.00000000000E+00  0.00000000000E+00  0.22349531905E+04  0.22349531905E+04  0.50400001928E-02 0. -1.
       -1   -1    0    0    0  501  0.00000000000E+00  0.00000000000E+00 -0.52241104076E+03  0.52241104078E+03  0.50400001928E-02 0.  1.
    10030    2    1    2    0    0  0.00000000000E+00  0.00000000000E+00  0.17125421498E+04  0.27573642313E+04  0.21610777148E+04 0.  0.
        3    1    3    3  502    0  0.65510290964E+03  0.72308094122E+03  0.14486589629E+04  0.17466020356E+04  0.10100000352E+00 0. -1.
       -3    1    3    3    0  502 -0.65510290964E+03 -0.72308094122E+03  0.26388318688E+03  0.10107621957E+04  0.10100000352E+00 0.  1.
</event>
<event>
 5   0  0.2463085E-04  0.2011964E+04  0.7818609E-02  0.8601048E-01
        2   -1    0    0  501    0  0.00000000000E+00  0.00000000000E+00  0.25445657339E+04  0.25445657339E+04  0.25500000920E-02 0.  1.
       -2   -1    0    0    0  501  0.00000000000E+00  0.00000000000E+00 -0.39771016956E+03  0.39771016957E+03  0.25500000920E-02 0. -1.
    10030    2    1    2    0    0  0.00000000000E+00  0.00000000000E+00  0.21468555643E+04  0.29422759034E+04  0.20119638858E+04 0.  0.
        2    1    3    3  502    0 -0.90429258109E+03 -0.26348453448E+03  0.15901100587E+04  0.18481393808E+04  0.25500000920E-02 0.  1.
       -2    1    3    3    0  502  0.90429258109E+03  0.26348453448E+03  0.55674550563E+03  0.10941365226E+04  0.25500000920E-02 0. -1.
</event>
<event>
 5   0  0.2540506E-04  0.1980694E+04  0.7818609E-02  0.8615701E-01
       -2   -1    0    0    0  501  0.00000000000E+00  0.00000000000E+00  0.74069522017E+03  0.74069522018E+03  0.25500000920E-02 0.  1.
        2   -1    0    0  501    0  0.00000000000E+00  0.00000000000E+00 -0.13241434476E+04  0.13241434476E+04  0.25500000920E-02 0. -1.
    10030    2    1    2    0    0  0.00000000000E+00  0.00000000000E+00 -0.58344822740E+03  0.20648386678E+04  0.19806935376E+04 0.  0.
        4    1    3    3  502    0 -0.69674127464E+03 -0.57961551159E+03 -0.70791181773E+03  0.11500188258E+04  0.12699999809E+01 0. -1.
       -4    1    3    3    0  502  0.69674127464E+03  0.57961551159E+03  0.12446359033E+03  0.91481984198E+03  0.12699999809E+01 0.  1.
</event>
<event>
 5   0  0.2488886E-04  0.2019863E+04  0.7818609E-02  0.8597390E-01
       -2   -1    0    0    0  501  0.00000000000E+00  0.00000000000E+00  0.40924116779E+03  0.40924116780E+03  0.25500000920E-02 0.  1.
        2   -1    0    0  501    0  0.00000000000E+00  0.00000000000E+00 -0.24923233780E+04  0.24923233780E+04  0.25500000920E-02 0. -1.
    10030    2    1    2    0    0  0.00000000000E+00  0.00000000000E+00 -0.20830822102E+04  0.29015645458E+04  0.20198626981E+04 0.  0.
        3    1    3    3  502    0 -0.76260939078E+03 -0.46440510796E+03 -0.36360896306E+03  0.96408333427E+03  0.10100000352E+00 0.  1.
       -3    1    3    3    0  502  0.76260939078E+03  0.46440510796E+03 -0.17194732472E+04  0.19374812116E+04  0.10100000352E+00 0. -1.
</event>
<event>
 5   0  0.1231056E-04  0.2010062E+04  0.7818609E-02  0.8601931E-01
        1   -1    0    0  501    0  0.00000000000E+00  0.00000000000E+00  0.19618880054E+04  0.19618880054E+04  0.50400001928E-02 0.  1.
       -1   -1    0    0    0  501  0.00000000000E+00  0.00000000000E+00 -0.51485472608E+03  0.51485472610E+03  0.50400001928E-02 0. -1.
    10030    2    1    2    0    0  0.00000000000E+00  0.00000000000E+00  0.14470332793E+04  0.24767427315E+04  0.20100620007E+04 0.  0.
        3    1    3    3  502    0  0.36730637364E+03  0.17382587813E+03 -0.40911575113E+03  0.57663256589E+03  0.10100000352E+00 0. -1.
       -3    1    3    3    0  502 -0.36730637364E+03 -0.17382587813E+03  0.18561490304E+04  0.19001101656E+04  0.10100000352E+00 0.  1.
</event>
<event>
 5   0  0.2463085E-04  0.2007171E+04  0.7818609E-02  0.8603275E-01
       -2   -1    0    0    0  501  0.00000000000E+00  0.00000000000E+00  0.82962151543E+03  0.82962151544E+03  0.25500000920E-02 0.  1.
        2   -1    0    0  501    0  0.00000000000E+00  0.00000000000E+00 -0.12140282372E+04  0.12140282372E+04  0.25500000920E-02 0. -1.
    10030    2    1    2    0    0  0.00000000000E+00  0.00000000000E+00 -0.38440672173E+03  0.20436497526E+04  0.20071710898E+04 0.  0.
        2    1    3    3  502    0  0.59514823708E+03 -0.66749997354E+03 -0.65592140111E+03  0.11090493782E+04  0.25500000920E-02 0. -1.
       -2    1    3    3    0  502 -0.59514823708E+03  0.66749997354E+03  0.27151467938E+03  0.93460037444E+03  0.25500000920E-02 0.  1.
</event>
<event>
 5   0  0.9099125E-05  0.1289374E+04  0.7818609E-02  0.9038035E-01
        3   -1    0    0  501    0  0.00000000000E+00  0.00000000000E+00  0.38460523119E+03  0.38460524445E+03  0.10100000352E+00 0.  1.
       -3   -1    0    0    0  501  0.00000000000E+00  0.00000000000E+00 -0.10806434849E+04  0.10806434896E+04  0.10100000352E+00 0. -1.
    10030    2    1    2    0    0  0.00000000000E+00  0.00000000000E+00 -0.69603825371E+03  0.14652487341E+04  0.12893737248E+04 0.  0.
        4    1    3    3  502    0 -0.22985342990E+03  0.56348271827E+03 -0.10621831108E+03  0.61776153614E+03  0.12699999809E+01 0.  1.
       -4    1    3    3    0  502  0.22985342990E+03 -0.56348271827E+03 -0.58981994263E+03  0.84748719793E+03  0.12699999809E+01 0. -1.
</event>
<event>
 5   0  0.1258546E-04  0.2012862E+04  0.7818609E-02  0.8600631E-01
       -1   -1    0    0    0  501  0.00000000000E+00  0.00000000000E+00  0.94534781186E+03  0.94534781187E+03  0.50400001928E-02 0.  1.
        1   -1    0    0  501    0  0.00000000000E+00  0.00000000000E+00 -0.10714608299E+04  0.10714608299E+04  0.50400001928E-02 0. -1.
    10030    2    1    2    0    0  0.00000000000E+00  0.00000000000E+00 -0.12611301807E+03  0.20168086418E+04  0.20128617946E+04 0.  0.
        4    1    3    3  502    0  0.94635946195E+03  0.32096681355E+03 -0.18281330141E+03  0.10158928303E+04  0.12699999809E+01 0. -1.
       -4    1    3    3    0  502 -0.94635946195E+03 -0.32096681355E+03  0.56700283341E+02  0.10009158115E+04  0.12699999809E+01 0.  1.
</event>
<event>
 5   0  0.2463085E-04  0.1985926E+04  0.7818609E-02  0.8613229E-01
        2   -1    0    0  501    0  0.00000000000E+00  0.00000000000E+00  0.10747525697E+04  0.10747525697E+04  0.25500000920E-02 0. -1.
       -2   -1    0    0    0  501  0.00000000000E+00  0.00000000000E+00 -0.91739736073E+03  0.91739736073E+03  0.25500000920E-02 0.  1.
    10030    2    1    2    0    0  0.00000000000E+00  0.00000000000E+00  0.15735520901E+03  0.19921499305E+04  0.19859256491E+04 0.  0.
        2    1    3    3  502    0 -0.65264248145E+03  0.35215458446E+03  0.74106536070E+03  0.10483954067E+04  0.25500000920E-02 0. -1.
       -2    1    3    3    0  502  0.65264248145E+03 -0.35215458446E+03 -0.58371015169E+03  0.94375452377E+03  0.25500000920E-02 0.  1.
</event>
<event>
 5   0  0.1324930E-04  0.1985042E+04  0.7818609E-02  0.8613646E-01
       -1   -1    0    0    0  501  0.00000000000E+00  0.00000000000E+00  0.40843405286E+03  0.40843405289E+03  0.50400001928E-02 0.  1.
        1   -1    0    0  501    0  0.00000000000E+00  0.00000000000E+00 -0.24118902344E+04  0.24118902344E+04  0.50400001928E-02 0. -1.
    10030    2    1    2    0    0  0.00000000000E+00  0.00000000000E+00 -0.20034561816E+04  0.28203242873E+04  0.19850421694E+04 0.  0.
        5    1    3    3  502    0 -0.75380998099E+03  0.47446133314E+03 -0.16238531705E+04  0.18520972581E+04  0.46999998093E+01 0. -1.
       -5    1    3    3    0  502  0.75380998099E+03 -0.47446133314E+03 -0.37960301103E+03  0.96822702919E+03  0.46999998093E+01 0.  1.
</event>
<event>
 5   0  0.1231056E-04  0.2013238E+04  0.7818609E-02  0.8600456E-01
       -1   -1    0    0    0  501  0.00000000000E+00  0.00000000000E+00  0.10474324102E+04  0.10474324103E+04  0.50400001928E-02 0.  1.
        1   -1    0    0  501    0  0.00000000000E+00  0.00000000000E+00 -0.96739614782E+03  0.96739614783E+03  0.50400001928E-02 0. -1.
    10030    2    1    2    0    0  0.00000000000E+00  0.00000000000E+00  0.80036262420E+02  0.20148285581E+04  0.20132382659E+04 0.  0.
        3    1    3    3  502    0 -0.58965799248E+03 -0.58237622396E+03 -0.53176797666E+03  0.98470087110E+03  0.10100000352E+00 0. -1.
       -3    1    3    3    0  502  0.58965799248E+03  0.58237622396E+03  0.61180423909E+03  0.10301276870E+04  0.10100000352E+00 0.  1.
</event>
<event>
 5   0  0.1231056E-04  0.1854547E+04  0.7818609E-02  0.8677818E-01
        1   -1    0    0  501    0  0.00000000000E+00  0.00000000000E+00  0.46985096801E+03  0.46985096804E+03  0.50400001928E-02 0.  1.
       -1   -1    0    0    0  501  0.00000000000E+00  0.00000000000E+00 -0.18300184190E+04  0.18300184190E+04  0.50400001928E-02 0. -1.
    10030    2    1    2    0    0  0.00000000000E+00  0.00000000000E+00 -0.13601674510E+04  0.22998693870E+04  0.18545467648E+04 0.  0.
        3    1    3    3  502    0  0.49201118642E+03  0.66694923180E+03 -0.11958021488E+04  0.14549361067E+04  0.10100000352E+00 0.  1.
       -3    1    3    3    0  502 -0.49201118642E+03 -0.66694923180E+03 -0.16436530213E+03  0.84493328027E+03  0.10100000352E+00 0. -1.
</event>
<event>
 5   0  0.1210633E-04  0.2015364E+04  0.7818609E-02  0.8599471E-01
       -1   -1    0    0    0  501  0.00000000000E+00  0.00000000000E+00  0.10360471353E+04  0.10360471353E+04  0.50400001928E-02 0.  1.
        1   -1    0    0  501    0  0.00000000000E+00  0.00000000000E+00 -0.98009357705E+03  0.98009357707E+03  0.50400001928E-02 0. -1.
    10030    2    1    2    0    0  0.00000000000E+00  0.00000000000E+00  0.55953558282E+02  0.20161407124E+04  0.20153641288E+04 0.  0.
        2    1    3    3  502    0  0.33227316411E+03  0.88358606685E+03 -0.32471169041E+03  0.99828226219E+03  0.25500000920E-02 0.  1.
       -2    1    3    3    0  502 -0.33227316411E+03 -0.88358606685E+03  0.38066524870E+03  0.10178584502E+04  0.25500000920E-02 0. -1.
</event>
<event>
 5   0  0.2596061E-04  0.1989587E+04  0.7818609E-02  0.8611505E-01
        2   -1    0    0  501    0  0.00000000000E+00  0.00000000000E+00  0.10098913742E+04  0.10098913742E+04  0.25500000920E-02 0. -1.
       -2   -1    0    0    0  501  0.00000000000E+00  0.00000000000E+00 -0.97992096984E+03  0.97992096984E+03  0.25500000920E-02 0.  1.
    10030    2    1    2    0    0  0.00000000000E+00  0.00000000000E+00  0.29970404342E+02  0.19898123440E+04  0.19895866252E+04 0.  0.
        5    1    3    3  502    0  0.54065893309E+03  0.81214026142E+03  0.20919208943E+03  0.99783130159E+03  0.46999998093E+01 0. -1.
       -5    1    3    3    0  502 -0.54065893309E+03 -0.81214026142E+03 -0.17922168509E+03  0.99198104244E+03  0.46999998093E+01 0.  1.
</event>
<event>
 5   0  0.1258546E-04  0.2043708E+04  0.7818609E-02  0.8586454E-01
        1   -1    0    0  501    0  0.00000000000E+00  0.00000000000E+00  0.14318237511E+04  0.14318237511E+04  0.50400001928E-02 0. -1.
       -1   -1    0    0    0  501  0.00000000000E+00  0.00000000000E+00 -0.72926931657E+03  0.72926931659E+03  0.50400001928E-02 0.  1.
    10030    2    1    2    0    0  0.00000000000E+00  0.00000000000E+00  0.70255443452E+03  0.21610930677E+04  0.20437075411E+04 0.  0.
        4    1    3    3  502    0 -0.82693993973E+03  0.17067064077E+02  0.98579487064E+03  0.12868232546E+04  0.12699999809E+01 0. -1.
       -4    1    3    3    0  502  0.82693993973E+03 -0.17067064077E+02 -0.28324043612E+03  0.87426981313E+03  0.12699999809E+01 0.  1.
</event>
<event>
 5   0  0.1231056E-04  0.1886422E+04  0.7818609E-02  0.8661645E-01
        1   -1    0    0  501    0  0.00000000000E+00  0.00000000000E+00  0.96558348288E+03  0.96558348289E+03  0.50400001928E-02 0.  1.
       -1   -1    0    0    0  501  0.00000000000E+00  0.00000000000E+00 -0.92135721415E+03  0.92135721417E+03  0.50400001928E-02 0. -1.
    10030    2    1    2    0    0  0.00000000000E+00  0.00000000000E+00  0.44226268723E+02  0.18869406971E+04  0.18864223364E+04 0.  0.
        3    1    3    3  502    0 -0.26805471068E+03  0.70694661734E+03 -0.54197484502E+03  0.93024920883E+03  0.10100000352E+00 0. -1.
       -3    1    3    3    0  502  0.26805471068E+03 -0.70694661734E+03  0.58620111374E+03  0.95669148823E+03  0.10100000352E+00 0.  1.
</event>
<event>
 5   0  0.2463085E-04  0.1946895E+04  0.7818609E-02  0.8631860E-01
        2   -1    0    0  501    0  0.00000000000E+00  0.00000000000E+00  0.90643448489E+03  0.90643448489E+03  0.25500000920E-02 0. -1.
       -2   -1    0    0    0  501  0.00000000000E+00  0.00000000000E+00 -0.10454142791E+04  0.10454142791E+04  0.25500000920E-02 0.  1.
    10030    2    1    2    0    0  0.00000000000E+00  0.00000000000E+00 -0.13897979421E+03  0.19518487640E+04  0.19468945052E+04 0.  0.
        2    1    3    3  502    0 -0.45692026056E+03 -0.35284422872E+03  0.71629308666E+03  0.91997334758E+03  0.25500000920E-02 0. -1.
       -2    1    3    3    0  502  0.45692026056E+03  0.35284422872E+03 -0.85527288087E+03  0.10318754164E+04  0.25500000920E-02 0.  1.
</event>
<event>
 5   0  0.9099125E-05  0.1967795E+04  0.7818609E-02  0.8621827E-01
       -4   -1    0    0    0  501  0.00000000000E+00  0.00000000000E+00  0.15772663593E+04  0.15772668705E+04  0.12699999809E+01 0.  1.
        4   -1    0    0  501    0  0.00000000000E+00  0.00000000000E+00 -0.61375325037E+03  0.61375456433E+03  0.12699999809E+01 0. -1.
    10030    2    1    2    0    0  0.00000000000E+00  0.00000000000E+00  0.96351310888E+03  0.21910214349E+04  0.19677950648E+04 0.  0.
        5    1    3    3  502    0 -0.48608740239E+02  0.54056506275E+03  0.13954958393E+04  0.14973323359E+04  0.46999998093E+01 0.  1.
       -5    1    3    3    0  502  0.48608740239E+02 -0.54056506275E+03 -0.43198273039E+03  0.69368909898E+03  0.46999998093E+01 0. -1.
</event>
<event>
 5   0  0.2596061E-04  0.1868376E+04  0.7818609E-02  0.8670760E-01
        2   -1    0    0  501    0  0.00000000000E+00  0.00000000000E+00  0.17651890007E+04  0.17651890007E+04  0.25500000920E-02 0. -1.
       -2   -1    0    0    0  501  0.00000000000E+00  0.00000000000E+00 -0.49439866407E+03  0.49439866408E+03  0.25500000920E-02 0.  1.
    10030    2    1    2    0    0  0.00000000000E+00  0.00000000000E+00  0.12707903366E+04  0.22595876648E+04  0.18683758549E+04 0.  0.
        5    1    3    3  502    0 -0.37178410052E+03  0.64300583295E+03  0.13206007599E+04  0.15151529216E+04  0.46999998093E+01 0. -1.
       -5    1    3    3    0  502  0.37178410052E+03 -0.64300583295E+03 -0.49810423323E+02  0.74443474319E+03  0.46999998093E+01 0.  1.
</event>
<event>
 5   0  0.1207228E-04  0.2015243E+04  0.7818609E-02  0.8599527E-01
        1   -1    0    0  501    0  0.00000000000E+00  0.00000000000E+00  0.99062226649E+03  0.99062226650E+03  0.50400001928E-02 0. -1.
       -1   -1    0    0    0  501  0.00000000000E+00  0.00000000000E+00 -0.10249122099E+04  0.10249122099E+04  0.50400001928E-02 0.  1.
    10030    2    1    2    0    0  0.00000000000E+00  0.00000000000E+00 -0.34289943383E+02  0.20155344764E+04  0.20152427708E+04 0.  0.
        1    1    3    3  502    0  0.41994482008E+03  0.82305700962E+03  0.38481414047E+03  0.10009287766E+04  0.50400001928E-02 0. -1.
       -1    1    3    3    0  502 -0.41994482008E+03 -0.82305700962E+03 -0.41910408385E+03  0.10146056998E+04  0.50400001928E-02 0.  1.
</event>
<event>
 5   0  0.2488886E-04  0.1956104E+04  0.7818609E-02  0.8627423E-01
       -2   -1    0    0    0  501  0.00000000000E+00  0.00000000000E+00  0.58093606426E+03  0.58093606427E+03  0.25500000920E-02 0. -1.
        2   -1    0    0  501    0  0.00000000000E+00  0.00000000000E+00 -0.16466277476E+04  0.16466277476E+04  0.25500000920E-02 0.  1.
    10030    2    1    2    0    0  0.00000000000E+00  0.00000000000E+00 -0.10656916833E+04  0.22275638119E+04  0.19561037222E+04 0.  0.
        3    1    3    3  502    0  0.96289193437E+03  0.98178373388E+02 -0.69302738571E+03  0.11904145655E+04  0.10100000352E+00 0.  1.
       -3    1    3    3    0  502 -0.96289193437E+03 -0.98178373388E+02 -0.37266429764E+03  0.10371492464E+04  0.10100000352E+00 0. -1.
</event>
<event>
 5   0  0.2596061E-04  0.2008472E+04  0.7818609E-02  0.8602670E-01
        2   -1    0    0  501    0  0.00000000000E+00  0.00000000000E+00  0.77349088701E+03  0.77349088702E+03  0.25500000920E-02 0.  1.
       -2   -1    0    0    0  501  0.00000000000E+00  0.00000000000E+00 -0.13038160268E+04  0.13038160268E+04  0.25500000920E-02 0. -1.
    10030    2    1    2    0    0  0.00000000000E+00  0.00000000000E+00 -0.53032513975E+03  0.20773069138E+04  0.20084718719E+04 0.  0.
        5    1    3    3  502    0 -0.69131490840E+03 -0.64575550512E+03  0.83359971716E+02  0.94967755047E+03  0.46999998093E+01 0. -1.
       -5    1    3    3    0  502  0.69131490840E+03  0.64575550512E+03 -0.61368511147E+03  0.11276293633E+04  0.46999998093E+01 0.  1.
</event>
<event>
 5   0  0.1207228E-04  0.1948808E+04  0.7818609E-02  0.8630936E-01
       -1   -1    0    0    0  501  0.00000000000E+00  0.00000000000E+00  0.88203277851E+03  0.88203277853E+03  0.50400001928E-02 0. -1.
        1   -1    0    0  501    0  0.00000000000E+00  0.00000000000E+00 -0.10764491139E+04  0.10764491139E+04  0.50400001928E-02 0.  1.
    10030    2    1    2    0    0  0.00000000000E+00  0.00000000000E+00 -0.19441633539E+03  0.19584818924E+04  0.19488082542E+04 0.  0.
        1    1    3    3  502    0  0.32870032929E+03  0.89228950340E+03 -0.31095842845E+03  0.10004596986E+04  0.50400001928E-02 0.  1.
       -1    1    3    3    0  502 -0.32870032929E+03 -0.89228950340E+03  0.11654209306E+03  0.95802219381E+03  0.50400001928E-02 0. -1.
</event>
<event>
 5   0  0.2463085E-04  0.2075328E+04  0.7818609E-02  0.8572190E-01
        2   -1    0    0  501    0  0.00000000000E+00  0.00000000000E+00  0.16059998992E+04  0.16059998992E+04  0.25500000920E-02 0. -1.
       -2   -1    0    0    0  501  0.00000000000E+00  0.00000000000E+00 -0.67045235132E+03  0.67045235132E+03  0.25500000920E-02 0.  1.
    10030    2    1    2    0    0  0.00000000000E+00  0.00000000000E+00  0.93554754784E+03  0.22764522505E+04  0.20753278378E+04 0.  0.
        2    1    3    3  502    0  0.70691810340E+03  0.35053811645E+03 -0.27143125033E+03  0.83443699562E+03  0.25500000920E-02 0.  1.
       -2    1    3    3    0  502 -0.70691810340E+03 -0.35053811645E+03  0.12069787982E+04  0.14420152549E+04  0.25500000920E-02 0. -1.
</event>
<event>
 5   0  0.2596061E-04  0.1996672E+04  0.7818609E-02  0.8608178E-01
       -2   -1    0    0    0  501  0.00000000000E+00  0.00000000000E+00  0.79931026119E+03  0.79931026120E+03  0.25500000920E-02 0. -1.
        2   -1    0    0  501    0  0.00000000000E+00  0.00000000000E+00 -0.12469188480E+04  0.12469188480E+04  0.25500000920E-02 0.  1.
    10030    2    1    2    0    0  0.00000000000E+00  0.00000000000E+00 -0.44760858684E+03  0.20462291092E+04  0.19966722617E+04 0.  0.
        5    1    3    3  502    0  0.92218333870E+03 -0.34789989193E+03 -0.61130519964E+02  0.98752998712E+03  0.46999998093E+01 0. -1.
       -5    1    3    3    0  502 -0.92218333870E+03  0.34789989193E+03 -0.38647806688E+03  0.10586991221E+04  0.46999998093E+01 0.  1.
</event>
<event>
 5   0  0.1210633E-04  0.2073546E+04  0.7818609E-02  0.8572987E-01
        1   -1    0    0  501    0  0.00000000000E+00  0.00000000000E+00  0.24087134623E+04  0.24087134623E+04  0.50400001928E-02 0.  1.
       -1   -1    0    0    0  501  0.00000000000E+00  0.00000000000E+00 -0.44625430849E+03  0.44625430852E+03  0.50400001928E-02 0. -1.
    10030    2    1    2    0    0  0.00000000000E+00  0.00000000000E+00  0.19624591538E+04  0.28549677708E+04  0.20735464890E+04 0.  0.
        2    1    3    3  502    0  0.33243510515E+03 -0.22522089245E+02 -0.37052721719E+03  0.49830789912E+03  0.25500000920E-02 0. -1.
       -2    1    3    3    0  502 -0.33243510515E+03  0.22522089245E+02  0.23329863710E+04  0.23566598717E+04  0.25500000920E-02 0.  1.
</event>
<event>
 5   0  0.2488886E-04  0.2010085E+04  0.7818609E-02  0.8601920E-01
       -2   -1    0    0    0  501  0.00000000000E+00  0.00000000000E+00  0.94856934072E+03  0.94856934073E+03  0.25500000920E-02 0. -1.
        2   -1    0    0  501    0  0.00000000000E+00  0.00000000000E+00 -0.10648779565E+04  0.10648779565E+04  0.25500000920E-02 0.  1.
    10030    2    1    2    0    0  0.00000000000E+00  0.00000000000E+00 -0.11630861581E+03  0.20134472973E+04  0.20100851536E+04 0.  0.
        3    1    3    3  502    0  0.24239504431E+03 -0.71935922799E+03  0.60164124223E+03  0.96860995812E+03  0.10100000352E+00 0. -1.
       -3    1    3    3    0  502 -0.24239504431E+03  0.71935922799E+03 -0.71794985805E+03  0.10448373391E+04  0.10100000352E+00 0.  1.
</event>
<event>
 5   0  0.1258546E-04  0.1991865E+04  0.7818609E-02  0.8610433E-01
        1   -1    0    0  501    0  0.00000000000E+00  0.00000000000E+00  0.16798150213E+04  0.16798150213E+04  0.50400001928E-02 0.  1.
       -1   -1    0    0    0  501  0.00000000000E+00  0.00000000000E+00 -0.59047090137E+03  0.59047090139E+03  0.50400001928E-02 0. -1.
    10030    2    1    2    0    0  0.00000000000E+00  0.00000000000E+00  0.10893441199E+04  0.22702859227E+04  0.19918653467E+04 0.  0.
        4    1    3    3  502    0  0.53337209599E+02 -0.50376530758E+03  0.15219989527E+04  0.16040906358E+04  0.12699999809E+01 0.  1.
       -4    1    3    3    0  502 -0.53337209599E+02  0.50376530758E+03 -0.43265483276E+03  0.66619528688E+03  0.12699999809E+01 0. -1.
</event>
<event>
 5   0  0.1324930E-04  0.1996625E+04  0.7818609E-02  0.8608200E-01
        1   -1    0    0  501    0  0.00000000000E+00  0.00000000000E+00  0.13325290433E+04  0.13325290433E+04  0.50400001928E-02 0.  1.
       -1   -1    0    0    0  501  0.00000000000E+00  0.00000000000E+00 -0.74792196867E+03  0.74792196869E+03  0.50400001928E-02 0. -1.
    10030    2    1    2    0    0  0.00000000000E+00  0.00000000000E+00  0.58460707466E+03  0.20804510120E+04  0.19966248976E+04 0.  0.
        5    1    3    3  502    0 -0.64215957991E+03 -0.40530456292E+03 -0.38295102903E+03  0.85047886242E+03  0.46999998093E+01 0. -1.
       -5    1    3    3    0  502  0.64215957991E+03  0.40530456292E+03  0.96755810369E+03  0.12299721496E+04  0.46999998093E+01 0.  1.
</event>
<event>
 5   0  0.1324930E-04  0.2059803E+04  0.7818609E-02  0.8579160E-01
       -1   -1    0    0    0  501  0.00000000000E+00  0.00000000000E+00  0.10665737784E+04  0.10665737784E+04  0.50400001928E-02 0.  1.
        1   -1    0    0  501    0  0.00000000000E+00  0.00000000000E+00 -0.99449059995E+03  0.99449059996E+03  0.50400001928E-02 0. -1.
    10030    2    1    2    0    0  0.00000000000E+00  0.00000000000E+00  0.72083178420E+02  0.20610643783E+04  0.20598034826E+04 0.  0.
        5    1    3    3  502    0  0.66557828404E+03 -0.23315957553E+03  0.78704594388E+03  0.10567976380E+04  0.46999998093E+01 0.  1.
       -5    1    3    3    0  502 -0.66557828404E+03  0.23315957553E+03 -0.71496276546E+03  0.10042667404E+04  0.46999998093E+01 0. -1.
</event>
<event>
 5   0  0.9099125E-05  0.2014786E+04  0.7818609E-02  0.8599739E-01
        3   -1    0    0  501    0  0.00000000000E+00  0.00000000000E+00  0.79295019340E+03  0.79295019984E+03  0.10100000352E+00 0.  1.
       -3   -1    0    0    0  501  0.00000000000E+00  0.00000000000E+00 -0.12798285613E+04  0.12798285653E+04  0.10100000352E+00 0. -1.
    10030    2    1    2    0    0  0.00000000000E+00  0.00000000000E+00 -0.48687836792E+03  0.20727787651E+04  0.20147856621E+04 0.  0.
        1    1    3    3  502    0 -0.69546662933E+03  0.36892047941E+03  0.40319389476E+03  0.88450068933E+03  0.50400001928E-02 0.  1.
       -1    1    3    3    0  502  0.69546662933E+03 -0.36892047941E+03 -0.89007226268E+03  0.11882780758E+04  0.50400001928E-02 0. -1.
</event>
<event>
 5   0  0.2488886E-04  0.1893576E+04  0.7818609E-02  0.8658060E-01
       -2   -1    0    0    0  501  0.00000000000E+00  0.00000000000E+00  0.64211565178E+03  0.64211565178E+03  0.25500000920E-02 0. -1.
        2   -1    0    0  501    0  0.00000000000E+00  0.00000000000E+00 -0.13960224387E+04  0.13960224387E+04  0.25500000920E-02 0.  1.
    10030    2    1    2    0    0  0.00000000000E+00  0.00000000000E+00 -0.75390678688E+03  0.20381380904E+04  0.18935763603E+04 0.  0.
        3    1    3    3  502    0 -0.47193424308E+03 -0.77321845504E+03 -0.80579322066E+02  0.90944034788E+03  0.10100000352E+00 0. -1.
       -3    1    3    3    0  502  0.47193424308E+03  0.77321845504E+03 -0.67332746481E+03  0.11286977426E+04  0.10100000352E+00 0.  1.
</event>
<event>
 5   0  0.1324930E-04  0.1275424E+04  0.7818609E-02  0.9049284E-01
        1   -1    0    0  501    0  0.00000000000E+00  0.00000000000E+00  0.92857364799E+03  0.92857364800E+03  0.50400001928E-02 0.  1.
       -1   -1    0    0    0  501  0.00000000000E+00  0.00000000000E+00 -0.43795864725E+03  0.43795864728E+03  0.50400001928E-02 0. -1.
    10030    2    1    2    0    0  0.00000000000E+00  0.00000000000E+00  0.49061500074E+03  0.13665322953E+04  0.12754244137E+04 0.  0.
        5    1    3    3  502    0  0.87279875405E+02  0.61588670458E+03  0.94846208150E+02  0.62924725087E+03  0.46999998093E+01 0. -1.
       -5    1    3    3    0  502 -0.87279875405E+02 -0.61588670458E+03  0.39576879259E+03  0.73728504441E+03  0.46999998093E+01 0.  1.
</event>
<event>
 5   0  0.1324930E-04  0.1946384E+04  0.7818609E-02  0.8632106E-01
       -1   -1    0    0    0  501  0.00000000000E+00  0.00000000000E+00  0.10545414569E+04  0.10545414569E+04  0.50400001928E-02 0.  1.
        1   -1    0    0  501    0  0.00000000000E+00  0.00000000000E+00 -0.89811817909E+03  0.89811817911E+03  0.50400001928E-02 0. -1.
    10030    2    1    2    0    0  0.00000000000E+00  0.00000000000E+00  0.15642327782E+03  0.19526596360E+04  0.19463841893E+04 0.  0.
        5    1    3    3  502    0 -0.85925414966E+02 -0.41931355174E+03 -0.79860497168E+03  0.90608996375E+03  0.46999998093E+01 0. -1.
       -5    1    3    3    0  502  0.85925414966E+02  0.41931355174E+03  0.95502824950E+03  0.10465696723E+04  0.46999998093E+01 0.  1.
</event>
<event>
 5   0  0.2488886E-04  0.1917410E+04  0.7818609E-02  0.8646238E-01
       -2   -1    0    0    0  501  0.00000000000E+00  0.00000000000E+00  0.33283373129E+03  0.33283373130E+03  0.25500000920E-02 0.  1.
        2   -1    0    0  501    0  0.00000000000E+00  0.00000000000E+00 -0.27614856914E+04  0.27614856914E+04  0.25500000920E-02 0. -1.
    10030    2    1    2    0    0  0.00000000000E+00  0.00000000000E+00 -0.24286519602E+04  0.30943194227E+04  0.19174103229E+04 0.  0.
        3    1    3    3  502    0  0.50823649407E+03 -0.50006690874E+03 -0.18005135382E+03  0.73538408151E+03  0.10100000352E+00 0.  1.
       -3    1    3    3    0  502 -0.50823649407E+03  0.50006690874E+03 -0.22486006063E+04  0.23589353412E+04  0.10100000352E+00 0. -1.
</event>
<event>
 5   0  0.2421737E-04  0.2015011E+04  0.7818609E-02  0.8599634E-01
        2   -1    0    0  501    0  0.00000000000E+00  0.00000000000E+00  0.10091317105E+04  0.10091317105E+04  0.25500000920E-02 0.  1.
       -2   -1    0    0    0  501  0.00000000000E+00  0.00000000000E+00 -0.10058821344E+04  0.10058821344E+04  0.25500000920E-02 0. -1.
    10030    2    1    2    0    0  0.00000000000E+00  0.00000000000E+00  0.32495761820E+01  0.20150138449E+04  0.20150112246E+04 0.  0.
        1    1    3    3  502    0 -0.68442985738E+03 -0.82131298244E+02 -0.73313992464E+03  0.10063219808E+04  0.50400001928E-02 0. -1.
       -1    1    3    3    0  502  0.68442985738E+03  0.82131298244E+02  0.73638950083E+03  0.10086918641E+04  0.50400001928E-02 0.  1.
</event>
<event>
 5   0  0.2540506E-04  0.1969040E+04  0.7818609E-02  0.8621234E-01
       -2   -1    0    0    0  501  0.00000000000E+00  0.00000000000E+00  0.11683550578E+04  0.11683550578E+04  0.25500000920E-02 0.  1.
        2   -1    0    0  501    0  0.00000000000E+00  0.00000000000E+00 -0.82961084161E+03  0.82961084162E+03  0.25500000920E-02 0. -1.
    10030    2    1    2    0    0  0.00000000000E+00  0.00000000000E+00  0.33874421617E+03  0.19979658994E+04  0.19690403986E+04 0.  0.
        4    1    3    3  502    0  0.38071354900E+03 -0.89901286705E+03  0.40576514037E+02  0.97714635951E+03  0.12699999809E+01 0. -1.
       -4    1    3    3    0  502 -0.38071354900E+03  0.89901286705E+03  0.29816770213E+03  0.10208195399E+04  0.12699999809E+01 0.  1.
</event>
<event>
 5   0  0.1210633E-04  0.2039135E+04  0.7818609E-02  0.8588539E-01
        1   -1    0    0  501    0  0.00000000000E+00  0.00000000000E+00  0.74998455656E+03  0.74998455658E+03  0.50400001928E-02 0. -1.
       -1   -1    0    0    0  501  0.00000000000E+00  0.00000000000E+00 -0.13860527116E+04  0.13860527116E+04  0.50400001928E-02 0.  1.
    10030    2    1    2    0    0  0.00000000000E+00  0.00000000000E+00 -0.63606815502E+03  0.21360372682E+04  0.20391352366E+04 0.  0.
        2    1    3    3  502    0  0.49124890342E+03  0.45417324724E+01 -0.12538944215E+04  0.13466986792E+04  0.25500000920E-02 0.  1.
       -2    1    3    3    0  502 -0.49124890342E+03 -0.45417324724E+01  0.61782626646E+03  0.78933858893E+03  0.25500000920E-02 0. -1.
</event>
<event>
 5   0  0.2596061E-04  0.2014199E+04  0.7818609E-02  0.8600011E-01
        2   -1    0    0  501    0  0.00000000000E+00  0.00000000000E+00  0.91541441853E+03  0.91541441854E+03  0.25500000920E-02 0. -1.
       -2   -1    0    0    0  501  0.00000000000E+00  0.00000000000E+00 -0.11079672168E+04  0.11079672168E+04  0.25500000920E-02 0.  1.
    10030    2    1    2    0    0  0.00000000000E+00  0.00000000000E+00 -0.19255279822E+03  0.20233816353E+04  0.20141987643E+04 0.  0.
        5    1    3    3  502    0  0.62733790288E+03 -0.11333622413E+03  0.68691197863E+03  0.93715959178E+03  0.46999998093E+01 0. -1.
       -5    1    3    3    0  502 -0.62733790288E+03  0.11333622413E+03 -0.87946477685E+03  0.10862220435E+04  0.46999998093E+01 0.  1.
</event>
<event>
 5   0  0.1258546E-04  0.1624647E+04  0.7818609E-02  0.8805548E-01
        1   -1    0    0  501    0  0.00000000000E+00  0.00000000000E+00  0.71174135916E+03  0.71174135918E+03  0.50400001928E-02 0. -1.
       -1   -1    0    0    0  501  0.00000000000E+00  0.00000000000E+00 -0.92711966101E+03  0.92711966103E+03  0.50400001928E-02 0.  1.
    10030    2    1    2    0    0  0.00000000000E+00  0.00000000000E+00 -0.21537830185E+03  0.16388610202E+04  0.16246469249E+04 0.  0.
        4    1    3    3  502    0 -0.54349343890E+03  0.13517241956E+03 -0.70123411265E+03  0.89743389438E+03  0.12699999809E+01 0.  1.
       -4    1    3    3    0  502  0.54349343890E+03 -0.13517241956E+03  0.48585581079E+03  0.74142712583E+03  0.12699999809E+01 0. -1.
</event>
<event>
 5   0  0.2421737E-04  0.2040459E+04  0.7818609E-02  0.8587935E-01
        2   -1    0    0  501    0  0.00000000000E+00  0.00000000000E+00  0.10483634473E+04  0.10483634473E+04  0.25500000920E-02 0. -1.
       -2   -1    0    0    0  501  0.00000000000E+00  0.00000000000E+00 -0.99285065515E+03  0.99285065515E+03  0.25500000920E-02 0.  1.
    10030    2    1    2    0    0  0.00000000000E+00  0.00000000000E+00  0.55512792101E+02  0.20412141024E+04  0.20404591007E+04 0.  0.
        1    1    3    3  502    0 -0.21434361576E+03  0.56202282615E+03 -0.79659674908E+03  0.99818796998E+03  0.50400001928E-02 0.  1.
       -1    1    3    3    0  502  0.21434361576E+03 -0.56202282615E+03  0.85210954118E+03  0.10430261324E+04  0.50400001928E-02 0. -1.
</event>
<event>
 5   0  0.2596061E-04  0.2087166E+04  0.7818609E-02  0.8566918E-01
       -2   -1    0    0    0  501  0.00000000000E+00  0.00000000000E+00  0.45624436996E+03  0.45624436997E+03  0.25500000920E-02 0. -1.
        2   -1    0    0  501    0  0.00000000000E+00  0.00000000000E+00 -0.23870214254E+04  0.23870214254E+04  0.25500000920E-02 0.  1.
    10030    2    1    2    0    0  0.00000000000E+00  0.00000000000E+00 -0.19307770554E+04  0.28432657953E+04  0.20871656248E+04 0.  0.
        5    1    3    3  502    0  0.35183168095E+03  0.51752559722E+03  0.17226289877E+03  0.64908772272E+03  0.46999998093E+01 0. -1.
       -5    1    3    3    0  502 -0.35183168095E+03 -0.51752559722E+03 -0.21030399542E+04  0.21941780726E+04  0.46999998093E+01 0.  1.
</event>
<event>
 5   0  0.2463085E-04  0.2000082E+04  0.7818609E-02  0.8606582E-01
        2   -1    0    0  501    0  0.00000000000E+00  0.00000000000E+00  0.22265409166E+04  0.22265409166E+04  0.25500000920E-02 0. -1.
       -2   -1    0    0    0  501  0.00000000000E+00  0.00000000000E+00 -0.44916400272E+03  0.44916400273E+03  0.25500000920E-02 0.  1.
    10030    2    1    2    0    0  0.00000000000E+00  0.00000000000E+00  0.17773769139E+04  0.26757049193E+04  0.20000820286E+04 0.  0.
        2    1    3    3  502    0  0.53811119562E+02 -0.51904895818E+03  0.20299596320E+04  0.20959588653E+04  0.25500000920E-02 0. -1.
       -2    1    3    3    0  502 -0.53811119562E+02  0.51904895818E+03 -0.25258271816E+03  0.57974605397E+03  0.25500000920E-02 0.  1.
</event>
<event>
 5   0  0.1207228E-04  0.1964849E+04  0.7818609E-02  0.8623233E-01
        1   -1    0    0  501    0  0.00000000000E+00  0.00000000000E+00  0.11607205495E+04  0.11607205495E+04  0.50400001928E-02 0.  1.
       -1   -1    0    0    0  501  0.00000000000E+00  0.00000000000E+00 -0.83151657293E+03  0.83151657294E+03  0.50400001928E-02 0. -1.
    10030    2    1    2    0    0  0.00000000000E+00  0.00000000000E+00  0.32920397655E+03  0.19922371224E+04  0.19648494838E+04 0.  0.
        1    1    3    3  502    0  0.24638902470E+03 -0.72656340153E+03  0.78679737126E+03  0.10989322233E+04  0.50400001928E-02 0.  1.
       -1    1    3    3    0  502 -0.24638902470E+03  0.72656340153E+03 -0.45759339470E+03  0.89330489915E+03  0.50400001928E-02 0. -1.
</event>
<event>
 5   0  0.1258546E-04  0.1981315E+04  0.7818609E-02  0.8615407E-01
        1   -1    0    0  501    0  0.00000000000E+00  0.00000000000E+00  0.22002313317E+04  0.22002313317E+04  0.50400001928E-02 0. -1.
       -1   -1    0    0    0  501  0.00000000000E+00  0.00000000000E+00 -0.44604507472E+03  0.44604507475E+03  0.50400001928E-02 0.  1.
    10030    2    1    2    0    0  0.00000000000E+00  0.00000000000E+00  0.17541862570E+04  0.26462764065E+04  0.19813150671E+04 0.  0.
        4    1    3    3  502    0 -0.52765912476E+03 -0.22875169125E+02 -0.24231999579E+03  0.58109209130E+03  0.12699999809E+01 0.  1.
       -4    1    3    3    0  502  0.52765912476E+03  0.22875169125E+02  0.19965062528E+04  0.20651843152E+04  0.12699999809E+01 0. -1.
</event>
<event>
 5   0  0.2463085E-04  0.1989232E+04  0.7818609E-02  0.8611672E-01
        2   -1    0    0  501    0  0.00000000000E+00  0.00000000000E+00  0.13696740596E+04  0.13696740596E+04  0.25500000920E-02 0.  1.
       -2   -1    0    0    0  501  0.00000000000E+00  0.00000000000E+00 -0.72225980222E+03  0.72225980223E+03  0.25500000920E-02 0. -1.
    10030    2    1    2    0    0  0.00000000000E+00  0.00000000000E+00  0.64741425740E+03  0.20919338618E+04  0.19892315254E+04 0.  0.
        2    1    3    3  502    0 -0.18742396013E+03 -0.85820460740E+03  0.81428691653E+03  0.11977921654E+04  0.25500000920E-02 0.  1.
       -2    1    3    3    0  502  0.18742396013E+03  0.85820460740E+03 -0.16687265914E+03  0.89414169647E+03  0.25500000920E-02 0. -1.
</event>
<event>
 5   0  0.2596061E-04  0.1997152E+04  0.7818609E-02  0.8607954E-01
       -2   -1    0    0    0  501  0.00000000000E+00  0.00000000000E+00  0.72877577338E+03  0.72877577338E+03  0.25500000920E-02 0.  1.
        2   -1    0    0  501    0  0.00000000000E+00  0.00000000000E+00 -0.13682585187E+04  0.13682585187E+04  0.25500000920E-02 0. -1.
    10030    2    1    2    0    0  0.00000000000E+00  0.00000000000E+00 -0.63948274528E+03  0.20970342920E+04  0.19971516318E+04 0.  0.
        5    1    3    3  502    0 -0.69109016956E+03  0.65863228643E+02  0.43392190539E+03  0.81869035498E+03  0.46999998093E+01 0.  1.
       -5    1    3    3    0  502  0.69109016956E+03 -0.65863228643E+02 -0.10734046507E+04  0.12783439371E+04  0.46999998093E+01 0. -1.
</event>
<event>
 5   0  0.1258546E-04  0.1983734E+04  0.7818609E-02  0.8614264E-01
       -1   -1    0    0    0  501  0.00000000000E+00  0.00000000000E+00  0.79710728488E+03  0.79710728489E+03  0.50400001928E-02 0.  1.
        1   -1    0    0  501    0  0.00000000000E+00  0.00000000000E+00 -0.12342126276E+04  0.12342126276E+04  0.50400001928E-02 0. -1.
    10030    2    1    2    0    0  0.00000000000E+00  0.00000000000E+00 -0.43710534268E+03  0.20313199125E+04  0.19837337286E+04 0.  0.
        4    1    3    3  502    0 -0.38218106192E+03  0.28356638237E+03 -0.11096730666E+04  0.12074138417E+04  0.12699999809E+01 0. -1.
       -4    1    3    3    0  502  0.38218106192E+03 -0.28356638237E+03  0.67256772396E+03  0.82390607081E+03  0.12699999809E+01 0.  1.
</event>
<event>
 5   0  0.1210633E-04  0.2007549E+04  0.7818609E-02  0.8603100E-01
        1   -1    0    0  501    0  0.00000000000E+00  0.00000000000E+00  0.14982657467E+04  0.14982657467E+04  0.50400001928E-02 0. -1.
       -1   -1    0    0    0  501  0.00000000000E+00  0.00000000000E+00 -0.67248610228E+03  0.67248610230E+03  0.50400001928E-02 0.  1.
    10030    2    1    2    0    0  0.00000000000E+00  0.00000000000E+00  0.82577964439E+03  0.21707518490E+04  0.20075486467E+04 0.  0.
        2    1    3    3  502    0  0.27476354057E+03  0.11962049396E+03  0.14487672906E+04  0.14794359493E+04  0.25500000920E-02 0. -1.
       -2    1    3    3    0  502 -0.27476354057E+03 -0.11962049396E+03 -0.62298764621E+03  0.69131589967E+03  0.25500000920E-02 0.  1.
</event>
<event>
 5   0  0.2540506E-04  0.1985370E+04  0.7818609E-02  0.8613491E-01
       -2   -1    0    0    0  501  0.00000000000E+00  0.00000000000E+00  0.11977591901E+04  0.11977591901E+04  0.25500000920E-02 0. -1.
        2   -1    0    0  501    0  0.00000000000E+00  0.00000000000E+00 -0.82272295440E+03  0.82272295441E+03  0.25500000920E-02 0.  1.
    10030    2    1    2    0    0  0.00000000000E+00  0.00000000000E+00  0.37503623570E+03  0.20204821445E+04  0.19853704738E+04 0.  0.
        4    1    3    3  502    0  0.21135731159E+02 -0.54249056571E+03 -0.65825092131E+03  0.85325179245E+03  0.12699999809E+01 0.  1.
       -4    1    3    3    0  502 -0.21135731159E+02  0.54249056571E+03  0.10332871570E+04  0.11672303521E+04  0.12699999809E+01 0. -1.
</event>
<event>
 5   0  0.9099125E-05  0.2142164E+04  0.7818609E-02  0.8542894E-01
       -3   -1    0    0    0  501  0.00000000000E+00  0.00000000000E+00  0.12551175411E+04  0.12551175452E+04  0.10100000352E+00 0.  1.
        3   -1    0    0  501    0  0.00000000000E+00  0.00000000000E+00 -0.91403142013E+03  0.91403142571E+03  0.10100000352E+00 0. -1.
    10030    2    1    2    0    0  0.00000000000E+00  0.00000000000E+00  0.34108612096E+03  0.21691489709E+04  0.21421642131E+04 0.  0.
        2    1    3    3  502    0 -0.42075219863E+03  0.26385418566E+03  0.11314786015E+04  0.12356760375E+04  0.25500000920E-02 0.  1.
       -2    1    3    3    0  502  0.42075219863E+03 -0.26385418566E+03 -0.79039248058E+03  0.93347293335E+03  0.25500000920E-02 0. -1.
</event>
<event>
 5   0  0.2540506E-04  0.1581176E+04  0.7818609E-02  0.8832196E-01
       -2   -1    0    0    0  501  0.00000000000E+00  0.00000000000E+00  0.50481692908E+03  0.50481692908E+03  0.25500000920E-02 0.  1.
        2   -1    0    0  501    0  0.00000000000E+00  0.00000000000E+00 -0.12381309185E+04  0.12381309185E+04  0.25500000920E-02 0. -1.
    10030    2    1    2    0    0  0.00000000000E+00  0.00000000000E+00 -0.73331398944E+03  0.17429478476E+04  0.15811760789E+04 0.  0.
        4    1    3    3  502    0 -0.17699739387E+03 -0.29157799539E+03  0.41953271475E+03  0.54069872987E+03  0.12699999809E+01 0.  1.
       -4    1    3    3    0  502  0.17699739387E+03  0.29157799539E+03 -0.11528467042E+04  0.12022491177E+04  0.12699999809E+01 0. -1.
</event>
<event>
 5   0  0.2540506E-04  0.1919771E+04  0.7818609E-02  0.8645077E-01
        2   -1    0    0  501    0  0.00000000000E+00  0.00000000000E+00  0.16535276693E+04  0.16535276693E+04  0.25500000920E-02 0.  1.
       -2   -1    0    0    0  501  0.00000000000E+00  0.00000000000E+00 -0.55722074744E+03  0.55722074745E+03  0.25500000920E-02 0. -1.
    10030    2    1    2    0    0  0.00000000000E+00  0.00000000000E+00  0.10963069218E+04  0.22107484167E+04  0.19197707403E+04 0.  0.
        4    1    3    3  502    0 -0.57574295892E+03  0.28217846834E+03  0.13707588179E+04  0.15133030075E+04  0.12699999809E+01 0.  1.
       -4    1    3    3    0  502  0.57574295892E+03 -0.28217846834E+03 -0.27445189605E+03  0.69744540925E+03  0.12699999809E+01 0. -1.
</event>
<event>
 5   0  0.2488886E-04  0.2011743E+04  0.7818609E-02  0.8601150E-01
       -2   -1    0    0    0  501  0.00000000000E+00  0.00000000000E+00  0.73482896271E+03  0.73482896271E+03  0.25500000920E-02 0.  1.
        2   -1    0    0  501    0  0.00000000000E+00  0.00000000000E+00 -0.13768885395E+04  0.13768885395E+04  0.25500000920E-02 0. -1.
    10030    2    1    2    0    0  0.00000000000E+00  0.00000000000E+00 -0.64205957680E+03  0.21117175022E+04  0.20117431021E+04 0.  0.
        3    1    3    3  502    0  0.71739270121E+03  0.13385719204E+03 -0.10476795176E+04  0.12767938038E+04  0.10100000352E+00 0. -1.
       -3    1    3    3    0  502 -0.71739270121E+03 -0.13385719204E+03  0.40561994080E+03  0.83492369842E+03  0.10100000352E+00 0.  1.
</event>
<event>
 5   0  0.1210633E-04  0.1675689E+04  0.7818609E-02  0.8775353E-01
        1   -1    0    0  501    0  0.00000000000E+00  0.00000000000E+00  0.79135830355E+03  0.79135830357E+03  0.50400001928E-02 0.  1.
       -1   -1    0    0    0  501  0.00000000000E+00  0.00000000000E+00 -0.88706127428E+03  0.88706127429E+03  0.50400001928E-02 0. -1.
    10030    2    1    2    0    0  0.00000000000E+00  0.00000000000E+00 -0.95702970727E+02  0.16784195779E+04  0.16756888795E+04 0.  0.
        2    1    3    3  502    0 -0.33969916205E+02 -0.43584953139E+03  0.66806114879E+03  0.79838866960E+03  0.25500000920E-02 0.  1.
       -2    1    3    3    0  502  0.33969916205E+02  0.43584953139E+03 -0.76376411951E+03  0.88003090826E+03  0.25500000920E-02 0. -1.
</event>
<event>
 5   0  0.1258546E-04  0.1998436E+04  0.7818609E-02  0.8607352E-01
        1   -1    0    0  501    0  0.00000000000E+00  0.00000000000E+00  0.76856255753E+03  0.76856255755E+03  0.50400001928E-02 0. -1.
       -1   -1    0    0    0  501  0.00000000000E+00  0.00000000000E+00 -0.12990967173E+04  0.12990967173E+04  0.50400001928E-02 0.  1.
    10030    2    1    2    0    0  0.00000000000E+00  0.00000000000E+00 -0.53053415977E+03  0.20676592749E+04  0.19984364844E+04 0.  0.
        4    1    3    3  502    0 -0.81074604104E+03 -0.19194118254E+03 -0.83599463412E+03  0.11802708171E+04  0.12699999809E+01 0.  1.
       -4    1    3    3    0  502  0.81074604104E+03  0.19194118254E+03  0.30546047434E+03  0.88738845773E+03  0.12699999809E+01 0. -1.
</event>
<event>
 5   0  0.1324930E-04  0.2033018E+04  0.7818609E-02  0.8591337E-01
        1   -1    0    0  501    0  0.00000000000E+00  0.00000000000E+00  0.10015151530E+04  0.10015151530E+04  0.50400001928E-02 0.  1.
       -1   -1    0    0    0  501  0.00000000000E+00  0.00000000000E+00 -0.10317272117E+04  0.10317272117E+04  0.50400001928E-02 0. -1.
    10030    2    1    2    0    0  0.00000000000E+00  0.00000000000E+00 -0.30212058675E+02  0.20332423647E+04  0.20330178910E+04 0.  0.
        5    1    3    3  502    0  0.17726698654E+03 -0.19713963131E+02  0.98573226090E+03  0.10017496718E+04  0.46999998093E+01 0.  1.
       -5    1    3    3    0  502 -0.17726698654E+03  0.19713963131E+02 -0.10159443196E+04  0.10314926928E+04  0.46999998093E+01 0. -1.
</event>
<event>
 5   0  0.2421737E-04  0.2168639E+04  0.7818609E-02  0.8531596E-01
        2   -1    0    0  501    0  0.00000000000E+00  0.00000000000E+00  0.11228092139E+04  0.11228092139E+04  0.25500000920E-02 0.  1.
       -2   -1    0    0    0  501  0.00000000000E+00  0.00000000000E+00 -0.10471496069E+04  0.10471496069E+04  0.25500000920E-02 0. -1.
    10030    2    1    2    0    0  0.00000000000E+00  0.00000000000E+00  0.75659606946E+02  0.21699588208E+04  0.21686394140E+04 0.  0.
        1    1    3    3  502    0  0.10141191043E+04 -0.33552296572E+03 -0.14865957560E+03  0.10784771151E+04  0.50400001928E-02 0. -1.
       -1    1    3    3    0  502 -0.10141191043E+04  0.33552296572E+03  0.22431918255E+03  0.10914817057E+04  0.50400001928E-02 0.  1.
</event>
<event>
 5   0  0.2596061E-04  0.1349074E+04  0.7818609E-02  0.8991530E-01
        2   -1    0    0  501    0  0.00000000000E+00  0.00000000000E+00  0.37221536254E+03  0.37221536255E+03  0.25500000920E-02 0.  1.
       -2   -1    0    0    0  501  0.00000000000E+00  0.00000000000E+00 -0.12224104372E+04  0.12224104372E+04  0.25500000920E-02 0. -1.
    10030    2    1    2    0    0  0.00000000000E+00  0.00000000000E+00 -0.85019507471E+03  0.15946257998E+04  0.13490736734E+04 0.  0.
        5    1    3    3  502    0 -0.24535254999E+03 -0.45935794357E+03 -0.93180900590E+03  0.10674725793E+04  0.46999998093E+01 0. -1.
       -5    1    3    3    0  502  0.24535254999E+03  0.45935794357E+03  0.81613931188E+02  0.52715322049E+03  0.46999998093E+01 0.  1.
</event>
<event>
 5   0  0.2540506E-04  0.1981462E+04  0.7818609E-02  0.8615337E-01
        2   -1    0    0  501    0  0.00000000000E+00  0.00000000000E+00  0.87701139967E+03  0.87701139968E+03  0.25500000920E-02 0.  1.
       -2   -1    0    0    0  501  0.00000000000E+00  0.00000000000E+00 -0.11191968418E+04  0.11191968418E+04  0.25500000920E-02 0. -1.
    10030    2    1    2    0    0  0.00000000000E+00  0.00000000000E+00 -0.24218544213E+03  0.19962082415E+04  0.19814624788E+04 0.  0.
        4    1    3    3  502    0 -0.67113467501E+03 -0.48925557073E+03  0.42306952677E+03  0.93208486892E+03  0.12699999809E+01 0.  1.
       -4    1    3    3    0  502  0.67113467501E+03  0.48925557073E+03 -0.66525496890E+03  0.10641233726E+04  0.12699999809E+01 0. -1.
</event>
<event>
 5   0  0.1324930E-04  0.2039184E+04  0.7818609E-02  0.8588517E-01
        1   -1    0    0  501    0  0.00000000000E+00  0.00000000000E+00  0.11410351936E+04  0.11410351936E+04  0.50400001928E-02 0.  1.
       -1   -1    0    0    0  501  0.00000000000E+00  0.00000000000E+00 -0.91107396014E+03  0.91107396015E+03  0.50400001928E-02 0. -1.
    10030    2    1    2    0    0  0.00000000000E+00  0.00000000000E+00  0.22996123343E+03  0.20521091537E+04  0.20391836136E+04 0.  0.
        5    1    3    3  502    0 -0.35052773675E+03 -0.68410349378E+03  0.78906078540E+03  0.11015926187E+04  0.46999998093E+01 0.  1.
       -5    1    3    3    0  502  0.35052773675E+03  0.68410349378E+03 -0.55909955197E+03  0.95051653507E+03  0.46999998093E+01 0. -1.
</event>
<event>
 5   0  0.1207228E-04  0.1999713E+04  0.7818609E-02  0.8606755E-01
       -1   -1    0    0    0  501  0.00000000000E+00  0.00000000000E+00  0.16857025148E+04  0.16857025148E+04  0.50400001928E-02 0. -1.
        1   -1    0    0  501    0  0.00000000000E+00  0.00000000000E+00 -0.59305453444E+03  0.59305453446E+03  0.50400001928E-02 0.  1.
    10030    2    1    2    0    0  0.00000000000E+00  0.00000000000E+00  0.10926479804E+04  0.22787570493E+04  0.19997134996E+04 0.  0.
        1    1    3    3  502    0 -0.72955147677E+03 -0.42481358310E+03  0.11568053282E+04  0.14321000331E+04  0.50400001928E-02 0. -1.
       -1    1    3    3    0  502  0.72955147677E+03  0.42481358310E+03 -0.64157347805E+02  0.84665701612E+03  0.50400001928E-02 0.  1.
</event>
<event>
 5   0  0.1210633E-04  0.1934779E+04  0.7818609E-02  0.8637736E-01
       -1   -1    0    0    0  501  0.00000000000E+00  0.00000000000E+00  0.94995872863E+03  0.94995872864E+03  0.50400001928E-02 0. -1.
        1   -1    0    0  501    0  0.00000000000E+00  0.00000000000E+00 -0.98513973926E+03  0.98513973928E+03  0.50400001928E-02 0.  1.
    10030    2    1    2    0    0  0.00000000000E+00  0.00000000000E+00 -0.35181010633E+02  0.19350984679E+04  0.19347786377E+04 0.  0.
        2    1    3    3  502    0  0.94486414494E+03 -0.40496277847E+01  0.18994666929E+03  0.96377610941E+03  0.25500000920E-02 0.  1.
       -2    1    3    3    0  502 -0.94486414494E+03  0.40496277847E+01 -0.22512767992E+03  0.97132235852E+03  0.25500000920E-02 0. -1.
</event>
<event>
 5   0  0.1210633E-04  0.2048251E+04  0.7818609E-02  0.8584388E-01
       -1   -1    0    0    0  501  0.00000000000E+00  0.00000000000E+00  0.12089252860E+04  0.12089252860E+04  0.50400001928E-02 0.  1.
        1   -1    0    0  501    0  0.00000000000E+00  0.00000000000E+00 -0.86757452913E+03  0.86757452915E+03  0.50400001928E-02 0. -1.
    10030    2    1    2    0    0  0.00000000000E+00  0.00000000000E+00  0.34135075682E+03  0.20764998151E+04  0.20482507520E+04 0.  0.
        2    1    3    3  502    0 -0.11915894535E+03 -0.26428362387E+03 -0.82510770090E+03  0.87455554781E+03  0.25500000920E-02 0. -1.
       -2    1    3    3    0  502  0.11915894535E+03  0.26428362387E+03  0.11664584577E+04  0.12019442673E+04  0.25500000920E-02 0.  1.
</event>
<event>
 5   0  0.1324930E-04  0.2016341E+04  0.7818609E-02  0.8599019E-01
       -1   -1    0    0    0  501  0.00000000000E+00  0.00000000000E+00  0.86232639680E+03  0.86232639681E+03  0.50400001928E-02 0.  1.
        1   -1    0    0  501    0  0.00000000000E+00  0.00000000000E+00 -0.11786811023E+04  0.11786811023E+04  0.50400001928E-02 0. -1.
    10030    2    1    2    0    0  0.00000000000E+00  0.00000000000E+00 -0.31635470553E+03  0.20410074992E+04  0.20163410703E+04 0.  0.
        5    1    3    3  502    0 -0.84464509418E+03  0.39610955974E+03 -0.54502745259E+03  0.10804652389E+04  0.46999998093E+01 0. -1.
       -5    1    3    3    0  502  0.84464509418E+03 -0.39610955974E+03  0.22867274706E+03  0.96054226023E+03  0.46999998093E+01 0.  1.
</event>
<event>
 5   0  0.2421737E-04  0.2084824E+04  0.7818609E-02  0.8567958E-01
        2   -1    0    0  501    0  0.00000000000E+00  0.00000000000E+00  0.11072373846E+04  0.11072373846E+04  0.25500000920E-02 0. -1.
       -2   -1    0    0    0  501  0.00000000000E+00  0.00000000000E+00 -0.98138181724E+03  0.98138181724E+03  0.25500000920E-02 0.  1.
    10030    2    1    2    0    0  0.00000000000E+00  0.00000000000E+00  0.12585556733E+03  0.20886192018E+04  0.20848238646E+04 0.  0.
        1    1    3    3  502    0 -0.13082208776E+03 -0.57412220376E+03 -0.79880782052E+03  0.99238332193E+03  0.50400001928E-02 0.  1.
       -1    1    3    3    0  502  0.13082208776E+03  0.57412220376E+03  0.92466338784E+03  0.10962358799E+04  0.50400001928E-02 0. -1.
</event>
<event>
 5   0  0.1210633E-04  0.2022473E+04  0.7818609E-02  0.8596185E-01
        1   -1    0    0  501    0  0.00000000000E+00  0.00000000000E+00  0.10693211169E+04  0.10693211169E+04  0.50400001928E-02 0.  1.
       -1   -1    0    0    0  501  0.00000000000E+00  0.00000000000E+00 -0.95630679958E+03  0.95630679959E+03  0.50400001928E-02 0. -1.
    10030    2    1    2    0    0  0.00000000000E+00  0.00000000000E+00  0.11301431734E+03  0.20256279165E+04  0.20224727984E+04 0.  0.
        2    1    3    3  502    0  0.96803629816E+03  0.16928517582E+03 -0.18229153293E+03  0.99949084453E+03  0.25500000920E-02 0. -1.
       -2    1    3    3    0  502 -0.96803629816E+03 -0.16928517582E+03  0.29530585027E+03  0.10261370720E+04  0.25500000920E-02 0.  1.
</event>
<event>
 5   0  0.1207228E-04  0.1962305E+04  0.7818609E-02  0.8624450E-01
       -1   -1    0    0    0  501  0.00000000000E+00  0.00000000000E+00  0.67269023685E+03  0.67269023687E+03  0.50400001928E-02 0.  1.
        1   -1    0    0  501    0  0.00000000000E+00  0.00000000000E+00 -0.14310606163E+04  0.14310606163E+04  0.50400001928E-02 0. -1.
    10030    2    1    2    0    0  0.00000000000E+00  0.00000000000E+00 -0.75837037940E+03  0.21037508531E+04  0.19623052820E+04 0.  0.
        1    1    3    3  502    0 -0.63272556400E+03 -0.71607843867E+03 -0.14054042728E+03  0.96584759739E+03  0.50400001928E-02 0.  1.
       -1    1    3    3    0  502  0.63272556400E+03  0.71607843867E+03 -0.61782995212E+03  0.11379032557E+04  0.50400001928E-02 0. -1.
</event>
<event>
 5   0  0.2540506E-04  0.2212156E+04  0.7818609E-02  0.8513386E-01
       -2   -1    0    0    0  501  0.00000000000E+00  0.00000000000E+00  0.66920846676E+03  0.66920846677E+03  0.25500000920E-02 0. -1.
        2   -1    0    0  501    0  0.00000000000E+00  0.00000000000E+00 -0.18281423790E+04  0.18281423790E+04  0.25500000920E-02 0.  1.
    10030    2    1    2    0    0  0.00000000000E+00  0.00000000000E+00 -0.11589339123E+04  0.24973508458E+04  0.22121558340E+04 0.  0.
        4    1    3    3  502    0  0.98814133576E+03  0.48344629605E+03 -0.70947995424E+03  0.13090099461E+04  0.12699999809E+01 0. -1.
       -4    1    3    3    0  502 -0.98814133576E+03 -0.48344629605E+03 -0.44945395801E+03  0.11883408997E+04  0.12699999809E+01 0.  1.
</event>
<event>
 5   0  0.1324930E-04  0.1951293E+04  0.7818609E-02  0.8629738E-01
       -1   -1    0    0    0  501  0.00000000000E+00  0.00000000000E+00  0.61676610693E+03  0.61676610695E+03  0.50400001928E-02 0.  1.
        1   -1    0    0  501    0  0.00000000000E+00  0.00000000000E+00 -0.15433499597E+04  0.15433499597E+04  0.50400001928E-02 0. -1.
    10030    2    1    2    0    0  0.00000000000E+00  0.00000000000E+00 -0.92658385275E+03  0.21601160666E+04  0.19512928497E+04 0.  0.
        5    1    3    3  502    0  0.22148203667E+02 -0.77775242289E+02  0.61303709556E+03  0.61836566994E+03  0.46999998093E+01 0.  1.
       -5    1    3    3    0  502 -0.22148203667E+02  0.77775242289E+02 -0.15396209483E+04  0.15417503967E+04  0.46999998093E+01 0. -1.
</event>
<event>
 5   0  0.1324930E-04  0.2030423E+04  0.7818609E-02  0.8592528E-01
       -1   -1    0    0    0  501  0.00000000000E+00  0.00000000000E+00  0.12683463664E+04  0.12683463664E+04  0.50400001928E-02 0.  1.
        1   -1    0    0  501    0  0.00000000000E+00  0.00000000000E+00 -0.81259663789E+03  0.81259663791E+03  0.50400001928E-02 0. -1.
    10030    2    1    2    0    0  0.00000000000E+00  0.00000000000E+00  0.45574972852E+03  0.20809430043E+04  0.20304226093E+04 0.  0.
        5    1    3    3  502    0 -0.48809743903E+03 -0.50117279606E+03  0.98185535735E+03  0.12056016400E+04  0.46999998093E+01 0.  1.
       -5    1    3    3    0  502  0.48809743903E+03  0.50117279606E+03 -0.52610562883E+03  0.87534136438E+03  0.46999998093E+01 0. -1.
</event>
<event>
 5   0  0.1210633E-04  0.2037841E+04  0.7818609E-02  0.8589130E-01
        1   -1    0    0  501    0  0.00000000000E+00  0.00000000000E+00  0.13907101333E+04  0.13907101333E+04  0.50400001928E-02 0.  1.
       -1   -1    0    0    0  501  0.00000000000E+00  0.00000000000E+00 -0.74652422910E+03  0.74652422912E+03  0.50400001928E-02 0. -1.
    10030    2    1    2    0    0  0.00000000000E+00  0.00000000000E+00  0.64418590417E+03  0.21372343624E+04  0.20378408281E+04 0.  0.
        2    1    3    3  502    0 -0.88658631740E+03 -0.48243250375E+03  0.17593136884E+03  0.10245624751E+04  0.25500000920E-02 0. -1.
       -2    1    3    3    0  502  0.88658631740E+03  0.48243250375E+03  0.46825453533E+03  0.11126718873E+04  0.25500000920E-02 0.  1.
</event>
<event>
 5   0  0.2421737E-04  0.1398291E+04  0.7818609E-02  0.8955056E-01
       -2   -1    0    0    0  501  0.00000000000E+00  0.00000000000E+00  0.20916777226E+03  0.20916777228E+03  0.25500000920E-02 0. -1.
        2   -1    0    0  501    0  0.00000000000E+00  0.00000000000E+00 -0.23369020119E+04  0.23369020119E+04  0.25500000920E-02 0.  1.
    10030    2    1    2    0    0  0.00000000000E+00  0.00000000000E+00 -0.21277342397E+04  0.25460697842E+04  0.13982912255E+04 0.  0.
        1    1    3    3  502    0 -0.17949681211E+03  0.48643324120E+03 -0.20987747367E+03  0.55936120502E+03  0.50400001928E-02 0. -1.
       -1    1    3    3    0  502  0.17949681211E+03 -0.48643324120E+03 -0.19178567660E+04  0.19867085792E+04  0.50400001928E-02 0.  1.
</event>
<event>
 5   0  0.1210633E-04  0.1886870E+04  0.7818609E-02  0.8661420E-01
        1   -1    0    0  501    0  0.00000000000E+00  0.00000000000E+00  0.19996546268E+04  0.19996546268E+04  0.50400001928E-02 0. -1.
       -1   -1    0    0    0  501  0.00000000000E+00  0.00000000000E+00 -0.44511170866E+03  0.44511170869E+03  0.50400001928E-02 0.  1.
    10030    2    1    2    0    0  0.00000000000E+00  0.00000000000E+00  0.15545429181E+04  0.24447663355E+04  0.18868700938E+04 0.  0.
        2    1    3    3  502    0 -0.63649887891E+03 -0.56099816921E+03  0.13118364897E+04  0.15622947047E+04  0.25500000920E-02 0. -1.
       -2    1    3    3    0  502  0.63649887891E+03  0.56099816921E+03  0.24270642847E+03  0.88247163078E+03  0.25500000920E-02 0.  1.
</event>
<event>
 5   0  0.2421737E-04  0.2013757E+04  0.7818609E-02  0.8600216E-01
       -2   -1    0    0    0  501  0.00000000000E+00  0.00000000000E+00  0.78882802118E+03  0.78882802118E+03  0.25500000920E-02 0.  1.
        2   -1    0    0  501    0  0.00000000000E+00  0.00000000000E+00 -0.12852032226E+04  0.12852032226E+04  0.25500000920E-02 0. -1.
    10030    2    1    2    0    0  0.00000000000E+00  0.00000000000E+00 -0.49637520144E+03  0.20740312438E+04  0.20137570011E+04 0.  0.
        1    1    3    3  502    0  0.63005162951E+02 -0.17962258025E+03 -0.12665028587E+04  0.12807276888E+04  0.50400001928E-02 0. -1.
       -1    1    3    3    0  502 -0.63005162951E+02  0.17962258025E+03  0.77012765722E+03  0.79330355498E+03  0.50400001928E-02 0.  1.
</event>
<event>
 5   0  0.2488886E-04  0.1884224E+04  0.7818609E-02  0.8662749E-01
       -2   -1    0    0    0  501  0.00000000000E+00  0.00000000000E+00  0.15986687540E+04  0.15986687540E+04  0.25500000920E-02 0.  1.
        2   -1    0    0  501    0  0.00000000000E+00  0.00000000000E+00 -0.55519660820E+03  0.55519660820E+03  0.25500000920E-02 0. -1.
    10030    2    1    2    0    0  0.00000000000E+00  0.00000000000E+00  0.10434721458E+04  0.21538653622E+04  0.18842244769E+04 0.  0.
        3    1    3    3  502    0 -0.44793158990E+02 -0.35445997108E+03  0.15182236633E+04  0.15596959320E+04  0.10100000352E+00 0.  1.
       -3    1    3    3    0  502  0.44793158990E+02  0.35445997108E+03 -0.47475151753E+03  0.59416943020E+03  0.10100000352E+00 0. -1.
</event>
<event>
 5   0  0.2488886E-04  0.1994493E+04  0.7818609E-02  0.8609200E-01
        2   -1    0    0  501    0  0.00000000000E+00  0.00000000000E+00  0.25407679976E+04  0.25407679976E+04  0.25500000920E-02 0. -1.
       -2   -1    0    0    0  501  0.00000000000E+00  0.00000000000E+00 -0.39141738131E+03  0.39141738132E+03  0.25500000920E-02 0.  1.
    10030    2    1    2    0    0  0.00000000000E+00  0.00000000000E+00  0.21493506163E+04  0.29321853790E+04  0.19944931749E+04 0.  0.
        3    1    3    3  502    0  0.66494123461E+03 -0.69231905481E+03  0.14720166083E+04  0.17573518215E+04  0.10100000352E+00 0.  1.
       -3    1    3    3    0  502 -0.66494123461E+03  0.69231905481E+03  0.67733400801E+03  0.11748335575E+04  0.10100000352E+00 0. -1.
</event>
<event>
 5   0  0.1207228E-04  0.2006176E+04  0.7818609E-02  0.8603739E-01
       -1   -1    0    0    0  501  0.00000000000E+00  0.00000000000E+00  0.87809893776E+03  0.87809893778E+03  0.50400001928E-02 0. -1.
        1   -1    0    0  501    0  0.00000000000E+00  0.00000000000E+00 -0.11458682757E+04  0.11458682757E+04  0.50400001928E-02 0.  1.
    10030    2    1    2    0    0  0.00000000000E+00  0.00000000000E+00 -0.26776933792E+03  0.20239672135E+04  0.20061761794E+04 0.  0.
        1    1    3    3  502    0  0.42541964606E+03  0.81402402245E+03  0.27288907414E+03  0.95816774690E+03  0.50400001928E-02 0. -1.
       -1    1    3    3    0  502 -0.42541964606E+03 -0.81402402245E+03 -0.54065841206E+03  0.10657994666E+04  0.50400001928E-02 0.  1.
</event>
<event>
 5   0  0.1324930E-04  0.1875997E+04  0.7818609E-02  0.8666897E-01
        1   -1    0    0  501    0  0.00000000000E+00  0.00000000000E+00  0.69719502797E+03  0.69719502799E+03  0.50400001928E-02 0. -1.
       -1   -1    0    0    0  501  0.00000000000E+00  0.00000000000E+00 -0.12619735010E+04  0.12619735010E+04  0.50400001928E-02 0.  1.
    10030    2    1    2    0    0  0.00000000000E+00  0.00000000000E+00 -0.56477847302E+03  0.19591685290E+04  0.18759974950E+04 0.  0.
        5    1    3    3  502    0  0.11753509249E+03 -0.28098994530E+03 -0.12088789977E+04  0.12466677057E+04  0.46999998093E+01 0.  1.
       -5    1    3    3    0  502 -0.11753509249E+03  0.28098994530E+03  0.64410052467E+03  0.71250082330E+03  0.46999998093E+01 0. -1.
</event>
<event>
 5   0  0.2488886E-04  0.1795077E+04  0.7818609E-02  0.8708922E-01
        2   -1    0    0  501    0  0.00000000000E+00  0.00000000000E+00  0.18627413788E+04  0.18627413788E+04  0.25500000920E-02 0. -1.
       -2   -1    0    0    0  501  0.00000000000E+00  0.00000000000E+00 -0.43246778755E+03  0.43246778756E+03  0.25500000920E-02 0.  1.
    10030    2    1    2    0    0  0.00000000000E+00  0.00000000000E+00  0.14302735912E+04  0.22952091663E+04  0.17950773163E+04 0.  0.
        3    1    3    3  502    0 -0.88864722373E+03 -0.10665037067E+03  0.62929392623E+03  0.10941110755E+04  0.10100000352E+00 0.  1.
       -3    1    3    3    0  502  0.88864722373E+03  0.10665037067E+03  0.80097966500E+03  0.12010980908E+04  0.10100000352E+00 0. -1.
</event>
<event>
 5   0  0.1324930E-04  0.1953468E+04  0.7818609E-02  0.8628690E-01
        1   -1    0    0  501    0  0.00000000000E+00  0.00000000000E+00  0.17765115406E+04  0.17765115406E+04  0.50400001928E-02 0. -1.
       -1   -1    0    0    0  501  0.00000000000E+00  0.00000000000E+00 -0.53701248107E+03  0.53701248109E+03  0.50400001928E-02 0.  1.
    10030    2    1    2    0    0  0.00000000000E+00  0.00000000000E+00  0.12394990596E+04  0.23135240217E+04  0.19534675530E+04 0.  0.
        5    1    3    3  502    0 -0.57344213458E+03 -0.14987369410E+03  0.15391704099E+04  0.16493530994E+04  0.46999998093E+01 0. -1.
       -5    1    3    3    0  502  0.57344213458E+03  0.14987369410E+03 -0.29967135029E+03  0.66417092234E+03  0.46999998093E+01 0.  1.
</event>
<event>
 5   0  0.2463085E-04  0.2160233E+04  0.7818609E-02  0.8535165E-01
        2   -1    0    0  501    0  0.00000000000E+00  0.00000000000E+00  0.20957959795E+04  0.20957959795E+04  0.25500000920E-02 0. -1.
       -2   -1    0    0    0  501  0.00000000000E+00  0.00000000000E+00 -0.55666299243E+03  0.55666299244E+03  0.25500000920E-02 0.  1.
    10030    2    1    2    0    0  0.00000000000E+00  0.00000000000E+00  0.15391329870E+04  0.26524589719E+04  0.21602333776E+04 0.  0.
        2    1    3    3  502    0  0.12591710921E+03  0.58864706864E+03  0.18707374841E+04  0.19652020823E+04  0.25500000920E-02 0. -1.
       -2    1    3    3    0  502 -0.12591710921E+03 -0.58864706864E+03 -0.33160449708E+03  0.68725688960E+03  0.25500000920E-02 0.  1.
</event>
<event>
 5   0  0.1207228E-04  0.2172344E+04  0.7818609E-02  0.8530028E-01
       -1   -1    0    0    0  501  0.00000000000E+00  0.00000000000E+00  0.12815113678E+04  0.12815113678E+04  0.50400001928E-02 0.  1.
        1   -1    0    0  501    0  0.00000000000E+00  0.00000000000E+00 -0.92060787664E+03  0.92060787666E+03  0.50400001928E-02 0. -1.
    10030    2    1    2    0    0  0.00000000000E+00  0.00000000000E+00  0.36090349116E+03  0.22021192445E+04  0.21723438579E+04 0.  0.
        1    1    3    3  502    0 -0.45319708614E+03 -0.38178632903E+03 -0.74231140937E+03  0.94982873636E+03  0.50400001928E-02 0. -1.
       -1    1    3    3    0  502  0.45319708614E+03  0.38178632903E+03  0.11032149005E+04  0.12522905081E+04  0.50400001928E-02 0.  1.
</event>
<event>
 5   0  0.1207228E-04  0.2009571E+04  0.7818609E-02  0.8602159E-01
        1   -1    0    0  501    0  0.00000000000E+00  0.00000000000E+00  0.96011625124E+03  0.96011625126E+03  0.50400001928E-02 0.  1.
       -1   -1    0    0    0  501  0.00000000000E+00  0.00000000000E+00 -0.10515325844E+04  0.10515325844E+04  0.50400001928E-02 0. -1.
    10030    2    1    2    0    0  0.00000000000E+00  0.00000000000E+00 -0.91416333111E+02  0.20116488356E+04  0.20095706238E+04 0.  0.
        1    1    3    3  502    0 -0.70004171732E+03  0.69970755120E+03  0.12751546445E+03  0.99795253238E+03  0.50400001928E-02 0. -1.
       -1    1    3    3    0  502  0.70004171732E+03 -0.69970755120E+03 -0.21893179756E+03  0.10136963032E+04  0.50400001928E-02 0.  1.
</event>
<event>
 5   0  0.1210633E-04  0.2005737E+04  0.7818609E-02  0.8603943E-01
       -1   -1    0    0    0  501  0.00000000000E+00  0.00000000000E+00  0.65485174403E+03  0.65485174405E+03  0.50400001928E-02 0.  1.
        1   -1    0    0  501    0  0.00000000000E+00  0.00000000000E+00 -0.15358366567E+04  0.15358366567E+04  0.50400001928E-02 0. -1.
    10030    2    1    2    0    0  0.00000000000E+00  0.00000000000E+00 -0.88098491268E+03  0.21906884008E+04  0.20057370847E+04 0.  0.
        2    1    3    3  502    0 -0.89642422909E+03 -0.38142962323E+03 -0.18046279293E+03  0.99077332201E+03  0.25500000920E-02 0.  1.
       -2    1    3    3    0  502  0.89642422909E+03  0.38142962323E+03 -0.70052211974E+03  0.11999150788E+04  0.25500000920E-02 0. -1.
</event>
<event>
 5   0  0.2540506E-04  0.1966638E+04  0.7818609E-02  0.8622379E-01
       -2   -1    0    0    0  501  0.00000000000E+00  0.00000000000E+00  0.80913324345E+03  0.80913324345E+03  0.25500000920E-02 0. -1.
        2   -1    0    0  501    0  0.00000000000E+00  0.00000000000E+00 -0.11950028047E+04  0.11950028047E+04  0.25500000920E-02 0.  1.
    10030    2    1    2    0    0  0.00000000000E+00  0.00000000000E+00 -0.38586956122E+03  0.20041360481E+04  0.19666382436E+04 0.  0.
        4    1    3    3  502    0 -0.38064036993E+03 -0.10382270492E+03 -0.11108016824E+04  0.11787910060E+04  0.12699999809E+01 0.  1.
       -4    1    3    3    0  502  0.38064036993E+03  0.10382270492E+03  0.72493212121E+03  0.82534504211E+03  0.12699999809E+01 0. -1.
</event>
<event>
 5   0  0.1231056E-04  0.2003599E+04  0.7818609E-02  0.8604940E-01
       -1   -1    0    0    0  501  0.00000000000E+00  0.00000000000E+00  0.10565658400E+04  0.10565658400E+04  0.50400001928E-02 0. -1.
        1   -1    0    0  501    0  0.00000000000E+00  0.00000000000E+00 -0.94987233512E+03  0.94987233513E+03  0.50400001928E-02 0.  1.
    10030    2    1    2    0    0  0.00000000000E+00  0.00000000000E+00  0.10669350491E+03  0.20064381752E+04  0.20035994227E+04 0.  0.
        3    1    3    3  502    0  0.46820140040E+03 -0.87788257398E+03  0.17061213457E+03  0.10094547418E+04  0.10100000352E+00 0. -1.
       -3    1    3    3    0  502 -0.46820140040E+03  0.87788257398E+03 -0.63918629662E+02  0.99698343339E+03  0.10100000352E+00 0.  1.
</event>
<event>
 5   0  0.1324930E-04  0.1982781E+04  0.7818609E-02  0.8614713E-01
       -1   -1    0    0    0  501  0.00000000000E+00  0.00000000000E+00  0.52105287570E+03  0.52105287572E+03  0.50400001928E-02 0.  1.
        1   -1    0    0  501    0  0.00000000000E+00  0.00000000000E+00 -0.18862875734E+04  0.18862875734E+04  0.50400001928E-02 0. -1.
    10030    2    1    2    0    0  0.00000000000E+00  0.00000000000E+00 -0.13652346977E+04  0.24073404491E+04  0.19827814449E+04 0.  0.
        5    1    3    3  502    0 -0.72351394789E+03 -0.62732509718E+03 -0.37111905406E+03  0.10270154101E+04  0.46999998093E+01 0.  1.
       -5    1    3    3    0  502  0.72351394789E+03  0.62732509718E+03 -0.99411564361E+03  0.13803250390E+04  0.46999998093E+01 0. -1.
</event>
<event>
 5   0  0.1210633E-04  0.1971488E+04  0.7818609E-02  0.8620068E-01
        1   -1    0    0  501    0  0.00000000000E+00  0.00000000000E+00  0.16672995503E+04  0.16672995503E+04  0.50400001928E-02 0. -1.
       -1   -1    0    0    0  501  0.00000000000E+00  0.00000000000E+00 -0.58279354554E+03  0.58279354556E+03  0.50400001928E-02 0.  1.
    10030    2    1    2    0    0  0.00000000000E+00  0.00000000000E+00  0.10845060048E+04  0.22500930959E+04  0.19714881856E+04 0.  0.
        2    1    3    3  502    0 -0.18732635612E+03 -0.21551701909E+03 -0.53455570069E+03  0.60604335354E+03  0.25500000920E-02 0.  1.
       -2    1    3    3    0  502  0.18732635612E+03  0.21551701909E+03  0.16190617055E+04  0.16440497424E+04  0.25500000920E-02 0. -1.
</event>
<event>
 5   0  0.2463085E-04  0.1828951E+04  0.7818609E-02  0.8691054E-01
        2   -1    0    0  501    0  0.00000000000E+00  0.00000000000E+00  0.14222271467E+04  0.14222271467E+04  0.25500000920E-02 0. -1.
       -2   -1    0    0    0  501  0.00000000000E+00  0.00000000000E+00 -0.58799690108E+03  0.58799690108E+03  0.25500000920E-02 0.  1.
    10030    2    1    2    0    0  0.00000000000E+00  0.00000000000E+00  0.83423024562E+03  0.20102240478E+04  0.18289506881E+04 0.  0.
        2    1    3    3  502    0 -0.15745491364E+02 -0.19873173217E+03 -0.56382299275E+03  0.59802891990E+03  0.25500000920E-02 0.  1.
       -2    1    3    3    0  502  0.15745491364E+02  0.19873173217E+03  0.13980532384E+04  0.14121951279E+04  0.25500000920E-02 0. -1.
</event>
<event>
 5   0  0.2540506E-04  0.1958610E+04  0.7818609E-02  0.8626220E-01
        2   -1    0    0  501    0  0.00000000000E+00  0.00000000000E+00  0.61610399438E+03  0.61610399438E+03  0.25500000920E-02 0. -1.
       -2   -1    0    0    0  501  0.00000000000E+00  0.00000000000E+00 -0.15566177612E+04  0.15566177612E+04  0.25500000920E-02 0.  1.
    10030    2    1    2    0    0  0.00000000000E+00  0.00000000000E+00 -0.94051376682E+03  0.21727217556E+04  0.19586101403E+04 0.  0.
        4    1    3    3  502    0 -0.44438767120E+02 -0.81998628788E+03  0.12162904984E+03  0.83014911612E+03  0.12699999809E+01 0. -1.
       -4    1    3    3    0  502  0.44438767120E+02  0.81998628788E+03 -0.10621428167E+04  0.13425726395E+04  0.12699999809E+01 0.  1.
</event>
<event>
 5   0  0.2540506E-04  0.1353143E+04  0.7818609E-02  0.8988452E-01
        2   -1    0    0  501    0  0.00000000000E+00  0.00000000000E+00  0.27427171972E+04  0.27427171972E+04  0.25500000920E-02 0.  1.
       -2   -1    0    0    0  501  0.00000000000E+00  0.00000000000E+00 -0.16689616839E+03  0.16689616841E+03  0.25500000920E-02 0. -1.
    10030    2    1    2    0    0  0.00000000000E+00  0.00000000000E+00  0.25758210288E+04  0.29096133656E+04  0.13531429950E+04 0.  0.
        4    1    3    3  502    0 -0.23776479848E+03  0.63251308101E+03  0.13605907180E+04  0.15191489762E+04  0.12699999809E+01 0. -1.
       -4    1    3    3    0  502  0.23776479848E+03 -0.63251308101E+03  0.12152303108E+04  0.13904643894E+04  0.12699999809E+01 0.  1.
</event>
<event>
 5   0  0.1258546E-04  0.1992771E+04  0.7818609E-02  0.8610008E-01
       -1   -1    0    0    0  501  0.00000000000E+00  0.00000000000E+00  0.96279382929E+03  0.96279382930E+03  0.50400001928E-02 0.  1.
        1   -1    0    0  501    0  0.00000000000E+00  0.00000000000E+00 -0.10311492915E+04  0.10311492915E+04  0.50400001928E-02 0. -1.
    10030    2    1    2    0    0  0.00000000000E+00  0.00000000000E+00 -0.68355462237E+02  0.19939431208E+04  0.19927711108E+04 0.  0.
        4    1    3    3  502    0 -0.40160454654E+02  0.74520075982E+02  0.95918833532E+03  0.96291743122E+03  0.12699999809E+01 0.  1.
       -4    1    3    3    0  502  0.40160454654E+02 -0.74520075982E+02 -0.10275437976E+04  0.10310256896E+04  0.12699999809E+01 0. -1.
</event>
<event>
 5   0  0.2463085E-04  0.1999742E+04  0.7818609E-02  0.8606741E-01
       -2   -1    0    0    0  501  0.00000000000E+00  0.00000000000E+00  0.10918509303E+04  0.10918509303E+04  0.25500000920E-02 0.  1.
        2   -1    0    0  501    0  0.00000000000E+00  0.00000000000E+00 -0.91564000159E+03  0.91564000159E+03  0.25500000920E-02 0. -1.
    10030    2    1    2    0    0  0.00000000000E+00  0.00000000000E+00  0.17621092870E+03  0.20074909319E+04  0.19997423710E+04 0.  0.
        2    1    3    3  502    0  0.37653025373E+03 -0.68996201299E+03 -0.53228571888E+03  0.94928957535E+03  0.25500000920E-02 0. -1.
       -2    1    3    3    0  502 -0.37653025373E+03  0.68996201299E+03  0.70849664758E+03  0.10582013565E+04  0.25500000920E-02 0.  1.
</event>
<event>
 5   0  0.2540506E-04  0.2010697E+04  0.7818609E-02  0.8601636E-01
        2   -1    0    0  501    0  0.00000000000E+00  0.00000000000E+00  0.72774203621E+03  0.72774203622E+03  0.25500000920E-02 0.  1.
       -2   -1    0    0    0  501  0.00000000000E+00  0.00000000000E+00 -0.13888512629E+04  0.13888512629E+04  0.25500000920E-02 0. -1.
    10030    2    1    2    0    0  0.00000000000E+00  0.00000000000E+00 -0.66110922670E+03  0.21165932991E+04  0.20106968405E+04 0.  0.
        4    1    3    3  502    0  0.19305185815E+03  0.88092595703E+03  0.13717093563E+03  0.91220449473E+03  0.12699999809E+01 0.  1.
       -4    1    3    3    0  502 -0.19305185815E+03 -0.88092595703E+03 -0.79828016234E+03  0.12043888044E+04  0.12699999809E+01 0. -1.
</event>
<event>
 5   0  0.2596061E-04  0.1997175E+04  0.7818609E-02  0.8607942E-01
        2   -1    0    0  501    0  0.00000000000E+00  0.00000000000E+00  0.12067228168E+04  0.12067228168E+04  0.25500000920E-02 0.  1.
       -2   -1    0    0    0  501  0.00000000000E+00  0.00000000000E+00 -0.82635165798E+03  0.82635165799E+03  0.25500000920E-02 0. -1.
    10030    2    1    2    0    0  0.00000000000E+00  0.00000000000E+00  0.38037115880E+03  0.20330744748E+04  0.19971754058E+04 0.  0.
        5    1    3    3  502    0  0.51160572644E+02  0.97320066645E+03 -0.31486188321E+02  0.97506431143E+03  0.46999998093E+01 0. -1.
       -5    1    3    3    0  502 -0.51160572644E+02 -0.97320066645E+03  0.41185734712E+03  0.10580101633E+04  0.46999998093E+01 0.  1.
</event>
<event>
 5   0  0.2596061E-04  0.1255009E+04  0.7818609E-02  0.9066025E-01
       -2   -1    0    0    0  501  0.00000000000E+00  0.00000000000E+00  0.64314080660E+03  0.64314080661E+03  0.25500000920E-02 0. -1.
        2   -1    0    0  501    0  0.00000000000E+00  0.00000000000E+00 -0.61224811889E+03  0.61224811890E+03  0.25500000920E-02 0.  1.
    10030    2    1    2    0    0  0.00000000000E+00  0.00000000000E+00  0.30892687711E+02  0.12553889255E+04  0.12550087634E+04 0.  0.
        5    1    3    3  502    0  0.41096399360E+03 -0.18512352332E+03  0.45213045341E+03  0.63844041211E+03  0.46999998093E+01 0. -1.
       -5    1    3    3    0  502 -0.41096399360E+03  0.18512352332E+03 -0.42123776570E+03  0.61694851339E+03  0.46999998093E+01 0.  1.
</event>
<event>
 5   0  0.2488886E-04  0.2042470E+04  0.7818609E-02  0.8587018E-01
        2   -1    0    0  501    0  0.00000000000E+00  0.00000000000E+00  0.19183761285E+04  0.19183761285E+04  0.25500000920E-02 0.  1.
       -2   -1    0    0    0  501  0.00000000000E+00  0.00000000000E+00 -0.54364763078E+03  0.54364763078E+03  0.25500000920E-02 0. -1.
    10030    2    1    2    0    0  0.00000000000E+00  0.00000000000E+00  0.13747284977E+04  0.24620237593E+04  0.20424697180E+04 0.  0.
        3    1    3    3  502    0  0.74064655257E+03  0.37376556276E+03 -0.30503296582E+02  0.83017376076E+03  0.10100000352E+00 0. -1.
       -3    1    3    3    0  502 -0.74064655257E+03 -0.37376556276E+03  0.14052317943E+04  0.16318499985E+04  0.10100000352E+00 0.  1.
</event>
<event>
 5   0  0.1324930E-04  0.2016165E+04  0.7818609E-02  0.8599100E-01
       -1   -1    0    0    0  501  0.00000000000E+00  0.00000000000E+00  0.11568559794E+04  0.11568559794E+04  0.50400001928E-02 0. -1.
        1   -1    0    0  501    0  0.00000000000E+00  0.00000000000E+00 -0.87844156859E+03  0.87844156861E+03  0.50400001928E-02 0.  1.
    10030    2    1    2    0    0  0.00000000000E+00  0.00000000000E+00  0.27841441084E+03  0.20352975481E+04  0.20161650540E+04 0.  0.
        5    1    3    3  502    0  0.20274424824E+02  0.43811876528E+03  0.10554818844E+04  0.11429887152E+04  0.46999998093E+01 0. -1.
       -5    1    3    3    0  502 -0.20274424824E+02 -0.43811876528E+03 -0.77706747354E+03  0.89230883287E+03  0.46999998093E+01 0.  1.
</event>
<event>
 5   0  0.1210633E-04  0.1264751E+04  0.7818609E-02  0.9057995E-01
        1   -1    0    0  501    0  0.00000000000E+00  0.00000000000E+00  0.15909062027E+04  0.15909062027E+04  0.50400001928E-02 0.  1.
       -1   -1    0    0    0  501  0.00000000000E+00  0.00000000000E+00 -0.25136535437E+03  0.25136535442E+03  0.50400001928E-02 0. -1.
    10030    2    1    2    0    0  0.00000000000E+00  0.00000000000E+00  0.13395408484E+04  0.18422715572E+04  0.12647508869E+04 0.  0.
        2    1    3    3  502    0 -0.12492459428E+03 -0.58201280587E+03  0.35887795517E+03  0.69508161188E+03  0.25500000920E-02 0.  1.
       -2    1    3    3    0  502  0.12492459428E+03  0.58201280587E+03  0.98066289320E+03  0.11471899453E+04  0.25500000920E-02 0. -1.
</event>
<event>
 5   0  0.2421737E-04  0.2225155E+04  0.7818609E-02  0.8508030E-01
        2   -1    0    0  501    0  0.00000000000E+00  0.00000000000E+00  0.90922637738E+03  0.90922637738E+03  0.25500000920E-02 0. -1.
       -2   -1    0    0    0  501  0.00000000000E+00  0.00000000000E+00 -0.13614089340E+04  0.13614089340E+04  0.25500000920E-02 0.  1.
    10030    2    1    2    0    0  0.00000000000E+00  0.00000000000E+00 -0.45218255660E+03  0.22706353114E+04  0.22251551974E+04 0.  0.
        1    1    3    3  502    0 -0.30679620270E+03  0.10476569950E+04 -0.44523594266E+03  0.11789589195E+04  0.50400001928E-02 0.  1.
       -1    1    3    3    0  502  0.30679620270E+03 -0.10476569950E+04 -0.69466139406E+01  0.10916763919E+04  0.50400001928E-02 0. -1.
</event>
<event>
 5   0  0.1258546E-04  0.2000249E+04  0.7818609E-02  0.8606504E-01
        1   -1    0    0  501    0  0.00000000000E+00  0.00000000000E+00  0.12017064983E+04  0.12017064983E+04  0.50400001928E-02 0. -1.
       -1   -1    0    0    0  501  0.00000000000E+00  0.00000000000E+00 -0.83235745223E+03  0.83235745225E+03  0.50400001928E-02 0.  1.
    10030    2    1    2    0    0  0.00000000000E+00  0.00000000000E+00  0.36934904607E+03  0.20340639506E+04  0.20002493437E+04 0.  0.
        4    1    3    3  502    0 -0.63882059988E+03  0.27452293559E+03 -0.54636160198E+03  0.88428910092E+03  0.12699999809E+01 0.  1.
       -4    1    3    3    0  502  0.63882059988E+03 -0.27452293559E+03  0.91571064805E+03  0.11497748496E+04  0.12699999809E+01 0. -1.
</event>
<event>
 5   0  0.2488886E-04  0.2073371E+04  0.7818609E-02  0.8573065E-01
        2   -1    0    0  501    0  0.00000000000E+00  0.00000000000E+00  0.57703593741E+03  0.57703593742E+03  0.25500000920E-02 0.  1.
       -2   -1    0    0    0  501  0.00000000000E+00  0.00000000000E+00 -0.18624776923E+04  0.18624776923E+04  0.25500000920E-02 0. -1.
    10030    2    1    2    0    0  0.00000000000E+00  0.00000000000E+00 -0.12854417549E+04  0.24395136297E+04  0.20733707446E+04 0.  0.
        3    1    3    3  502    0  0.24233169043E+03 -0.97678774051E+03 -0.35004086992E+03  0.10655362777E+04  0.10100000352E+00 0. -1.
       -3    1    3    3    0  502 -0.24233169043E+03  0.97678774051E+03 -0.93540088500E+03  0.13739773521E+04  0.10100000352E+00 0.  1.
</event>
<event>
 5   0  0.1324930E-04  0.2008628E+04  0.7818609E-02  0.8602597E-01
        1   -1    0    0  501    0  0.00000000000E+00  0.00000000000E+00  0.13794111704E+04  0.13794111704E+04  0.50400001928E-02 0.  1.
       -1   -1    0    0    0  501  0.00000000000E+00  0.00000000000E+00 -0.73121560452E+03  0.73121560454E+03  0.50400001928E-02 0. -1.
    10030    2    1    2    0    0  0.00000000000E+00  0.00000000000E+00  0.64819556590E+03  0.21106267750E+04  0.20086283607E+04 0.  0.
        5    1    3    3  502    0 -0.31753902002E+03 -0.18796158216E+03 -0.65739177785E+03  0.75388767412E+03  0.46999998093E+01 0. -1.
       -5    1    3    3    0  502  0.31753902002E+03  0.18796158216E+03  0.13055873438E+04  0.13567391008E+04  0.46999998093E+01 0.  1.
</event>
<event>
 5   0  0.1231056E-04  0.2075513E+04  0.7818609E-02  0.8572108E-01
        1   -1    0    0  501    0  0.00000000000E+00  0.00000000000E+00  0.55888101719E+03  0.55888101722E+03  0.50400001928E-02 0. -1.
       -1   -1    0    0    0  501  0.00000000000E+00  0.00000000000E+00 -0.19269543667E+04  0.19269543667E+04  0.50400001928E-02 0.  1.
    10030    2    1    2    0    0  0.00000000000E+00  0.00000000000E+00 -0.13680733495E+04  0.24858353839E+04  0.20755126755E+04 0.  0.
        3    1    3    3  502    0 -0.57472652366E+03 -0.84563699320E+03 -0.89669352648E+03  0.13599528639E+04  0.10100000352E+00 0.  1.
       -3    1    3    3    0  502  0.57472652366E+03  0.84563699320E+03 -0.47137982303E+03  0.11258825201E+04  0.10100000352E+00 0. -1.
</event>
<event>
 5   0  0.9099125E-05  0.1981754E+04  0.7818609E-02  0.8615199E-01
       -3   -1    0    0    0  501  0.00000000000E+00  0.00000000000E+00  0.73555945717E+03  0.73555946410E+03  0.10100000352E+00 0. -1.
        3   -1    0    0  501    0  0.00000000000E+00  0.00000000000E+00 -0.13348169776E+04  0.13348169814E+04  0.10100000352E+00 0.  1.
    10030    2    1    2    0    0  0.00000000000E+00  0.00000000000E+00 -0.59925752043E+03  0.20703764455E+04  0.19817540338E+04 0.  0.
        1    1    3    3  502    0 -0.41369674976E+03 -0.41787721780E+03  0.53357712401E+03  0.79402198786E+03  0.50400001928E-02 0. -1.
       -1    1    3    3    0  502  0.41369674976E+03  0.41787721780E+03 -0.11328346444E+04  0.12763544577E+04  0.50400001928E-02 0.  1.
</event>
<event>
 5   0  0.2463085E-04  0.2026235E+04  0.7818609E-02  0.8594452E-01
       -2   -1    0    0    0  501  0.00000000000E+00  0.00000000000E+00  0.22137992917E+04  0.22137992917E+04  0.25500000920E-02 0. -1.
        2   -1    0    0  501    0  0.00000000000E+00  0.00000000000E+00 -0.46364030108E+03  0.46364030108E+03  0.25500000920E-02 0.  1.
    10030    2    1    2    0    0  0.00000000000E+00  0.00000000000E+00  0.17501589906E+04  0.26774395928E+04  0.20262345078E+04 0.  0.
        2    1    3    3  502    0 -0.39944647080E+03 -0.65668014289E+03  0.17472151011E+04  0.19088077176E+04  0.25500000920E-02 0. -1.
       -2    1    3    3    0  502  0.39944647080E+03  0.65668014289E+03  0.29438895050E+01  0.76863187521E+03  0.25500000920E-02 0.  1.
</event>
<event>
 5   0  0.2596061E-04  0.2007396E+04  0.7818609E-02  0.8603171E-01
        2   -1    0    0  501    0  0.00000000000E+00  0.00000000000E+00  0.10784900837E+04  0.10784900837E+04  0.25500000920E-02 0.  1.
       -2   -1    0    0    0  501  0.00000000000E+00  0.00000000000E+00 -0.93409231429E+03  0.93409231430E+03  0.25500000920E-02 0. -1.
    10030    2    1    2    0    0  0.00000000000E+00  0.00000000000E+00  0.14439776942E+03  0.20125823980E+04  0.20073956244E+04 0.  0.
        5    1    3    3  502    0  0.41746817949E+03  0.40009935341E+03  0.89470147506E+03  0.10653037093E+04  0.46999998093E+01 0.  1.
       -5    1    3    3    0  502 -0.41746817949E+03 -0.40009935341E+03 -0.75030370564E+03  0.94727868876E+03  0.46999998093E+01 0. -1.
</event>
<event>
 5   0  0.1258546E-04  0.2009421E+04  0.7818609E-02  0.8602229E-01
       -1   -1    0    0    0  501  0.00000000000E+00  0.00000000000E+00  0.70198276720E+03  0.70198276722E+03  0.50400001928E-02 0. -1.
        1   -1    0    0  501    0  0.00000000000E+00  0.00000000000E+00 -0.14379889649E+04  0.14379889649E+04  0.50400001928E-02 0.  1.
    10030    2    1    2    0    0  0.00000000000E+00  0.00000000000E+00 -0.73600619766E+03  0.21399717321E+04  0.20094212826E+04 0.  0.
        4    1    3    3  502    0  0.47813313689E+03  0.66645112512E+03 -0.98593622953E+03  0.12825132593E+04  0.12699999809E+01 0.  1.
       -4    1    3    3    0  502 -0.47813313689E+03 -0.66645112512E+03  0.24993003187E+03  0.85745847275E+03  0.12699999809E+01 0. -1.
</event>
<event>
 5   0  0.2540506E-04  0.2114675E+04  0.7818609E-02  0.8554806E-01
       -2   -1    0    0    0  501  0.00000000000E+00  0.00000000000E+00  0.10082768255E+04  0.10082768255E+04  0.25500000920E-02 0. -1.
        2   -1    0    0  501    0  0.00000000000E+00  0.00000000000E+00 -0.11087855959E+04  0.11087855959E+04  0.25500000920E-02 0.  1.
    10030    2    1    2    0    0  0.00000000000E+00  0.00000000000E+00 -0.10050877040E+03  0.21170624213E+04  0.21146752193E+04 0.  0.
        4    1    3    3  502    0 -0.87505644418E+03  0.15656344525E+03  0.52286484656E+03  0.10313220416E+04  0.12699999809E+01 0. -1.
       -4    1    3    3    0  502  0.87505644418E+03 -0.15656344525E+03 -0.62337361696E+03  0.10857403797E+04  0.12699999809E+01 0.  1.
</event>
<event>
 5   0  0.1324930E-04  0.1691820E+04  0.7818609E-02  0.8766044E-01
        1   -1    0    0  501    0  0.00000000000E+00  0.00000000000E+00  0.11027602158E+04  0.11027602159E+04  0.50400001928E-02 0.  1.
       -1   -1    0    0    0  501  0.00000000000E+00  0.00000000000E+00 -0.64888411022E+03  0.64888411024E+03  0.50400001928E-02 0. -1.
    10030    2    1    2    0    0  0.00000000000E+00  0.00000000000E+00  0.45387610562E+03  0.17516443261E+04  0.16918198267E+04 0.  0.
        5    1    3    3  502    0  0.17876967329E+03  0.23818112329E+03 -0.59279896754E+03  0.66341657312E+03  0.46999998093E+01 0. -1.
       -5    1    3    3    0  502 -0.17876967329E+03 -0.23818112329E+03  0.10466750732E+04  0.10882277530E+04  0.46999998093E+01 0.  1.
</event>
<event>
 5   0  0.2463085E-04  0.2013001E+04  0.7818609E-02  0.8600566E-01
        2   -1    0    0  501    0  0.00000000000E+00  0.00000000000E+00  0.58553489543E+03  0.58553489544E+03  0.25500000920E-02 0. -1.
       -2   -1    0    0    0  501  0.00000000000E+00  0.00000000000E+00 -0.17301156477E+04  0.17301156477E+04  0.25500000920E-02 0.  1.
    10030    2    1    2    0    0  0.00000000000E+00  0.00000000000E+00 -0.11445807523E+04  0.23156505431E+04  0.20130008295E+04 0.  0.
        2    1    3    3  502    0 -0.22491488877E+03 -0.52948590802E+03  0.37777485696E+03  0.68822661714E+03  0.25500000920E-02 0. -1.
       -2    1    3    3    0  502  0.22491488877E+03  0.52948590802E+03 -0.15223556092E+04  0.16274239260E+04  0.25500000920E-02 0.  1.
</event>
<event>
 5   0  0.2488886E-04  0.2040160E+04  0.7818609E-02  0.8588071E-01
       -2   -1    0    0    0  501  0.00000000000E+00  0.00000000000E+00  0.10157325684E+04  0.10157325684E+04  0.25500000920E-02 0. -1.
        2   -1    0    0  501    0  0.00000000000E+00  0.00000000000E+00 -0.10244461063E+04  0.10244461063E+04  0.25500000920E-02 0.  1.
    10030    2    1    2    0    0  0.00000000000E+00  0.00000000000E+00 -0.87135379092E+01  0.20401786747E+04  0.20401600670E+04 0.  0.
        3    1    3    3  502    0  0.32803827054E+03 -0.77070148758E+02 -0.96718139467E+03  0.10242015305E+04  0.10100000352E+00 0.  1.
       -3    1    3    3    0  502 -0.32803827054E+03  0.77070148758E+02  0.95846785676E+03  0.10159771441E+04  0.10100000352E+00 0. -1.
</event>
<event>
 5   0  0.1210633E-04  0.1991094E+04  0.7818609E-02  0.8610796E-01
        1   -1    0    0  501    0  0.00000000000E+00  0.00000000000E+00  0.59560015145E+03  0.59560015148E+03  0.50400001928E-02 0.  1.
       -1   -1    0    0    0  501  0.00000000000E+00  0.00000000000E+00 -0.16640595790E+04  0.16640595790E+04  0.50400001928E-02 0. -1.
    10030    2    1    2    0    0  0.00000000000E+00  0.00000000000E+00 -0.10684594276E+04  0.22596597305E+04  0.19910943095E+04 0.  0.
        2    1    3    3  502    0  0.30717310559E+03 -0.93827407412E+03 -0.67956827269E+03  0.11985518730E+04  0.25500000920E-02 0. -1.
       -2    1    3    3    0  502 -0.30717310559E+03  0.93827407412E+03 -0.38889115488E+03  0.10611078575E+04  0.25500000920E-02 0.  1.
</event>
<event>
 5   0  0.1324930E-04  0.1932711E+04  0.7818609E-02  0.8638743E-01
       -1   -1    0    0    0  501  0.00000000000E+00  0.00000000000E+00  0.59517969436E+03  0.59517969438E+03  0.50400001928E-02 0.  1.
        1   -1    0    0  501    0  0.00000000000E+00  0.00000000000E+00 -0.15690108812E+04  0.15690108812E+04  0.50400001928E-02 0. -1.
    10030    2    1    2    0    0  0.00000000000E+00  0.00000000000E+00 -0.97383118686E+03  0.21641905756E+04  0.19327114805E+04 0.  0.
        5    1    3    3  502    0 -0.36115144273E+03  0.20116635481E+03 -0.14649831339E+04  0.15222010181E+04  0.46999998093E+01 0. -1.
       -5    1    3    3    0  502  0.36115144273E+03 -0.20116635481E+03  0.49115194703E+03  0.64198955752E+03  0.46999998093E+01 0.  1.
</event>
<event>
 5   0  0.2488886E-04  0.1961388E+04  0.7818609E-02  0.8624889E-01
        2   -1    0    0  501    0  0.00000000000E+00  0.00000000000E+00  0.65125686076E+03  0.65125686077E+03  0.25500000920E-02 0. -1.
       -2   -1    0    0    0  501  0.00000000000E+00  0.00000000000E+00 -0.14767763658E+04  0.14767763658E+04  0.25500000920E-02 0.  1.
    10030    2    1    2    0    0  0.00000000000E+00  0.00000000000E+00 -0.82551950504E+03  0.21280332266E+04  0.19613880188E+04 0.  0.
        3    1    3    3  502    0  0.66799909820E+03  0.70983781953E+03 -0.52995686317E+03  0.11094804245E+04  0.10100000352E+00 0.  1.
       -3    1    3    3    0  502 -0.66799909820E+03 -0.70983781953E+03 -0.29556264187E+03  0.10185528021E+04  0.10100000352E+00 0. -1.
</event>
<event>
 5   0  0.2488886E-04  0.2019311E+04  0.7818609E-02  0.8597645E-01
       -2   -1    0    0    0  501  0.00000000000E+00  0.00000000000E+00  0.74510003428E+03  0.74510003428E+03  0.25500000920E-02 0. -1.
        2   -1    0    0  501    0  0.00000000000E+00  0.00000000000E+00 -0.13681443989E+04  0.13681443989E+04  0.25500000920E-02 0.  1.
    10030    2    1    2    0    0  0.00000000000E+00  0.00000000000E+00 -0.62304436459E+03  0.21132444331E+04  0.20193112078E+04 0.  0.
        3    1    3    3  502    0  0.47496254365E+03 -0.85618617278E+03 -0.53559878631E+02  0.98056761681E+03  0.10100000352E+00 0.  1.
       -3    1    3    3    0  502 -0.47496254365E+03  0.85618617278E+03 -0.56948448596E+03  0.11326768163E+04  0.10100000352E+00 0. -1.
</event>
<event>
 5   0  0.2463085E-04  0.1989245E+04  0.7818609E-02  0.8611666E-01
       -2   -1    0    0    0  501  0.00000000000E+00  0.00000000000E+00  0.95150732914E+03  0.95150732914E+03  0.25500000920E-02 0. -1.
        2   -1    0    0  501    0  0.00000000000E+00  0.00000000000E+00 -0.10396909394E+04  0.10396909394E+04  0.25500000920E-02 0.  1.
    10030    2    1    2    0    0  0.00000000000E+00  0.00000000000E+00 -0.88183610285E+02  0.19911982686E+04  0.19892446294E+04 0.  0.
        2    1    3    3  502    0  0.72470166811E+03  0.10576968644E+03  0.62954298193E+03  0.96576606920E+03  0.25500000920E-02 0. -1.
       -2    1    3    3    0  502 -0.72470166811E+03 -0.10576968644E+03 -0.71772659221E+03  0.10254321994E+04  0.25500000920E-02 0.  1.
</event>
<event>
 5   0  0.1207228E-04  0.1564218E+04  0.7818609E-02  0.8842837E-01
        1   -1    0    0  501    0  0.00000000000E+00  0.00000000000E+00  0.13257331371E+04  0.13257331371E+04  0.50400001928E-02 0. -1.
       -1   -1    0    0    0  501  0.00000000000E+00  0.00000000000E+00 -0.46140094117E+03  0.46140094120E+03  0.50400001928E-02 0.  1.
    10030    2    1    2    0    0  0.00000000000E+00  0.00000000000E+00  0.86433219594E+03  0.17871340783E+04  0.15642180375E+04 0.  0.
        1    1    3    3  502    0  0.24108054372E+03  0.73943094480E+03  0.52649454522E+03  0.93918819033E+03  0.50400001928E-02 0.  1.
       -1    1    3    3    0  502 -0.24108054372E+03 -0.73943094480E+03  0.33783765072E+03  0.84794588799E+03  0.50400001928E-02 0. -1.
</event>
<event>
 5   0  0.2540506E-04  0.2006639E+04  0.7818609E-02  0.8603523E-01
       -2   -1    0    0    0  501  0.00000000000E+00  0.00000000000E+00  0.77614582716E+03  0.77614582717E+03  0.25500000920E-02 0.  1.
        2   -1    0    0  501    0  0.00000000000E+00  0.00000000000E+00 -0.12969851647E+04  0.12969851647E+04  0.25500000920E-02 0. -1.
    10030    2    1    2    0    0  0.00000000000E+00  0.00000000000E+00 -0.52083933752E+03  0.20731309919E+04  0.20066386057E+04 0.  0.
        4    1    3    3  502    0 -0.66095200288E+03  0.47596479327E+03  0.34486764728E+03  0.88449722531E+03  0.12699999809E+01 0.  1.
       -4    1    3    3    0  502  0.66095200288E+03 -0.47596479327E+03 -0.86570698480E+03  0.11886337665E+04  0.12699999809E+01 0. -1.
</event>
<event>
 5   0  0.2488886E-04  0.2016546E+04  0.7818609E-02  0.8598924E-01
        2   -1    0    0  501    0  0.00000000000E+00  0.00000000000E+00  0.49257134633E+03  0.49257134634E+03  0.25500000920E-02 0.  1.
       -2   -1    0    0    0  501  0.00000000000E+00  0.00000000000E+00 -0.20638921879E+04  0.20638921879E+04  0.25500000920E-02 0. -1.
    10030    2    1    2    0    0  0.00000000000E+00  0.00000000000E+00 -0.15713208416E+04  0.25564635343E+04  0.20165457135E+04 0.  0.
        3    1    3    3  502    0  0.47360109641E+03  0.75369886442E+03 -0.18531418589E+03  0.90923117767E+03  0.10100000352E+00 0.  1.
       -3    1    3    3    0  502 -0.47360109641E+03 -0.75369886442E+03 -0.13860066557E+04  0.16472323566E+04  0.10100000352E+00 0. -1.
</event>
<event>
 5   0  0.1210633E-04  0.2008768E+04  0.7818609E-02  0.8602532E-01
        1   -1    0    0  501    0  0.00000000000E+00  0.00000000000E+00  0.81291071208E+03  0.81291071209E+03  0.50400001928E-02 0.  1.
       -1   -1    0    0    0  501  0.00000000000E+00  0.00000000000E+00 -0.12409564170E+04  0.12409564170E+04  0.50400001928E-02 0. -1.
    10030    2    1    2    0    0  0.00000000000E+00  0.00000000000E+00 -0.42804570494E+03  0.20538671291E+04  0.20087675472E+04 0.  0.
        2    1    3    3  502    0  0.45532732790E+03 -0.83401929139E+03  0.11866782012E+03  0.95759762191E+03  0.25500000920E-02 0.  1.
       -2    1    3    3    0  502 -0.45532732790E+03  0.83401929139E+03 -0.54671352506E+03  0.10962695072E+04  0.25500000920E-02 0. -1.
</event>
<event>
 5   0  0.1207228E-04  0.1792633E+04  0.7818609E-02  0.8710227E-01
       -1   -1    0    0    0  501  0.00000000000E+00  0.00000000000E+00  0.65577547589E+03  0.65577547591E+03  0.50400001928E-02 0. -1.
        1   -1    0    0  501    0  0.00000000000E+00  0.00000000000E+00 -0.12250893578E+04  0.12250893578E+04  0.50400001928E-02 0.  1.
    10030    2    1    2    0    0  0.00000000000E+00  0.00000000000E+00 -0.56931388193E+03  0.18808648337E+04  0.17926333219E+04 0.  0.
        1    1    3    3  502    0 -0.32185957279E+03 -0.62421954944E+03  0.29965526855E+03  0.76356853687E+03  0.50400001928E-02 0. -1.
       -1    1    3    3    0  502  0.32185957279E+03  0.62421954944E+03 -0.86896915048E+03  0.11172962969E+04  0.50400001928E-02 0.  1.
</event>
<event>
 5   0  0.2421737E-04  0.2010023E+04  0.7818609E-02  0.8601949E-01
       -2   -1    0    0    0  501  0.00000000000E+00  0.00000000000E+00  0.93069465883E+03  0.93069465883E+03  0.25500000920E-02 0. -1.
        2   -1    0    0  501    0  0.00000000000E+00  0.00000000000E+00 -0.10852625233E+04  0.10852625233E+04  0.25500000920E-02 0.  1.
    10030    2    1    2    0    0  0.00000000000E+00  0.00000000000E+00 -0.15456786451E+03  0.20159571822E+04  0.20100229192E+04 0.  0.
        1    1    3    3  502    0 -0.77503727217E+02  0.11253548408E+03 -0.10759026623E+04  0.10845448822E+04  0.50400001928E-02 0.  1.
       -1    1    3    3    0  502  0.77503727217E+02 -0.11253548408E+03  0.92133479775E+03  0.93141229994E+03  0.50400001928E-02 0. -1.
</event>
<event>
 5   0  0.1324930E-04  0.1975302E+04  0.7818609E-02  0.8618255E-01
        1   -1    0    0  501    0  0.00000000000E+00  0.00000000000E+00  0.47836804072E+03  0.47836804074E+03  0.50400001928E-02 0. -1.
       -1   -1    0    0    0  501  0.00000000000E+00  0.00000000000E+00 -0.20391304103E+04  0.20391304103E+04  0.50400001928E-02 0.  1.
    10030    2    1    2    0    0  0.00000000000E+00  0.00000000000E+00 -0.15607623696E+04  0.25174984511E+04  0.19753023254E+04 0.  0.
        5    1    3    3  502    0  0.43820685867E+03 -0.21946757095E+02  0.34732495354E+03  0.55961024337E+03  0.46999998093E+01 0. -1.
       -5    1    3    3    0  502 -0.43820685867E+03  0.21946757095E+02 -0.19080873232E+04  0.19578882077E+04  0.46999998093E+01 0.  1.
</event>
<event>
 5   0  0.1258546E-04  0.2003533E+04  0.7818609E-02  0.8604971E-01
        1   -1    0    0  501    0  0.00000000000E+00  0.00000000000E+00  0.19360383286E+04  0.19360383286E+04  0.50400001928E-02 0. -1.
       -1   -1    0    0    0  501  0.00000000000E+00  0.00000000000E+00 -0.51834496340E+03  0.51834496343E+03  0.50400001928E-02 0.  1.
    10030    2    1    2    0    0  0.00000000000E+00  0.00000000000E+00  0.14176933652E+04  0.24543832920E+04  0.20035325968E+04 0.  0.
        4    1    3    3  502    0 -0.64227998493E+03  0.18100130011E+03 -0.20644595945E+03  0.69850311148E+03  0.12699999809E+01 0.  1.
       -4    1    3    3    0  502  0.64227998493E+03 -0.18100130011E+03  0.16241393246E+04  0.17558801805E+04  0.12699999809E+01 0. -1.
</event>
<event>
 5   0  0.2488886E-04  0.1984035E+04  0.7818609E-02  0.8614121E-01
       -2   -1    0    0    0  501  0.00000000000E+00  0.00000000000E+00  0.57135451943E+03  0.57135451944E+03  0.25500000920E-02 0. -1.
        2   -1    0    0  501    0  0.00000000000E+00  0.00000000000E+00 -0.17223965049E+04  0.17223965049E+04  0.25500000920E-02 0.  1.
    10030    2    1    2    0    0  0.00000000000E+00  0.00000000000E+00 -0.11510419854E+04  0.22937510243E+04  0.19840353095E+04 0.  0.
        3    1    3    3  502    0  0.92150479309E+03 -0.41761794007E+00 -0.15085495285E+03  0.93377110959E+03  0.10100000352E+00 0. -1.
       -3    1    3    3    0  502 -0.92150479309E+03  0.41761794007E+00 -0.10001870326E+04  0.13599799147E+04  0.10100000352E+00 0.  1.
</event>
<event>
 5   0  0.1258546E-04  0.1924142E+04  0.7818609E-02  0.8642932E-01
       -1   -1    0    0    0  501  0.00000000000E+00  0.00000000000E+00  0.74724227388E+03  0.74724227389E+03  0.50400001928E-02 0.  1.
        1   -1    0    0  501    0  0.00000000000E+00  0.00000000000E+00 -0.12386614278E+04  0.12386614279E+04  0.50400001928E-02 0. -1.
    10030    2    1    2    0    0  0.00000000000E+00  0.00000000000E+00 -0.49141915396E+03  0.19859037017E+04  0.19241415561E+04 0.  0.
        4    1    3    3  502    0 -0.50536566393E+03  0.75433984189E+03 -0.57396805733E+03  0.10741806157E+04  0.12699999809E+01 0. -1.
       -4    1    3    3    0  502  0.50536566393E+03 -0.75433984189E+03  0.82548903366E+02  0.91172308608E+03  0.12699999809E+01 0.  1.
</event>
<event>
 5   0  0.1207228E-04  0.1960746E+04  0.7818609E-02  0.8625196E-01
       -1   -1    0    0    0  501  0.00000000000E+00  0.00000000000E+00  0.91685344740E+03  0.91685344741E+03  0.50400001928E-02 0. -1.
        1   -1    0    0  501    0  0.00000000000E+00  0.00000000000E+00 -0.10482934665E+04  0.10482934665E+04  0.50400001928E-02 0.  1.
    10030    2    1    2    0    0  0.00000000000E+00  0.00000000000E+00 -0.13144001908E+03  0.19651469139E+04  0.19607462647E+04 0.  0.
        1    1    3    3  502    0 -0.46867950595E+03 -0.82969295364E+03 -0.29662937464E+03  0.99801796705E+03  0.50400001928E-02 0.  1.
       -1    1    3    3    0  502  0.46867950595E+03  0.82969295364E+03  0.16518935557E+03  0.96712894685E+03  0.50400001928E-02 0. -1.
</event>
<event>
 5   0  0.1210633E-04  0.2053208E+04  0.7818609E-02  0.8582140E-01
        1   -1    0    0  501    0  0.00000000000E+00  0.00000000000E+00  0.11610975227E+04  0.11610975227E+04  0.50400001928E-02 0.  1.
       -1   -1    0    0    0  501  0.00000000000E+00  0.00000000000E+00 -0.90768963985E+03  0.90768963986E+03  0.50400001928E-02 0. -1.
    10030    2    1    2    0    0  0.00000000000E+00  0.00000000000E+00  0.25340788282E+03  0.20687871625E+04  0.20532084085E+04 0.  0.
        2    1    3    3  502    0  0.10119815639E+04 -0.82017114135E+02  0.27978662842E+03  0.10531448382E+04  0.25500000920E-02 0.  1.
       -2    1    3    3    0  502 -0.10119815639E+04  0.82017114135E+02 -0.26378745594E+02  0.10156423243E+04  0.25500000920E-02 0. -1.
</event>
<event>
 5   0  0.2421737E-04  0.1940116E+04  0.7818609E-02  0.8635142E-01
       -2   -1    0    0    0  501  0.00000000000E+00  0.00000000000E+00  0.10992683899E+04  0.10992683899E+04  0.25500000920E-02 0. -1.
        2   -1    0    0  501    0  0.00000000000E+00  0.00000000000E+00 -0.85603526918E+03  0.85603526918E+03  0.25500000920E-02 0.  1.
    10030    2    1    2    0    0  0.00000000000E+00  0.00000000000E+00  0.24323312076E+03  0.19553036591E+04  0.19401159884E+04 0.  0.
        1    1    3    3  502    0 -0.47538376387E+03  0.30362131093E+02  0.97327669280E+03  0.10835954516E+04  0.50400001928E-02 0. -1.
       -1    1    3    3    0  502  0.47538376387E+03 -0.30362131093E+02 -0.73004357204E+03  0.87170820752E+03  0.50400001928E-02 0.  1.
</event>
<event>
 5   0  0.9099125E-05  0.2016991E+04  0.7818609E-02  0.8598718E-01
       -3   -1    0    0    0  501  0.00000000000E+00  0.00000000000E+00  0.14901583427E+04  0.14901583461E+04  0.10100000352E+00 0.  1.
        3   -1    0    0  501    0  0.00000000000E+00  0.00000000000E+00 -0.68252013515E+03  0.68252014263E+03  0.10100000352E+00 0. -1.
    10030    2    1    2    0    0  0.00000000000E+00  0.00000000000E+00  0.80763820752E+03  0.21726784887E+04  0.20169909125E+04 0.  0.
        1    1    3    3  502    0 -0.52491922402E+03 -0.69502441202E+03  0.95145451174E+03  0.12899088390E+04  0.50400001928E-02 0.  1.
       -1    1    3    3    0  502  0.52491922402E+03  0.69502441202E+03 -0.14381630422E+03  0.88276964970E+03  0.50400001928E-02 0. -1.
</event>
<event>
 5   0  0.2488886E-04  0.2051538E+04  0.7818609E-02  0.8582897E-01
       -2   -1    0    0    0  501  0.00000000000E+00  0.00000000000E+00  0.46027731169E+03  0.46027731170E+03  0.25500000920E-02 0.  1.
        2   -1    0    0  501    0  0.00000000000E+00  0.00000000000E+00 -0.22860175010E+04  0.22860175010E+04  0.25500000920E-02 0. -1.
    10030    2    1    2    0    0  0.00000000000E+00  0.00000000000E+00 -0.18257401893E+04  0.27462948127E+04  0.20515379498E+04 0.  0.
        3    1    3    3  502    0  0.29995873493E+03  0.44387436795E+03 -0.20838669531E+04  0.21516275666E+04  0.10100000352E+00 0. -1.
       -3    1    3    3    0  502 -0.29995873493E+03 -0.44387436795E+03  0.25812676376E+03  0.59466724607E+03  0.10100000352E+00 0.  1.
</event>
<event>
 5   0  0.2463085E-04  0.1938916E+04  0.7818609E-02  0.8635724E-01
        2   -1    0    0  501    0  0.00000000000E+00  0.00000000000E+00  0.72760083889E+03  0.72760083890E+03  0.25500000920E-02 0. -1.
       -2   -1    0    0    0  501  0.00000000000E+00  0.00000000000E+00 -0.12917090162E+04  0.12917090162E+04  0.25500000920E-02 0.  1.
    10030    2    1    2    0    0  0.00000000000E+00  0.00000000000E+00 -0.56410817735E+03  0.20193098551E+04  0.19389157422E+04 0.  0.
        2    1    3    3  502    0  0.55033529063E+03 -0.71051796911E+03 -0.66064266176E+03  0.11154162645E+04  0.25500000920E-02 0.  1.
       -2    1    3    3    0  502 -0.55033529063E+03  0.71051796911E+03  0.96534484411E+02  0.90389359066E+03  0.25500000920E-02 0. -1.
</event>
<event>
 5   0  0.2540506E-04  0.2083768E+04  0.7818609E-02  0.8568428E-01
       -2   -1    0    0    0  501  0.00000000000E+00  0.00000000000E+00  0.10393089394E+04  0.10393089394E+04  0.25500000920E-02 0.  1.
        2   -1    0    0  501    0  0.00000000000E+00  0.00000000000E+00 -0.10444652587E+04  0.10444652587E+04  0.25500000920E-02 0. -1.
    10030    2    1    2    0    0  0.00000000000E+00  0.00000000000E+00 -0.51563193022E+01  0.20837741981E+04  0.20837678184E+04 0.  0.
        4    1    3    3  502    0 -0.16933182151E+03 -0.10044279625E+04  0.21644686949E+03  0.10413451195E+04  0.12699999809E+01 0. -1.
       -4    1    3    3    0  502  0.16933182151E+03  0.10044279625E+04 -0.22160318879E+03  0.10424290786E+04  0.12699999809E+01 0.  1.
</event>
<event>
 5   0  0.2488886E-04  0.1943876E+04  0.7818609E-02  0.8633319E-01
       -2   -1    0    0    0  501  0.00000000000E+00  0.00000000000E+00  0.46259716690E+03  0.46259716690E+03  0.25500000920E-02 0.  1.
        2   -1    0    0  501    0  0.00000000000E+00  0.00000000000E+00 -0.20420874609E+04  0.20420874609E+04  0.25500000920E-02 0. -1.
    10030    2    1    2    0    0  0.00000000000E+00  0.00000000000E+00 -0.15794902940E+04  0.25046846278E+04  0.19438764096E+04 0.  0.
        3    1    3    3  502    0 -0.31631030496E+03  0.44966835899E+03 -0.18224840919E+04  0.19036024053E+04  0.10100000352E+00 0. -1.
       -3    1    3    3    0  502  0.31631030496E+03 -0.44966835899E+03  0.24299379794E+03  0.60108222244E+03  0.10100000352E+00 0.  1.
</event>
<event>
 5   0  0.1207228E-04  0.2002875E+04  0.7818609E-02  0.8605278E-01
        1   -1    0    0  501    0  0.00000000000E+00  0.00000000000E+00  0.11184649128E+04  0.11184649128E+04  0.50400001928E-02 0. -1.
       -1   -1    0    0    0  501  0.00000000000E+00  0.00000000000E+00 -0.89665477757E+03  0.89665477758E+03  0.50400001928E-02 0.  1.
    10030    2    1    2    0    0  0.00000000000E+00  0.00000000000E+00  0.22181013526E+03  0.20151196904E+04  0.20028748415E+04 0.  0.
        1    1    3    3  502    0  0.92276312436E+03  0.36704021262E+03 -0.18983408991E+02  0.99326263959E+03  0.50400001928E-02 0. -1.
       -1    1    3    3    0  502 -0.92276312436E+03 -0.36704021262E+03  0.24079354425E+03  0.10218570508E+04  0.50400001928E-02 0.  1.
</event>
<event>
 5   0  0.9099125E-05  0.1990307E+04  0.7818609E-02  0.8611166E-01
       -3   -1    0    0    0  501  0.00000000000E+00  0.00000000000E+00  0.80736483979E+03  0.80736484611E+03  0.10100000352E+00 0.  1.
        3   -1    0    0  501    0  0.00000000000E+00  0.00000000000E+00 -0.12266204984E+04  0.12266205026E+04  0.10100000352E+00 0. -1.
    10030    2    1    2    0    0  0.00000000000E+00  0.00000000000E+00 -0.41925565862E+03  0.20339853487E+04  0.19903067832E+04 0.  0.
        4    1    3    3  502    0  0.53797865069E+03 -0.48460850475E+03  0.48804169233E+03  0.87318539717E+03  0.12699999809E+01 0.  1.
       -4    1    3    3    0  502 -0.53797865069E+03  0.48460850475E+03 -0.90729735095E+03  0.11607999515E+04  0.12699999809E+01 0. -1.
</event>
<event>
 5   0  0.2540506E-04  0.1934018E+04  0.7818609E-02  0.8638106E-01
        2   -1    0    0  501    0  0.00000000000E+00  0.00000000000E+00  0.20292176679E+04  0.20292176679E+04  0.25500000920E-02 0.  1.
       -2   -1    0    0    0  501  0.00000000000E+00  0.00000000000E+00 -0.46082104203E+03  0.46082104204E+03  0.25500000920E-02 0. -1.
    10030    2    1    2    0    0  0.00000000000E+00  0.00000000000E+00  0.15683966259E+04  0.24900387100E+04  0.19340177871E+04 0.  0.
        4    1    3    3  502    0  0.74955630414E+02 -0.45520020355E+03  0.18784018981E+04  0.19342235846E+04  0.12699999809E+01 0.  1.
       -4    1    3    3    0  502 -0.74955630414E+02  0.45520020355E+03 -0.31000527218E+03  0.55581512531E+03  0.12699999809E+01 0. -1.
</event>
<event>
 5   0  0.2463085E-04  0.1995997E+04  0.7818609E-02  0.8608495E-01
        2   -1    0    0  501    0  0.00000000000E+00  0.00000000000E+00  0.14444930854E+04  0.14444930854E+04  0.25500000920E-02 0.  1.
       -2   -1    0    0    0  501  0.00000000000E+00  0.00000000000E+00 -0.68951587452E+03  0.68951587453E+03  0.25500000920E-02 0. -1.
    10030    2    1    2    0    0  0.00000000000E+00  0.00000000000E+00  0.75497721091E+03  0.21340089600E+04  0.19959969069E+04 0.  0.
        2    1    3    3  502    0 -0.23185040297E+03 -0.66717478993E+03 -0.37633335452E+03  0.80031469023E+03  0.25500000920E-02 0. -1.
       -2    1    3    3    0  502  0.23185040297E+03  0.66717478993E+03  0.11313105654E+04  0.13336942697E+04  0.25500000920E-02 0.  1.
</event>
<event>
 5   0  0.1210633E-04  0.1945719E+04  0.7818609E-02  0.8632428E-01
       -1   -1    0    0    0  501  0.00000000000E+00  0.00000000000E+00  0.83752574361E+03  0.83752574363E+03  0.50400001928E-02 0.  1.
        1   -1    0    0  501    0  0.00000000000E+00  0.00000000000E+00 -0.11300617787E+04  0.11300617787E+04  0.50400001928E-02 0. -1.
    10030    2    1    2    0    0  0.00000000000E+00  0.00000000000E+00 -0.29253603513E+03  0.19675875224E+04  0.19457192311E+04 0.  0.
        2    1    3    3  502    0 -0.81532991585E+03 -0.40331326066E+03  0.20261884090E+03  0.93192212797E+03  0.25500000920E-02 0.  1.
       -2    1    3    3    0  502  0.81532991585E+03  0.40331326066E+03 -0.49515487603E+03  0.10356653944E+04  0.25500000920E-02 0. -1.
</event>
<event>
 5   0  0.9099125E-05  0.2015917E+04  0.7818609E-02  0.8599215E-01
        4   -1    0    0  501    0  0.00000000000E+00  0.00000000000E+00  0.22545245578E+04  0.22545249155E+04  0.12699999809E+01 0.  1.
       -4   -1    0    0    0  501  0.00000000000E+00  0.00000000000E+00 -0.45063944115E+03  0.45064123071E+03  0.12699999809E+01 0. -1.
    10030    2    1    2    0    0  0.00000000000E+00  0.00000000000E+00  0.18038851167E+04  0.27051661463E+04  0.20159172514E+04 0.  0.
        2    1    3    3  502    0  0.44577680084E+02  0.51343084440E+03  0.20643610262E+04  0.21277182257E+04  0.25500000920E-02 0.  1.
       -2    1    3    3    0  502 -0.44577680084E+02 -0.51343084440E+03 -0.26047590948E+03  0.57744792057E+03  0.25500000920E-02 0. -1.
</event>
<event>
 5   0  0.2421737E-04  0.1795229E+04  0.7818609E-02  0.8708841E-01
       -2   -1    0    0    0  501  0.00000000000E+00  0.00000000000E+00  0.37398569537E+03  0.37398569537E+03  0.25500000920E-02 0.  1.
        2   -1    0    0  501    0  0.00000000000E+00  0.00000000000E+00 -0.21543912066E+04  0.21543912066E+04  0.25500000920E-02 0. -1.
    10030    2    1    2    0    0  0.00000000000E+00  0.00000000000E+00 -0.17804055112E+04  0.25283769020E+04  0.17952286690E+04 0.  0.
        1    1    3    3  502    0  0.63587243231E+03  0.33512024155E+03 -0.16474281640E+04  0.17974033721E+04  0.50400001928E-02 0. -1.
       -1    1    3    3    0  502 -0.63587243231E+03 -0.33512024155E+03 -0.13297734724E+03  0.73097352988E+03  0.50400001928E-02 0.  1.
</event>
<event>
 5   0  0.1258546E-04  0.1973980E+04  0.7818609E-02  0.8618883E-01
       -1   -1    0    0    0  501  0.00000000000E+00  0.00000000000E+00  0.62672573259E+03  0.62672573261E+03  0.50400001928E-02 0. -1.
        1   -1    0    0  501    0  0.00000000000E+00  0.00000000000E+00 -0.15543469091E+04  0.15543469091E+04  0.50400001928E-02 0.  1.
    10030    2    1    2    0    0  0.00000000000E+00  0.00000000000E+00 -0.92762117647E+03  0.21810726417E+04  0.19739799445E+04 0.  0.
        4    1    3    3  502    0 -0.52727949681E+03 -0.12034336075E+03 -0.13760427384E+04  0.14785132475E+04  0.12699999809E+01 0.  1.
       -4    1    3    3    0  502  0.52727949681E+03  0.12034336075E+03  0.44842156194E+03  0.70255939417E+03  0.12699999809E+01 0. -1.
</event>
<event>
 5   0  0.1324930E-04  0.2015111E+04  0.7818609E-02  0.8599588E-01
        1   -1    0    0  501    0  0.00000000000E+00  0.00000000000E+00  0.11946971187E+04  0.11946971187E+04  0.50400001928E-02 0.  1.
       -1   -1    0    0    0  501  0.00000000000E+00  0.00000000000E+00 -0.84972846983E+03  0.84972846984E+03  0.50400001928E-02 0. -1.
    10030    2    1    2    0    0  0.00000000000E+00  0.00000000000E+00  0.34496864887E+03  0.20444255886E+04  0.20151110685E+04 0.  0.
        5    1    3    3  502    0 -0.41044986480E+01 -0.68565793342E+03  0.92146658786E+03  0.11485932314E+04  0.46999998093E+01 0.  1.
       -5    1    3    3    0  502  0.41044986480E+01  0.68565793342E+03 -0.57649793898E+03  0.89583235721E+03  0.46999998093E+01 0. -1.
</event>
<event>
 5   0  0.1207228E-04  0.2099205E+04  0.7818609E-02  0.8561594E-01
       -1   -1    0    0    0  501  0.00000000000E+00  0.00000000000E+00  0.59232015011E+03  0.59232015014E+03  0.50400001928E-02 0.  1.
        1   -1    0    0  501    0  0.00000000000E+00  0.00000000000E+00 -0.18599156839E+04  0.18599156839E+04  0.50400001928E-02 0. -1.
    10030    2    1    2    0    0  0.00000000000E+00  0.00000000000E+00 -0.12675955338E+04  0.24522358341E+04  0.20992051230E+04 0.  0.
        1    1    3    3  502    0 -0.67910777452E+03 -0.10997931263E+03 -0.15598158620E+04  0.17047898234E+04  0.50400001928E-02 0. -1.
       -1    1    3    3    0  502  0.67910777452E+03  0.10997931263E+03  0.29222032819E+03  0.74744601066E+03  0.50400001928E-02 0.  1.
</event>
<event>
 5   0  0.1231056E-04  0.2074792E+04  0.7818609E-02  0.8572430E-01
        1   -1    0    0  501    0  0.00000000000E+00  0.00000000000E+00  0.16001285803E+04  0.16001285803E+04  0.50400001928E-02 0.  1.
       -1   -1    0    0    0  501  0.00000000000E+00  0.00000000000E+00 -0.67256517563E+03  0.67256517565E+03  0.50400001928E-02 0. -1.
    10030    2    1    2    0    0  0.00000000000E+00  0.00000000000E+00  0.92756340463E+03  0.22726937559E+04  0.20747922881E+04 0.  0.
        3    1    3    3  502    0 -0.90418990021E+03  0.70320866560E+02 -0.87933363186E+02  0.91117324724E+03  0.10100000352E+00 0.  1.
       -3    1    3    3    0  502  0.90418990021E+03 -0.70320866560E+02  0.10154967678E+04  0.13615205087E+04  0.10100000352E+00 0. -1.
</event>
<event>
 5   0  0.2421737E-04  0.1961729E+04  0.7818609E-02  0.8624726E-01
        2   -1    0    0  501    0  0.00000000000E+00  0.00000000000E+00  0.96395197969E+03  0.96395197970E+03  0.25500000920E-02 0. -1.
       -2   -1    0    0    0  501  0.00000000000E+00  0.00000000000E+00 -0.99807353028E+03  0.99807353029E+03  0.25500000920E-02 0.  1.
    10030    2    1    2    0    0  0.00000000000E+00  0.00000000000E+00 -0.34121550591E+02  0.19620255100E+04  0.19617287839E+04 0.  0.
        1    1    3    3  502    0  0.70254413416E+03 -0.58689153468E+03  0.33524954512E+03  0.97488573250E+03  0.50400001928E-02 0. -1.
       -1    1    3    3    0  502 -0.70254413416E+03  0.58689153468E+03 -0.36937109571E+03  0.98713977748E+03  0.50400001928E-02 0.  1.
</event>
<event>
 5   0  0.2421737E-04  0.2039078E+04  0.7818609E-02  0.8588565E-01
        2   -1    0    0  501    0  0.00000000000E+00  0.00000000000E+00  0.15549614950E+04  0.15549614950E+04  0.25500000920E-02 0.  1.
       -2   -1    0    0    0  501  0.00000000000E+00  0.00000000000E+00 -0.66847920536E+03  0.66847920536E+03  0.25500000920E-02 0. -1.
    10030    2    1    2    0    0  0.00000000000E+00  0.00000000000E+00  0.88648228964E+03  0.22234407004E+04  0.20390776587E+04 0.  0.
        1    1    3    3  502    0 -0.95926470570E+03  0.34532005394E+03  0.43782086506E+03  0.11095592932E+04  0.50400001928E-02 0.  1.
       -1    1    3    3    0  502  0.95926470570E+03 -0.34532005394E+03  0.44866142459E+03  0.11138814071E+04  0.50400001928E-02 0. -1.
</event>
<event>
 5   0  0.9099125E-05  0.1992207E+04  0.7818609E-02  0.8610273E-01
       -3   -1    0    0    0  501  0.00000000000E+00  0.00000000000E+00  0.17658914741E+04  0.17658914770E+04  0.10100000352E+00 0. -1.
        3   -1    0    0  501    0  0.00000000000E+00  0.00000000000E+00 -0.56188175768E+03  0.56188176675E+03  0.10100000352E+00 0.  1.
    10030    2    1    2    0    0  0.00000000000E+00  0.00000000000E+00  0.12040097164E+04  0.23277732437E+04  0.19922070367E+04 0.  0.
        3    1    3    3  502    0 -0.49720692235E+03  0.76708302260E+03  0.10643749881E+04  0.14030414151E+04  0.10100000352E+00 0.  1.
       -3    1    3    3    0  502  0.49720692235E+03 -0.76708302260E+03  0.13963472833E+03  0.92473182856E+03  0.10100000352E+00 0. -1.
</event>
<event>
 5   0  0.2540506E-04  0.2009710E+04  0.7818609E-02  0.8602094E-01
       -2   -1    0    0    0  501  0.00000000000E+00  0.00000000000E+00  0.71503513550E+03  0.71503513550E+03  0.25500000920E-02 0.  1.
        2   -1    0    0  501    0  0.00000000000E+00  0.00000000000E+00 -0.14121459287E+04  0.14121459287E+04  0.25500000920E-02 0. -1.
    10030    2    1    2    0    0  0.00000000000E+00  0.00000000000E+00 -0.69711079320E+03  0.21271810642E+04  0.20097103826E+04 0.  0.
        4    1    3    3  502    0 -0.80822610688E+03 -0.54695017411E+03 -0.95082415830E+02  0.98052343750E+03  0.12699999809E+01 0.  1.
       -4    1    3    3    0  502  0.80822610688E+03  0.54695017411E+03 -0.60202837737E+03  0.11466576267E+04  0.12699999809E+01 0. -1.
</event>
<event>
 5   0  0.1210633E-04  0.2057656E+04  0.7818609E-02  0.8580129E-01
       -1   -1    0    0    0  501  0.00000000000E+00  0.00000000000E+00  0.77575135612E+03  0.77575135614E+03  0.50400001928E-02 0. -1.
        1   -1    0    0  501    0  0.00000000000E+00  0.00000000000E+00 -0.13644672617E+04  0.13644672617E+04  0.50400001928E-02 0.  1.
    10030    2    1    2    0    0  0.00000000000E+00  0.00000000000E+00 -0.58871590560E+03  0.21402186179E+04  0.20576562674E+04 0.  0.
        2    1    3    3  502    0  0.58034747204E+03 -0.73124939078E+03 -0.74409418968E+03  0.11938195102E+04  0.25500000920E-02 0.  1.
       -2    1    3    3    0  502 -0.58034747204E+03  0.73124939078E+03  0.15537828408E+03  0.94639910767E+03  0.25500000920E-02 0. -1.
</event>
<event>
 5   0  0.2596061E-04  0.1998638E+04  0.7818609E-02  0.8607258E-01
       -2   -1    0    0    0  501  0.00000000000E+00  0.00000000000E+00  0.79779845108E+03  0.79779845108E+03  0.25500000920E-02 0.  1.
        2   -1    0    0  501    0  0.00000000000E+00  0.00000000000E+00 -0.12517421877E+04  0.12517421877E+04  0.25500000920E-02 0. -1.
    10030    2    1    2    0    0  0.00000000000E+00  0.00000000000E+00 -0.45394373660E+03  0.20495406388E+04  0.19986375144E+04 0.  0.
        5    1    3    3  502    0  0.27970075020E+03 -0.58629392692E+03  0.55173846884E+03  0.85229719370E+03  0.46999998093E+01 0.  1.
       -5    1    3    3    0  502 -0.27970075020E+03  0.58629392692E+03 -0.10056822054E+04  0.11972434451E+04  0.46999998093E+01 0. -1.
</event>
<event>
 5   0  0.2596061E-04  0.1996432E+04  0.7818609E-02  0.8608291E-01
        2   -1    0    0  501    0  0.00000000000E+00  0.00000000000E+00  0.28115630813E+04  0.28115630813E+04  0.25500000920E-02 0. -1.
       -2   -1    0    0    0  501  0.00000000000E+00  0.00000000000E+00 -0.35440615050E+03  0.35440615051E+03  0.25500000920E-02 0.  1.
    10030    2    1    2    0    0  0.00000000000E+00  0.00000000000E+00  0.24571569308E+04  0.31659692318E+04  0.19964320660E+04 0.  0.
        5    1    3    3  502    0  0.80873477046E+03  0.18325551123E+03  0.34737583829E+03  0.89906983843E+03  0.46999998093E+01 0.  1.
       -5    1    3    3    0  502 -0.80873477046E+03 -0.18325551123E+03  0.21097810925E+04  0.22668993933E+04  0.46999998093E+01 0. -1.
</event>
<event>
 5   0  0.2488886E-04  0.1667810E+04  0.7818609E-02  0.8779940E-01
        2   -1    0    0  501    0  0.00000000000E+00  0.00000000000E+00  0.15480270129E+04  0.15480270129E+04  0.25500000920E-02 0. -1.
       -2   -1    0    0    0  501  0.00000000000E+00  0.00000000000E+00 -0.44921511565E+03  0.44921511565E+03  0.25500000920E-02 0.  1.
    10030    2    1    2    0    0  0.00000000000E+00  0.00000000000E+00  0.10988118972E+04  0.19972421285E+04  0.16678095019E+04 0.  0.
        3    1    3    3  502    0 -0.10041466792E+03 -0.13893900105E+02  0.15406210432E+04  0.15439525106E+04  0.10100000352E+00 0. -1.
       -3    1    3    3    0  502  0.10041466792E+03  0.13893900105E+02 -0.44180914601E+03  0.45328961790E+03  0.10100000352E+00 0.  1.
</event>
<event>
 5   0  0.2596061E-04  0.1960206E+04  0.7818609E-02  0.8625455E-01
       -2   -1    0    0    0  501  0.00000000000E+00  0.00000000000E+00  0.80934092094E+03  0.80934092095E+03  0.25500000920E-02 0. -1.
        2   -1    0    0  501    0  0.00000000000E+00  0.00000000000E+00 -0.11868939517E+04  0.11868939517E+04  0.25500000920E-02 0.  1.
    10030    2    1    2    0    0  0.00000000000E+00  0.00000000000E+00 -0.37755303075E+03  0.19962348726E+04  0.19602059524E+04 0.  0.
        5    1    3    3  502    0 -0.74858107105E+03 -0.63052677496E+03 -0.13643018905E+03  0.98821704112E+03  0.46999998093E+01 0.  1.
       -5    1    3    3    0  502  0.74858107105E+03  0.63052677496E+03 -0.24112284170E+03  0.10080178315E+04  0.46999998093E+01 0. -1.
</event>
<event>
 5   0  0.2463085E-04  0.2017343E+04  0.7818609E-02  0.8598555E-01
       -2   -1    0    0    0  501  0.00000000000E+00  0.00000000000E+00  0.50052620064E+03  0.50052620064E+03  0.25500000920E-02 0. -1.
        2   -1    0    0  501    0  0.00000000000E+00  0.00000000000E+00 -0.20326979699E+04  0.20326979699E+04  0.25500000920E-02 0.  1.
    10030    2    1    2    0    0  0.00000000000E+00  0.00000000000E+00 -0.15321717693E+04  0.25332241706E+04  0.20173433936E+04 0.  0.
        2    1    3    3  502    0  0.11307624594E+03 -0.12333354052E+03  0.48297726801E+03  0.51114033399E+03  0.25500000920E-02 0. -1.
       -2    1    3    3    0  502 -0.11307624594E+03  0.12333354052E+03 -0.20151490373E+04  0.20220838366E+04  0.25500000920E-02 0.  1.
</event>
<event>
 5   0  0.2596061E-04  0.2040968E+04  0.7818609E-02  0.8587703E-01
        2   -1    0    0  501    0  0.00000000000E+00  0.00000000000E+00  0.15536270517E+04  0.15536270517E+04  0.25500000920E-02 0. -1.
       -2   -1    0    0    0  501  0.00000000000E+00  0.00000000000E+00 -0.67029476234E+03  0.67029476235E+03  0.25500000920E-02 0.  1.
    10030    2    1    2    0    0  0.00000000000E+00  0.00000000000E+00  0.88333228939E+03  0.22239218141E+04  0.20409684715E+04 0.  0.
        5    1    3    3  502    0 -0.19304045619E+03 -0.19881142980E+03 -0.62850024213E+03  0.68689536809E+03  0.46999998093E+01 0.  1.
       -5    1    3    3    0  502  0.19304045619E+03  0.19881142980E+03  0.15118325315E+04  0.15370264460E+04  0.46999998093E+01 0. -1.
</event>
<event>
 5   0  0.2463085E-04  0.1969529E+04  0.7818609E-02  0.8621001E-01
       -2   -1    0    0    0  501  0.00000000000E+00  0.00000000000E+00  0.77635887930E+03  0.77635887931E+03  0.25500000920E-02 0.  1.
        2   -1    0    0  501    0  0.00000000000E+00  0.00000000000E+00 -0.12491145188E+04  0.12491145188E+04  0.25500000920E-02 0. -1.
    10030    2    1    2    0    0  0.00000000000E+00  0.00000000000E+00 -0.47275563948E+03  0.20254733981E+04  0.19695290279E+04 0.  0.
        2    1    3    3  502    0  0.71727545889E+03 -0.75393833699E+02 -0.92594065678E+03  0.11736841202E+04  0.25500000920E-02 0. -1.
       -2    1    3    3    0  502 -0.71727545889E+03  0.75393833699E+02  0.45318501729E+03  0.85178927792E+03  0.25500000920E-02 0.  1.
</event>
<event>
 5   0  0.2540506E-04  0.1938283E+04  0.7818609E-02  0.8636032E-01
        2   -1    0    0  501    0  0.00000000000E+00  0.00000000000E+00  0.15469437155E+04  0.15469437155E+04  0.25500000920E-02 0.  1.
       -2   -1    0    0    0  501  0.00000000000E+00  0.00000000000E+00 -0.60715553634E+03  0.60715553635E+03  0.25500000920E-02 0. -1.
    10030    2    1    2    0    0  0.00000000000E+00  0.00000000000E+00  0.93978817916E+03  0.21540992519E+04  0.19382832005E+04 0.  0.
        4    1    3    3  502    0 -0.43103278272E+03 -0.79512607463E+03  0.85682550782E+03  0.12458596623E+04  0.12699999809E+01 0.  1.
       -4    1    3    3    0  502  0.43103278272E+03  0.79512607463E+03  0.82962671340E+02  0.90823958958E+03  0.12699999809E+01 0. -1.
</event>
<event>
 5   0  0.2421737E-04  0.1881962E+04  0.7818609E-02  0.8663888E-01
        2   -1    0    0  501    0  0.00000000000E+00  0.00000000000E+00  0.15085178413E+04  0.15085178413E+04  0.25500000920E-02 0. -1.
       -2   -1    0    0    0  501  0.00000000000E+00  0.00000000000E+00 -0.58696364771E+03  0.58696364772E+03  0.25500000920E-02 0.  1.
    10030    2    1    2    0    0  0.00000000000E+00  0.00000000000E+00  0.92155419356E+03  0.20954814890E+04  0.18819618857E+04 0.  0.
        1    1    3    3  502    0  0.22538499891E+03 -0.54133183133E+03  0.12802129713E+04  0.14081135612E+04  0.50400001928E-02 0. -1.
       -1    1    3    3    0  502 -0.22538499891E+03  0.54133183133E+03 -0.35865877770E+03  0.68736792782E+03  0.50400001928E-02 0.  1.
</event>
<event>
 5   0  0.1207228E-04  0.1951571E+04  0.7818609E-02  0.8629603E-01
        1   -1    0    0  501    0  0.00000000000E+00  0.00000000000E+00  0.62505501589E+03  0.62505501592E+03  0.50400001928E-02 0.  1.
       -1   -1    0    0    0  501  0.00000000000E+00  0.00000000000E+00 -0.15233180470E+04  0.15233180470E+04  0.50400001928E-02 0. -1.
    10030    2    1    2    0    0  0.00000000000E+00  0.00000000000E+00 -0.89826303111E+03  0.21483730629E+04  0.19515712502E+04 0.  0.
        1    1    3    3  502    0  0.96126096086E+03 -0.28677828328E+02 -0.26720069460E+03  0.99811886263E+03  0.50400001928E-02 0.  1.
       -1    1    3    3    0  502 -0.96126096086E+03  0.28677828328E+02 -0.63106233651E+03  0.11502542003E+04  0.50400001928E-02 0. -1.
</event>
<event>
 5   0  0.1324930E-04  0.2085992E+04  0.7818609E-02  0.8567439E-01
        1   -1    0    0  501    0  0.00000000000E+00  0.00000000000E+00  0.86450922738E+03  0.86450922739E+03  0.50400001928E-02 0. -1.
       -1   -1    0    0    0  501  0.00000000000E+00  0.00000000000E+00 -0.12583328762E+04  0.12583328762E+04  0.50400001928E-02 0.  1.
    10030    2    1    2    0    0  0.00000000000E+00  0.00000000000E+00 -0.39382364885E+03  0.21228421036E+04  0.20859917379E+04 0.  0.
        5    1    3    3  502    0 -0.94702342549E+03 -0.23219688452E+02 -0.64099873159E+03  0.11438067959E+04  0.46999998093E+01 0. -1.
       -5    1    3    3    0  502  0.94702342549E+03  0.23219688452E+02  0.24717508274E+03  0.97903530778E+03  0.46999998093E+01 0.  1.
</event>
<event>
 5   0  0.1210633E-04  0.2032014E+04  0.7818609E-02  0.8591798E-01
        1   -1    0    0  501    0  0.00000000000E+00  0.00000000000E+00  0.17801453388E+04  0.17801453388E+04  0.50400001928E-02 0. -1.
       -1   -1    0    0    0  501  0.00000000000E+00  0.00000000000E+00 -0.57987972950E+03  0.57987972953E+03  0.50400001928E-02 0.  1.
    10030    2    1    2    0    0  0.00000000000E+00  0.00000000000E+00  0.12002656093E+04  0.23600250683E+04  0.20320139739E+04 0.  0.
        2    1    3    3  502    0  0.19073855762E+02 -0.85449598004E+03 -0.37849351341E+02  0.85554647173E+03  0.25500000920E-02 0.  1.
       -2    1    3    3    0  502 -0.19073855762E+02  0.85449598004E+03  0.12381149606E+04  0.15044785966E+04  0.25500000920E-02 0. -1.
</event>
<event>
 5   0  0.1324930E-04  0.2008672E+04  0.7818609E-02  0.8602577E-01
        1   -1    0    0  501    0  0.00000000000E+00  0.00000000000E+00  0.13408156358E+04  0.13408156358E+04  0.50400001928E-02 0.  1.
       -1   -1    0    0    0  501  0.00000000000E+00  0.00000000000E+00 -0.75229624974E+03  0.75229624976E+03  0.50400001928E-02 0. -1.
    10030    2    1    2    0    0  0.00000000000E+00  0.00000000000E+00  0.58851938603E+03  0.20931118855E+04  0.20086717745E+04 0.  0.
        5    1    3    3  502    0  0.18460273192E+03  0.79503337510E+02  0.13196320396E+04  0.13348594530E+04  0.46999998093E+01 0.  1.
       -5    1    3    3    0  502 -0.18460273192E+03 -0.79503337510E+02 -0.73111265355E+03  0.75825243256E+03  0.46999998093E+01 0. -1.
</event>
<event>
 5   0  0.2421737E-04  0.2036642E+04  0.7818609E-02  0.8589678E-01
        2   -1    0    0  501    0  0.00000000000E+00  0.00000000000E+00  0.21687986806E+04  0.21687986806E+04  0.25500000920E-02 0. -1.
       -2   -1    0    0    0  501  0.00000000000E+00  0.00000000000E+00 -0.47813455104E+03  0.47813455105E+03  0.25500000920E-02 0.  1.
    10030    2    1    2    0    0  0.00000000000E+00  0.00000000000E+00  0.16906641296E+04  0.26469332317E+04  0.20366419258E+04 0.  0.
        1    1    3    3  502    0 -0.58900264498E+03 -0.30399191108E+03 -0.15939708395E+03  0.68172034457E+03  0.50400001928E-02 0.  1.
       -1    1    3    3    0  502  0.58900264498E+03  0.30399191108E+03  0.18500612136E+04  0.19652128871E+04  0.50400001928E-02 0. -1.
</event>
<event>
 5   0  0.2540506E-04  0.1995972E+04  0.7818609E-02  0.8608506E-01
        2   -1    0    0  501    0  0.00000000000E+00  0.00000000000E+00  0.12411053332E+04  0.12411053332E+04  0.25500000920E-02 0.  1.
       -2   -1    0    0    0  501  0.00000000000E+00  0.00000000000E+00 -0.80249116473E+03  0.80249116473E+03  0.25500000920E-02 0. -1.
    10030    2    1    2    0    0  0.00000000000E+00  0.00000000000E+00  0.43861416850E+03  0.20435964980E+04  0.19959720082E+04 0.  0.
        4    1    3    3  502    0  0.50453966204E+03  0.10889832221E+03 -0.65521306982E+03  0.83410124980E+03  0.12699999809E+01 0. -1.
       -4    1    3    3    0  502 -0.50453966204E+03 -0.10889832221E+03  0.10938272383E+04  0.12094952482E+04  0.12699999809E+01 0.  1.
</event>
<event>
 5   0  0.1258546E-04  0.2019419E+04  0.7818609E-02  0.8597595E-01
       -1   -1    0    0    0  501  0.00000000000E+00  0.00000000000E+00  0.72924212803E+03  0.72924212805E+03  0.50400001928E-02 0.  1.
        1   -1    0    0  501    0  0.00000000000E+00  0.00000000000E+00 -0.13980452740E+04  0.13980452740E+04  0.50400001928E-02 0. -1.
    10030    2    1    2    0    0  0.00000000000E+00  0.00000000000E+00 -0.66880314599E+03  0.21272874021E+04  0.20194192341E+04 0.  0.
        4    1    3    3  502    0  0.31884224288E+03 -0.32892297609E+03  0.61347402526E+03  0.76563874811E+03  0.12699999809E+01 0.  1.
       -4    1    3    3    0  502 -0.31884224288E+03  0.32892297609E+03 -0.12822771713E+04  0.13616486540E+04  0.12699999809E+01 0. -1.
</event>
<event>
 5   0  0.1210633E-04  0.1788824E+04  0.7818609E-02  0.8712266E-01
       -1   -1    0    0    0  501  0.00000000000E+00  0.00000000000E+00  0.13166621320E+04  0.13166621320E+04  0.50400001928E-02 0. -1.
        1   -1    0    0  501    0  0.00000000000E+00  0.00000000000E+00 -0.60757615345E+03  0.60757615348E+03  0.50400001928E-02 0.  1.
    10030    2    1    2    0    0  0.00000000000E+00  0.00000000000E+00  0.70908597856E+03  0.19242382855E+04  0.17888236510E+04 0.  0.
        2    1    3    3  502    0  0.83423552302E+03 -0.22730863515E+03  0.10841110562E+03  0.87141901019E+03  0.25500000920E-02 0.  1.
       -2    1    3    3    0  502 -0.83423552302E+03  0.22730863515E+03  0.60067487294E+03  0.10528192753E+04  0.25500000920E-02 0. -1.
</event>
<event>
 5   0  0.1210633E-04  0.2121810E+04  0.7818609E-02  0.8551696E-01
       -1   -1    0    0    0  501  0.00000000000E+00  0.00000000000E+00  0.12089625377E+04  0.12089625377E+04  0.50400001928E-02 0.  1.
        1   -1    0    0  501    0  0.00000000000E+00  0.00000000000E+00 -0.93097972318E+03  0.93097972319E+03  0.50400001928E-02 0. -1.
    10030    2    1    2    0    0  0.00000000000E+00  0.00000000000E+00  0.27798281454E+03  0.21399422609E+04  0.21218101788E+04 0.  0.
        2    1    3    3  502    0 -0.76109612835E+03 -0.10458148841E+03 -0.59891322262E+03  0.97411583117E+03  0.25500000920E-02 0. -1.
       -2    1    3    3    0  502  0.76109612835E+03  0.10458148841E+03  0.87689603716E+03  0.11658264297E+04  0.25500000920E-02 0.  1.
</event>
<event>
 5   0  0.2463085E-04  0.2010596E+04  0.7818609E-02  0.8601683E-01
        2   -1    0    0  501    0  0.00000000000E+00  0.00000000000E+00  0.13408680822E+04  0.13408680822E+04  0.25500000920E-02 0.  1.
       -2   -1    0    0    0  501  0.00000000000E+00  0.00000000000E+00 -0.75370847028E+03  0.75370847028E+03  0.25500000920E-02 0. -1.
    10030    2    1    2    0    0  0.00000000000E+00  0.00000000000E+00  0.58715961189E+03  0.20945765525E+04  0.20105955646E+04 0.  0.
        2    1    3    3  502    0 -0.92729679066E+03  0.15835617161E+03  0.66288312051E+03  0.11508127765E+04  0.25500000920E-02 0. -1.
       -2    1    3    3    0  502  0.92729679066E+03 -0.15835617161E+03 -0.75723508618E+02  0.94376377597E+03  0.25500000920E-02 0.  1.
</event>
<event>
 5   0  0.1207228E-04  0.2055896E+04  0.7818609E-02  0.8580924E-01
       -1   -1    0    0    0  501  0.00000000000E+00  0.00000000000E+00  0.76231642520E+03  0.76231642522E+03  0.50400001928E-02 0. -1.
        1   -1    0    0  501    0  0.00000000000E+00  0.00000000000E+00 -0.13861396819E+04  0.13861396819E+04  0.50400001928E-02 0.  1.
    10030    2    1    2    0    0  0.00000000000E+00  0.00000000000E+00 -0.62382325669E+03  0.21484561071E+04  0.20558959576E+04 0.  0.
        1    1    3    3  502    0 -0.39063544026E+03 -0.41279636068E+03  0.58320317969E+03  0.81432354221E+03  0.50400001928E-02 0. -1.
       -1    1    3    3    0  502  0.39063544026E+03  0.41279636068E+03 -0.12070264364E+04  0.13341325649E+04  0.50400001928E-02 0.  1.
</event>
<event>
 5   0  0.1210633E-04  0.1909784E+04  0.7818609E-02  0.8650002E-01
       -1   -1    0    0    0  501  0.00000000000E+00  0.00000000000E+00  0.84407468868E+03  0.84407468869E+03  0.50400001928E-02 0.  1.
        1   -1    0    0  501    0  0.00000000000E+00  0.00000000000E+00 -0.10802579146E+04  0.10802579147E+04  0.50400001928E-02 0. -1.
    10030    2    1    2    0    0  0.00000000000E+00  0.00000000000E+00 -0.23618322596E+03  0.19243326033E+04  0.19097836139E+04 0.  0.
        2    1    3    3  502    0 -0.83355039617E+03  0.40101715292E+03 -0.35695735452E+03  0.99148352122E+03  0.25500000920E-02 0. -1.
       -2    1    3    3    0  502  0.83355039617E+03 -0.40101715292E+03  0.12077412855E+03  0.93284908213E+03  0.25500000920E-02 0.  1.
</event>
<event>
 5   0  0.1231056E-04  0.1881754E+04  0.7818609E-02  0.8663992E-01
        1   -1    0    0  501    0  0.00000000000E+00  0.00000000000E+00  0.74910456299E+03  0.74910456300E+03  0.50400001928E-02 0. -1.
       -1   -1    0    0    0  501  0.00000000000E+00  0.00000000000E+00 -0.11817439531E+04  0.11817439531E+04  0.50400001928E-02 0.  1.
    10030    2    1    2    0    0  0.00000000000E+00  0.00000000000E+00 -0.43263939013E+03  0.19308485161E+04  0.18817542747E+04 0.  0.
        3    1    3    3  502    0  0.29983023407E+03  0.63920709582E+02 -0.11290584174E+04  0.11699388644E+04  0.10100000352E+00 0.  1.
       -3    1    3    3    0  502 -0.29983023407E+03 -0.63920709582E+02  0.69641902725E+03  0.76090965173E+03  0.10100000352E+00 0. -1.
</event>
<event>
 5   0  0.1258546E-04  0.1970106E+04  0.7818609E-02  0.8620726E-01
        1   -1    0    0  501    0  0.00000000000E+00  0.00000000000E+00  0.14940692009E+04  0.14940692009E+04  0.50400001928E-02 0.  1.
       -1   -1    0    0    0  501  0.00000000000E+00  0.00000000000E+00 -0.64945438433E+03  0.64945438435E+03  0.50400001928E-02 0. -1.
    10030    2    1    2    0    0  0.00000000000E+00  0.00000000000E+00  0.84461481657E+03  0.21435235853E+04  0.19701063860E+04 0.  0.
        4    1    3    3  502    0  0.48268007717E+03 -0.78000717310E+03  0.31621941832E+02  0.91781959398E+03  0.12699999809E+01 0. -1.
       -4    1    3    3    0  502 -0.48268007717E+03  0.78000717310E+03  0.81299287474E+03  0.12257039913E+04  0.12699999809E+01 0.  1.
</event>
<event>
 5   0  0.2540506E-04  0.1978710E+04  0.7818609E-02  0.8616640E-01
        2   -1    0    0  501    0  0.00000000000E+00  0.00000000000E+00  0.93160244819E+03  0.93160244819E+03  0.25500000920E-02 0. -1.
       -2   -1    0    0    0  501  0.00000000000E+00  0.00000000000E+00 -0.10506873908E+04  0.10506873909E+04  0.25500000920E-02 0.  1.
    10030    2    1    2    0    0  0.00000000000E+00  0.00000000000E+00 -0.11908494266E+03  0.19822898390E+04  0.19787096256E+04 0.  0.
        4    1    3    3  502    0  0.43683805223E+03 -0.74889367620E+02  0.82658350099E+03  0.93791140214E+03  0.12699999809E+01 0. -1.
       -4    1    3    3    0  502 -0.43683805223E+03  0.74889367620E+02 -0.94566844365E+03  0.10443784369E+04  0.12699999809E+01 0.  1.
</event>
<event>
 5   0  0.2463085E-04  0.1964564E+04  0.7818609E-02  0.8623369E-01
        2   -1    0    0  501    0  0.00000000000E+00  0.00000000000E+00  0.12709763093E+04  0.12709763093E+04  0.25500000920E-02 0. -1.
       -2   -1    0    0    0  501  0.00000000000E+00  0.00000000000E+00 -0.75916313657E+03  0.75916313657E+03  0.25500000920E-02 0.  1.
    10030    2    1    2    0    0  0.00000000000E+00  0.00000000000E+00  0.51181317275E+03  0.20301394459E+04  0.19645644418E+04 0.  0.
        2    1    3    3  502    0  0.65662154286E+03 -0.33517018266E+03 -0.41490475103E+03  0.84595322230E+03  0.25500000920E-02 0.  1.
       -2    1    3    3    0  502 -0.65662154286E+03  0.33517018266E+03  0.92671792378E+03  0.11841862236E+04  0.25500000920E-02 0. -1.
</event>
<event>
 5   0  0.2596061E-04  0.2009872E+04  0.7818609E-02  0.8602019E-01
       -2   -1    0    0    0  501  0.00000000000E+00  0.00000000000E+00  0.81326640234E+03  0.81326640234E+03  0.25500000920E-02 0.  1.
        2   -1    0    0  501    0  0.00000000000E+00  0.00000000000E+00 -0.12417775523E+04  0.12417775523E+04  0.25500000920E-02 0. -1.
    10030    2    1    2    0    0  0.00000000000E+00  0.00000000000E+00 -0.42851114998E+03  0.20550439547E+04  0.20098716004E+04 0.  0.
        5    1    3    3  502    0 -0.85618046947E+03  0.52427650204E+03 -0.16895374119E+03  0.10180757848E+04  0.46999998093E+01 0.  1.
       -5    1    3    3    0  502  0.85618046947E+03 -0.52427650204E+03 -0.25955740879E+03  0.10369681699E+04  0.46999998093E+01 0. -1.
</event>
<event>
 5   0  0.2488886E-04  0.1994239E+04  0.7818609E-02  0.8609319E-01
       -2   -1    0    0    0  501  0.00000000000E+00  0.00000000000E+00  0.68152651745E+03  0.68152651745E+03  0.25500000920E-02 0. -1.
        2   -1    0    0  501    0  0.00000000000E+00  0.00000000000E+00 -0.14588531378E+04  0.14588531378E+04  0.25500000920E-02 0.  1.
    10030    2    1    2    0    0  0.00000000000E+00  0.00000000000E+00 -0.77732662035E+03  0.21403796553E+04  0.19942388006E+04 0.  0.
        3    1    3    3  502    0 -0.90443396547E+03  0.55386896034E+02 -0.83530652654E+03  0.12323982756E+04  0.10100000352E+00 0.  1.
       -3    1    3    3    0  502  0.90443396547E+03 -0.55386896034E+02  0.57979906188E+02  0.90798137969E+03  0.10100000352E+00 0. -1.
</event>
<event>
 5   0  0.2421737E-04  0.1593969E+04  0.7818609E-02  0.8824262E-01
        2   -1    0    0  501    0  0.00000000000E+00  0.00000000000E+00  0.88345020561E+03  0.88345020561E+03  0.25500000920E-02 0. -1.
       -2   -1    0    0    0  501  0.00000000000E+00  0.00000000000E+00 -0.71898128391E+03  0.71898128391E+03  0.25500000920E-02 0.  1.
    10030    2    1    2    0    0  0.00000000000E+00  0.00000000000E+00  0.16446892170E+03  0.16024314895E+04  0.15939688367E+04 0.  0.
        1    1    3    3  502    0  0.32208806959E+03 -0.12790563299E+03 -0.63926913572E+03  0.72716270767E+03  0.50400001928E-02 0.  1.
       -1    1    3    3    0  502 -0.32208806959E+03  0.12790563299E+03  0.80373805742E+03  0.87526878185E+03  0.50400001928E-02 0. -1.
</event>
<event>
 5   0  0.1231056E-04  0.1972931E+04  0.7818609E-02  0.8619382E-01
       -1   -1    0    0    0  501  0.00000000000E+00  0.00000000000E+00  0.45093374657E+03  0.45093374660E+03  0.50400001928E-02 0.  1.
        1   -1    0    0  501    0  0.00000000000E+00  0.00000000000E+00 -0.21579975709E+04  0.21579975709E+04  0.50400001928E-02 0. -1.
    10030    2    1    2    0    0  0.00000000000E+00  0.00000000000E+00 -0.17070638243E+04  0.26089313175E+04  0.19729307436E+04 0.  0.
        3    1    3    3  502    0  0.62570063911E+03  0.41298655468E+03 -0.17013460093E+04  0.18592034417E+04  0.10100000352E+00 0. -1.
       -3    1    3    3    0  502 -0.62570063911E+03 -0.41298655468E+03 -0.57178150456E+01  0.74972787579E+03  0.10100000352E+00 0.  1.
</event>
<event>
 5   0  0.1231056E-04  0.2075387E+04  0.7818609E-02  0.8572164E-01
       -1   -1    0    0    0  501  0.00000000000E+00  0.00000000000E+00  0.55898042987E+03  0.55898042989E+03  0.50400001928E-02 0. -1.
        1   -1    0    0  501    0  0.00000000000E+00  0.00000000000E+00 -0.19263785745E+04  0.19263785745E+04  0.50400001928E-02 0.  1.
    10030    2    1    2    0    0  0.00000000000E+00  0.00000000000E+00 -0.13673981446E+04  0.24853590044E+04  0.20753871192E+04 0.  0.
        3    1    3    3  502    0  0.56428810397E+03  0.63200117766E+03  0.33787643897E+02  0.84793170004E+03  0.10100000352E+00 0. -1.
       -3    1    3    3    0  502 -0.56428810397E+03 -0.63200117766E+03 -0.14011857885E+04  0.16374273043E+04  0.10100000352E+00 0.  1.
</event>
<event>
 5   0  0.2488886E-04  0.1997703E+04  0.7818609E-02  0.8607695E-01
       -2   -1    0    0    0  501  0.00000000000E+00  0.00000000000E+00  0.42694528594E+03  0.42694528595E+03  0.25500000920E-02 0. -1.
        2   -1    0    0  501    0  0.00000000000E+00  0.00000000000E+00 -0.23368432874E+04  0.23368432874E+04  0.25500000920E-02 0.  1.
    10030    2    1    2    0    0  0.00000000000E+00  0.00000000000E+00 -0.19098980014E+04  0.27637885733E+04  0.19977029064E+04 0.  0.
        3    1    3    3  502    0 -0.10311026856E+03 -0.80692796419E+03 -0.15307780774E+03  0.82776644792E+03  0.10100000352E+00 0. -1.
       -3    1    3    3    0  502  0.10311026856E+03  0.80692796419E+03 -0.17568201937E+04  0.19360221254E+04  0.10100000352E+00 0.  1.
</event>
<event>
 5   0  0.1258546E-04  0.1980218E+04  0.7818609E-02  0.8615926E-01
       -1   -1    0    0    0  501  0.00000000000E+00  0.00000000000E+00  0.73880739510E+03  0.73880739512E+03  0.50400001928E-02 0. -1.
        1   -1    0    0  501    0  0.00000000000E+00  0.00000000000E+00 -0.13268891811E+04  0.13268891811E+04  0.50400001928E-02 0.  1.
    10030    2    1    2    0    0  0.00000000000E+00  0.00000000000E+00 -0.58808178600E+03  0.20656965762E+04  0.19802177047E+04 0.  0.
        4    1    3    3  502    0  0.88542800351E+01  0.98998870646E+03 -0.28093308384E+03  0.10291166346E+04  0.12699999809E+01 0.  1.
       -4    1    3    3    0  502 -0.88542800351E+01 -0.98998870646E+03 -0.30714870215E+03  0.10365799416E+04  0.12699999809E+01 0. -1.
</event>
<event>
 5   0  0.2421737E-04  0.1957800E+04  0.7818609E-02  0.8626609E-01
        2   -1    0    0  501    0  0.00000000000E+00  0.00000000000E+00  0.81671469376E+03  0.81671469377E+03  0.25500000920E-02 0. -1.
       -2   -1    0    0    0  501  0.00000000000E+00  0.00000000000E+00 -0.11732920624E+04  0.11732920624E+04  0.25500000920E-02 0.  1.
    10030    2    1    2    0    0  0.00000000000E+00  0.00000000000E+00 -0.35657736867E+03  0.19900067562E+04  0.19577996501E+04 0.  0.
        1    1    3    3  502    0 -0.43864264938E+03 -0.35903663587E+03 -0.98949667664E+03  0.11403588702E+04  0.50400001928E-02 0.  1.
       -1    1    3    3    0  502  0.43864264938E+03  0.35903663587E+03  0.63291930797E+03  0.84964788599E+03  0.50400001928E-02 0. -1.
</event>
<event>
 5   0  0.2488886E-04  0.2048355E+04  0.7818609E-02  0.8584341E-01
       -2   -1    0    0    0  501  0.00000000000E+00  0.00000000000E+00  0.68196533588E+03  0.68196533588E+03  0.25500000920E-02 0.  1.
        2   -1    0    0  501    0  0.00000000000E+00  0.00000000000E+00 -0.15381122287E+04  0.15381122287E+04  0.25500000920E-02 0. -1.
    10030    2    1    2    0    0  0.00000000000E+00  0.00000000000E+00 -0.85614689285E+03  0.22200775646E+04  0.20483546789E+04 0.  0.
        3    1    3    3  502    0 -0.22469949309E+02  0.57619393210E+03  0.48931094447E+03  0.75626024396E+03  0.10100000352E+00 0.  1.
       -3    1    3    3    0  502  0.22469949309E+02 -0.57619393210E+03 -0.13454578373E+04  0.14638173207E+04  0.10100000352E+00 0. -1.
</event>
<event>
 5   0  0.1207228E-04  0.1986232E+04  0.7818609E-02  0.8613085E-01
        1   -1    0    0  501    0  0.00000000000E+00  0.00000000000E+00  0.14452807590E+04  0.14452807590E+04  0.50400001928E-02 0.  1.
       -1   -1    0    0    0  501  0.00000000000E+00  0.00000000000E+00 -0.68241340930E+03  0.68241340932E+03  0.50400001928E-02 0. -1.
    10030    2    1    2    0    0  0.00000000000E+00  0.00000000000E+00  0.76286734973E+03  0.21276941684E+04  0.19862315778E+04 0.  0.
        1    1    3    3  502    0  0.98195351406E+03 -0.14809014000E+03  0.39295002054E+03  0.10679761758E+04  0.50400001928E-02 0. -1.
       -1    1    3    3    0  502 -0.98195351406E+03  0.14809014000E+03  0.36991732919E+03  0.10597179926E+04  0.50400001928E-02 0.  1.
</event>
<event>
 5   0  0.2488886E-04  0.1982498E+04  0.7818609E-02  0.8614847E-01
        2   -1    0    0  501    0  0.00000000000E+00  0.00000000000E+00  0.26351460771E+04  0.26351460771E+04  0.25500000920E-02 0.  1.
       -2   -1    0    0    0  501  0.00000000000E+00  0.00000000000E+00 -0.37287308699E+03  0.37287308700E+03  0.25500000920E-02 0. -1.
    10030    2    1    2    0    0  0.00000000000E+00  0.00000000000E+00  0.22622729901E+04  0.30080191641E+04  0.19824984766E+04 0.  0.
        3    1    3    3  502    0  0.84861561422E+03 -0.51025543693E+03  0.12001016643E+04  0.15558769509E+04  0.10100000352E+00 0.  1.
       -3    1    3    3    0  502 -0.84861561422E+03  0.51025543693E+03  0.10621713258E+04  0.14521422131E+04  0.10100000352E+00 0. -1.
</event>
<event>
 5   0  0.2421737E-04  0.2017378E+04  0.7818609E-02  0.8598539E-01
       -2   -1    0    0    0  501  0.00000000000E+00  0.00000000000E+00  0.14341890481E+04  0.14341890481E+04  0.25500000920E-02 0. -1.
        2   -1    0    0  501    0  0.00000000000E+00  0.00000000000E+00 -0.70942764099E+03  0.70942764100E+03  0.25500000920E-02 0.  1.
    10030    2    1    2    0    0  0.00000000000E+00  0.00000000000E+00  0.72476140706E+03  0.21436166891E+04  0.20173778556E+04 0.  0.
        1    1    3    3  502    0  0.86976744428E+03  0.45491608029E+03  0.11543914884E+03  0.98831687446E+03  0.50400001928E-02 0.  1.
       -1    1    3    3    0  502 -0.86976744428E+03 -0.45491608029E+03  0.60932225822E+03  0.11552998146E+04  0.50400001928E-02 0. -1.
</event>
<event>
 5   0  0.1210633E-04  0.1971895E+04  0.7818609E-02  0.8619874E-01
       -1   -1    0    0    0  501  0.00000000000E+00  0.00000000000E+00  0.99381708815E+03  0.99381708816E+03  0.50400001928E-02 0.  1.
        1   -1    0    0  501    0  0.00000000000E+00  0.00000000000E+00 -0.97814053492E+03  0.97814053493E+03  0.50400001928E-02 0. -1.
    10030    2    1    2    0    0  0.00000000000E+00  0.00000000000E+00  0.15676553224E+02  0.19719576231E+04  0.19718953098E+04 0.  0.
        2    1    3    3  502    0  0.98227436732E+02 -0.90808837638E+03  0.37909069765E+03  0.98893017230E+03  0.25500000920E-02 0.  1.
       -2    1    3    3    0  502 -0.98227436732E+02  0.90808837638E+03 -0.36341414442E+03  0.98302745079E+03  0.25500000920E-02 0. -1.
</event>
<event>
 5   0  0.2540506E-04  0.1388574E+04  0.7818609E-02  0.8962131E-01
        2   -1    0    0  501    0  0.00000000000E+00  0.00000000000E+00  0.11185866537E+04  0.11185866537E+04  0.25500000920E-02 0.  1.
       -2   -1    0    0    0  501  0.00000000000E+00  0.00000000000E+00 -0.43093159695E+03  0.43093159696E+03  0.25500000920E-02 0. -1.
    10030    2    1    2    0    0  0.00000000000E+00  0.00000000000E+00  0.68765505670E+03  0.15495182506E+04  0.13885738482E+04 0.  0.
        4    1    3    3  502    0 -0.43152375905E+03  0.38677024189E+03  0.77054860214E+03  0.96413211532E+03  0.12699999809E+01 0.  1.
       -4    1    3    3    0  502  0.43152375905E+03 -0.38677024189E+03 -0.82893545434E+02  0.58538613530E+03  0.12699999809E+01 0. -1.
</event>
<event>
 5   0  0.2463085E-04  0.2009539E+04  0.7818609E-02  0.8602174E-01
       -2   -1    0    0    0  501  0.00000000000E+00  0.00000000000E+00  0.67399778449E+03  0.67399778450E+03  0.25500000920E-02 0. -1.
        2   -1    0    0  501    0  0.00000000000E+00  0.00000000000E+00 -0.14978716714E+04  0.14978716715E+04  0.25500000920E-02 0.  1.
    10030    2    1    2    0    0  0.00000000000E+00  0.00000000000E+00 -0.82387388696E+03  0.21718694559E+04  0.20095394378E+04 0.  0.
        2    1    3    3  502    0 -0.18832464401E+03 -0.36748715688E+03  0.57805326512E+03  0.71039324274E+03  0.25500000920E-02 0. -1.
       -2    1    3    3    0  502  0.18832464401E+03  0.36748715688E+03 -0.14019271521E+04  0.14614762132E+04  0.25500000920E-02 0.  1.
</event>
<event>
 5   0  0.1231056E-04  0.1834232E+04  0.7818609E-02  0.8688304E-01
        1   -1    0    0  501    0  0.00000000000E+00  0.00000000000E+00  0.15823540245E+04  0.15823540245E+04  0.50400001928E-02 0.  1.
       -1   -1    0    0    0  501  0.00000000000E+00  0.00000000000E+00 -0.53155087310E+03  0.53155087312E+03  0.50400001928E-02 0. -1.
    10030    2    1    2    0    0  0.00000000000E+00  0.00000000000E+00  0.10508031514E+04  0.21139048977E+04  0.18342318974E+04 0.  0.
        3    1    3    3  502    0  0.55955761511E+03 -0.28242851042E+03  0.12969837392E+04  0.14404990170E+04  0.10100000352E+00 0.  1.
       -3    1    3    3    0  502 -0.55955761511E+03  0.28242851042E+03 -0.24618058773E+03  0.67340588066E+03  0.10100000352E+00 0. -1.
</event>
<event>
 5   0  0.1258546E-04  0.1728590E+04  0.7818609E-02  0.8745224E-01
        1   -1    0    0  501    0  0.00000000000E+00  0.00000000000E+00  0.18735769752E+04  0.18735769752E+04  0.50400001928E-02 0. -1.
       -1   -1    0    0    0  501  0.00000000000E+00  0.00000000000E+00 -0.39870576082E+03  0.39870576085E+03  0.50400001928E-02 0.  1.
    10030    2    1    2    0    0  0.00000000000E+00  0.00000000000E+00  0.14748712143E+04  0.22722827360E+04  0.17285900999E+04 0.  0.
        4    1    3    3  502    0 -0.47795909321E+03 -0.43573331977E+03 -0.16210553099E+02  0.64697203623E+03  0.12699999809E+01 0.  1.
       -4    1    3    3    0  502  0.47795909321E+03  0.43573331977E+03  0.14910817674E+04  0.16253106998E+04  0.12699999809E+01 0. -1.
</event>
<event>
 5   0  0.1324930E-04  0.1970187E+04  0.7818609E-02  0.8620687E-01
        1   -1    0    0  501    0  0.00000000000E+00  0.00000000000E+00  0.77250839802E+03  0.77250839804E+03  0.50400001928E-02 0. -1.
       -1   -1    0    0    0  501  0.00000000000E+00  0.00000000000E+00 -0.12561797486E+04  0.12561797486E+04  0.50400001928E-02 0.  1.
    10030    2    1    2    0    0  0.00000000000E+00  0.00000000000E+00 -0.48367135062E+03  0.20286881467E+04  0.19701872046E+04 0.  0.
        5    1    3    3  502    0 -0.51911772241E+01  0.87934932726E+03  0.21531225584E+03  0.90535277389E+03  0.46999998093E+01 0. -1.
       -5    1    3    3    0  502  0.51911772241E+01 -0.87934932726E+03 -0.69898360646E+03  0.11233353728E+04  0.46999998093E+01 0.  1.
</event>
<event>
 5   0  0.1258546E-04  0.2023454E+04  0.7818609E-02  0.8595733E-01
       -1   -1    0    0    0  501  0.00000000000E+00  0.00000000000E+00  0.88035724361E+03  0.88035724363E+03  0.50400001928E-02 0. -1.
        1   -1    0    0  501    0  0.00000000000E+00  0.00000000000E+00 -0.11627004634E+04  0.11627004634E+04  0.50400001928E-02 0.  1.
    10030    2    1    2    0    0  0.00000000000E+00  0.00000000000E+00 -0.28234321979E+03  0.20430577070E+04  0.20234542497E+04 0.  0.
        4    1    3    3  502    0  0.80049572596E+03 -0.56428146327E+03  0.11502505586E+03  0.98612339666E+03  0.12699999809E+01 0.  1.
       -4    1    3    3    0  502 -0.80049572596E+03  0.56428146327E+03 -0.39736827565E+03  0.10569343104E+04  0.12699999809E+01 0. -1.
</event>
<event>
 5   0  0.1207228E-04  0.2006920E+04  0.7818609E-02  0.8603392E-01
        1   -1    0    0  501    0  0.00000000000E+00  0.00000000000E+00  0.22016773045E+04  0.22016773045E+04  0.50400001928E-02 0.  1.
       -1   -1    0    0    0  501  0.00000000000E+00  0.00000000000E+00 -0.45734767893E+03  0.45734767896E+03  0.50400001928E-02 0. -1.
    10030    2    1    2    0    0  0.00000000000E+00  0.00000000000E+00  0.17443296255E+04  0.26590249834E+04  0.20069200333E+04 0.  0.
        1    1    3    3  502    0  0.25630122019E+03  0.75266689389E+03  0.16832267788E+04  0.18615719588E+04  0.50400001928E-02 0.  1.
       -1    1    3    3    0  502 -0.25630122019E+03 -0.75266689389E+03  0.61102846681E+02  0.79745302465E+03  0.50400001928E-02 0. -1.
</event>
<event>
 5   0  0.2596061E-04  0.1958377E+04  0.7818609E-02  0.8626332E-01
        2   -1    0    0  501    0  0.00000000000E+00  0.00000000000E+00  0.13448636175E+04  0.13448636175E+04  0.25500000920E-02 0. -1.
       -2   -1    0    0    0  501  0.00000000000E+00  0.00000000000E+00 -0.71294251851E+03  0.71294251852E+03  0.25500000920E-02 0.  1.
    10030    2    1    2    0    0  0.00000000000E+00  0.00000000000E+00  0.63192109897E+03  0.20578061360E+04  0.19583773431E+04 0.  0.
        5    1    3    3  502    0 -0.30066068804E+03  0.86683578201E+03  0.67535993766E+03  0.11392691770E+04  0.46999998093E+01 0. -1.
       -5    1    3    3    0  502  0.30066068804E+03 -0.86683578201E+03 -0.43438838696E+02  0.91853695898E+03  0.46999998093E+01 0.  1.
</event>
<event>
 5   0  0.1258546E-04  0.1988383E+04  0.7818609E-02  0.8612071E-01
       -1   -1    0    0    0  501  0.00000000000E+00  0.00000000000E+00  0.13764276527E+04  0.13764276528E+04  0.50400001928E-02 0. -1.
        1   -1    0    0  501    0  0.00000000000E+00  0.00000000000E+00 -0.71810268433E+03  0.71810268434E+03  0.50400001928E-02 0.  1.
    10030    2    1    2    0    0  0.00000000000E+00  0.00000000000E+00  0.65832496842E+03  0.20945303371E+04  0.19883826516E+04 0.  0.
        4    1    3    3  502    0  0.66327370177E+03  0.14974965260E+03  0.10931802003E+04  0.12874010739E+04  0.12699999809E+01 0. -1.
       -4    1    3    3    0  502 -0.66327370177E+03 -0.14974965260E+03 -0.43485523186E+03  0.80712926319E+03  0.12699999809E+01 0.  1.
</event>
<event>
 5   0  0.2596061E-04  0.2002866E+04  0.7818609E-02  0.8605282E-01
        2   -1    0    0  501    0  0.00000000000E+00  0.00000000000E+00  0.88068084444E+03  0.88068084445E+03  0.25500000920E-02 0. -1.
       -2   -1    0    0    0  501  0.00000000000E+00  0.00000000000E+00 -0.11387418846E+04  0.11387418846E+04  0.25500000920E-02 0.  1.
    10030    2    1    2    0    0  0.00000000000E+00  0.00000000000E+00 -0.25806104016E+03  0.20194227290E+04  0.20028661109E+04 0.  0.
        5    1    3    3  502    0  0.52671650614E+03 -0.42189238272E+03 -0.87502684663E+03  0.11050418692E+04  0.46999998093E+01 0.  1.
       -5    1    3    3    0  502 -0.52671650614E+03  0.42189238272E+03  0.61696580648E+03  0.91438085981E+03  0.46999998093E+01 0. -1.
</event>
<event>
 5   0  0.2488886E-04  0.2024854E+04  0.7818609E-02  0.8595088E-01
       -2   -1    0    0    0  501  0.00000000000E+00  0.00000000000E+00  0.46827609852E+03  0.46827609852E+03  0.25500000920E-02 0. -1.
        2   -1    0    0  501    0  0.00000000000E+00  0.00000000000E+00 -0.21888986399E+04  0.21888986399E+04  0.25500000920E-02 0.  1.
    10030    2    1    2    0    0  0.00000000000E+00  0.00000000000E+00 -0.17206225414E+04  0.26571747384E+04  0.20248544789E+04 0.  0.
        3    1    3    3  502    0  0.26197449011E+03 -0.46930532625E+03  0.26559901672E+03  0.59951728132E+03  0.10100000352E+00 0. -1.
       -3    1    3    3    0  502 -0.26197449011E+03  0.46930532625E+03 -0.19862215581E+04  0.20576574571E+04  0.10100000352E+00 0.  1.
</event>
<event>
 5   0  0.2488886E-04  0.1975812E+04  0.7818609E-02  0.8618013E-01
       -2   -1    0    0    0  501  0.00000000000E+00  0.00000000000E+00  0.52885709965E+03  0.52885709966E+03  0.25500000920E-02 0. -1.
        2   -1    0    0  501    0  0.00000000000E+00  0.00000000000E+00 -0.18454106920E+04  0.18454106920E+04  0.25500000920E-02 0.  1.
    10030    2    1    2    0    0  0.00000000000E+00  0.00000000000E+00 -0.13165535924E+04  0.23742677917E+04  0.19758122849E+04 0.  0.
        3    1    3    3  502    0  0.30172082480E+03  0.27495285818E+03 -0.17393254266E+04  0.17865854248E+04  0.10100000352E+00 0.  1.
       -3    1    3    3    0  502 -0.30172082480E+03 -0.27495285818E+03  0.42277183421E+03  0.58768236689E+03  0.10100000352E+00 0. -1.
</event>
<event>
 5   0  0.1324930E-04  0.1990521E+04  0.7818609E-02  0.8611065E-01
       -1   -1    0    0    0  501  0.00000000000E+00  0.00000000000E+00  0.60581978067E+03  0.60581978069E+03  0.50400001928E-02 0. -1.
        1   -1    0    0  501    0  0.00000000000E+00  0.00000000000E+00 -0.16350467046E+04  0.16350467046E+04  0.50400001928E-02 0.  1.
    10030    2    1    2    0    0  0.00000000000E+00  0.00000000000E+00 -0.10292269239E+04  0.22408664853E+04  0.19905211740E+04 0.  0.
        5    1    3    3  502    0 -0.77458132185E+03 -0.38046746566E+03  0.43511097796E+02  0.86408739270E+03  0.46999998093E+01 0. -1.
       -5    1    3    3    0  502  0.77458132185E+03  0.38046746566E+03 -0.10727380217E+04  0.13767790926E+04  0.46999998093E+01 0.  1.
</event>
<event>
 5   0  0.2596061E-04  0.1833661E+04  0.7818609E-02  0.8688601E-01
        2   -1    0    0  501    0  0.00000000000E+00  0.00000000000E+00  0.16997378173E+04  0.16997378173E+04  0.25500000920E-02 0.  1.
       -2   -1    0    0    0  501  0.00000000000E+00  0.00000000000E+00 -0.49453417702E+03  0.49453417703E+03  0.25500000920E-02 0. -1.
    10030    2    1    2    0    0  0.00000000000E+00  0.00000000000E+00  0.12052036403E+04  0.21942719943E+04  0.18336613020E+04 0.  0.
        5    1    3    3  502    0  0.60710896708E+03  0.43910809632E+03 -0.29660443880E+02  0.74986602143E+03  0.46999998093E+01 0. -1.
       -5    1    3    3    0  502 -0.60710896708E+03 -0.43910809632E+03  0.12348640841E+04  0.14444059729E+04  0.46999998093E+01 0.  1.
</event>
<event>
 5   0  0.2488886E-04  0.2030847E+04  0.7818609E-02  0.8592333E-01
        2   -1    0    0  501    0  0.00000000000E+00  0.00000000000E+00  0.23006092567E+04  0.23006092568E+04  0.25500000920E-02 0. -1.
       -2   -1    0    0    0  501  0.00000000000E+00  0.00000000000E+00 -0.44817927510E+03  0.44817927511E+03  0.25500000920E-02 0.  1.
    10030    2    1    2    0    0  0.00000000000E+00  0.00000000000E+00  0.18524299816E+04  0.27487885319E+04  0.20308474970E+04 0.  0.
        3    1    3    3  502    0 -0.46456650657E+03  0.46408461172E+03 -0.12211835381E+03  0.66791426725E+03  0.10100000352E+00 0.  1.
       -3    1    3    3    0  502  0.46456650657E+03 -0.46408461172E+03  0.19745483355E+04  0.20808742646E+04  0.10100000352E+00 0. -1.
</event>
<event>
 5   0  0.1231056E-04  0.2009101E+04  0.7818609E-02  0.8602378E-01
        1   -1    0    0  501    0  0.00000000000E+00  0.00000000000E+00  0.17577183206E+04  0.17577183206E+04  0.50400001928E-02 0. -1.
       -1   -1    0    0    0  501  0.00000000000E+00  0.00000000000E+00 -0.57410879304E+03  0.57410879307E+03  0.50400001928E-02 0.  1.
    10030    2    1    2    0    0  0.00000000000E+00  0.00000000000E+00  0.11836095275E+04  0.23318271137E+04  0.20091008373E+04 0.  0.
        3    1    3    3  502    0  0.57769113724E+03  0.64014795858E+03  0.11899584689E+04  0.14695297298E+04  0.10100000352E+00 0. -1.
       -3    1    3    3    0  502 -0.57769113724E+03 -0.64014795858E+03 -0.63489413541E+01  0.86229738384E+03  0.10100000352E+00 0.  1.
</event>
<event>
 5   0  0.1231056E-04  0.2005082E+04  0.7818609E-02  0.8604249E-01
        1   -1    0    0  501    0  0.00000000000E+00  0.00000000000E+00  0.68426152880E+03  0.68426152882E+03  0.50400001928E-02 0. -1.
       -1   -1    0    0    0  501  0.00000000000E+00  0.00000000000E+00 -0.14688654162E+04  0.14688654162E+04  0.50400001928E-02 0.  1.
    10030    2    1    2    0    0  0.00000000000E+00  0.00000000000E+00 -0.78460388740E+03  0.21531269450E+04  0.20050816396E+04 0.  0.
        3    1    3    3  502    0 -0.19612571370E+03  0.93843993567E+03 -0.70712664097E+03  0.11912862397E+04  0.10100000352E+00 0. -1.
       -3    1    3    3    0  502  0.19612571370E+03 -0.93843993567E+03 -0.77477246425E+02  0.96184070528E+03  0.10100000352E+00 0.  1.
</event>
<event>
 5   0  0.1258546E-04  0.1915768E+04  0.7818609E-02  0.8647047E-01
       -1   -1    0    0    0  501  0.00000000000E+00  0.00000000000E+00  0.64855419530E+03  0.64855419532E+03  0.50400001928E-02 0. -1.
        1   -1    0    0  501    0  0.00000000000E+00  0.00000000000E+00 -0.14147501484E+04  0.14147501484E+04  0.50400001928E-02 0.  1.
    10030    2    1    2    0    0  0.00000000000E+00  0.00000000000E+00 -0.76619595312E+03  0.20633043438E+04  0.19157684036E+04 0.  0.
        4    1    3    3  502    0  0.17009405374E+03 -0.88948440517E+03 -0.46928866189E+02  0.90681774659E+03  0.12699999809E+01 0. -1.
       -4    1    3    3    0  502 -0.17009405374E+03  0.88948440517E+03 -0.71926708693E+03  0.11564865972E+04  0.12699999809E+01 0.  1.
</event>
<event>
 5   0  0.2421737E-04  0.1999928E+04  0.7818609E-02  0.8606654E-01
        2   -1    0    0  501    0  0.00000000000E+00  0.00000000000E+00  0.16121855031E+04  0.16121855031E+04  0.25500000920E-02 0. -1.
       -2   -1    0    0    0  501  0.00000000000E+00  0.00000000000E+00 -0.62023125566E+03  0.62023125566E+03  0.25500000920E-02 0.  1.
    10030    2    1    2    0    0  0.00000000000E+00  0.00000000000E+00  0.99195424746E+03  0.22324167588E+04  0.19999278377E+04 0.  0.
        1    1    3    3  502    0  0.32894716549E+03 -0.52058528990E+03 -0.38346287487E+03  0.72543714971E+03  0.50400001928E-02 0.  1.
       -1    1    3    3    0  502 -0.32894716549E+03  0.52058528990E+03  0.13754171223E+04  0.15069796091E+04  0.50400001928E-02 0. -1.
</event>
<event>
 5   0  0.2596061E-04  0.2037258E+04  0.7818609E-02  0.8589397E-01
       -2   -1    0    0    0  501  0.00000000000E+00  0.00000000000E+00  0.13819122151E+04  0.13819122151E+04  0.25500000920E-02 0.  1.
        2   -1    0    0  501    0  0.00000000000E+00  0.00000000000E+00 -0.75084718968E+03  0.75084718968E+03  0.25500000920E-02 0. -1.
    10030    2    1    2    0    0  0.00000000000E+00  0.00000000000E+00  0.63106502539E+03  0.21327594048E+04  0.20372578659E+04 0.  0.
        5    1    3    3  502    0  0.25754016321E+03  0.72033501541E+02 -0.71342986962E+03  0.76191865043E+03  0.46999998093E+01 0. -1.
       -5    1    3    3    0  502 -0.25754016321E+03 -0.72033501541E+02  0.13444948950E+04  0.13708407543E+04  0.46999998093E+01 0.  1.
</event>
<event>
 5   0  0.2463085E-04  0.1839212E+04  0.7818609E-02  0.8685721E-01
       -2   -1    0    0    0  501  0.00000000000E+00  0.00000000000E+00  0.76292760375E+03  0.76292760375E+03  0.25500000920E-02 0.  1.
        2   -1    0    0  501    0  0.00000000000E+00  0.00000000000E+00 -0.11084603130E+04  0.11084603130E+04  0.25500000920E-02 0. -1.
    10030    2    1    2    0    0  0.00000000000E+00  0.00000000000E+00 -0.34553270928E+03  0.18713879168E+04  0.18392117556E+04 0.  0.
        2    1    3    3  502    0 -0.83600549280E+03  0.38267612500E+03 -0.15431713214E+03  0.93228749746E+03  0.25500000920E-02 0. -1.
       -2    1    3    3    0  502  0.83600549280E+03 -0.38267612500E+03 -0.19121557714E+03  0.93910041933E+03  0.25500000920E-02 0.  1.
</event>
<event>
 5   0  0.2488886E-04  0.1954205E+04  0.7818609E-02  0.8628336E-01
       -2   -1    0    0    0  501  0.00000000000E+00  0.00000000000E+00  0.13301238730E+04  0.13301238730E+04  0.25500000920E-02 0. -1.
        2   -1    0    0  501    0  0.00000000000E+00  0.00000000000E+00 -0.71777506209E+03  0.71777506209E+03  0.25500000920E-02 0.  1.
    10030    2    1    2    0    0  0.00000000000E+00  0.00000000000E+00  0.61234881090E+03  0.20478989351E+04  0.19542054606E+04 0.  0.
        3    1    3    3  502    0 -0.23649423058E+03  0.20198083907E+03  0.12768697405E+04  0.13142001845E+04  0.10100000352E+00 0. -1.
       -3    1    3    3    0  502  0.23649423058E+03 -0.20198083907E+03 -0.66452092964E+03  0.73369875057E+03  0.10100000352E+00 0.  1.
</event>
<event>
 5   0  0.1210633E-04  0.2003239E+04  0.7818609E-02  0.8605108E-01
       -1   -1    0    0    0  501  0.00000000000E+00  0.00000000000E+00  0.13579142482E+04  0.13579142482E+04  0.50400001928E-02 0. -1.
        1   -1    0    0  501    0  0.00000000000E+00  0.00000000000E+00 -0.73881104674E+03  0.73881104675E+03  0.50400001928E-02 0.  1.
    10030    2    1    2    0    0  0.00000000000E+00  0.00000000000E+00  0.61910320147E+03  0.20967252950E+04  0.20032394237E+04 0.  0.
        2    1    3    3  502    0 -0.58475148737E+03  0.29102859828E+03 -0.48523364941E+03  0.81368522263E+03  0.25500000920E-02 0.  1.
       -2    1    3    3    0  502  0.58475148737E+03 -0.29102859828E+03  0.11043368509E+04  0.12830400723E+04  0.25500000920E-02 0. -1.
</event>
<event>
 5   0  0.1207228E-04  0.2017069E+04  0.7818609E-02  0.8598682E-01
        1   -1    0    0  501    0  0.00000000000E+00  0.00000000000E+00  0.70461305190E+03  0.70461305192E+03  0.50400001928E-02 0. -1.
       -1   -1    0    0    0  501  0.00000000000E+00  0.00000000000E+00 -0.14435464114E+04  0.14435464114E+04  0.50400001928E-02 0.  1.
    10030    2    1    2    0    0  0.00000000000E+00  0.00000000000E+00 -0.73893335948E+03  0.21481594633E+04  0.20170688065E+04 0.  0.
        1    1    3    3  502    0  0.11082905277E+03 -0.95871612858E+03 -0.68127795866E+03  0.11813379496E+04  0.50400001928E-02 0. -1.
       -1    1    3    3    0  502 -0.11082905277E+03  0.95871612858E+03 -0.57655400822E+02  0.96682151373E+03  0.50400001928E-02 0.  1.
</event>
<event>
 5   0  0.2488886E-04  0.1986027E+04  0.7818609E-02  0.8613181E-01
       -2   -1    0    0    0  501  0.00000000000E+00  0.00000000000E+00  0.55867757762E+03  0.55867757762E+03  0.25500000920E-02 0.  1.
        2   -1    0    0  501    0  0.00000000000E+00  0.00000000000E+00 -0.17650180479E+04  0.17650180479E+04  0.25500000920E-02 0. -1.
    10030    2    1    2    0    0  0.00000000000E+00  0.00000000000E+00 -0.12063404703E+04  0.23236956255E+04  0.19860271976E+04 0.  0.
        3    1    3    3  502    0 -0.73184745617E+03 -0.11673023581E+03 -0.13764913988E+04  0.15633154602E+04  0.10100000352E+00 0. -1.
       -3    1    3    3    0  502  0.73184745617E+03  0.11673023581E+03  0.17015092853E+03  0.76038016527E+03  0.10100000352E+00 0.  1.
</event>
<event>
 5   0  0.2596061E-04  0.1930006E+04  0.7818609E-02  0.8640063E-01
        2   -1    0    0  501    0  0.00000000000E+00  0.00000000000E+00  0.14870818803E+04  0.14870818804E+04  0.25500000920E-02 0.  1.
       -2   -1    0    0    0  501  0.00000000000E+00  0.00000000000E+00 -0.62621365471E+03  0.62621365472E+03  0.25500000920E-02 0. -1.
    10030    2    1    2    0    0  0.00000000000E+00  0.00000000000E+00  0.86086822564E+03  0.21132955351E+04  0.19300061960E+04 0.  0.
        5    1    3    3  502    0 -0.48992411981E+03 -0.81577321677E+03  0.60596167454E+03  0.11281503558E+04  0.46999998093E+01 0. -1.
       -5    1    3    3    0  502  0.48992411981E+03  0.81577321677E+03  0.25490655110E+03  0.98514517923E+03  0.46999998093E+01 0.  1.
</event>
<event>
 5   0  0.1231056E-04  0.2005520E+04  0.7818609E-02  0.8604044E-01
        1   -1    0    0  501    0  0.00000000000E+00  0.00000000000E+00  0.83901146000E+03  0.83901146002E+03  0.50400001928E-02 0.  1.
       -1   -1    0    0    0  501  0.00000000000E+00  0.00000000000E+00 -0.11984665907E+04  0.11984665907E+04  0.50400001928E-02 0. -1.
    10030    2    1    2    0    0  0.00000000000E+00  0.00000000000E+00 -0.35945513069E+03  0.20374780507E+04  0.20055195876E+04 0.  0.
        3    1    3    3  502    0 -0.48624616619E+03 -0.20714306689E+03  0.68601595956E+03  0.86600317048E+03  0.10100000352E+00 0.  1.
       -3    1    3    3    0  502  0.48624616619E+03  0.20714306689E+03 -0.10454710903E+04  0.11714748802E+04  0.10100000352E+00 0. -1.
</event>
<event>
 5   0  0.1210633E-04  0.1990810E+04  0.7818609E-02  0.8610930E-01
        1   -1    0    0  501    0  0.00000000000E+00  0.00000000000E+00  0.14288400627E+04  0.14288400627E+04  0.50400001928E-02 0.  1.
       -1   -1    0    0    0  501  0.00000000000E+00  0.00000000000E+00 -0.69345106998E+03  0.69345106999E+03  0.50400001928E-02 0. -1.
    10030    2    1    2    0    0  0.00000000000E+00  0.00000000000E+00  0.73538899271E+03  0.21222911327E+04  0.19908095542E+04 0.  0.
        2    1    3    3  502    0 -0.97287622861E+03  0.44837841971E+02  0.14835842626E+03  0.98514405592E+03  0.25500000920E-02 0.  1.
       -2    1    3    3    0  502  0.97287622861E+03 -0.44837841971E+02  0.58703056644E+03  0.11371470768E+04  0.25500000920E-02 0. -1.
</event>
<event>
 5   0  0.1210633E-04  0.2016623E+04  0.7818609E-02  0.8598888E-01
        1   -1    0    0  501    0  0.00000000000E+00  0.00000000000E+00  0.15047697437E+04  0.15047697437E+04  0.50400001928E-02 0. -1.
       -1   -1    0    0    0  501  0.00000000000E+00  0.00000000000E+00 -0.67564645655E+03  0.67564645656E+03  0.50400001928E-02 0.  1.
    10030    2    1    2    0    0  0.00000000000E+00  0.00000000000E+00  0.82912328719E+03  0.21804162003E+04  0.20166232621E+04 0.  0.
        2    1    3    3  502    0  0.33333846662E+03  0.93328014750E+03  0.21354174307E+03  0.10137684366E+04  0.25500000920E-02 0.  1.
       -2    1    3    3    0  502 -0.33333846662E+03 -0.93328014750E+03  0.61558154412E+03  0.11666477637E+04  0.25500000920E-02 0. -1.
</event>
<event>
 5   0  0.2540506E-04  0.1939824E+04  0.7818609E-02  0.8635283E-01
        2   -1    0    0  501    0  0.00000000000E+00  0.00000000000E+00  0.17137962981E+04  0.17137962981E+04  0.25500000920E-02 0.  1.
       -2   -1    0    0    0  501  0.00000000000E+00  0.00000000000E+00 -0.54891553383E+03  0.54891553384E+03  0.25500000920E-02 0. -1.
    10030    2    1    2    0    0  0.00000000000E+00  0.00000000000E+00  0.11648807642E+04  0.22627118319E+04  0.19398241259E+04 0.  0.
        4    1    3    3  502    0  0.90135410465E+03 -0.16307613993E+03  0.95441743796E+03  0.13228557397E+04  0.12699999809E+01 0.  1.
       -4    1    3    3    0  502 -0.90135410465E+03  0.16307613993E+03  0.21046332629E+03  0.93985609218E+03  0.12699999809E+01 0. -1.
</event>
<event>
 5   0  0.1324930E-04  0.2042351E+04  0.7818609E-02  0.8587072E-01
        1   -1    0    0  501    0  0.00000000000E+00  0.00000000000E+00  0.97943466189E+03  0.97943466190E+03  0.50400001928E-02 0.  1.
       -1   -1    0    0    0  501  0.00000000000E+00  0.00000000000E+00 -0.10646955993E+04  0.10646955993E+04  0.50400001928E-02 0. -1.
    10030    2    1    2    0    0  0.00000000000E+00  0.00000000000E+00 -0.85260937374E+02  0.20441302612E+04  0.20423513648E+04 0.  0.
        5    1    3    3  502    0  0.31451755783E+03 -0.59106176844E+03  0.72908091197E+03  0.98987694917E+03  0.46999998093E+01 0.  1.
       -5    1    3    3    0  502 -0.31451755783E+03  0.59106176844E+03 -0.81434184934E+03  0.10542533120E+04  0.46999998093E+01 0. -1.
</event>
<event>
 5   0  0.2596061E-04  0.1848975E+04  0.7818609E-02  0.8680680E-01
        2   -1    0    0  501    0  0.00000000000E+00  0.00000000000E+00  0.87109679084E+03  0.87109679084E+03  0.25500000920E-02 0.  1.
       -2   -1    0    0    0  501  0.00000000000E+00  0.00000000000E+00 -0.98115018426E+03  0.98115018427E+03  0.25500000920E-02 0. -1.
    10030    2    1    2    0    0  0.00000000000E+00  0.00000000000E+00 -0.11005339343E+03  0.18522469751E+04  0.18489746097E+04 0.  0.
        5    1    3    3  502    0 -0.30831117910E+03 -0.53830351629E+03 -0.74167997832E+03  0.96692178539E+03  0.46999998093E+01 0. -1.
       -5    1    3    3    0  502  0.30831117910E+03  0.53830351629E+03  0.63162658489E+03  0.88532518972E+03  0.46999998093E+01 0.  1.
</event>
<event>
 5   0  0.1210633E-04  0.1966908E+04  0.7818609E-02  0.8622250E-01
        1   -1    0    0  501    0  0.00000000000E+00  0.00000000000E+00  0.14143905367E+04  0.14143905367E+04  0.50400001928E-02 0.  1.
       -1   -1    0    0    0  501  0.00000000000E+00  0.00000000000E+00 -0.68381529697E+03  0.68381529699E+03  0.50400001928E-02 0. -1.
    10030    2    1    2    0    0  0.00000000000E+00  0.00000000000E+00  0.73057523972E+03  0.20982058337E+04  0.19669081167E+04 0.  0.
        2    1    3    3  502    0  0.14519730052E+02  0.82432482607E+03  0.93723023782E+03  0.12482478761E+04  0.25500000920E-02 0.  1.
       -2    1    3    3    0  502 -0.14519730052E+02 -0.82432482607E+03 -0.20665499811E+03  0.84995795760E+03  0.25500000920E-02 0. -1.
</event>
<event>
 5   0  0.2421737E-04  0.1955493E+04  0.7818609E-02  0.8627716E-01
       -2   -1    0    0    0  501  0.00000000000E+00  0.00000000000E+00  0.88746940809E+03  0.88746940809E+03  0.25500000920E-02 0.  1.
        2   -1    0    0  501    0  0.00000000000E+00  0.00000000000E+00 -0.10772072169E+04  0.10772072169E+04  0.25500000920E-02 0. -1.
    10030    2    1    2    0    0  0.00000000000E+00  0.00000000000E+00 -0.18973780878E+03  0.19646766250E+04  0.19554932382E+04 0.  0.
        1    1    3    3  502    0 -0.82452386895E+02  0.81004754432E+03 -0.63871776994E+03  0.10348602852E+04  0.50400001928E-02 0. -1.
       -1    1    3    3    0  502  0.82452386895E+02 -0.81004754432E+03  0.44897996117E+03  0.92981633978E+03  0.50400001928E-02 0.  1.
</event>
<event>
 5   0  0.1324930E-04  0.2004828E+04  0.7818609E-02  0.8604367E-01
        1   -1    0    0  501    0  0.00000000000E+00  0.00000000000E+00  0.12935367948E+04  0.12935367949E+04  0.50400001928E-02 0. -1.
       -1   -1    0    0    0  501  0.00000000000E+00  0.00000000000E+00 -0.77681125813E+03  0.77681125815E+03  0.50400001928E-02 0.  1.
    10030    2    1    2    0    0  0.00000000000E+00  0.00000000000E+00  0.51672553672E+03  0.20703480530E+04  0.20048281174E+04 0.  0.
        5    1    3    3  502    0  0.96691695622E+03 -0.14948312107E+03  0.48352099477E+03  0.10913698943E+04  0.46999998093E+01 0. -1.
       -5    1    3    3    0  502 -0.96691695622E+03  0.14948312107E+03  0.33204541952E+02  0.97897815875E+03  0.46999998093E+01 0.  1.
</event>
<event>
 5   0  0.9099125E-05  0.1881187E+04  0.7818609E-02  0.8664278E-01
        4   -1    0    0  501    0  0.00000000000E+00  0.00000000000E+00  0.90503661089E+03  0.90503750196E+03  0.12699999809E+01 0. -1.
       -4   -1    0    0    0  501  0.00000000000E+00  0.00000000000E+00 -0.97754598845E+03  0.97754681342E+03  0.12699999809E+01 0.  1.
    10030    2    1    2    0    0  0.00000000000E+00  0.00000000000E+00 -0.72509377558E+02  0.18825843154E+04  0.18811874161E+04 0.  0.
        1    1    3    3  502    0 -0.26617640114E+03  0.89413083992E+02 -0.93462499798E+03  0.97589367402E+03  0.50400001928E-02 0.  1.
       -1    1    3    3    0  502  0.26617640114E+03 -0.89413083992E+02  0.86211562043E+03  0.90669064136E+03  0.50400001928E-02 0. -1.
</event>
<event>
 5   0  0.2463085E-04  0.1981978E+04  0.7818609E-02  0.8615093E-01
        2   -1    0    0  501    0  0.00000000000E+00  0.00000000000E+00  0.13606325623E+04  0.13606325623E+04  0.25500000920E-02 0.  1.
       -2   -1    0    0    0  501  0.00000000000E+00  0.00000000000E+00 -0.72176657969E+03  0.72176657970E+03  0.25500000920E-02 0. -1.
    10030    2    1    2    0    0  0.00000000000E+00  0.00000000000E+00  0.63886598264E+03  0.20823991420E+04  0.19819779118E+04 0.  0.
        2    1    3    3  502    0 -0.14689068626E+03 -0.95921449182E+03  0.10827817388E+03  0.97641870014E+03  0.25500000920E-02 0.  1.
       -2    1    3    3    0  502  0.14689068626E+03  0.95921449182E+03  0.53058780876E+03  0.11059804419E+04  0.25500000920E-02 0. -1.
</event>
<event>
 5   0  0.2463085E-04  0.1992961E+04  0.7818609E-02  0.8609919E-01
       -2   -1    0    0    0  501  0.00000000000E+00  0.00000000000E+00  0.32473558513E+03  0.32473558514E+03  0.25500000920E-02 0.  1.
        2   -1    0    0  501    0  0.00000000000E+00  0.00000000000E+00 -0.30577914185E+04  0.30577914185E+04  0.25500000920E-02 0. -1.
    10030    2    1    2    0    0  0.00000000000E+00  0.00000000000E+00 -0.27330558333E+04  0.33825270036E+04  0.19929612997E+04 0.  0.
        2    1    3    3  502    0  0.99162640338E+03  0.29498523958E+02 -0.15255672226E+04  0.18197660392E+04  0.25500000920E-02 0.  1.
       -2    1    3    3    0  502 -0.99162640338E+03 -0.29498523958E+02 -0.12074886107E+04  0.15627609644E+04  0.25500000920E-02 0. -1.
</event>
<event>
 5   0  0.2540506E-04  0.2084090E+04  0.7818609E-02  0.8568284E-01
        2   -1    0    0  501    0  0.00000000000E+00  0.00000000000E+00  0.14232567189E+04  0.14232567189E+04  0.25500000920E-02 0.  1.
       -2   -1    0    0    0  501  0.00000000000E+00  0.00000000000E+00 -0.76293896623E+03  0.76293896623E+03  0.25500000920E-02 0. -1.
    10030    2    1    2    0    0  0.00000000000E+00  0.00000000000E+00  0.66031775267E+03  0.21861956851E+04  0.20840902186E+04 0.  0.
        4    1    3    3  502    0  0.17252197526E+03 -0.40843288613E+03 -0.65905589760E+03  0.79431577064E+03  0.12699999809E+01 0. -1.
       -4    1    3    3    0  502 -0.17252197526E+03  0.40843288613E+03  0.13193736503E+04  0.13918799145E+04  0.12699999809E+01 0.  1.
</event>
<event>
 5   0  0.2463085E-04  0.2010316E+04  0.7818609E-02  0.8601813E-01
        2   -1    0    0  501    0  0.00000000000E+00  0.00000000000E+00  0.13102031331E+04  0.13102031331E+04  0.25500000920E-02 0.  1.
       -2   -1    0    0    0  501  0.00000000000E+00  0.00000000000E+00 -0.77113439267E+03  0.77113439268E+03  0.25500000920E-02 0. -1.
    10030    2    1    2    0    0  0.00000000000E+00  0.00000000000E+00  0.53906874041E+03  0.20813375258E+04  0.20103160919E+04 0.  0.
        2    1    3    3  502    0 -0.52615778622E+03  0.80679923138E+03  0.56704620678E+03  0.11177246604E+04  0.25500000920E-02 0. -1.
       -2    1    3    3    0  502  0.52615778622E+03 -0.80679923138E+03 -0.27977466367E+02  0.96361286541E+03  0.25500000920E-02 0.  1.
</event>
<event>
 5   0  0.2463085E-04  0.2010892E+04  0.7818609E-02  0.8601545E-01
        2   -1    0    0  501    0  0.00000000000E+00  0.00000000000E+00  0.14311561515E+04  0.14311561515E+04  0.25500000920E-02 0.  1.
       -2   -1    0    0    0  501  0.00000000000E+00  0.00000000000E+00 -0.70636719889E+03  0.70636719890E+03  0.25500000920E-02 0. -1.
    10030    2    1    2    0    0  0.00000000000E+00  0.00000000000E+00  0.72478895258E+03  0.21375233504E+04  0.20108921024E+04 0.  0.
        2    1    3    3  502    0  0.96125852776E+02 -0.76403234850E+03 -0.32479590107E+03  0.83574995452E+03  0.25500000920E-02 0. -1.
       -2    1    3    3    0  502 -0.96125852776E+02  0.76403234850E+03  0.10495848537E+04  0.13017733959E+04  0.25500000920E-02 0.  1.
</event>
<event>
 5   0  0.2488886E-04  0.2009530E+04  0.7818609E-02  0.8602178E-01
        2   -1    0    0  501    0  0.00000000000E+00  0.00000000000E+00  0.13209523149E+04  0.13209523149E+04  0.25500000920E-02 0.  1.
       -2   -1    0    0    0  501  0.00000000000E+00  0.00000000000E+00 -0.76426137564E+03  0.76426137564E+03  0.25500000920E-02 0. -1.
    10030    2    1    2    0    0  0.00000000000E+00  0.00000000000E+00  0.55669093930E+03  0.20852136906E+04  0.20095301275E+04 0.  0.
        3    1    3    3  502    0 -0.48178360970E+03  0.32229066839E+03 -0.57327512856E+03  0.81524910594E+03  0.10100000352E+00 0. -1.
       -3    1    3    3    0  502  0.48178360970E+03 -0.32229066839E+03  0.11299660679E+04  0.12699645846E+04  0.10100000352E+00 0.  1.
</event>
<event>
 5   0  0.1258546E-04  0.1989853E+04  0.7818609E-02  0.8611380E-01
        1   -1    0    0  501    0  0.00000000000E+00  0.00000000000E+00  0.10962505968E+04  0.10962505968E+04  0.50400001928E-02 0.  1.
       -1   -1    0    0    0  501  0.00000000000E+00  0.00000000000E+00 -0.90296735860E+03  0.90296735861E+03  0.50400001928E-02 0. -1.
    10030    2    1    2    0    0  0.00000000000E+00  0.00000000000E+00  0.19328323821E+03  0.19992179554E+04  0.19898527642E+04 0.  0.
        4    1    3    3  502    0  0.82997592697E+03  0.54188635217E+03  0.18292967441E+03  0.10079512571E+04  0.12699999809E+01 0. -1.
       -4    1    3    3    0  502 -0.82997592697E+03 -0.54188635217E+03  0.10353563808E+02  0.99126669833E+03  0.12699999809E+01 0.  1.
</event>
<event>
 5   0  0.1207228E-04  0.1988143E+04  0.7818609E-02  0.8612184E-01
       -1   -1    0    0    0  501  0.00000000000E+00  0.00000000000E+00  0.11127141066E+04  0.11127141066E+04  0.50400001928E-02 0.  1.
        1   -1    0    0  501    0  0.00000000000E+00  0.00000000000E+00 -0.88807913043E+03  0.88807913045E+03  0.50400001928E-02 0. -1.
    10030    2    1    2    0    0  0.00000000000E+00  0.00000000000E+00  0.22463497617E+03  0.20007932371E+04  0.19881430293E+04 0.  0.
        1    1    3    3  502    0 -0.29109402882E+03  0.93627245822E+03  0.27717780108E+03  0.10189059736E+04  0.50400001928E-02 0.  1.
       -1    1    3    3    0  502  0.29109402882E+03 -0.93627245822E+03 -0.52542824917E+02  0.98188726344E+03  0.50400001928E-02 0. -1.
</event>
<event>
 5   0  0.1231056E-04  0.1362361E+04  0.7818609E-02  0.8981524E-01
       -1   -1    0    0    0  501  0.00000000000E+00  0.00000000000E+00  0.73554961150E+03  0.73554961152E+03  0.50400001928E-02 0. -1.
        1   -1    0    0  501    0  0.00000000000E+00  0.00000000000E+00 -0.63082988249E+03  0.63082988251E+03  0.50400001928E-02 0.  1.
    10030    2    1    2    0    0  0.00000000000E+00  0.00000000000E+00  0.10471972901E+03  0.13663794940E+04  0.13623607085E+04 0.  0.
        3    1    3    3  502    0 -0.27679532482E+03 -0.10793409496E+03 -0.56242569856E+03  0.63607239942E+03  0.10100000352E+00 0.  1.
       -3    1    3    3    0  502  0.27679532482E+03  0.10793409496E+03  0.66714542757E+03  0.73030709461E+03  0.10100000352E+00 0. -1.
</event>
<event>
 5   0  0.1210633E-04  0.1998140E+04  0.7818609E-02  0.8607491E-01
        1   -1    0    0  501    0  0.00000000000E+00  0.00000000000E+00  0.15475522721E+04  0.15475522721E+04  0.50400001928E-02 0.  1.
       -1   -1    0    0    0  501  0.00000000000E+00  0.00000000000E+00 -0.64498053746E+03  0.64498053748E+03  0.50400001928E-02 0. -1.
    10030    2    1    2    0    0  0.00000000000E+00  0.00000000000E+00  0.90257173467E+03  0.21925328096E+04  0.19981402316E+04 0.  0.
        2    1    3    3  502    0 -0.50111905229E+03  0.34327827247E+03 -0.41909207051E+03  0.73796913248E+03  0.25500000920E-02 0. -1.
       -2    1    3    3    0  502  0.50111905229E+03 -0.34327827247E+03  0.13216638052E+04  0.14545636771E+04  0.25500000920E-02 0.  1.
</event>
<event>
 5   0  0.1207228E-04  0.1967728E+04  0.7818609E-02  0.8621859E-01
        1   -1    0    0  501    0  0.00000000000E+00  0.00000000000E+00  0.64364349709E+03  0.64364349711E+03  0.50400001928E-02 0. -1.
       -1   -1    0    0    0  501  0.00000000000E+00  0.00000000000E+00 -0.15039201179E+04  0.15039201179E+04  0.50400001928E-02 0.  1.
    10030    2    1    2    0    0  0.00000000000E+00  0.00000000000E+00 -0.86027662085E+03  0.21475636151E+04  0.19677280341E+04 0.  0.
        1    1    3    3  502    0  0.32196880932E+03 -0.45037618836E+03 -0.13177872125E+04  0.14293585144E+04  0.50400001928E-02 0.  1.
       -1    1    3    3    0  502 -0.32196880932E+03  0.45037618836E+03  0.45751059161E+03  0.71820510070E+03  0.50400001928E-02 0. -1.
</event>
<event>
 5   0  0.2540506E-04  0.2129951E+04  0.7818609E-02  0.8548163E-01
        2   -1    0    0  501    0  0.00000000000E+00  0.00000000000E+00  0.18448028134E+04  0.18448028134E+04  0.25500000920E-02 0.  1.
       -2   -1    0    0    0  501  0.00000000000E+00  0.00000000000E+00 -0.61479368094E+03  0.61479368095E+03  0.25500000920E-02 0. -1.
    10030    2    1    2    0    0  0.00000000000E+00  0.00000000000E+00  0.12300091324E+04  0.24595964943E+04  0.21299512786E+04 0.  0.
        4    1    3    3  502    0  0.41906790246E+03 -0.33170181573E+03  0.16787241538E+04  0.17617492440E+04  0.12699999809E+01 0.  1.
       -4    1    3    3    0  502 -0.41906790246E+03  0.33170181573E+03 -0.44871502136E+03  0.69784725028E+03  0.12699999809E+01 0. -1.
</event>
<event>
 5   0  0.2540506E-04  0.1956604E+04  0.7818609E-02  0.8627183E-01
       -2   -1    0    0    0  501  0.00000000000E+00  0.00000000000E+00  0.83402112438E+03  0.83402112438E+03  0.25500000920E-02 0. -1.
        2   -1    0    0  501    0  0.00000000000E+00  0.00000000000E+00 -0.11475425437E+04  0.11475425437E+04  0.25500000920E-02 0.  1.
    10030    2    1    2    0    0  0.00000000000E+00  0.00000000000E+00 -0.31352141928E+03  0.19815636680E+04  0.19566039175E+04 0.  0.
        4    1    3    3  502    0 -0.59505450072E+02 -0.13913006299E+03  0.82209626802E+03  0.83590786562E+03  0.12699999809E+01 0. -1.
       -4    1    3    3    0  502  0.59505450072E+02  0.13913006299E+03 -0.11356176873E+04  0.11456558024E+04  0.12699999809E+01 0.  1.
</event>
<event>
 5   0  0.2463085E-04  0.1892530E+04  0.7818609E-02  0.8658583E-01
       -2   -1    0    0    0  501  0.00000000000E+00  0.00000000000E+00  0.86088298507E+03  0.86088298508E+03  0.25500000920E-02 0.  1.
        2   -1    0    0  501    0  0.00000000000E+00  0.00000000000E+00 -0.10401155123E+04  0.10401155123E+04  0.25500000920E-02 0. -1.
    10030    2    1    2    0    0  0.00000000000E+00  0.00000000000E+00 -0.17923252725E+03  0.19009984974E+04  0.18925303137E+04 0.  0.
        2    1    3    3  502    0  0.39465432401E+03  0.56275438020E+03 -0.74289024935E+03  0.10120921156E+04  0.25500000920E-02 0. -1.
       -2    1    3    3    0  502 -0.39465432401E+03 -0.56275438020E+03  0.56365772210E+03  0.88890638179E+03  0.25500000920E-02 0.  1.
</event>
<event>
 5   0  0.9099125E-05  0.2042523E+04  0.7818609E-02  0.8586994E-01
       -3   -1    0    0    0  501  0.00000000000E+00  0.00000000000E+00  0.10635834314E+04  0.10635834362E+04  0.10100000352E+00 0.  1.
        3   -1    0    0  501    0  0.00000000000E+00  0.00000000000E+00 -0.98062332997E+03  0.98062333517E+03  0.10100000352E+00 0. -1.
    10030    2    1    2    0    0  0.00000000000E+00  0.00000000000E+00  0.82960101471E+02  0.20442067714E+04  0.20425226916E+04 0.  0.
        4    1    3    3  502    0 -0.26480846792E+03  0.93971582702E+03  0.34136649513E+03  0.10342736858E+04  0.12699999809E+01 0. -1.
       -4    1    3    3    0  502  0.26480846792E+03 -0.93971582702E+03 -0.25840639366E+03  0.10099330856E+04  0.12699999809E+01 0.  1.
</event>
<event>
 5   0  0.1258546E-04  0.1774673E+04  0.7818609E-02  0.8719885E-01
        1   -1    0    0  501    0  0.00000000000E+00  0.00000000000E+00  0.13209015478E+04  0.13209015478E+04  0.50400001928E-02 0.  1.
       -1   -1    0    0    0  501  0.00000000000E+00  0.00000000000E+00 -0.59608215587E+03  0.59608215589E+03  0.50400001928E-02 0. -1.
    10030    2    1    2    0    0  0.00000000000E+00  0.00000000000E+00  0.72481939191E+03  0.19169837037E+04  0.17746727499E+04 0.  0.
        4    1    3    3  502    0  0.17057421542E+03  0.29227156422E+02  0.13024942788E+04  0.13139416840E+04  0.12699999809E+01 0.  1.
       -4    1    3    3    0  502 -0.17057421542E+03 -0.29227156422E+02 -0.57767488692E+03  0.60304201969E+03  0.12699999809E+01 0. -1.
</event>
<event>
 5   0  0.1231056E-04  0.1979325E+04  0.7818609E-02  0.8616348E-01
       -1   -1    0    0    0  501  0.00000000000E+00  0.00000000000E+00  0.88503632969E+03  0.88503632970E+03  0.50400001928E-02 0.  1.
        1   -1    0    0  501    0  0.00000000000E+00  0.00000000000E+00 -0.11066571378E+04  0.11066571378E+04  0.50400001928E-02 0. -1.
    10030    2    1    2    0    0  0.00000000000E+00  0.00000000000E+00 -0.22162080815E+03  0.19916934675E+04  0.19793249066E+04 0.  0.
        3    1    3    3  502    0  0.94209881828E+02  0.94257511724E+03  0.17752583191E+03  0.96376282594E+03  0.10100000352E+00 0.  1.
       -3    1    3    3    0  502 -0.94209881828E+02 -0.94257511724E+03 -0.39914664006E+03  0.10279306416E+04  0.10100000352E+00 0. -1.
</event>
<event>
 5   0  0.1258546E-04  0.2035650E+04  0.7818609E-02  0.8590132E-01
        1   -1    0    0  501    0  0.00000000000E+00  0.00000000000E+00  0.99487986911E+03  0.99487986913E+03  0.50400001928E-02 0. -1.
       -1   -1    0    0    0  501  0.00000000000E+00  0.00000000000E+00 -0.10412988121E+04  0.10412988121E+04  0.50400001928E-02 0.  1.
    10030    2    1    2    0    0  0.00000000000E+00  0.00000000000E+00 -0.46418942962E+02  0.20361786812E+04  0.20356495041E+04 0.  0.
        4    1    3    3  502    0  0.76440353843E+03  0.66647526041E+03 -0.10962388906E+03  0.10200593376E+04  0.12699999809E+01 0. -1.
       -4    1    3    3    0  502 -0.76440353843E+03 -0.66647526041E+03  0.63204946100E+02  0.10161193436E+04  0.12699999809E+01 0.  1.
</event>
<event>
 5   0  0.1210633E-04  0.2020029E+04  0.7818609E-02  0.8597313E-01
       -1   -1    0    0    0  501  0.00000000000E+00  0.00000000000E+00  0.10542921574E+04  0.10542921575E+04  0.50400001928E-02 0.  1.
        1   -1    0    0  501    0  0.00000000000E+00  0.00000000000E+00 -0.96759677000E+03  0.96759677001E+03  0.50400001928E-02 0. -1.
    10030    2    1    2    0    0  0.00000000000E+00  0.00000000000E+00  0.86695387442E+02  0.20218889275E+04  0.20200293921E+04 0.  0.
        2    1    3    3  502    0  0.94638521964E+02  0.46365987623E+03 -0.84977004690E+03  0.97264899285E+03  0.25500000920E-02 0. -1.
       -2    1    3    3    0  502 -0.94638521964E+02 -0.46365987623E+03  0.93646543434E+03  0.10492399346E+04  0.25500000920E-02 0.  1.
</event>
<event>
 5   0  0.2421737E-04  0.2067457E+04  0.7818609E-02  0.8575716E-01
        2   -1    0    0  501    0  0.00000000000E+00  0.00000000000E+00  0.86553482763E+03  0.86553482764E+03  0.25500000920E-02 0. -1.
       -2   -1    0    0    0  501  0.00000000000E+00  0.00000000000E+00 -0.12346061582E+04  0.12346061582E+04  0.25500000920E-02 0.  1.
    10030    2    1    2    0    0  0.00000000000E+00  0.00000000000E+00 -0.36907133057E+03  0.21001409858E+04  0.20674570161E+04 0.  0.
        1    1    3    3  502    0 -0.11918149720E+02 -0.93723585271E+03 -0.62736484948E+03  0.11278917237E+04  0.50400001928E-02 0.  1.
       -1    1    3    3    0  502  0.11918149720E+02  0.93723585271E+03  0.25829351891E+03  0.97224926219E+03  0.50400001928E-02 0. -1.
</event>
<event>
 5   0  0.2463085E-04  0.2009500E+04  0.7818609E-02  0.8602192E-01
        2   -1    0    0  501    0  0.00000000000E+00  0.00000000000E+00  0.16441344899E+04  0.16441344899E+04  0.25500000920E-02 0.  1.
       -2   -1    0    0    0  501  0.00000000000E+00  0.00000000000E+00 -0.61401446252E+03  0.61401446252E+03  0.25500000920E-02 0. -1.
    10030    2    1    2    0    0  0.00000000000E+00  0.00000000000E+00  0.10301200273E+04  0.22581489524E+04  0.20094997936E+04 0.  0.
        2    1    3    3  502    0  0.36545941549E+03 -0.40886197876E+03 -0.43101272772E+03  0.69749600251E+03  0.25500000920E-02 0. -1.
       -2    1    3    3    0  502 -0.36545941549E+03  0.40886197876E+03  0.14611327551E+04  0.15606529499E+04  0.25500000920E-02 0.  1.
</event>
<event>
 5   0  0.2488886E-04  0.1905757E+04  0.7818609E-02  0.8651996E-01
        2   -1    0    0  501    0  0.00000000000E+00  0.00000000000E+00  0.61340627999E+03  0.61340627999E+03  0.25500000920E-02 0. -1.
       -2   -1    0    0    0  501  0.00000000000E+00  0.00000000000E+00 -0.14802219210E+04  0.14802219210E+04  0.25500000920E-02 0.  1.
    10030    2    1    2    0    0  0.00000000000E+00  0.00000000000E+00 -0.86681564101E+03  0.20936282010E+04  0.19057569857E+04 0.  0.
        3    1    3    3  502    0  0.55443328931E+03  0.46190909382E+03 -0.11170227873E+04  0.13298481872E+04  0.10100000352E+00 0. -1.
       -3    1    3    3    0  502 -0.55443328931E+03 -0.46190909382E+03  0.25020714634E+03  0.76378001383E+03  0.10100000352E+00 0.  1.
</event>
<event>
 5   0  0.2596061E-04  0.2044981E+04  0.7818609E-02  0.8585875E-01
       -2   -1    0    0    0  501  0.00000000000E+00  0.00000000000E+00  0.64017021029E+03  0.64017021029E+03  0.25500000920E-02 0.  1.
        2   -1    0    0  501    0  0.00000000000E+00  0.00000000000E+00 -0.16331383773E+04  0.16331383773E+04  0.25500000920E-02 0. -1.
    10030    2    1    2    0    0  0.00000000000E+00  0.00000000000E+00 -0.99296816697E+03  0.22733085876E+04  0.20449807221E+04 0.  0.
        5    1    3    3  502    0 -0.17106466243E+03  0.98597558834E+03 -0.26316018188E+03  0.10347397503E+04  0.46999998093E+01 0.  1.
       -5    1    3    3    0  502  0.17106466243E+03 -0.98597558834E+03 -0.72980798509E+03  0.12385688373E+04  0.46999998093E+01 0. -1.
</event>
<event>
 5   0  0.1324930E-04  0.2013146E+04  0.7818609E-02  0.8600499E-01
       -1   -1    0    0    0  501  0.00000000000E+00  0.00000000000E+00  0.95961069163E+03  0.95961069164E+03  0.50400001928E-02 0. -1.
        1   -1    0    0  501    0  0.00000000000E+00  0.00000000000E+00 -0.10558332241E+04  0.10558332241E+04  0.50400001928E-02 0.  1.
    10030    2    1    2    0    0  0.00000000000E+00  0.00000000000E+00 -0.96222532476E+02  0.20154439158E+04  0.20131456484E+04 0.  0.
        5    1    3    3  502    0 -0.11564228331E+03  0.86654919635E+03  0.45134314522E+03  0.98387670575E+03  0.46999998093E+01 0. -1.
       -5    1    3    3    0  502  0.11564228331E+03 -0.86654919635E+03 -0.54756567769E+03  0.10315672100E+04  0.46999998093E+01 0.  1.
</event>
<event>
 5   0  0.1210633E-04  0.1979328E+04  0.7818609E-02  0.8616347E-01
       -1   -1    0    0    0  501  0.00000000000E+00  0.00000000000E+00  0.11751302153E+04  0.11751302153E+04  0.50400001928E-02 0. -1.
        1   -1    0    0  501    0  0.00000000000E+00  0.00000000000E+00 -0.83346931912E+03  0.83346931914E+03  0.50400001928E-02 0.  1.
    10030    2    1    2    0    0  0.00000000000E+00  0.00000000000E+00  0.34166089615E+03  0.20085995344E+04  0.19793281491E+04 0.  0.
        2    1    3    3  502    0  0.18426289346E+03  0.10401434038E+03 -0.81024662041E+03  0.83741947840E+03  0.25500000920E-02 0.  1.
       -2    1    3    3    0  502 -0.18426289346E+03 -0.10401434038E+03  0.11519075166E+04  0.11711800560E+04  0.25500000920E-02 0. -1.
</event>
<event>
 5   0  0.1324930E-04  0.2032499E+04  0.7818609E-02  0.8591575E-01
        1   -1    0    0  501    0  0.00000000000E+00  0.00000000000E+00  0.14472877786E+04  0.14472877786E+04  0.50400001928E-02 0.  1.
       -1   -1    0    0    0  501  0.00000000000E+00  0.00000000000E+00 -0.71358541121E+03  0.71358541123E+03  0.50400001928E-02 0. -1.
    10030    2    1    2    0    0  0.00000000000E+00  0.00000000000E+00  0.73370236739E+03  0.21608731898E+04  0.20324993920E+04 0.  0.
        5    1    3    3  502    0 -0.75033404121E+03 -0.67476656125E+03  0.23913789994E+03  0.10370728570E+04  0.46999998093E+01 0. -1.
       -5    1    3    3    0  502  0.75033404121E+03  0.67476656125E+03  0.49456446745E+03  0.11238003328E+04  0.46999998093E+01 0.  1.
</event>
<event>
 5   0  0.2463085E-04  0.2036626E+04  0.7818609E-02  0.8589685E-01
       -2   -1    0    0    0  501  0.00000000000E+00  0.00000000000E+00  0.11428392717E+04  0.11428392717E+04  0.25500000920E-02 0.  1.
        2   -1    0    0  501    0  0.00000000000E+00  0.00000000000E+00 -0.90735582191E+03  0.90735582192E+03  0.25500000920E-02 0. -1.
    10030    2    1    2    0    0  0.00000000000E+00  0.00000000000E+00  0.23548344980E+03  0.20501950936E+04  0.20366264917E+04 0.  0.
        2    1    3    3  502    0 -0.40057271410E+03 -0.60830260073E+03  0.83415104504E+03  0.11073836369E+04  0.25500000920E-02 0.  1.
       -2    1    3    3    0  502  0.40057271410E+03  0.60830260073E+03 -0.59866759524E+03  0.94281145673E+03  0.25500000920E-02 0. -1.
</event>
<event>
 5   0  0.2421737E-04  0.1923376E+04  0.7818609E-02  0.8643307E-01
        2   -1    0    0  501    0  0.00000000000E+00  0.00000000000E+00  0.81334186866E+03  0.81334186866E+03  0.25500000920E-02 0.  1.
       -2   -1    0    0    0  501  0.00000000000E+00  0.00000000000E+00 -0.11370911526E+04  0.11370911526E+04  0.25500000920E-02 0. -1.
    10030    2    1    2    0    0  0.00000000000E+00  0.00000000000E+00 -0.32374928393E+03  0.19504330213E+04  0.19233760349E+04 0.  0.
        1    1    3    3  502    0  0.35686047627E+03 -0.78998575202E+03 -0.58416641298E+03  0.10453120520E+04  0.50400001928E-02 0. -1.
       -1    1    3    3    0  502 -0.35686047627E+03  0.78998575202E+03  0.26041712905E+03  0.90512096929E+03  0.50400001928E-02 0.  1.
</event>
<event>
 5   0  0.2421737E-04  0.2053832E+04  0.7818609E-02  0.8581858E-01
        2   -1    0    0  501    0  0.00000000000E+00  0.00000000000E+00  0.76560248936E+03  0.76560248936E+03  0.25500000920E-02 0.  1.
       -2   -1    0    0    0  501  0.00000000000E+00  0.00000000000E+00 -0.13774198189E+04  0.13774198189E+04  0.25500000920E-02 0. -1.
    10030    2    1    2    0    0  0.00000000000E+00  0.00000000000E+00 -0.61181732953E+03  0.21430223082E+04  0.20538315824E+04 0.  0.
        1    1    3    3  502    0  0.42587096003E+03 -0.52767583933E+03 -0.11105983299E+04  0.13012442185E+04  0.50400001928E-02 0. -1.
       -1    1    3    3    0  502 -0.42587096003E+03  0.52767583933E+03  0.49878100032E+03  0.84177808970E+03  0.50400001928E-02 0.  1.
</event>
<event>
 5   0  0.2488886E-04  0.1935933E+04  0.7818609E-02  0.8637174E-01
       -2   -1    0    0    0  501  0.00000000000E+00  0.00000000000E+00  0.71088636798E+03  0.71088636799E+03  0.25500000920E-02 0. -1.
        2   -1    0    0  501    0  0.00000000000E+00  0.00000000000E+00 -0.13180148695E+04  0.13180148695E+04  0.25500000920E-02 0.  1.
    10030    2    1    2    0    0  0.00000000000E+00  0.00000000000E+00 -0.60712850149E+03  0.20289012375E+04  0.19359326471E+04 0.  0.
        3    1    3    3  502    0 -0.67873467775E+03  0.11826330084E+03  0.40900777507E+03  0.80122053229E+03  0.10100000352E+00 0. -1.
       -3    1    3    3    0  502  0.67873467775E+03 -0.11826330084E+03 -0.10161362766E+04  0.12276807052E+04  0.10100000352E+00 0.  1.
</event>
<event>
 5   0  0.1258546E-04  0.1962657E+04  0.7818609E-02  0.8624282E-01
       -1   -1    0    0    0  501  0.00000000000E+00  0.00000000000E+00  0.71324810907E+03  0.71324810908E+03  0.50400001928E-02 0. -1.
        1   -1    0    0  501    0  0.00000000000E+00  0.00000000000E+00 -0.13501688838E+04  0.13501688838E+04  0.50400001928E-02 0.  1.
    10030    2    1    2    0    0  0.00000000000E+00  0.00000000000E+00 -0.63692077474E+03  0.20634169929E+04  0.19626567742E+04 0.  0.
        4    1    3    3  502    0  0.36173641031E+03 -0.86404363760E+03 -0.10902665712E+02  0.93677378232E+03  0.12699999809E+01 0.  1.
       -4    1    3    3    0  502 -0.36173641031E+03  0.86404363760E+03 -0.62601810903E+03  0.11266432106E+04  0.12699999809E+01 0. -1.
</event>
<event>
 5   0  0.2421737E-04  0.1984722E+04  0.7818609E-02  0.8613797E-01
        2   -1    0    0  501    0  0.00000000000E+00  0.00000000000E+00  0.14836056447E+04  0.14836056447E+04  0.25500000920E-02 0. -1.
       -2   -1    0    0    0  501  0.00000000000E+00  0.00000000000E+00 -0.66377524649E+03  0.66377524650E+03  0.25500000920E-02 0.  1.
    10030    2    1    2    0    0  0.00000000000E+00  0.00000000000E+00  0.81983039821E+03  0.21473808912E+04  0.19847223509E+04 0.  0.
        1    1    3    3  502    0 -0.25170833298E+03 -0.65613619408E+03 -0.34815562459E+03  0.78427299395E+03  0.50400001928E-02 0.  1.
       -1    1    3    3    0  502  0.25170833298E+03  0.65613619408E+03  0.11679860228E+04  0.13631078973E+04  0.50400001928E-02 0. -1.
</event>
<event>
 5   0  0.1210633E-04  0.2022403E+04  0.7818609E-02  0.8596218E-01
       -1   -1    0    0    0  501  0.00000000000E+00  0.00000000000E+00  0.95344227874E+03  0.95344227876E+03  0.50400001928E-02 0.  1.
        1   -1    0    0  501    0  0.00000000000E+00  0.00000000000E+00 -0.10724597828E+04  0.10724597828E+04  0.50400001928E-02 0. -1.
    10030    2    1    2    0    0  0.00000000000E+00  0.00000000000E+00 -0.11901750407E+03  0.20259020616E+04  0.20224030253E+04 0.  0.
        2    1    3    3  502    0  0.50194987756E+03  0.34466987595E+03  0.74921541431E+03  0.96544017941E+03  0.25500000920E-02 0.  1.
       -2    1    3    3    0  502 -0.50194987756E+03 -0.34466987595E+03 -0.86823291838E+03  0.10604618822E+04  0.25500000920E-02 0. -1.
</event>
<event>
 5   0  0.2596061E-04  0.1855912E+04  0.7818609E-02  0.8677118E-01
        2   -1    0    0  501    0  0.00000000000E+00  0.00000000000E+00  0.84791771621E+03  0.84791771621E+03  0.25500000920E-02 0. -1.
       -2   -1    0    0    0  501  0.00000000000E+00  0.00000000000E+00 -0.10155497418E+04  0.10155497418E+04  0.25500000920E-02 0.  1.
    10030    2    1    2    0    0  0.00000000000E+00  0.00000000000E+00 -0.16763202557E+03  0.18634674580E+04  0.18559123015E+04 0.  0.
        5    1    3    3  502    0  0.87690384571E+03 -0.29024298570E+03 -0.17294212026E+03  0.93975125024E+03  0.46999998093E+01 0. -1.
       -5    1    3    3    0  502 -0.87690384571E+03  0.29024298570E+03  0.53100946876E+01  0.92371620775E+03  0.46999998093E+01 0.  1.
</event>
<event>
 5   0  0.2488886E-04  0.1957891E+04  0.7818609E-02  0.8626565E-01
       -2   -1    0    0    0  501  0.00000000000E+00  0.00000000000E+00  0.56882960995E+03  0.56882960996E+03  0.25500000920E-02 0. -1.
        2   -1    0    0  501    0  0.00000000000E+00  0.00000000000E+00 -0.16847467613E+04  0.16847467613E+04  0.25500000920E-02 0.  1.
    10030    2    1    2    0    0  0.00000000000E+00  0.00000000000E+00 -0.11159171513E+04  0.22535763712E+04  0.19578905415E+04 0.  0.
        3    1    3    3  502    0 -0.33729872407E+03 -0.25372791680E+03 -0.15746351635E+04  0.16302221301E+04  0.10100000352E+00 0.  1.
       -3    1    3    3    0  502  0.33729872407E+03  0.25372791680E+03  0.45871801221E+03  0.62335424114E+03  0.10100000352E+00 0. -1.
</event>
<event>
 5   0  0.1210633E-04  0.1975205E+04  0.7818609E-02  0.8618302E-01
       -1   -1    0    0    0  501  0.00000000000E+00  0.00000000000E+00  0.53086387344E+03  0.53086387347E+03  0.50400001928E-02 0.  1.
        1   -1    0    0  501    0  0.00000000000E+00  0.00000000000E+00 -0.18373047560E+04  0.18373047560E+04  0.50400001928E-02 0. -1.
    10030    2    1    2    0    0  0.00000000000E+00  0.00000000000E+00 -0.13064408825E+04  0.23681686294E+04  0.19752050217E+04 0.  0.
        2    1    3    3  502    0  0.12355780606E+03  0.69246398974E+03  0.17794200941E+03  0.72555927893E+03  0.25500000920E-02 0.  1.
       -2    1    3    3    0  502 -0.12355780606E+03 -0.69246398974E+03 -0.14843828919E+04  0.16426093505E+04  0.25500000920E-02 0. -1.
</event>
<event>
 5   0  0.1210633E-04  0.1954250E+04  0.7818609E-02  0.8628314E-01
        1   -1    0    0  501    0  0.00000000000E+00  0.00000000000E+00  0.96824342158E+03  0.96824342159E+03  0.50400001928E-02 0. -1.
       -1   -1    0    0    0  501  0.00000000000E+00  0.00000000000E+00 -0.98608840240E+03  0.98608840241E+03  0.50400001928E-02 0.  1.
    10030    2    1    2    0    0  0.00000000000E+00  0.00000000000E+00 -0.17844980816E+02  0.19543318240E+04  0.19542503512E+04 0.  0.
        2    1    3    3  502    0 -0.52272580926E+03  0.69676203376E+02  0.81371533168E+03  0.96965441576E+03  0.25500000920E-02 0. -1.
       -2    1    3    3    0  502  0.52272580926E+03 -0.69676203376E+02 -0.83156031250E+03  0.98467740825E+03  0.25500000920E-02 0.  1.
</event>
<event>
 5   0  0.1324930E-04  0.1986965E+04  0.7818609E-02  0.8612739E-01
        1   -1    0    0  501    0  0.00000000000E+00  0.00000000000E+00  0.15614472203E+04  0.15614472203E+04  0.50400001928E-02 0. -1.
       -1   -1    0    0    0  501  0.00000000000E+00  0.00000000000E+00 -0.63211076429E+03  0.63211076431E+03  0.50400001928E-02 0.  1.
    10030    2    1    2    0    0  0.00000000000E+00  0.00000000000E+00  0.92933645597E+03  0.21935579846E+04  0.19869651188E+04 0.  0.
        5    1    3    3  502    0 -0.59427087025E+03  0.42941512507E+03 -0.27543115970E+03  0.78322387004E+03  0.46999998093E+01 0.  1.
       -5    1    3    3    0  502  0.59427087025E+03 -0.42941512507E+03  0.12047676157E+04  0.14103341145E+04  0.46999998093E+01 0. -1.
</event>
<event>
 5   0  0.2463085E-04  0.2003065E+04  0.7818609E-02  0.8605189E-01
        2   -1    0    0  501    0  0.00000000000E+00  0.00000000000E+00  0.62849998984E+03  0.62849998985E+03  0.25500000920E-02 0.  1.
       -2   -1    0    0    0  501  0.00000000000E+00  0.00000000000E+00 -0.15959702308E+04  0.15959702308E+04  0.25500000920E-02 0. -1.
    10030    2    1    2    0    0  0.00000000000E+00  0.00000000000E+00 -0.96747024098E+03  0.22244702207E+04  0.20030649254E+04 0.  0.
        2    1    3    3  502    0 -0.49607127827E+03  0.86599893797E+03 -0.57682404443E+03  0.11527214980E+04  0.25500000920E-02 0.  1.
       -2    1    3    3    0  502  0.49607127827E+03 -0.86599893797E+03 -0.39064619655E+03  0.10717487227E+04  0.25500000920E-02 0. -1.
</event>
<event>
 5   0  0.2463085E-04  0.1991025E+04  0.7818609E-02  0.8610828E-01
       -2   -1    0    0    0  501  0.00000000000E+00  0.00000000000E+00  0.36730039069E+03  0.36730039070E+03  0.25500000920E-02 0.  1.
        2   -1    0    0  501    0  0.00000000000E+00  0.00000000000E+00 -0.26981868650E+04  0.26981868650E+04  0.25500000920E-02 0. -1.
    10030    2    1    2    0    0  0.00000000000E+00  0.00000000000E+00 -0.23308864743E+04  0.30654872557E+04  0.19910249518E+04 0.  0.
        2    1    3    3  502    0  0.82482310093E+03 -0.53367268962E+03 -0.91763371962E+03  0.13443181658E+04  0.25500000920E-02 0.  1.
       -2    1    3    3    0  502 -0.82482310093E+03  0.53367268962E+03 -0.14132527547E+04  0.17211690900E+04  0.25500000920E-02 0. -1.
</event>
<event>
 5   0  0.1231056E-04  0.2075076E+04  0.7818609E-02  0.8572303E-01
       -1   -1    0    0    0  501  0.00000000000E+00  0.00000000000E+00  0.85565793807E+03  0.85565793808E+03  0.50400001928E-02 0. -1.
        1   -1    0    0  501    0  0.00000000000E+00  0.00000000000E+00 -0.12580792555E+04  0.12580792555E+04  0.50400001928E-02 0.  1.
    10030    2    1    2    0    0  0.00000000000E+00  0.00000000000E+00 -0.40242131740E+03  0.21137371936E+04  0.20750763858E+04 0.  0.
        3    1    3    3  502    0  0.60666843842E+03 -0.82996908456E+03 -0.34378340434E+03  0.10840121378E+04  0.10100000352E+00 0.  1.
       -3    1    3    3    0  502 -0.60666843842E+03  0.82996908456E+03 -0.58637913067E+02  0.10297250558E+04  0.10100000352E+00 0. -1.
</event>
<event>
 5   0  0.2540506E-04  0.2062171E+04  0.7818609E-02  0.8578093E-01
        2   -1    0    0  501    0  0.00000000000E+00  0.00000000000E+00  0.88156961595E+03  0.88156961595E+03  0.25500000920E-02 0.  1.
       -2   -1    0    0    0  501  0.00000000000E+00  0.00000000000E+00 -0.12059594085E+04  0.12059594085E+04  0.25500000920E-02 0. -1.
    10030    2    1    2    0    0  0.00000000000E+00  0.00000000000E+00 -0.32438979256E+03  0.20875290245E+04  0.20621708684E+04 0.  0.
        4    1    3    3  502    0 -0.60512850766E+03 -0.83162810810E+03 -0.88153574616E+02  0.10322589242E+04  0.12699999809E+01 0.  1.
       -4    1    3    3    0  502  0.60512850766E+03  0.83162810810E+03 -0.23623621794E+03  0.10552701003E+04  0.12699999809E+01 0. -1.
</event>
<event>
 5   0  0.1207228E-04  0.1983999E+04  0.7818609E-02  0.8614139E-01
       -1   -1    0    0    0  501  0.00000000000E+00  0.00000000000E+00  0.64441545669E+03  0.64441545671E+03  0.50400001928E-02 0.  1.
        1   -1    0    0  501    0  0.00000000000E+00  0.00000000000E+00 -0.15270624326E+04  0.15270624326E+04  0.50400001928E-02 0. -1.
    10030    2    1    2    0    0  0.00000000000E+00  0.00000000000E+00 -0.88264697594E+03  0.21714778893E+04  0.19839986239E+04 0.  0.
        1    1    3    3  502    0 -0.25680935884E+02  0.69381566684E+01  0.64402500405E+03  0.64457416513E+03  0.50400001928E-02 0.  1.
       -1    1    3    3    0  502  0.25680935884E+02 -0.69381566684E+01 -0.15266719800E+04  0.15269037242E+04  0.50400001928E-02 0. -1.
</event>
<event>
 5   0  0.2463085E-04  0.1981760E+04  0.7818609E-02  0.8615196E-01
        2   -1    0    0  501    0  0.00000000000E+00  0.00000000000E+00  0.12991889386E+04  0.12991889386E+04  0.25500000920E-02 0. -1.
       -2   -1    0    0    0  501  0.00000000000E+00  0.00000000000E+00 -0.75573516049E+03  0.75573516049E+03  0.25500000920E-02 0.  1.
    10030    2    1    2    0    0  0.00000000000E+00  0.00000000000E+00  0.54345377815E+03  0.20549240991E+04  0.19817595828E+04 0.  0.
        2    1    3    3  502    0  0.18313150075E+03 -0.34270157824E+02 -0.73740953810E+03  0.76058163084E+03  0.25500000920E-02 0.  1.
       -2    1    3    3    0  502 -0.18313150075E+03  0.34270157824E+02  0.12808633163E+04  0.12943424683E+04  0.25500000920E-02 0. -1.
</event>
<event>
 5   0  0.1231056E-04  0.1994333E+04  0.7818609E-02  0.8609275E-01
        1   -1    0    0  501    0  0.00000000000E+00  0.00000000000E+00  0.15263928982E+04  0.15263928982E+04  0.50400001928E-02 0. -1.
       -1   -1    0    0    0  501  0.00000000000E+00  0.00000000000E+00 -0.65143214277E+03  0.65143214279E+03  0.50400001928E-02 0.  1.
    10030    2    1    2    0    0  0.00000000000E+00  0.00000000000E+00  0.87496075545E+03  0.21778250410E+04  0.19943333688E+04 0.  0.
        3    1    3    3  502    0 -0.44519407824E+03 -0.38891506607E+03 -0.43945504164E+03  0.73659584559E+03  0.10100000352E+00 0.  1.
       -3    1    3    3    0  502  0.44519407824E+03  0.38891506607E+03  0.13144157971E+04  0.14412291954E+04  0.10100000352E+00 0. -1.
</event>
<event>
 5   0  0.2421737E-04  0.2002552E+04  0.7818609E-02  0.8605429E-01
        2   -1    0    0  501    0  0.00000000000E+00  0.00000000000E+00  0.78945058221E+03  0.78945058221E+03  0.25500000920E-02 0.  1.
       -2   -1    0    0    0  501  0.00000000000E+00  0.00000000000E+00 -0.12699380806E+04  0.12699380806E+04  0.25500000920E-02 0. -1.
    10030    2    1    2    0    0  0.00000000000E+00  0.00000000000E+00 -0.48048749844E+03  0.20593886629E+04  0.20025517293E+04 0.  0.
        1    1    3    3  502    0 -0.44374428016E+01 -0.37641540134E+03  0.71390719188E+03  0.80707603354E+03  0.50400001928E-02 0.  1.
       -1    1    3    3    0  502  0.44374428016E+01  0.37641540134E+03 -0.11943946903E+04  0.12523126293E+04  0.50400001928E-02 0. -1.
</event>
<event>
 5   0  0.2596061E-04  0.1982762E+04  0.7818609E-02  0.8614723E-01
       -2   -1    0    0    0  501  0.00000000000E+00  0.00000000000E+00  0.76802008360E+03  0.76802008360E+03  0.25500000920E-02 0. -1.
        2   -1    0    0  501    0  0.00000000000E+00  0.00000000000E+00 -0.12797012906E+04  0.12797012906E+04  0.25500000920E-02 0.  1.
    10030    2    1    2    0    0  0.00000000000E+00  0.00000000000E+00 -0.51168120705E+03  0.20477213742E+04  0.19827620051E+04 0.  0.
        5    1    3    3  502    0  0.24456685763E+03  0.89616665881E+03 -0.61343075579E+03  0.11132147189E+04  0.46999998093E+01 0.  1.
       -5    1    3    3    0  502 -0.24456685763E+03 -0.89616665881E+03  0.10174954874E+03  0.93450665535E+03  0.46999998093E+01 0. -1.
</event>
<event>
 5   0  0.1207228E-04  0.2021012E+04  0.7818609E-02  0.8596860E-01
       -1   -1    0    0    0  501  0.00000000000E+00  0.00000000000E+00  0.56914834954E+03  0.56914834956E+03  0.50400001928E-02 0. -1.
        1   -1    0    0  501    0  0.00000000000E+00  0.00000000000E+00 -0.17941230805E+04  0.17941230805E+04  0.50400001928E-02 0.  1.
    10030    2    1    2    0    0  0.00000000000E+00  0.00000000000E+00 -0.12249747310E+04  0.23632714301E+04  0.20210118161E+04 0.  0.
        1    1    3    3  502    0  0.37321337559E+03 -0.84455458977E+03 -0.10925788030E+04  0.14304856237E+04  0.50400001928E-02 0. -1.
       -1    1    3    3    0  502 -0.37321337559E+03  0.84455458977E+03 -0.13239592796E+03  0.93278580638E+03  0.50400001928E-02 0.  1.
</event>
<event>
 5   0  0.1258546E-04  0.1969918E+04  0.7818609E-02  0.8620816E-01
       -1   -1    0    0    0  501  0.00000000000E+00  0.00000000000E+00  0.18166970229E+04  0.18166970229E+04  0.50400001928E-02 0. -1.
        1   -1    0    0  501    0  0.00000000000E+00  0.00000000000E+00 -0.53401526130E+03  0.53401526132E+03  0.50400001928E-02 0.  1.
    10030    2    1    2    0    0  0.00000000000E+00  0.00000000000E+00  0.12826817616E+04  0.23507122843E+04  0.19699176992E+04 0.  0.
        4    1    3    3  502    0  0.40189250441E+03 -0.67643262628E+02  0.17113628311E+04  0.17592207219E+04  0.12699999809E+01 0. -1.
       -4    1    3    3    0  502 -0.40189250441E+03  0.67643262628E+02 -0.42868106944E+03  0.59149156231E+03  0.12699999809E+01 0.  1.
</event>
<event>
 5   0  0.1258546E-04  0.1995626E+04  0.7818609E-02  0.8608668E-01
        1   -1    0    0  501    0  0.00000000000E+00  0.00000000000E+00  0.11993777850E+04  0.11993777850E+04  0.50400001928E-02 0. -1.
       -1   -1    0    0    0  501  0.00000000000E+00  0.00000000000E+00 -0.83012315056E+03  0.83012315057E+03  0.50400001928E-02 0.  1.
    10030    2    1    2    0    0  0.00000000000E+00  0.00000000000E+00  0.36925463448E+03  0.20295009356E+04  0.19956264837E+04 0.  0.
        4    1    3    3  502    0  0.47279215882E+03  0.42066147721E+03 -0.59992152636E+03  0.87200685464E+03  0.12699999809E+01 0.  1.
       -4    1    3    3    0  502 -0.47279215882E+03 -0.42066147721E+03  0.96917616084E+03  0.11574940810E+04  0.12699999809E+01 0. -1.
</event>
<event>
 5   0  0.2463085E-04  0.1344612E+04  0.7818609E-02  0.8994917E-01
       -2   -1    0    0    0  501  0.00000000000E+00  0.00000000000E+00  0.18619052029E+03  0.18619052031E+03  0.25500000920E-02 0. -1.
        2   -1    0    0  501    0  0.00000000000E+00  0.00000000000E+00 -0.24275973563E+04  0.24275973563E+04  0.25500000920E-02 0.  1.
    10030    2    1    2    0    0  0.00000000000E+00  0.00000000000E+00 -0.22414068360E+04  0.26137878766E+04  0.13446123826E+04 0.  0.
        2    1    3    3  502    0 -0.50447848008E+03  0.12243329387E+03 -0.29025398252E+03  0.59475694421E+03  0.25500000920E-02 0. -1.
       -2    1    3    3    0  502  0.50447848008E+03 -0.12243329387E+03 -0.19511528535E+04  0.20190309324E+04  0.25500000920E-02 0.  1.
</event>
<event>
 5   0  0.2463085E-04  0.1969316E+04  0.7818609E-02  0.8621102E-01
       -2   -1    0    0    0  501  0.00000000000E+00  0.00000000000E+00  0.10559384098E+04  0.10559384098E+04  0.25500000920E-02 0. -1.
        2   -1    0    0  501    0  0.00000000000E+00  0.00000000000E+00 -0.91818898425E+03  0.91818898425E+03  0.25500000920E-02 0.  1.
    10030    2    1    2    0    0  0.00000000000E+00  0.00000000000E+00  0.13774942557E+03  0.19741273941E+04  0.19693156334E+04 0.  0.
        2    1    3    3  502    0  0.52101435393E+03  0.67085168312E+03 -0.43039147720E+03  0.95222621336E+03  0.25500000920E-02 0.  1.
       -2    1    3    3    0  502 -0.52101435393E+03 -0.67085168312E+03  0.56814090278E+03  0.10219011807E+04  0.25500000920E-02 0. -1.
</event>
<event>
 5   0  0.2540506E-04  0.2026024E+04  0.7818609E-02  0.8594549E-01
        2   -1    0    0  501    0  0.00000000000E+00  0.00000000000E+00  0.19274625730E+04  0.19274625730E+04  0.25500000920E-02 0. -1.
       -2   -1    0    0    0  501  0.00000000000E+00  0.00000000000E+00 -0.53240648912E+03  0.53240648913E+03  0.25500000920E-02 0.  1.
    10030    2    1    2    0    0  0.00000000000E+00  0.00000000000E+00  0.13950560839E+04  0.24598690621E+04  0.20260242658E+04 0.  0.
        4    1    3    3  502    0  0.76281783211E+03  0.64350367850E+03  0.48651993456E+03  0.11102663144E+04  0.12699999809E+01 0.  1.
       -4    1    3    3    0  502 -0.76281783211E+03 -0.64350367850E+03  0.90853614933E+03  0.13496027478E+04  0.12699999809E+01 0. -1.
</event>
<event>
 5   0  0.2596061E-04  0.1819604E+04  0.7818609E-02  0.8695943E-01
       -2   -1    0    0    0  501  0.00000000000E+00  0.00000000000E+00  0.93050869539E+03  0.93050869540E+03  0.25500000920E-02 0.  1.
        2   -1    0    0  501    0  0.00000000000E+00  0.00000000000E+00 -0.88955653138E+03  0.88955653139E+03  0.25500000920E-02 0. -1.
    10030    2    1    2    0    0  0.00000000000E+00  0.00000000000E+00  0.40952164009E+02  0.18200652268E+04  0.18196044488E+04 0.  0.
        5    1    3    3  502    0 -0.51343941993E+02  0.90420143423E+03  0.10710958121E+03  0.91198190027E+03  0.46999998093E+01 0.  1.
       -5    1    3    3    0  502  0.51343941993E+02 -0.90420143423E+03 -0.66157417206E+02  0.90808332651E+03  0.46999998093E+01 0. -1.
</event>
<event>
 5   0  0.2463085E-04  0.1994954E+04  0.7818609E-02  0.8608983E-01
       -2   -1    0    0    0  501  0.00000000000E+00  0.00000000000E+00  0.13767000996E+04  0.13767000996E+04  0.25500000920E-02 0. -1.
        2   -1    0    0  501    0  0.00000000000E+00  0.00000000000E+00 -0.72271412648E+03  0.72271412649E+03  0.25500000920E-02 0.  1.
    10030    2    1    2    0    0  0.00000000000E+00  0.00000000000E+00  0.65398597310E+03  0.20994142261E+04  0.19949542450E+04 0.  0.
        2    1    3    3  502    0 -0.39169630555E+03 -0.29558858000E+03  0.12408905528E+04  0.13343942328E+04  0.25500000920E-02 0. -1.
       -2    1    3    3    0  502  0.39169630555E+03  0.29558858000E+03 -0.58690457972E+03  0.76501999328E+03  0.25500000920E-02 0.  1.
</event>
<event>
 5   0  0.2421737E-04  0.1888356E+04  0.7818609E-02  0.8660674E-01
        2   -1    0    0  501    0  0.00000000000E+00  0.00000000000E+00  0.13077724540E+04  0.13077724540E+04  0.25500000920E-02 0.  1.
       -2   -1    0    0    0  501  0.00000000000E+00  0.00000000000E+00 -0.68167235606E+03  0.68167235606E+03  0.25500000920E-02 0. -1.
    10030    2    1    2    0    0  0.00000000000E+00  0.00000000000E+00  0.62610009795E+03  0.19894448101E+04  0.18883562481E+04 0.  0.
        1    1    3    3  502    0 -0.66840726425E+02 -0.71475689272E+03  0.95917327804E+03  0.11980644706E+04  0.50400001928E-02 0.  1.
       -1    1    3    3    0  502  0.66840726425E+02  0.71475689272E+03 -0.33307318008E+03  0.79138033948E+03  0.50400001928E-02 0. -1.
</event>
<event>
 5   0  0.2540506E-04  0.2004288E+04  0.7818609E-02  0.8604619E-01
        2   -1    0    0  501    0  0.00000000000E+00  0.00000000000E+00  0.22348990350E+04  0.22348990350E+04  0.25500000920E-02 0. -1.
       -2   -1    0    0    0  501  0.00000000000E+00  0.00000000000E+00 -0.44936808388E+03  0.44936808389E+03  0.25500000920E-02 0.  1.
    10030    2    1    2    0    0  0.00000000000E+00  0.00000000000E+00  0.17855309511E+04  0.26842671189E+04  0.20042877010E+04 0.  0.
        4    1    3    3  502    0  0.70296616194E+03 -0.59881558380E+03  0.14141311454E+04  0.16889375469E+04  0.12699999809E+01 0.  1.
       -4    1    3    3    0  502 -0.70296616194E+03  0.59881558380E+03  0.37139980578E+03  0.99532957199E+03  0.12699999809E+01 0. -1.
</event>
<event>
 5   0  0.2540506E-04  0.1945582E+04  0.7818609E-02  0.8632494E-01
       -2   -1    0    0    0  501  0.00000000000E+00  0.00000000000E+00  0.10490945583E+04  0.10490945583E+04  0.25500000920E-02 0.  1.
        2   -1    0    0  501    0  0.00000000000E+00  0.00000000000E+00 -0.90203737117E+03  0.90203737117E+03  0.25500000920E-02 0. -1.
    10030    2    1    2    0    0  0.00000000000E+00  0.00000000000E+00  0.14705718713E+03  0.19511319295E+04  0.19455821725E+04 0.  0.
        4    1    3    3  502    0  0.71021504871E+01  0.35430560656E+03 -0.83500151373E+03  0.90708987659E+03  0.12699999809E+01 0. -1.
       -4    1    3    3    0  502 -0.71021504871E+01 -0.35430560656E+03  0.98205870086E+03  0.10440420529E+04  0.12699999809E+01 0.  1.
</event>
<event>
 5   0  0.2596061E-04  0.2149279E+04  0.7818609E-02  0.8539841E-01
       -2   -1    0    0    0  501  0.00000000000E+00  0.00000000000E+00  0.14888009110E+04  0.14888009110E+04  0.25500000920E-02 0.  1.
        2   -1    0    0  501    0  0.00000000000E+00  0.00000000000E+00 -0.77569134359E+03  0.77569134359E+03  0.25500000920E-02 0. -1.
    10030    2    1    2    0    0  0.00000000000E+00  0.00000000000E+00  0.71310956743E+03  0.22644922546E+04  0.21492789293E+04 0.  0.
        5    1    3    3  502    0 -0.13689877984E+03 -0.10380618201E+04  0.10169051242E+03  0.10519870097E+04  0.46999998093E+01 0. -1.
       -5    1    3    3    0  502  0.13689877984E+03  0.10380618201E+04  0.61141905501E+03  0.12125052449E+04  0.46999998093E+01 0.  1.
</event>
<event>
 5   0  0.1210633E-04  0.2002966E+04  0.7818609E-02  0.8605235E-01
       -1   -1    0    0    0  501  0.00000000000E+00  0.00000000000E+00  0.72430286643E+03  0.72430286645E+03  0.50400001928E-02 0.  1.
        1   -1    0    0  501    0  0.00000000000E+00  0.00000000000E+00 -0.13847359092E+04  0.13847359092E+04  0.50400001928E-02 0. -1.
    10030    2    1    2    0    0  0.00000000000E+00  0.00000000000E+00 -0.66043304276E+03  0.21090387756E+04  0.20029659890E+04 0.  0.
        2    1    3    3  502    0 -0.31466723932E+01 -0.23878139346E+03 -0.13543184467E+04  0.13752108604E+04  0.25500000920E-02 0. -1.
       -2    1    3    3    0  502  0.31466723932E+01  0.23878139346E+03  0.69388540395E+03  0.73382791527E+03  0.25500000920E-02 0.  1.
</event>
<event>
 5   0  0.2596061E-04  0.1862521E+04  0.7818609E-02  0.8673740E-01
       -2   -1    0    0    0  501  0.00000000000E+00  0.00000000000E+00  0.61209678026E+03  0.61209678027E+03  0.25500000920E-02 0. -1.
        2   -1    0    0  501    0  0.00000000000E+00  0.00000000000E+00 -0.14168449867E+04  0.14168449867E+04  0.25500000920E-02 0.  1.
    10030    2    1    2    0    0  0.00000000000E+00  0.00000000000E+00 -0.80474820644E+03  0.20289417670E+04  0.18625211456E+04 0.  0.
        5    1    3    3  502    0  0.55907866696E+03  0.18115478439E+03  0.38455622704E+03  0.70234720297E+03  0.46999998093E+01 0. -1.
       -5    1    3    3    0  502 -0.55907866696E+03 -0.18115478439E+03 -0.11893044335E+04  0.13265945640E+04  0.46999998093E+01 0.  1.
</event>
<event>
 5   0  0.2488886E-04  0.1827432E+04  0.7818609E-02  0.8691846E-01
        2   -1    0    0  501    0  0.00000000000E+00  0.00000000000E+00  0.13705888380E+04  0.13705888380E+04  0.25500000920E-02 0.  1.
       -2   -1    0    0    0  501  0.00000000000E+00  0.00000000000E+00 -0.60913742853E+03  0.60913742853E+03  0.25500000920E-02 0. -1.
    10030    2    1    2    0    0  0.00000000000E+00  0.00000000000E+00  0.76145140945E+03  0.19797262665E+04  0.18274320347E+04 0.  0.
        3    1    3    3  502    0 -0.10915273483E+03 -0.71317385832E+03 -0.22666432472E+03  0.75624599041E+03  0.10100000352E+00 0. -1.
       -3    1    3    3    0  502  0.10915273483E+03  0.71317385832E+03  0.98811573417E+03  0.12234802761E+04  0.10100000352E+00 0.  1.
</event>
<event>
 5   0  0.2596061E-04  0.1949328E+04  0.7818609E-02  0.8630685E-01
        2   -1    0    0  501    0  0.00000000000E+00  0.00000000000E+00  0.12197740006E+04  0.12197740006E+04  0.25500000920E-02 0.  1.
       -2   -1    0    0    0  501  0.00000000000E+00  0.00000000000E+00 -0.77880832475E+03  0.77880832476E+03  0.25500000920E-02 0. -1.
    10030    2    1    2    0    0  0.00000000000E+00  0.00000000000E+00  0.44096567586E+03  0.19985823254E+04  0.19493282392E+04 0.  0.
        5    1    3    3  502    0  0.62599586211E+03 -0.74700124212E+03  0.21212952725E+03  0.99744809461E+03  0.46999998093E+01 0.  1.
       -5    1    3    3    0  502 -0.62599586211E+03  0.74700124212E+03  0.22883614861E+03  0.10011342308E+04  0.46999998093E+01 0. -1.
</event>
<event>
 5   0  0.1207228E-04  0.2006521E+04  0.7818609E-02  0.8603578E-01
        1   -1    0    0  501    0  0.00000000000E+00  0.00000000000E+00  0.15539095607E+04  0.15539095607E+04  0.50400001928E-02 0. -1.
       -1   -1    0    0    0  501  0.00000000000E+00  0.00000000000E+00 -0.64774151806E+03  0.64774151808E+03  0.50400001928E-02 0.  1.
    10030    2    1    2    0    0  0.00000000000E+00  0.00000000000E+00  0.90616804261E+03  0.22016510787E+04  0.20065211066E+04 0.  0.
        1    1    3    3  502    0  0.74672579907E+03  0.70750385133E+02  0.11841564308E+04  0.14017244696E+04  0.50400001928E-02 0. -1.
       -1    1    3    3    0  502 -0.74672579907E+03 -0.70750385133E+02 -0.27798838823E+03  0.79992660914E+03  0.50400001928E-02 0.  1.
</event>
<event>
 5   0  0.1324930E-04  0.1993545E+04  0.7818609E-02  0.8609644E-01
        1   -1    0    0  501    0  0.00000000000E+00  0.00000000000E+00  0.18476313093E+04  0.18476313093E+04  0.50400001928E-02 0. -1.
       -1   -1    0    0    0  501  0.00000000000E+00  0.00000000000E+00 -0.53774563957E+03  0.53774563959E+03  0.50400001928E-02 0.  1.
    10030    2    1    2    0    0  0.00000000000E+00  0.00000000000E+00  0.13098856697E+04  0.23853769489E+04  0.19935452642E+04 0.  0.
        5    1    3    3  502    0 -0.24335384799E+03 -0.21742833841E+03 -0.47199999805E+03  0.57384864366E+03  0.46999998093E+01 0.  1.
       -5    1    3    3    0  502  0.24335384799E+03  0.21742833841E+03  0.17818856678E+04  0.18115283052E+04  0.46999998093E+01 0. -1.
</event>
<event>
 5   0  0.1324930E-04  0.1988270E+04  0.7818609E-02  0.8612125E-01
       -1   -1    0    0    0  501  0.00000000000E+00  0.00000000000E+00  0.85018229909E+03  0.85018229911E+03  0.50400001928E-02 0.  1.
        1   -1    0    0  501    0  0.00000000000E+00  0.00000000000E+00 -0.11624617890E+04  0.11624617891E+04  0.50400001928E-02 0. -1.
    10030    2    1    2    0    0  0.00000000000E+00  0.00000000000E+00 -0.31227948995E+03  0.20126440882E+04  0.19882700384E+04 0.  0.
        5    1    3    3  502    0  0.55658446368E+03  0.67800172909E+03  0.31736565425E+03  0.93285350316E+03  0.46999998093E+01 0.  1.
       -5    1    3    3    0  502 -0.55658446368E+03 -0.67800172909E+03 -0.62964514420E+03  0.10797905850E+04  0.46999998093E+01 0. -1.
</event>
<event>
 5   0  0.2421737E-04  0.1650967E+04  0.7818609E-02  0.8789835E-01
       -2   -1    0    0    0  501  0.00000000000E+00  0.00000000000E+00  0.92791985594E+03  0.92791985594E+03  0.25500000920E-02 0. -1.
        2   -1    0    0  501    0  0.00000000000E+00  0.00000000000E+00 -0.73435503772E+03  0.73435503772E+03  0.25500000920E-02 0.  1.
    10030    2    1    2    0    0  0.00000000000E+00  0.00000000000E+00  0.19356481822E+03  0.16622748937E+04  0.16509665300E+04 0.  0.
        1    1    3    3  502    0 -0.20001318280E+03  0.26181381933E+03  0.85884904266E+03  0.91987685447E+03  0.50400001928E-02 0. -1.
       -1    1    3    3    0  502  0.20001318280E+03 -0.26181381933E+03 -0.66528422444E+03  0.74239803919E+03  0.50400001928E-02 0.  1.
</event>
<event>
 5   0  0.2421737E-04  0.1971843E+04  0.7818609E-02  0.8619899E-01
        2   -1    0    0  501    0  0.00000000000E+00  0.00000000000E+00  0.96801650749E+03  0.96801650749E+03  0.25500000920E-02 0.  1.
       -2   -1    0    0    0  501  0.00000000000E+00  0.00000000000E+00 -0.10041576261E+04  0.10041576261E+04  0.25500000920E-02 0. -1.
    10030    2    1    2    0    0  0.00000000000E+00  0.00000000000E+00 -0.36141118629E+02  0.19721741336E+04  0.19718429534E+04 0.  0.
        1    1    3    3  502    0  0.74516637528E+03 -0.14076513255E+03 -0.64821876437E+03  0.99763486101E+03  0.50400001928E-02 0. -1.
       -1    1    3    3    0  502 -0.74516637528E+03  0.14076513255E+03  0.61207764574E+03  0.97453927260E+03  0.50400001928E-02 0.  1.
</event>
<event>
 5   0  0.1258546E-04  0.1940616E+04  0.7818609E-02  0.8634899E-01
        1   -1    0    0  501    0  0.00000000000E+00  0.00000000000E+00  0.10888202087E+04  0.10888202087E+04  0.50400001928E-02 0.  1.
       -1   -1    0    0    0  501  0.00000000000E+00  0.00000000000E+00 -0.86469518932E+03  0.86469518933E+03  0.50400001928E-02 0. -1.
    10030    2    1    2    0    0  0.00000000000E+00  0.00000000000E+00  0.22412501936E+03  0.19535153980E+04  0.19406159811E+04 0.  0.
        4    1    3    3  502    0  0.13567306033E+03  0.23500625925E+03  0.10498453616E+04  0.10843486604E+04  0.12699999809E+01 0.  1.
       -4    1    3    3    0  502 -0.13567306033E+03 -0.23500625925E+03 -0.82572034226E+03  0.86916673758E+03  0.12699999809E+01 0. -1.
</event>
<event>
 5   0  0.2463085E-04  0.2006406E+04  0.7818609E-02  0.8603632E-01
        2   -1    0    0  501    0  0.00000000000E+00  0.00000000000E+00  0.91925826272E+03  0.91925826272E+03  0.25500000920E-02 0.  1.
       -2   -1    0    0    0  501  0.00000000000E+00  0.00000000000E+00 -0.10948133584E+04  0.10948133584E+04  0.25500000920E-02 0. -1.
    10030    2    1    2    0    0  0.00000000000E+00  0.00000000000E+00 -0.17555509569E+03  0.20140716211E+04  0.20064059668E+04 0.  0.
        2    1    3    3  502    0 -0.60254838123E+03 -0.50493045813E+03 -0.71337357290E+03  0.10615654355E+04  0.25500000920E-02 0. -1.
       -2    1    3    3    0  502  0.60254838123E+03  0.50493045813E+03  0.53781847722E+03  0.95250618566E+03  0.25500000920E-02 0.  1.
</event>
<event>
 5   0  0.9099125E-05  0.1955499E+04  0.7818609E-02  0.8627713E-01
        3   -1    0    0  501    0  0.00000000000E+00  0.00000000000E+00  0.75239065477E+03  0.75239066155E+03  0.10100000352E+00 0. -1.
       -3   -1    0    0    0  501  0.00000000000E+00  0.00000000000E+00 -0.12706090461E+04  0.12706090501E+04  0.10100000352E+00 0.  1.
    10030    2    1    2    0    0  0.00000000000E+00  0.00000000000E+00 -0.51821839132E+03  0.20229997117E+04  0.19554993051E+04 0.  0.
        3    1    3    3  502    0 -0.50492796793E+03 -0.17250416406E+03 -0.11067101618E+04  0.12286241622E+04  0.10100000352E+00 0.  1.
       -3    1    3    3    0  502  0.50492796793E+03  0.17250416406E+03  0.58849177052E+03  0.79437554946E+03  0.10100000352E+00 0. -1.
</event>
<event>
 5   0  0.2596061E-04  0.2121099E+04  0.7818609E-02  0.8552006E-01
       -2   -1    0    0    0  501  0.00000000000E+00  0.00000000000E+00  0.11385897497E+04  0.11385897497E+04  0.25500000920E-02 0. -1.
        2   -1    0    0  501    0  0.00000000000E+00  0.00000000000E+00 -0.98785834435E+03  0.98785834435E+03  0.25500000920E-02 0.  1.
    10030    2    1    2    0    0  0.00000000000E+00  0.00000000000E+00  0.15073140535E+03  0.21264480941E+04  0.21210991349E+04 0.  0.
        5    1    3    3  502    0  0.56930340202E+03  0.24829300786E+03 -0.78644596510E+03  0.10021352839E+04  0.46999998093E+01 0.  1.
       -5    1    3    3    0  502 -0.56930340202E+03 -0.24829300786E+03  0.93717737046E+03  0.11243128101E+04  0.46999998093E+01 0. -1.
</event>
<event>
 5   0  0.2596061E-04  0.2057408E+04  0.7818609E-02  0.8580241E-01
        2   -1    0    0  501    0  0.00000000000E+00  0.00000000000E+00  0.88344803194E+03  0.88344803195E+03  0.25500000920E-02 0. -1.
       -2   -1    0    0    0  501  0.00000000000E+00  0.00000000000E+00 -0.11978423431E+04  0.11978423431E+04  0.25500000920E-02 0.  1.
    10030    2    1    2    0    0  0.00000000000E+00  0.00000000000E+00 -0.31439431120E+03  0.20812903751E+04  0.20574075538E+04 0.  0.
        5    1    3    3  502    0  0.79376574092E+03 -0.60124852813E+03  0.10395754533E+03  0.10011958376E+04  0.46999998093E+01 0. -1.
       -5    1    3    3    0  502 -0.79376574092E+03  0.60124852813E+03 -0.41835185653E+03  0.10800945375E+04  0.46999998093E+01 0.  1.
</event>
<event>
 5   0  0.1207228E-04  0.1959521E+04  0.7818609E-02  0.8625783E-01
        1   -1    0    0  501    0  0.00000000000E+00  0.00000000000E+00  0.75794552979E+03  0.75794552980E+03  0.50400001928E-02 0.  1.
       -1   -1    0    0    0  501  0.00000000000E+00  0.00000000000E+00 -0.12664907895E+04  0.12664907895E+04  0.50400001928E-02 0. -1.
    10030    2    1    2    0    0  0.00000000000E+00  0.00000000000E+00 -0.50854525975E+03  0.20244363193E+04  0.19595214033E+04 0.  0.
        1    1    3    3  502    0  0.75838728327E+03 -0.15938091745E+03  0.36506795612E+03  0.85663770690E+03  0.50400001928E-02 0.  1.
       -1    1    3    3    0  502 -0.75838728327E+03  0.15938091745E+03 -0.87361321587E+03  0.11677986124E+04  0.50400001928E-02 0. -1.
</event>
<event>
 5   0  0.1258546E-04  0.2319388E+04  0.7818609E-02  0.8470316E-01
        1   -1    0    0  501    0  0.00000000000E+00  0.00000000000E+00  0.12023594769E+04  0.12023594769E+04  0.50400001928E-02 0.  1.
       -1   -1    0    0    0  501  0.00000000000E+00  0.00000000000E+00 -0.11185428314E+04  0.11185428314E+04  0.50400001928E-02 0. -1.
    10030    2    1    2    0    0  0.00000000000E+00  0.00000000000E+00  0.83816645425E+02  0.23209023083E+04  0.23193883449E+04 0.  0.
        4    1    3    3  502    0 -0.28560777327E+03  0.97428622318E+03  0.60270568458E+03  0.11807036885E+04  0.12699999809E+01 0.  1.
       -4    1    3    3    0  502  0.28560777327E+03 -0.97428622318E+03 -0.51888903916E+03  0.11401986198E+04  0.12699999809E+01 0. -1.
</event>
<event>
 5   0  0.2488886E-04  0.2009127E+04  0.7818609E-02  0.8602365E-01
       -2   -1    0    0    0  501  0.00000000000E+00  0.00000000000E+00  0.80442973632E+03  0.80442973633E+03  0.25500000920E-02 0.  1.
        2   -1    0    0  501    0  0.00000000000E+00  0.00000000000E+00 -0.12544888499E+04  0.12544888499E+04  0.25500000920E-02 0. -1.
    10030    2    1    2    0    0  0.00000000000E+00  0.00000000000E+00 -0.45005911354E+03  0.20589185862E+04  0.20091273078E+04 0.  0.
        3    1    3    3  502    0  0.62646537624E+03  0.26428554856E+03 -0.98284388110E+03  0.11951099630E+04  0.10100000352E+00 0. -1.
       -3    1    3    3    0  502 -0.62646537624E+03 -0.26428554856E+03  0.53278476755E+03  0.86380862322E+03  0.10100000352E+00 0.  1.
</event>
<event>
 5   0  0.2421737E-04  0.1935488E+04  0.7818609E-02  0.8637391E-01
       -2   -1    0    0    0  501  0.00000000000E+00  0.00000000000E+00  0.10946553277E+04  0.10946553277E+04  0.25500000920E-02 0. -1.
        2   -1    0    0  501    0  0.00000000000E+00  0.00000000000E+00 -0.85554632463E+03  0.85554632463E+03  0.25500000920E-02 0.  1.
    10030    2    1    2    0    0  0.00000000000E+00  0.00000000000E+00  0.23910900306E+03  0.19502016523E+04  0.19354878892E+04 0.  0.
        1    1    3    3  502    0  0.74522393394E+03  0.55924718186E+03 -0.14399118005E+03  0.94278819577E+03  0.50400001928E-02 0.  1.
       -1    1    3    3    0  502 -0.74522393394E+03 -0.55924718186E+03  0.38310018312E+03  0.10074134566E+04  0.50400001928E-02 0. -1.
</event>
<event>
 5   0  0.2596061E-04  0.1971560E+04  0.7818609E-02  0.8620034E-01
       -2   -1    0    0    0  501  0.00000000000E+00  0.00000000000E+00  0.11206636553E+04  0.11206636553E+04  0.25500000920E-02 0. -1.
        2   -1    0    0  501    0  0.00000000000E+00  0.00000000000E+00 -0.86713129238E+03  0.86713129239E+03  0.25500000920E-02 0.  1.
    10030    2    1    2    0    0  0.00000000000E+00  0.00000000000E+00  0.25353236290E+03  0.19877949477E+04  0.19715603199E+04 0.  0.
        5    1    3    3  502    0  0.43862634044E+03 -0.19654007689E+03  0.99450367511E+03  0.11045726405E+04  0.46999998093E+01 0. -1.
       -5    1    3    3    0  502 -0.43862634044E+03  0.19654007689E+03 -0.74097131221E+03  0.88322230716E+03  0.46999998093E+01 0.  1.
</event>
<event>
 5   0  0.2596061E-04  0.1991915E+04  0.7818609E-02  0.8610410E-01
        2   -1    0    0  501    0  0.00000000000E+00  0.00000000000E+00  0.14964629564E+04  0.14964629564E+04  0.25500000920E-02 0. -1.
       -2   -1    0    0    0  501  0.00000000000E+00  0.00000000000E+00 -0.66285034413E+03  0.66285034414E+03  0.25500000920E-02 0.  1.
    10030    2    1    2    0    0  0.00000000000E+00  0.00000000000E+00  0.83361261226E+03  0.21593133005E+04  0.19919146424E+04 0.  0.
        5    1    3    3  502    0 -0.78611181349E+03  0.88218269926E+02 -0.23915347488E+03  0.82642042630E+03  0.46999998093E+01 0.  1.
       -5    1    3    3    0  502  0.78611181349E+03 -0.88218269926E+02  0.10727660871E+04  0.13328928742E+04  0.46999998093E+01 0. -1.
</event>
<event>
 5   0  0.2488886E-04  0.2075795E+04  0.7818609E-02  0.8571981E-01
       -2   -1    0    0    0  501  0.00000000000E+00  0.00000000000E+00  0.66479948510E+03  0.66479948510E+03  0.25500000920E-02 0. -1.
        2   -1    0    0  501    0  0.00000000000E+00  0.00000000000E+00 -0.16203851191E+04  0.16203851191E+04  0.25500000920E-02 0.  1.
    10030    2    1    2    0    0  0.00000000000E+00  0.00000000000E+00 -0.95558563395E+03  0.22851846042E+04  0.20757949733E+04 0.  0.
        3    1    3    3  502    0  0.10326527944E+03 -0.49906715129E+00  0.65912991127E+03  0.66717030595E+03  0.10100000352E+00 0. -1.
       -3    1    3    3    0  502 -0.10326527944E+03  0.49906715129E+00 -0.16147155452E+04  0.16180142982E+04  0.10100000352E+00 0.  1.
</event>
<event>
 5   0  0.2540506E-04  0.1879888E+04  0.7818609E-02  0.8664933E-01
        2   -1    0    0  501    0  0.00000000000E+00  0.00000000000E+00  0.10384375463E+04  0.10384375463E+04  0.25500000920E-02 0. -1.
       -2   -1    0    0    0  501  0.00000000000E+00  0.00000000000E+00 -0.85079206735E+03  0.85079206736E+03  0.25500000920E-02 0.  1.
    10030    2    1    2    0    0  0.00000000000E+00  0.00000000000E+00  0.18764547895E+03  0.18892296137E+04  0.18798876848E+04 0.  0.
        4    1    3    3  502    0 -0.84050489221E+03 -0.30212971800E+03 -0.20048401204E+03  0.91538313962E+03  0.12699999809E+01 0. -1.
       -4    1    3    3    0  502  0.84050489221E+03  0.30212971800E+03  0.38812949099E+03  0.97384647404E+03  0.12699999809E+01 0.  1.
</event>
<event>
 5   0  0.9099125E-05  0.1240228E+04  0.7818609E-02  0.9078356E-01
       -3   -1    0    0    0  501  0.00000000000E+00  0.00000000000E+00  0.78439178091E+03  0.78439178741E+03  0.10100000352E+00 0.  1.
        3   -1    0    0  501    0  0.00000000000E+00  0.00000000000E+00 -0.49024174338E+03  0.49024175378E+03  0.10100000352E+00 0. -1.
    10030    2    1    2    0    0  0.00000000000E+00  0.00000000000E+00  0.29415003753E+03  0.12746335412E+04  0.12402283740E+04 0.  0.
        4    1    3    3  502    0 -0.26324021472E+02  0.40001537279E+03  0.63331137117E+03  0.74952662283E+03  0.12699999809E+01 0.  1.
       -4    1    3    3    0  502  0.26324021472E+02 -0.40001537279E+03 -0.33916133364E+03  0.52510691836E+03  0.12699999809E+01 0. -1.
</event>
<event>
 5   0  0.2488886E-04  0.2055858E+04  0.7818609E-02  0.8580941E-01
       -2   -1    0    0    0  501  0.00000000000E+00  0.00000000000E+00  0.92317183704E+03  0.92317183704E+03  0.25500000920E-02 0. -1.
        2   -1    0    0  501    0  0.00000000000E+00  0.00000000000E+00 -0.11445735401E+04  0.11445735401E+04  0.25500000920E-02 0.  1.
    10030    2    1    2    0    0  0.00000000000E+00  0.00000000000E+00 -0.22140170311E+03  0.20677453772E+04  0.20558580279E+04 0.  0.
        3    1    3    3  502    0  0.98054807419E+03 -0.17704843006E+02  0.19905729992E+03  0.10007056541E+04  0.10100000352E+00 0. -1.
       -3    1    3    3    0  502 -0.98054807419E+03  0.17704843006E+02 -0.42045900303E+03  0.10670397231E+04  0.10100000352E+00 0.  1.
</event>
<event>
 5   0  0.2540506E-04  0.1962838E+04  0.7818609E-02  0.8624195E-01
        2   -1    0    0  501    0  0.00000000000E+00  0.00000000000E+00  0.11291966826E+04  0.11291966826E+04  0.25500000920E-02 0. -1.
       -2   -1    0    0    0  501  0.00000000000E+00  0.00000000000E+00 -0.85298118022E+03  0.85298118022E+03  0.25500000920E-02 0.  1.
    10030    2    1    2    0    0  0.00000000000E+00  0.00000000000E+00  0.27621550241E+03  0.19821778629E+04  0.19628382705E+04 0.  0.
        4    1    3    3  502    0 -0.19889687538E+03  0.92922028580E+03  0.38582365099E+03  0.10256080192E+04  0.12699999809E+01 0. -1.
       -4    1    3    3    0  502  0.19889687538E+03 -0.92922028580E+03 -0.10960814858E+03  0.95656984361E+03  0.12699999809E+01 0.  1.
</event>
<event>
 5   0  0.2421737E-04  0.1867190E+04  0.7818609E-02  0.8671363E-01
        2   -1    0    0  501    0  0.00000000000E+00  0.00000000000E+00  0.69714630978E+03  0.69714630978E+03  0.25500000920E-02 0. -1.
       -2   -1    0    0    0  501  0.00000000000E+00  0.00000000000E+00 -0.12502392500E+04  0.12502392500E+04  0.25500000920E-02 0.  1.
    10030    2    1    2    0    0  0.00000000000E+00  0.00000000000E+00 -0.55309294025E+03  0.19473855598E+04  0.18671900594E+04 0.  0.
        1    1    3    3  502    0  0.46051723691E+03  0.71976541133E+03 -0.66881390122E+03  0.10851038694E+04  0.50400001928E-02 0.  1.
       -1    1    3    3    0  502 -0.46051723691E+03 -0.71976541133E+03  0.11572096097E+03  0.86228169044E+03  0.50400001928E-02 0. -1.
</event>
<event>
 5   0  0.1258546E-04  0.1903869E+04  0.7818609E-02  0.8652933E-01
       -1   -1    0    0    0  501  0.00000000000E+00  0.00000000000E+00  0.11000258725E+04  0.11000258725E+04  0.50400001928E-02 0.  1.
        1   -1    0    0  501    0  0.00000000000E+00  0.00000000000E+00 -0.82377959996E+03  0.82377959998E+03  0.50400001928E-02 0. -1.
    10030    2    1    2    0    0  0.00000000000E+00  0.00000000000E+00  0.27624627251E+03  0.19238054725E+04  0.19038685598E+04 0.  0.
        4    1    3    3  502    0 -0.23962716374E+03 -0.89120912453E+03 -0.97779027125E+02  0.92802868075E+03  0.12699999809E+01 0. -1.
       -4    1    3    3    0  502  0.23962716374E+03  0.89120912453E+03  0.37402529964E+03  0.99577679172E+03  0.12699999809E+01 0.  1.
</event>
<event>
 5   0  0.2488886E-04  0.1969905E+04  0.7818609E-02  0.8620822E-01
        2   -1    0    0  501    0  0.00000000000E+00  0.00000000000E+00  0.26290764152E+04  0.26290764152E+04  0.25500000920E-02 0.  1.
       -2   -1    0    0    0  501  0.00000000000E+00  0.00000000000E+00 -0.36900067648E+03  0.36900067649E+03  0.25500000920E-02 0. -1.
    10030    2    1    2    0    0  0.00000000000E+00  0.00000000000E+00  0.22600757387E+04  0.29980770917E+04  0.19699045416E+04 0.  0.
        3    1    3    3  502    0 -0.47704806057E+03 -0.86124752154E+03  0.10867542498E+04  0.14664095455E+04  0.10100000352E+00 0.  1.
       -3    1    3    3    0  502  0.47704806057E+03  0.86124752154E+03  0.11733214889E+04  0.15316675462E+04  0.10100000352E+00 0. -1.
</event>
<event>
 5   0  0.2596061E-04  0.2020870E+04  0.7818609E-02  0.8596925E-01
        2   -1    0    0  501    0  0.00000000000E+00  0.00000000000E+00  0.12387703213E+04  0.12387703213E+04  0.25500000920E-02 0.  1.
       -2   -1    0    0    0  501  0.00000000000E+00  0.00000000000E+00 -0.82418732117E+03  0.82418732117E+03  0.25500000920E-02 0. -1.
    10030    2    1    2    0    0  0.00000000000E+00  0.00000000000E+00  0.41458300009E+03  0.20629576424E+04  0.20208699044E+04 0.  0.
        5    1    3    3  502    0  0.10576044368E+03  0.51830190552E+03 -0.67152962743E+03  0.85486622768E+03  0.46999998093E+01 0. -1.
       -5    1    3    3    0  502 -0.10576044368E+03 -0.51830190552E+03  0.10861126275E+04  0.12080914147E+04  0.46999998093E+01 0.  1.
</event>
<event>
 5   0  0.1231056E-04  0.2050898E+04  0.7818609E-02  0.8583187E-01
       -1   -1    0    0    0  501  0.00000000000E+00  0.00000000000E+00  0.54106568564E+03  0.54106568566E+03  0.50400001928E-02 0. -1.
        1   -1    0    0  501    0  0.00000000000E+00  0.00000000000E+00 -0.19434704594E+04  0.19434704594E+04  0.50400001928E-02 0.  1.
    10030    2    1    2    0    0  0.00000000000E+00  0.00000000000E+00 -0.14024047737E+04  0.24845361450E+04  0.20508975368E+04 0.  0.
        3    1    3    3  502    0 -0.85386013172E+03  0.56755795079E+03 -0.67866785991E+03  0.12295483831E+04  0.10100000352E+00 0. -1.
       -3    1    3    3    0  502  0.85386013172E+03 -0.56755795079E+03 -0.72373691381E+03  0.12549877620E+04  0.10100000352E+00 0.  1.
</event>
<event>
 5   0  0.1258546E-04  0.1988713E+04  0.7818609E-02  0.8611916E-01
       -1   -1    0    0    0  501  0.00000000000E+00  0.00000000000E+00  0.86420941007E+03  0.86420941009E+03  0.50400001928E-02 0.  1.
        1   -1    0    0  501    0  0.00000000000E+00  0.00000000000E+00 -0.11441028829E+04  0.11441028829E+04  0.50400001928E-02 0. -1.
    10030    2    1    2    0    0  0.00000000000E+00  0.00000000000E+00 -0.27989347283E+03  0.20083122930E+04  0.19887126263E+04 0.  0.
        4    1    3    3  502    0 -0.64171597189E+03 -0.29191521024E+03  0.56819814490E+03  0.90546376146E+03  0.12699999809E+01 0.  1.
       -4    1    3    3    0  502  0.64171597189E+03  0.29191521024E+03 -0.84809161773E+03  0.11028485315E+04  0.12699999809E+01 0. -1.
</event>
<event>
 5   0  0.2540506E-04  0.1979509E+04  0.7818609E-02  0.8616261E-01
       -2   -1    0    0    0  501  0.00000000000E+00  0.00000000000E+00  0.69559871697E+03  0.69559871698E+03  0.25500000920E-02 0. -1.
        2   -1    0    0  501    0  0.00000000000E+00  0.00000000000E+00 -0.14083031625E+04  0.14083031625E+04  0.25500000920E-02 0.  1.
    10030    2    1    2    0    0  0.00000000000E+00  0.00000000000E+00 -0.71270444557E+03  0.21039018795E+04  0.19795089017E+04 0.  0.
        4    1    3    3  502    0  0.48807772637E+03  0.81401590194E+03 -0.58054570035E+02  0.95090152045E+03  0.12699999809E+01 0. -1.
       -4    1    3    3    0  502 -0.48807772637E+03 -0.81401590194E+03 -0.65464987553E+03  0.11530003591E+04  0.12699999809E+01 0.  1.
</event>
<event>
 5   0  0.1231056E-04  0.1875749E+04  0.7818609E-02  0.8667022E-01
       -1   -1    0    0    0  501  0.00000000000E+00  0.00000000000E+00  0.69040095292E+03  0.69040095294E+03  0.50400001928E-02 0.  1.
        1   -1    0    0  501    0  0.00000000000E+00  0.00000000000E+00 -0.12740552383E+04  0.12740552383E+04  0.50400001928E-02 0. -1.
    10030    2    1    2    0    0  0.00000000000E+00  0.00000000000E+00 -0.58365428535E+03  0.19644561912E+04  0.18757493975E+04 0.  0.
        3    1    3    3  502    0 -0.16056740166E+02 -0.42940074418E+03 -0.11648977143E+04  0.12416237405E+04  0.10100000352E+00 0. -1.
       -3    1    3    3    0  502  0.16056740166E+02  0.42940074418E+03  0.58124342891E+03  0.72283245075E+03  0.10100000352E+00 0.  1.
</event>
<event>
 5   0  0.2596061E-04  0.1957467E+04  0.7818609E-02  0.8626769E-01
        2   -1    0    0  501    0  0.00000000000E+00  0.00000000000E+00  0.16800000805E+04  0.16800000805E+04  0.25500000920E-02 0. -1.
       -2   -1    0    0    0  501  0.00000000000E+00  0.00000000000E+00 -0.57018975630E+03  0.57018975631E+03  0.25500000920E-02 0.  1.
    10030    2    1    2    0    0  0.00000000000E+00  0.00000000000E+00  0.11098103242E+04  0.22501898368E+04  0.19574665632E+04 0.  0.
        5    1    3    3  502    0  0.10572054904E+03  0.77510017626E+03  0.12310270011E+04  0.14585632263E+04  0.46999998093E+01 0. -1.
       -5    1    3    3    0  502 -0.10572054904E+03 -0.77510017626E+03 -0.12121667687E+03  0.79162661052E+03  0.46999998093E+01 0.  1.
</event>
<event>
 5   0  0.2463085E-04  0.1996339E+04  0.7818609E-02  0.8608334E-01
       -2   -1    0    0    0  501  0.00000000000E+00  0.00000000000E+00  0.83591311666E+03  0.83591311666E+03  0.25500000920E-02 0.  1.
        2   -1    0    0  501    0  0.00000000000E+00  0.00000000000E+00 -0.11919207998E+04  0.11919207998E+04  0.25500000920E-02 0. -1.
    10030    2    1    2    0    0  0.00000000000E+00  0.00000000000E+00 -0.35600768313E+03  0.20278339165E+04  0.19963388796E+04 0.  0.
        2    1    3    3  502    0  0.24285536073E+02 -0.96400041420E+03  0.83853078506E+02  0.96794520745E+03  0.25500000920E-02 0. -1.
       -2    1    3    3    0  502 -0.24285536073E+02  0.96400041420E+03 -0.43986076163E+03  0.10598887090E+04  0.25500000920E-02 0.  1.
</event>
<event>
 5   0  0.2596061E-04  0.1989239E+04  0.7818609E-02  0.8611668E-01
       -2   -1    0    0    0  501  0.00000000000E+00  0.00000000000E+00  0.10610249303E+04  0.10610249303E+04  0.25500000920E-02 0. -1.
        2   -1    0    0  501    0  0.00000000000E+00  0.00000000000E+00 -0.93237004210E+03  0.93237004210E+03  0.25500000920E-02 0.  1.
    10030    2    1    2    0    0  0.00000000000E+00  0.00000000000E+00  0.12865488824E+03  0.19933949724E+04  0.19892389087E+04 0.  0.
        5    1    3    3  502    0  0.49679693620E+03 -0.40823149995E+03  0.82471818312E+03  0.10457735534E+04  0.46999998093E+01 0. -1.
       -5    1    3    3    0  502 -0.49679693620E+03  0.40823149995E+03 -0.69606329489E+03  0.94762141906E+03  0.46999998093E+01 0.  1.
</event>
<event>
 5   0  0.1324930E-04  0.1995162E+04  0.7818609E-02  0.8608886E-01
       -1   -1    0    0    0  501  0.00000000000E+00  0.00000000000E+00  0.72674673756E+03  0.72674673758E+03  0.50400001928E-02 0. -1.
        1   -1    0    0  501    0  0.00000000000E+00  0.00000000000E+00 -0.13693464408E+04  0.13693464409E+04  0.50400001928E-02 0.  1.
    10030    2    1    2    0    0  0.00000000000E+00  0.00000000000E+00 -0.64259970328E+03  0.20960931784E+04  0.19951622074E+04 0.  0.
        5    1    3    3  502    0 -0.86037188050E+03  0.50343588588E+03 -0.28117751019E+03  0.10357462750E+04  0.46999998093E+01 0.  1.
       -5    1    3    3    0  502  0.86037188050E+03 -0.50343588588E+03 -0.36142219310E+03  0.10603469034E+04  0.46999998093E+01 0. -1.
</event>
<event>
 5   0  0.1258546E-04  0.2024437E+04  0.7818609E-02  0.8595280E-01
       -1   -1    0    0    0  501  0.00000000000E+00  0.00000000000E+00  0.61904579185E+03  0.61904579187E+03  0.50400001928E-02 0.  1.
        1   -1    0    0  501    0  0.00000000000E+00  0.00000000000E+00 -0.16551054757E+04  0.16551054757E+04  0.50400001928E-02 0. -1.
    10030    2    1    2    0    0  0.00000000000E+00  0.00000000000E+00 -0.10360596838E+04  0.22741512675E+04  0.20244367906E+04 0.  0.
        4    1    3    3  502    0 -0.44039509444E+03 -0.32547269788E+03  0.43827312232E+03  0.70140235166E+03  0.12699999809E+01 0.  1.
       -4    1    3    3    0  502  0.44039509444E+03  0.32547269788E+03 -0.14743328061E+04  0.15727489159E+04  0.12699999809E+01 0. -1.
</event>
<event>
 5   0  0.2488886E-04  0.1978493E+04  0.7818609E-02  0.8616742E-01
       -2   -1    0    0    0  501  0.00000000000E+00  0.00000000000E+00  0.43596376224E+03  0.43596376225E+03  0.25500000920E-02 0. -1.
        2   -1    0    0  501    0  0.00000000000E+00  0.00000000000E+00 -0.22447028848E+04  0.22447028848E+04  0.25500000920E-02 0.  1.
    10030    2    1    2    0    0  0.00000000000E+00  0.00000000000E+00 -0.18087391225E+04  0.26806666470E+04  0.19784934822E+04 0.  0.
        3    1    3    3  502    0 -0.58471588933E+03 -0.20320709513E+03  0.14112337580E+03  0.63490283678E+03  0.10100000352E+00 0. -1.
       -3    1    3    3    0  502  0.58471588933E+03  0.20320709513E+03 -0.19498624983E+04  0.20457638103E+04  0.10100000352E+00 0.  1.
</event>
<event>
 5   0  0.1210633E-04  0.1981047E+04  0.7818609E-02  0.8615533E-01
       -1   -1    0    0    0  501  0.00000000000E+00  0.00000000000E+00  0.49390926850E+03  0.49390926852E+03  0.50400001928E-02 0.  1.
        1   -1    0    0  501    0  0.00000000000E+00  0.00000000000E+00 -0.19864724941E+04  0.19864724941E+04  0.50400001928E-02 0. -1.
    10030    2    1    2    0    0  0.00000000000E+00  0.00000000000E+00 -0.14925632256E+04  0.24803817626E+04  0.19810473760E+04 0.  0.
        2    1    3    3  502    0  0.17246077537E+03  0.62511616636E+03  0.19119318652E+03  0.67606787756E+03  0.25500000920E-02 0.  1.
       -2    1    3    3    0  502 -0.17246077537E+03 -0.62511616636E+03 -0.16837564121E+04  0.18043138850E+04  0.25500000920E-02 0. -1.
</event>
<event>
 5   0  0.2540506E-04  0.2018263E+04  0.7818609E-02  0.8598129E-01
        2   -1    0    0  501    0  0.00000000000E+00  0.00000000000E+00  0.13586863988E+04  0.13586863988E+04  0.25500000920E-02 0. -1.
       -2   -1    0    0    0  501  0.00000000000E+00  0.00000000000E+00 -0.74950827860E+03  0.74950827861E+03  0.25500000920E-02 0.  1.
    10030    2    1    2    0    0  0.00000000000E+00  0.00000000000E+00  0.60917812015E+03  0.21081946774E+04  0.20182633167E+04 0.  0.
        4    1    3    3  502    0  0.21167942536E+03 -0.20290945308E+03  0.13132049111E+04  0.13455441935E+04  0.12699999809E+01 0. -1.
       -4    1    3    3    0  502 -0.21167942536E+03  0.20290945308E+03 -0.70402679094E+03  0.76265048386E+03  0.12699999809E+01 0.  1.
</event>
<event>
 5   0  0.1258546E-04  0.1947709E+04  0.7818609E-02  0.8631466E-01
       -1   -1    0    0    0  501  0.00000000000E+00  0.00000000000E+00  0.51262215096E+03  0.51262215098E+03  0.50400001928E-02 0. -1.
        1   -1    0    0  501    0  0.00000000000E+00  0.00000000000E+00 -0.18500814381E+04  0.18500814381E+04  0.50400001928E-02 0.  1.
    10030    2    1    2    0    0  0.00000000000E+00  0.00000000000E+00 -0.13374592871E+04  0.23627035891E+04  0.19477091428E+04 0.  0.
        4    1    3    3  502    0  0.40734969533E+03 -0.64654024686E+02  0.40143917035E+03  0.57555967335E+03  0.12699999809E+01 0. -1.
       -4    1    3    3    0  502 -0.40734969533E+03  0.64654024686E+02 -0.17388984575E+04  0.17871439157E+04  0.12699999809E+01 0.  1.
</event>
<event>
 5   0  0.1207228E-04  0.1952810E+04  0.7818609E-02  0.8629007E-01
        1   -1    0    0  501    0  0.00000000000E+00  0.00000000000E+00  0.11025361261E+04  0.11025361261E+04  0.50400001928E-02 0. -1.
       -1   -1    0    0    0  501  0.00000000000E+00  0.00000000000E+00 -0.86470318891E+03  0.86470318893E+03  0.50400001928E-02 0.  1.
    10030    2    1    2    0    0  0.00000000000E+00  0.00000000000E+00  0.23783293716E+03  0.19672393150E+04  0.19528097748E+04 0.  0.
        1    1    3    3  502    0  0.74392576909E+03 -0.24955345031E+02 -0.51766911486E+03  0.90665849782E+03  0.50400001928E-02 0.  1.
       -1    1    3    3    0  502 -0.74392576909E+03  0.24955345031E+02  0.75550205202E+03  0.10605808172E+04  0.50400001928E-02 0. -1.
</event>
<event>
 5   0  0.1324930E-04  0.1711448E+04  0.7818609E-02  0.8754862E-01
        1   -1    0    0  501    0  0.00000000000E+00  0.00000000000E+00  0.76340297226E+03  0.76340297228E+03  0.50400001928E-02 0. -1.
       -1   -1    0    0    0  501  0.00000000000E+00  0.00000000000E+00 -0.95920950346E+03  0.95920950347E+03  0.50400001928E-02 0.  1.
    10030    2    1    2    0    0  0.00000000000E+00  0.00000000000E+00 -0.19580653120E+03  0.17226124757E+04  0.17114477918E+04 0.  0.
        5    1    3    3  502    0  0.57459978126E+03 -0.25540306687E+03  0.48626695144E+03  0.79490456864E+03  0.46999998093E+01 0.  1.
       -5    1    3    3    0  502 -0.57459978126E+03  0.25540306687E+03 -0.68207348264E+03  0.92770790711E+03  0.46999998093E+01 0. -1.
</event>
<event>
 5   0  0.1231056E-04  0.2010811E+04  0.7818609E-02  0.8601583E-01
       -1   -1    0    0    0  501  0.00000000000E+00  0.00000000000E+00  0.60975615710E+03  0.60975615712E+03  0.50400001928E-02 0.  1.
        1   -1    0    0  501    0  0.00000000000E+00  0.00000000000E+00 -0.16577778775E+04  0.16577778775E+04  0.50400001928E-02 0. -1.
    10030    2    1    2    0    0  0.00000000000E+00  0.00000000000E+00 -0.10480217204E+04  0.22675340346E+04  0.20108110483E+04 0.  0.
        3    1    3    3  502    0 -0.36323819480E+03 -0.95879914499E+02  0.52763281274E+03  0.64771238945E+03  0.10100000352E+00 0.  1.
       -3    1    3    3    0  502  0.36323819480E+03  0.95879914499E+02 -0.15756545332E+04  0.16198216452E+04  0.10100000352E+00 0. -1.
</event>
<event>
 5   0  0.2463085E-04  0.1888729E+04  0.7818609E-02  0.8660487E-01
       -2   -1    0    0    0  501  0.00000000000E+00  0.00000000000E+00  0.13852397948E+04  0.13852397948E+04  0.25500000920E-02 0. -1.
        2   -1    0    0  501    0  0.00000000000E+00  0.00000000000E+00 -0.64380515483E+03  0.64380515484E+03  0.25500000920E-02 0.  1.
    10030    2    1    2    0    0  0.00000000000E+00  0.00000000000E+00  0.74143464002E+03  0.20290449497E+04  0.18887292242E+04 0.  0.
        2    1    3    3  502    0 -0.31161010077E+03  0.40431512356E+02 -0.58599842142E+03  0.66492835104E+03  0.25500000920E-02 0.  1.
       -2    1    3    3    0  502  0.31161010077E+03 -0.40431512356E+02  0.13274330614E+04  0.13641165986E+04  0.25500000920E-02 0. -1.
</event>
<event>
 5   0  0.1258546E-04  0.1987650E+04  0.7818609E-02  0.8612416E-01
        1   -1    0    0  501    0  0.00000000000E+00  0.00000000000E+00  0.79213097736E+03  0.79213097738E+03  0.50400001928E-02 0. -1.
       -1   -1    0    0    0  501  0.00000000000E+00  0.00000000000E+00 -0.12468753751E+04  0.12468753751E+04  0.50400001928E-02 0.  1.
    10030    2    1    2    0    0  0.00000000000E+00  0.00000000000E+00 -0.45474439773E+03  0.20390063525E+04  0.19876504819E+04 0.  0.
        4    1    3    3  502    0 -0.99256496417E+03  0.23897189989E+02 -0.18229702558E+03  0.10094503961E+04  0.12699999809E+01 0.  1.
       -4    1    3    3    0  502  0.99256496417E+03 -0.23897189989E+02 -0.27244737215E+03  0.10295559564E+04  0.12699999809E+01 0. -1.
</event>
<event>
 5   0  0.2488886E-04  0.1978382E+04  0.7818609E-02  0.8616795E-01
        2   -1    0    0  501    0  0.00000000000E+00  0.00000000000E+00  0.13207857409E+04  0.13207857409E+04  0.25500000920E-02 0.  1.
       -2   -1    0    0    0  501  0.00000000000E+00  0.00000000000E+00 -0.74084624014E+03  0.74084624015E+03  0.25500000920E-02 0. -1.
    10030    2    1    2    0    0  0.00000000000E+00  0.00000000000E+00  0.57993950072E+03  0.20616319810E+04  0.19783823191E+04 0.  0.
        3    1    3    3  502    0  0.11474360875E+03  0.85055949282E+03 -0.22254023460E+03  0.88664632903E+03  0.10100000352E+00 0. -1.
       -3    1    3    3    0  502 -0.11474360875E+03 -0.85055949282E+03  0.80247973532E+03  0.11749856520E+04  0.10100000352E+00 0.  1.
</event>
<event>
 5   0  0.2540506E-04  0.1989297E+04  0.7818609E-02  0.8611641E-01
       -2   -1    0    0    0  501  0.00000000000E+00  0.00000000000E+00  0.93286644623E+03  0.93286644623E+03  0.25500000920E-02 0.  1.
        2   -1    0    0  501    0  0.00000000000E+00  0.00000000000E+00 -0.10605222802E+04  0.10605222802E+04  0.25500000920E-02 0. -1.
    10030    2    1    2    0    0  0.00000000000E+00  0.00000000000E+00 -0.12765583396E+03  0.19933887264E+04  0.19892970122E+04 0.  0.
        4    1    3    3  502    0 -0.68004231100E+03 -0.70433650214E+03  0.11196548878E+03  0.98543662230E+03  0.12699999809E+01 0.  1.
       -4    1    3    3    0  502  0.68004231100E+03  0.70433650214E+03 -0.23962132274E+03  0.10079521041E+04  0.12699999809E+01 0. -1.
</event>
<event>
 5   0  0.1207228E-04  0.2009329E+04  0.7818609E-02  0.8602271E-01
        1   -1    0    0  501    0  0.00000000000E+00  0.00000000000E+00  0.28487202106E+04  0.28487202106E+04  0.50400001928E-02 0.  1.
       -1   -1    0    0    0  501  0.00000000000E+00  0.00000000000E+00 -0.35431743746E+03  0.35431743749E+03  0.50400001928E-02 0. -1.
    10030    2    1    2    0    0  0.00000000000E+00  0.00000000000E+00  0.24944027731E+04  0.32030376481E+04  0.20093294853E+04 0.  0.
        1    1    3    3  502    0 -0.99072181835E+03 -0.14996978577E+03  0.13635867607E+04  0.16921552860E+04  0.50400001928E-02 0.  1.
       -1    1    3    3    0  502  0.99072181835E+03  0.14996978577E+03  0.11308160124E+04  0.15108823620E+04  0.50400001928E-02 0. -1.
</event>
<event>
 5   0  0.2596061E-04  0.1995263E+04  0.7818609E-02  0.8608839E-01
        2   -1    0    0  501    0  0.00000000000E+00  0.00000000000E+00  0.17683321402E+04  0.17683321402E+04  0.25500000920E-02 0. -1.
       -2   -1    0    0    0  501  0.00000000000E+00  0.00000000000E+00 -0.56282881431E+03  0.56282881432E+03  0.25500000920E-02 0.  1.
    10030    2    1    2    0    0  0.00000000000E+00  0.00000000000E+00  0.12055033258E+04  0.23311609545E+04  0.19952626712E+04 0.  0.
        5    1    3    3  502    0  0.34686316641E+03 -0.89071583181E+02  0.16906325029E+04  0.17281516580E+04  0.46999998093E+01 0. -1.
       -5    1    3    3    0  502 -0.34686316641E+03  0.89071583181E+02 -0.48512917710E+03  0.60300929645E+03  0.46999998093E+01 0.  1.
</event>
<event>
 5   0  0.2421737E-04  0.1928021E+04  0.7818609E-02  0.8641033E-01
        2   -1    0    0  501    0  0.00000000000E+00  0.00000000000E+00  0.17761398980E+04  0.17761398980E+04  0.25500000920E-02 0.  1.
       -2   -1    0    0    0  501  0.00000000000E+00  0.00000000000E+00 -0.52322233863E+03  0.52322233864E+03  0.25500000920E-02 0. -1.
    10030    2    1    2    0    0  0.00000000000E+00  0.00000000000E+00  0.12529175594E+04  0.22993622367E+04  0.19280208206E+04 0.  0.
        1    1    3    3  502    0 -0.12713574910E+03  0.59613373855E+03 -0.26423009936E+03  0.66434665527E+03  0.50400001928E-02 0. -1.
       -1    1    3    3    0  502  0.12713574910E+03 -0.59613373855E+03  0.15171476588E+04  0.16350155814E+04  0.50400001928E-02 0.  1.
</event>
<event>
 5   0  0.2488886E-04  0.2081835E+04  0.7818609E-02  0.8569288E-01
        2   -1    0    0  501    0  0.00000000000E+00  0.00000000000E+00  0.20232567586E+04  0.20232567586E+04  0.25500000920E-02 0.  1.
       -2   -1    0    0    0  501  0.00000000000E+00  0.00000000000E+00 -0.53552707617E+03  0.53552707617E+03  0.25500000920E-02 0. -1.
    10030    2    1    2    0    0  0.00000000000E+00  0.00000000000E+00  0.14877296825E+04  0.25587838348E+04  0.20818345528E+04 0.  0.
        3    1    3    3  502    0 -0.13271313067E+03 -0.10198582648E+04  0.94123063520E+03  0.13941444596E+04  0.10100000352E+00 0. -1.
       -3    1    3    3    0  502  0.13271313067E+03  0.10198582648E+04  0.54649904727E+03  0.11646393752E+04  0.10100000352E+00 0.  1.
</event>
<event>
 5   0  0.1207228E-04  0.2083312E+04  0.7818609E-02  0.8568631E-01
        1   -1    0    0  501    0  0.00000000000E+00  0.00000000000E+00  0.16611150928E+04  0.16611150928E+04  0.50400001928E-02 0. -1.
       -1   -1    0    0    0  501  0.00000000000E+00  0.00000000000E+00 -0.65320383783E+03  0.65320383785E+03  0.50400001928E-02 0.  1.
    10030    2    1    2    0    0  0.00000000000E+00  0.00000000000E+00  0.10079112550E+04  0.23143189306E+04  0.20833115501E+04 0.  0.
        1    1    3    3  502    0  0.57918461660E+02 -0.98508424468E+03  0.13334405132E+03  0.99575406269E+03  0.50400001928E-02 0.  1.
       -1    1    3    3    0  502 -0.57918461660E+02  0.98508424468E+03  0.87456720364E+03  0.13185648680E+04  0.50400001928E-02 0. -1.
</event>
<event>
 5   0  0.1210633E-04  0.2017458E+04  0.7818609E-02  0.8598502E-01
        1   -1    0    0  501    0  0.00000000000E+00  0.00000000000E+00  0.62864420292E+03  0.62864420294E+03  0.50400001928E-02 0.  1.
       -1   -1    0    0    0  501  0.00000000000E+00  0.00000000000E+00 -0.16186168132E+04  0.16186168132E+04  0.50400001928E-02 0. -1.
    10030    2    1    2    0    0  0.00000000000E+00  0.00000000000E+00 -0.98997261029E+03  0.22472610162E+04  0.20174578820E+04 0.  0.
        2    1    3    3  502    0 -0.23236071606E+03  0.89095254977E+03 -0.36053630127E+02  0.92145960984E+03  0.25500000920E-02 0.  1.
       -2    1    3    3    0  502  0.23236071606E+03 -0.89095254977E+03 -0.95391898016E+03  0.13258014063E+04  0.25500000920E-02 0. -1.
</event>
<event>
 5   0  0.2421737E-04  0.2034435E+04  0.7818609E-02  0.8590688E-01
       -2   -1    0    0    0  501  0.00000000000E+00  0.00000000000E+00  0.17182925680E+04  0.17182925680E+04  0.25500000920E-02 0. -1.
        2   -1    0    0  501    0  0.00000000000E+00  0.00000000000E+00 -0.60218583443E+03  0.60218583443E+03  0.25500000920E-02 0.  1.
    10030    2    1    2    0    0  0.00000000000E+00  0.00000000000E+00  0.11161067335E+04  0.23204784024E+04  0.20344350015E+04 0.  0.
        1    1    3    3  502    0  0.47212576823E+03  0.71203869826E+03  0.11877948114E+04  0.14631330640E+04  0.50400001928E-02 0. -1.
       -1    1    3    3    0  502 -0.47212576823E+03 -0.71203869826E+03 -0.71688077841E+02  0.85734533846E+03  0.50400001928E-02 0.  1.
</event>
<event>
 5   0  0.2488886E-04  0.1951240E+04  0.7818609E-02  0.8629763E-01
        2   -1    0    0  501    0  0.00000000000E+00  0.00000000000E+00  0.21675005841E+04  0.21675005841E+04  0.25500000920E-02 0. -1.
       -2   -1    0    0    0  501  0.00000000000E+00  0.00000000000E+00 -0.43913903250E+03  0.43913903251E+03  0.25500000920E-02 0.  1.
    10030    2    1    2    0    0  0.00000000000E+00  0.00000000000E+00  0.17283615515E+04  0.26066396166E+04  0.19512397182E+04 0.  0.
        3    1    3    3  502    0 -0.89610913851E+03 -0.25681907620E+03  0.47962459867E+03  0.10483355340E+04  0.10100000352E+00 0. -1.
       -3    1    3    3    0  502  0.89610913851E+03  0.25681907620E+03  0.12487369529E+04  0.15583040826E+04  0.10100000352E+00 0.  1.
</event>
<event>
 5   0  0.1324930E-04  0.1977171E+04  0.7818609E-02  0.8617369E-01
       -1   -1    0    0    0  501  0.00000000000E+00  0.00000000000E+00  0.66629241152E+03  0.66629241154E+03  0.50400001928E-02 0. -1.
        1   -1    0    0  501    0  0.00000000000E+00  0.00000000000E+00 -0.14667753610E+04  0.14667753610E+04  0.50400001928E-02 0.  1.
    10030    2    1    2    0    0  0.00000000000E+00  0.00000000000E+00 -0.80048294947E+03  0.21330677725E+04  0.19771710017E+04 0.  0.
        5    1    3    3  502    0 -0.18020940822E+03 -0.71614727201E+03 -0.11092811765E+04  0.13326174112E+04  0.46999998093E+01 0.  1.
       -5    1    3    3    0  502  0.18020940822E+03  0.71614727201E+03  0.30879822702E+03  0.80045036138E+03  0.46999998093E+01 0. -1.
</event>
<event>
 5   0  0.2488886E-04  0.1878068E+04  0.7818609E-02  0.8665851E-01
       -2   -1    0    0    0  501  0.00000000000E+00  0.00000000000E+00  0.13453084874E+04  0.13453084874E+04  0.25500000920E-02 0.  1.
        2   -1    0    0  501    0  0.00000000000E+00  0.00000000000E+00 -0.65545198817E+03  0.65545198818E+03  0.25500000920E-02 0. -1.
    10030    2    1    2    0    0  0.00000000000E+00  0.00000000000E+00  0.68985649919E+03  0.20007604755E+04  0.18780682871E+04 0.  0.
        3    1    3    3  502    0 -0.36091374833E+03  0.32693032634E+03  0.12002772175E+04  0.12953021196E+04  0.10100000352E+00 0.  1.
       -3    1    3    3    0  502  0.36091374833E+03 -0.32693032634E+03 -0.51042071834E+03  0.70545835591E+03  0.10100000352E+00 0. -1.
</event>
<event>
 5   0  0.1210633E-04  0.2006293E+04  0.7818609E-02  0.8603684E-01
       -1   -1    0    0    0  501  0.00000000000E+00  0.00000000000E+00  0.60978796414E+03  0.60978796416E+03  0.50400001928E-02 0. -1.
        1   -1    0    0  501    0  0.00000000000E+00  0.00000000000E+00 -0.16502497059E+04  0.16502497059E+04  0.50400001928E-02 0.  1.
    10030    2    1    2    0    0  0.00000000000E+00  0.00000000000E+00 -0.10404617418E+04  0.22600376701E+04  0.20062925096E+04 0.  0.
        2    1    3    3  502    0 -0.31919347521E+03  0.47663216601E+03 -0.14472584070E+04  0.15567978652E+04  0.25500000920E-02 0.  1.
       -2    1    3    3    0  502  0.31919347521E+03 -0.47663216601E+03  0.40679666528E+03  0.70323980489E+03  0.25500000920E-02 0. -1.
</event>
<event>
 5   0  0.1258546E-04  0.1991588E+04  0.7818609E-02  0.8610564E-01
        1   -1    0    0  501    0  0.00000000000E+00  0.00000000000E+00  0.13916319912E+04  0.13916319912E+04  0.50400001928E-02 0. -1.
       -1   -1    0    0    0  501  0.00000000000E+00  0.00000000000E+00 -0.71254855168E+03  0.71254855169E+03  0.50400001928E-02 0.  1.
    10030    2    1    2    0    0  0.00000000000E+00  0.00000000000E+00  0.67908343956E+03  0.21041805429E+04  0.19915876680E+04 0.  0.
        4    1    3    3  502    0  0.17131666873E+03 -0.48379930013E+03  0.12411267613E+04  0.13430593488E+04  0.12699999809E+01 0. -1.
       -4    1    3    3    0  502 -0.17131666873E+03  0.48379930013E+03 -0.56204332175E+03  0.76112119417E+03  0.12699999809E+01 0.  1.
</event>
<event>
 5   0  0.2488886E-04  0.1816321E+04  0.7818609E-02  0.8697668E-01
       -2   -1    0    0    0  501  0.00000000000E+00  0.00000000000E+00  0.27706195819E+03  0.27706195820E+03  0.25500000920E-02 0.  1.
        2   -1    0    0  501    0  0.00000000000E+00  0.00000000000E+00 -0.29767917042E+04  0.29767917042E+04  0.25500000920E-02 0. -1.
    10030    2    1    2    0    0  0.00000000000E+00  0.00000000000E+00 -0.26997297460E+04  0.32538536624E+04  0.18163212697E+04 0.  0.
        3    1    3    3  502    0 -0.43335954521E+03 -0.91440134951E+02 -0.27701987368E+04  0.28053810517E+04  0.10100000352E+00 0. -1.
       -3    1    3    3    0  502  0.43335954521E+03  0.91440134951E+02  0.70468990760E+02  0.44847261072E+03  0.10100000352E+00 0.  1.
</event>
<event>
 5   0  0.1231056E-04  0.1779430E+04  0.7818609E-02  0.8717315E-01
       -1   -1    0    0    0  501  0.00000000000E+00  0.00000000000E+00  0.59153454831E+03  0.59153454833E+03  0.50400001928E-02 0. -1.
        1   -1    0    0  501    0  0.00000000000E+00  0.00000000000E+00 -0.13382025656E+04  0.13382025656E+04  0.50400001928E-02 0.  1.
    10030    2    1    2    0    0  0.00000000000E+00  0.00000000000E+00 -0.74666801725E+03  0.19297371139E+04  0.17794303023E+04 0.  0.
        3    1    3    3  502    0 -0.70686532737E+03 -0.49689082439E+03 -0.60347142057E+03  0.10539150099E+04  0.10100000352E+00 0. -1.
       -3    1    3    3    0  502  0.70686532737E+03  0.49689082439E+03 -0.14319659668E+03  0.87582210402E+03  0.10100000352E+00 0.  1.
</event>
<event>
 5   0  0.1207228E-04  0.1994711E+04  0.7818609E-02  0.8609097E-01
       -1   -1    0    0    0  501  0.00000000000E+00  0.00000000000E+00  0.10107798733E+04  0.10107798733E+04  0.50400001928E-02 0.  1.
        1   -1    0    0  501    0  0.00000000000E+00  0.00000000000E+00 -0.98410955190E+03  0.98410955192E+03  0.50400001928E-02 0. -1.
    10030    2    1    2    0    0  0.00000000000E+00  0.00000000000E+00  0.26670321404E+02  0.19948894252E+04  0.19947111352E+04 0.  0.
        1    1    3    3  502    0 -0.45873404268E+03 -0.59169221570E+03 -0.64564825875E+03  0.98863455032E+03  0.50400001928E-02 0. -1.
       -1    1    3    3    0  502  0.45873404268E+03  0.59169221570E+03  0.67231858015E+03  0.10062548749E+04  0.50400001928E-02 0.  1.
</event>
<event>
 5   0  0.1258546E-04  0.2001189E+04  0.7818609E-02  0.8606065E-01
        1   -1    0    0  501    0  0.00000000000E+00  0.00000000000E+00  0.22280343927E+04  0.22280343927E+04  0.50400001928E-02 0.  1.
       -1   -1    0    0    0  501  0.00000000000E+00  0.00000000000E+00 -0.44935994516E+03  0.44935994519E+03  0.50400001928E-02 0. -1.
    10030    2    1    2    0    0  0.00000000000E+00  0.00000000000E+00  0.17786744476E+04  0.26773943379E+04  0.20011890591E+04 0.  0.
        4    1    3    3  502    0  0.79252577701E+02  0.92636404424E+03  0.39457311503E+03  0.10100103314E+04  0.12699999809E+01 0. -1.
       -4    1    3    3    0  502 -0.79252577701E+02 -0.92636404424E+03  0.13841013325E+04  0.16673840065E+04  0.12699999809E+01 0.  1.
</event>
<event>
 5   0  0.2463085E-04  0.2035928E+04  0.7818609E-02  0.8590005E-01
       -2   -1    0    0    0  501  0.00000000000E+00  0.00000000000E+00  0.10812210836E+04  0.10812210836E+04  0.25500000920E-02 0. -1.
        2   -1    0    0  501    0  0.00000000000E+00  0.00000000000E+00 -0.95840767537E+03  0.95840767538E+03  0.25500000920E-02 0.  1.
    10030    2    1    2    0    0  0.00000000000E+00  0.00000000000E+00  0.12281340826E+03  0.20396287590E+04  0.20359278822E+04 0.  0.
        2    1    3    3  502    0  0.62218832190E+03 -0.59274771206E+01  0.86853688192E+03  0.10684146003E+04  0.25500000920E-02 0. -1.
       -2    1    3    3    0  502 -0.62218832190E+03  0.59274771206E+01 -0.74572347366E+03  0.97121415870E+03  0.25500000920E-02 0.  1.
</event>
<event>
 5   0  0.2463085E-04  0.1989084E+04  0.7818609E-02  0.8611741E-01
       -2   -1    0    0    0  501  0.00000000000E+00  0.00000000000E+00  0.86849062465E+03  0.86849062465E+03  0.25500000920E-02 0. -1.
        2   -1    0    0  501    0  0.00000000000E+00  0.00000000000E+00 -0.11388878214E+04  0.11388878214E+04  0.25500000920E-02 0.  1.
    10030    2    1    2    0    0  0.00000000000E+00  0.00000000000E+00 -0.27039719678E+03  0.20073784461E+04  0.19890836035E+04 0.  0.
        2    1    3    3  502    0  0.18121241664E+03 -0.18046540782E+03 -0.11051355375E+04  0.11343413330E+04  0.25500000920E-02 0.  1.
       -2    1    3    3    0  502 -0.18121241664E+03  0.18046540782E+03  0.83473834074E+03  0.87303711312E+03  0.25500000920E-02 0. -1.
</event>
<event>
 5   0  0.2463085E-04  0.2011394E+04  0.7818609E-02  0.8601312E-01
        2   -1    0    0  501    0  0.00000000000E+00  0.00000000000E+00  0.52410579643E+03  0.52410579644E+03  0.25500000920E-02 0. -1.
       -2   -1    0    0    0  501  0.00000000000E+00  0.00000000000E+00 -0.19298130223E+04  0.19298130223E+04  0.25500000920E-02 0.  1.
    10030    2    1    2    0    0  0.00000000000E+00  0.00000000000E+00 -0.14057072259E+04  0.24539188188E+04  0.20113937367E+04 0.  0.
        2    1    3    3  502    0  0.89417769683E+02  0.28571944950E+03  0.46847912983E+03  0.55597107519E+03  0.25500000920E-02 0. -1.
       -2    1    3    3    0  502 -0.89417769683E+02 -0.28571944950E+03 -0.18741863557E+04  0.18979477436E+04  0.25500000920E-02 0.  1.
</event>
<event>
 5   0  0.1210633E-04  0.2011564E+04  0.7818609E-02  0.8601233E-01
       -1   -1    0    0    0  501  0.00000000000E+00  0.00000000000E+00  0.10604849374E+04  0.10604849374E+04  0.50400001928E-02 0.  1.
        1   -1    0    0  501    0  0.00000000000E+00  0.00000000000E+00 -0.95390085597E+03  0.95390085598E+03  0.50400001928E-02 0. -1.
    10030    2    1    2    0    0  0.00000000000E+00  0.00000000000E+00  0.10658408144E+03  0.20143857934E+04  0.20115640577E+04 0.  0.
        2    1    3    3  502    0 -0.29284519659E+03 -0.57749745513E+03  0.82400524414E+03  0.10479724530E+04  0.25500000920E-02 0.  1.
       -2    1    3    3    0  502  0.29284519659E+03  0.57749745513E+03 -0.71742116269E+03  0.96641334042E+03  0.25500000920E-02 0. -1.
</event>
<event>
 5   0  0.1258546E-04  0.2021019E+04  0.7818609E-02  0.8596856E-01
        1   -1    0    0  501    0  0.00000000000E+00  0.00000000000E+00  0.12327235777E+04  0.12327235777E+04  0.50400001928E-02 0.  1.
       -1   -1    0    0    0  501  0.00000000000E+00  0.00000000000E+00 -0.82835196409E+03  0.82835196411E+03  0.50400001928E-02 0. -1.
    10030    2    1    2    0    0  0.00000000000E+00  0.00000000000E+00  0.40437161361E+03  0.20610755418E+04  0.20210185519E+04 0.  0.
        4    1    3    3  502    0  0.49476199402E+03  0.52112061219E+03 -0.52236846231E+03  0.88838423359E+03  0.12699999809E+01 0. -1.
       -4    1    3    3    0  502 -0.49476199402E+03 -0.52112061219E+03  0.92674007593E+03  0.11726913082E+04  0.12699999809E+01 0.  1.
</event>
<event>
 5   0  0.1231056E-04  0.2003586E+04  0.7818609E-02  0.8604946E-01
        1   -1    0    0  501    0  0.00000000000E+00  0.00000000000E+00  0.13332570669E+04  0.13332570669E+04  0.50400001928E-02 0. -1.
       -1   -1    0    0    0  501  0.00000000000E+00  0.00000000000E+00 -0.75273482696E+03  0.75273482697E+03  0.50400001928E-02 0.  1.
    10030    2    1    2    0    0  0.00000000000E+00  0.00000000000E+00  0.58052223993E+03  0.20859918939E+04  0.20035858130E+04 0.  0.
        3    1    3    3  502    0  0.92841347118E+02  0.31835235032E+03 -0.69393448268E+03  0.76909870052E+03  0.10100000352E+00 0.  1.
       -3    1    3    3    0  502 -0.92841347118E+02 -0.31835235032E+03  0.12744567226E+04  0.13168931933E+04  0.10100000352E+00 0. -1.
</event>
<event>
 5   0  0.2596061E-04  0.1691242E+04  0.7818609E-02  0.8766375E-01
       -2   -1    0    0    0  501  0.00000000000E+00  0.00000000000E+00  0.61381011689E+03  0.61381011689E+03  0.25500000920E-02 0. -1.
        2   -1    0    0  501    0  0.00000000000E+00  0.00000000000E+00 -0.11649779402E+04  0.11649779402E+04  0.25500000920E-02 0.  1.
    10030    2    1    2    0    0  0.00000000000E+00  0.00000000000E+00 -0.55116782330E+03  0.17787880571E+04  0.16912424376E+04 0.  0.
        5    1    3    3  502    0  0.65784866662E+03  0.48164440691E+02 -0.83209382167E+03  0.10618318603E+04  0.46999998093E+01 0.  1.
       -5    1    3    3    0  502 -0.65784866662E+03 -0.48164440691E+02  0.28092599837E+03  0.71695619677E+03  0.46999998093E+01 0. -1.
</event>
<event>
 5   0  0.1258546E-04  0.2008362E+04  0.7818609E-02  0.8602721E-01
       -1   -1    0    0    0  501  0.00000000000E+00  0.00000000000E+00  0.83509629568E+03  0.83509629570E+03  0.50400001928E-02 0. -1.
        1   -1    0    0  501    0  0.00000000000E+00  0.00000000000E+00 -0.12075007512E+04  0.12075007512E+04  0.50400001928E-02 0.  1.
    10030    2    1    2    0    0  0.00000000000E+00  0.00000000000E+00 -0.37240445551E+03  0.20425970469E+04  0.20083619239E+04 0.  0.
        4    1    3    3  502    0 -0.50650725797E+03  0.71921232895E+03 -0.67877383799E+03  0.11111037362E+04  0.12699999809E+01 0. -1.
       -4    1    3    3    0  502  0.50650725797E+03 -0.71921232895E+03  0.30636938248E+03  0.93149331072E+03  0.12699999809E+01 0.  1.
</event>
<event>
 5   0  0.2488886E-04  0.2003482E+04  0.7818609E-02  0.8604994E-01
       -2   -1    0    0    0  501  0.00000000000E+00  0.00000000000E+00  0.11356912041E+04  0.11356912041E+04  0.25500000920E-02 0.  1.
        2   -1    0    0  501    0  0.00000000000E+00  0.00000000000E+00 -0.88358992884E+03  0.88358992885E+03  0.25500000920E-02 0. -1.
    10030    2    1    2    0    0  0.00000000000E+00  0.00000000000E+00  0.25210127525E+03  0.20192811329E+04  0.20034822786E+04 0.  0.
        3    1    3    3  502    0  0.98572366805E+03  0.70645213244E+02 -0.39080919762E+02  0.98902438008E+03  0.10100000352E+00 0.  1.
       -3    1    3    3    0  502 -0.98572366805E+03 -0.70645213244E+02  0.29118219501E+03  0.10302567529E+04  0.10100000352E+00 0. -1.
</event>
<event>
 5   0  0.1258546E-04  0.2085633E+04  0.7818609E-02  0.8567599E-01
       -1   -1    0    0    0  501  0.00000000000E+00  0.00000000000E+00  0.89666021419E+03  0.89666021421E+03  0.50400001928E-02 0.  1.
        1   -1    0    0  501    0  0.00000000000E+00  0.00000000000E+00 -0.12127964891E+04  0.12127964891E+04  0.50400001928E-02 0. -1.
    10030    2    1    2    0    0  0.00000000000E+00  0.00000000000E+00 -0.31613627488E+03  0.21094567033E+04  0.20856331026E+04 0.  0.
        4    1    3    3  502    0  0.18667351996E+03  0.10085687870E+04  0.32248041952E+02  0.10262063877E+04  0.12699999809E+01 0.  1.
       -4    1    3    3    0  502 -0.18667351996E+03 -0.10085687870E+04 -0.34838431683E+03  0.10832503156E+04  0.12699999809E+01 0. -1.
</event>
<event>
 5   0  0.1324930E-04  0.1973212E+04  0.7818609E-02  0.8619248E-01
        1   -1    0    0  501    0  0.00000000000E+00  0.00000000000E+00  0.21552581187E+04  0.21552581187E+04  0.50400001928E-02 0. -1.
       -1   -1    0    0    0  501  0.00000000000E+00  0.00000000000E+00 -0.45163557812E+03  0.45163557814E+03  0.50400001928E-02 0.  1.
    10030    2    1    2    0    0  0.00000000000E+00  0.00000000000E+00  0.17036225406E+04  0.26068936968E+04  0.19732118451E+04 0.  0.
        5    1    3    3  502    0 -0.44379455754E+02  0.68888257442E+03  0.17830436489E+04  0.19120134626E+04  0.46999998093E+01 0. -1.
       -5    1    3    3    0  502  0.44379455754E+02 -0.68888257442E+03 -0.79421108327E+02  0.69488023420E+03  0.46999998093E+01 0.  1.
</event>
<event>
 5   0  0.1231056E-04  0.1990171E+04  0.7818609E-02  0.8611230E-01
       -1   -1    0    0    0  501  0.00000000000E+00  0.00000000000E+00  0.62564758881E+03  0.62564758883E+03  0.50400001928E-02 0. -1.
        1   -1    0    0  501    0  0.00000000000E+00  0.00000000000E+00 -0.15826729116E+04  0.15826729116E+04  0.50400001928E-02 0.  1.
    10030    2    1    2    0    0  0.00000000000E+00  0.00000000000E+00 -0.95702532276E+03  0.22083205004E+04  0.19901713404E+04 0.  0.
        3    1    3    3  502    0 -0.43979526235E+03  0.40443384032E+03 -0.13614810052E+04  0.14868144275E+04  0.10100000352E+00 0.  1.
       -3    1    3    3    0  502  0.43979526235E+03 -0.40443384032E+03  0.40445568246E+03  0.72150607292E+03  0.10100000352E+00 0. -1.
</event>
<event>
 5   0  0.1207228E-04  0.1729925E+04  0.7818609E-02  0.8744479E-01
        1   -1    0    0  501    0  0.00000000000E+00  0.00000000000E+00  0.17098208372E+04  0.17098208373E+04  0.50400001928E-02 0.  1.
       -1   -1    0    0    0  501  0.00000000000E+00  0.00000000000E+00 -0.43756622900E+03  0.43756622903E+03  0.50400001928E-02 0. -1.
    10030    2    1    2    0    0  0.00000000000E+00  0.00000000000E+00  0.12722546082E+04  0.21473870663E+04  0.17299246875E+04 0.  0.
        1    1    3    3  502    0 -0.66054096865E+03  0.41714409002E+03  0.17527164082E+03  0.80065205377E+03  0.50400001928E-02 0. -1.
       -1    1    3    3    0  502  0.66054096865E+03 -0.41714409002E+03  0.10969829674E+04  0.13467350125E+04  0.50400001928E-02 0.  1.
</event>
<event>
 5   0  0.2540506E-04  0.1973222E+04  0.7818609E-02  0.8619243E-01
       -2   -1    0    0    0  501  0.00000000000E+00  0.00000000000E+00  0.10264468544E+04  0.10264468544E+04  0.25500000920E-02 0.  1.
        2   -1    0    0  501    0  0.00000000000E+00  0.00000000000E+00 -0.94832143553E+03  0.94832143554E+03  0.25500000920E-02 0. -1.
    10030    2    1    2    0    0  0.00000000000E+00  0.00000000000E+00  0.78125418864E+02  0.19747682899E+04  0.19732222931E+04 0.  0.
        4    1    3    3  502    0 -0.80519483078E+03 -0.52349229023E+03  0.26510921344E+03  0.99632695507E+03  0.12699999809E+01 0.  1.
       -4    1    3    3    0  502  0.80519483078E+03  0.52349229023E+03 -0.18698379457E+03  0.97844133487E+03  0.12699999809E+01 0. -1.
</event>
<event>
 5   0  0.2463085E-04  0.2050137E+04  0.7818609E-02  0.8583532E-01
       -2   -1    0    0    0  501  0.00000000000E+00  0.00000000000E+00  0.75114533471E+03  0.75114533471E+03  0.25500000920E-02 0.  1.
        2   -1    0    0  501    0  0.00000000000E+00  0.00000000000E+00 -0.13988838479E+04  0.13988838479E+04  0.25500000920E-02 0. -1.
    10030    2    1    2    0    0  0.00000000000E+00  0.00000000000E+00 -0.64773851316E+03  0.21500291826E+04  0.20501366551E+04 0.  0.
        2    1    3    3  502    0  0.79983308154E+02 -0.14437352987E+03  0.73711897277E+03  0.75537105170E+03  0.25500000920E-02 0.  1.
       -2    1    3    3    0  502 -0.79983308154E+02  0.14437352987E+03 -0.13848574859E+04  0.13946581309E+04  0.25500000920E-02 0. -1.
</event>
<event>
 5   0  0.1231056E-04  0.2005580E+04  0.7818609E-02  0.8604016E-01
        1   -1    0    0  501    0  0.00000000000E+00  0.00000000000E+00  0.10841441686E+04  0.10841441686E+04  0.50400001928E-02 0. -1.
       -1   -1    0    0    0  501  0.00000000000E+00  0.00000000000E+00 -0.92754055048E+03  0.92754055050E+03  0.50400001928E-02 0.  1.
    10030    2    1    2    0    0  0.00000000000E+00  0.00000000000E+00  0.15660361813E+03  0.20116847191E+04  0.20055798952E+04 0.  0.
        3    1    3    3  502    0  0.42526026626E+03 -0.87982308880E+03 -0.14744482325E+03  0.98826866172E+03  0.10100000352E+00 0.  1.
       -3    1    3    3    0  502 -0.42526026626E+03  0.87982308880E+03  0.30404844139E+03  0.10234160574E+04  0.10100000352E+00 0. -1.
</event>
<event>
 5   0  0.2488886E-04  0.1975520E+04  0.7818609E-02  0.8618152E-01
        2   -1    0    0  501    0  0.00000000000E+00  0.00000000000E+00  0.11599132630E+04  0.11599132630E+04  0.25500000920E-02 0.  1.
       -2   -1    0    0    0  501  0.00000000000E+00  0.00000000000E+00 -0.84115762563E+03  0.84115762564E+03  0.25500000920E-02 0. -1.
    10030    2    1    2    0    0  0.00000000000E+00  0.00000000000E+00  0.31875563734E+03  0.20010708886E+04  0.19755200695E+04 0.  0.
        3    1    3    3  502    0 -0.45572807639E+03 -0.34301922955E+03  0.97623183944E+03  0.11306541850E+04  0.10100000352E+00 0.  1.
       -3    1    3    3    0  502  0.45572807639E+03  0.34301922955E+03 -0.65747620210E+03  0.87041670364E+03  0.10100000352E+00 0. -1.
</event>
<event>
 5   0  0.1207228E-04  0.1997947E+04  0.7818609E-02  0.8607581E-01
        1   -1    0    0  501    0  0.00000000000E+00  0.00000000000E+00  0.11670339953E+04  0.11670339953E+04  0.50400001928E-02 0. -1.
       -1   -1    0    0    0  501  0.00000000000E+00  0.00000000000E+00 -0.85511454105E+03  0.85511454107E+03  0.50400001928E-02 0.  1.
    10030    2    1    2    0    0  0.00000000000E+00  0.00000000000E+00  0.31191945428E+03  0.20221485364E+04  0.19979466853E+04 0.  0.
        1    1    3    3  502    0  0.41006289852E+03  0.68721711817E+02 -0.76337882756E+03  0.86926491290E+03  0.50400001928E-02 0.  1.
       -1    1    3    3    0  502 -0.41006289852E+03 -0.68721711817E+02  0.10752982818E+04  0.11528836235E+04  0.50400001928E-02 0. -1.
</event>
<event>
 5   0  0.1258546E-04  0.1939811E+04  0.7818609E-02  0.8635290E-01
       -1   -1    0    0    0  501  0.00000000000E+00  0.00000000000E+00  0.11717051427E+04  0.11717051428E+04  0.50400001928E-02 0. -1.
        1   -1    0    0  501    0  0.00000000000E+00  0.00000000000E+00 -0.80286135728E+03  0.80286135730E+03  0.50400001928E-02 0.  1.
    10030    2    1    2    0    0  0.00000000000E+00  0.00000000000E+00  0.36884378547E+03  0.19745665001E+04  0.19398111055E+04 0.  0.
        4    1    3    3  502    0 -0.10745960074E+03  0.39987438240E+03  0.10772157214E+04  0.11540547695E+04  0.12699999809E+01 0. -1.
       -4    1    3    3    0  502  0.10745960074E+03 -0.39987438240E+03 -0.70837193597E+03  0.82051173061E+03  0.12699999809E+01 0.  1.
</event>
<event>
 5   0  0.1324930E-04  0.1933980E+04  0.7818609E-02  0.8638125E-01
        1   -1    0    0  501    0  0.00000000000E+00  0.00000000000E+00  0.91644832562E+03  0.91644832564E+03  0.50400001928E-02 0. -1.
       -1   -1    0    0    0  501  0.00000000000E+00  0.00000000000E+00 -0.10203186123E+04  0.10203186123E+04  0.50400001928E-02 0.  1.
    10030    2    1    2    0    0  0.00000000000E+00  0.00000000000E+00 -0.10387028664E+03  0.19367669379E+04  0.19339796109E+04 0.  0.
        5    1    3    3  502    0 -0.83082106139E+03  0.40632928888E+03 -0.33461854990E+03  0.98354399545E+03  0.46999998093E+01 0. -1.
       -5    1    3    3    0  502  0.83082106139E+03 -0.40632928888E+03  0.23074826326E+03  0.95322294247E+03  0.46999998093E+01 0.  1.
</event>
<event>
 5   0  0.2488886E-04  0.1931228E+04  0.7818609E-02  0.8639467E-01
        2   -1    0    0  501    0  0.00000000000E+00  0.00000000000E+00  0.10475207093E+04  0.10475207093E+04  0.25500000920E-02 0.  1.
       -2   -1    0    0    0  501  0.00000000000E+00  0.00000000000E+00 -0.89011152021E+03  0.89011152022E+03  0.25500000920E-02 0. -1.
    10030    2    1    2    0    0  0.00000000000E+00  0.00000000000E+00  0.15740918908E+03  0.19376322295E+04  0.19312278488E+04 0.  0.
        3    1    3    3  502    0 -0.49913340378E+03  0.81644578914E+03 -0.50922771978E+02  0.95828545866E+03  0.10100000352E+00 0.  1.
       -3    1    3    3    0  502  0.49913340378E+03 -0.81644578914E+03  0.20833196105E+03  0.97934677085E+03  0.10100000352E+00 0. -1.
</event>
<event>
 5   0  0.1207228E-04  0.1994435E+04  0.7818609E-02  0.8609227E-01
        1   -1    0    0  501    0  0.00000000000E+00  0.00000000000E+00  0.11143162316E+04  0.11143162317E+04  0.50400001928E-02 0. -1.
       -1   -1    0    0    0  501  0.00000000000E+00  0.00000000000E+00 -0.89242456327E+03  0.89242456328E+03  0.50400001928E-02 0.  1.
    10030    2    1    2    0    0  0.00000000000E+00  0.00000000000E+00  0.22189166838E+03  0.20067407949E+04  0.19944354353E+04 0.  0.
        1    1    3    3  502    0  0.89726850686E+03 -0.23287284160E+03  0.48080412887E+03  0.10442667974E+04  0.50400001928E-02 0. -1.
       -1    1    3    3    0  502 -0.89726850686E+03  0.23287284160E+03 -0.25891246048E+03  0.96247399756E+03  0.50400001928E-02 0.  1.
</event>
<event>
 5   0  0.2421737E-04  0.1984972E+04  0.7818609E-02  0.8613679E-01
       -2   -1    0    0    0  501  0.00000000000E+00  0.00000000000E+00  0.14114508989E+04  0.14114508989E+04  0.25500000920E-02 0. -1.
        2   -1    0    0  501    0  0.00000000000E+00  0.00000000000E+00 -0.69788331342E+03  0.69788331343E+03  0.25500000920E-02 0.  1.
    10030    2    1    2    0    0  0.00000000000E+00  0.00000000000E+00  0.71356758543E+03  0.21093342123E+04  0.19849715666E+04 0.  0.
        1    1    3    3  502    0 -0.93689953516E+03  0.10299642641E+03  0.26439063938E+02  0.94291464458E+03  0.50400001928E-02 0.  1.
       -1    1    3    3    0  502  0.93689953516E+03 -0.10299642641E+03  0.68712852149E+03  0.11664195677E+04  0.50400001928E-02 0. -1.
</event>
<event>
 5   0  0.1258546E-04  0.1422976E+04  0.7818609E-02  0.8937353E-01
        1   -1    0    0  501    0  0.00000000000E+00  0.00000000000E+00  0.15688622015E+04  0.15688622015E+04  0.50400001928E-02 0.  1.
       -1   -1    0    0    0  501  0.00000000000E+00  0.00000000000E+00 -0.32266401696E+03  0.32266401700E+03  0.50400001928E-02 0. -1.
    10030    2    1    2    0    0  0.00000000000E+00  0.00000000000E+00  0.12461981846E+04  0.18915262185E+04  0.14229762894E+04 0.  0.
        4    1    3    3  502    0 -0.16680028451E+03  0.27889088069E+03 -0.21825014286E+03  0.39145522860E+03  0.12699999809E+01 0. -1.
       -4    1    3    3    0  502  0.16680028451E+03 -0.27889088069E+03  0.14644483274E+04  0.15000709899E+04  0.12699999809E+01 0.  1.
</event>
<event>
 5   0  0.1324930E-04  0.1968591E+04  0.7818609E-02  0.8621448E-01
       -1   -1    0    0    0  501  0.00000000000E+00  0.00000000000E+00  0.42793990309E+03  0.42793990312E+03  0.50400001928E-02 0. -1.
        1   -1    0    0  501    0  0.00000000000E+00  0.00000000000E+00 -0.22639578889E+04  0.22639578890E+04  0.50400001928E-02 0.  1.
    10030    2    1    2    0    0  0.00000000000E+00  0.00000000000E+00 -0.18360179859E+04  0.26918977921E+04  0.19685912929E+04 0.  0.
        5    1    3    3  502    0  0.38214528259E+03  0.80893866890E+03 -0.14791510442E+04  0.17286777284E+04  0.46999998093E+01 0.  1.
       -5    1    3    3    0  502 -0.38214528259E+03 -0.80893866890E+03 -0.35686694166E+03  0.96322006369E+03  0.46999998093E+01 0. -1.
</event>
<event>
 5   0  0.1210633E-04  0.1914792E+04  0.7818609E-02  0.8647528E-01
       -1   -1    0    0    0  501  0.00000000000E+00  0.00000000000E+00  0.32408933576E+03  0.32408933580E+03  0.50400001928E-02 0. -1.
        1   -1    0    0  501    0  0.00000000000E+00  0.00000000000E+00 -0.28282536511E+04  0.28282536511E+04  0.50400001928E-02 0.  1.
    10030    2    1    2    0    0  0.00000000000E+00  0.00000000000E+00 -0.25041643154E+04  0.31523429869E+04  0.19147917351E+04 0.  0.
        2    1    3    3  502    0  0.20473348600E+03  0.88033108279E+03 -0.73223290148E+03  0.11632126365E+04  0.25500000920E-02 0. -1.
       -2    1    3    3    0  502 -0.20473348600E+03 -0.88033108279E+03 -0.17719314139E+04  0.19891303505E+04  0.25500000920E-02 0.  1.
</event>
<event>
 5   0  0.1210633E-04  0.2008825E+04  0.7818609E-02  0.8602506E-01
        1   -1    0    0  501    0  0.00000000000E+00  0.00000000000E+00  0.75976007546E+03  0.75976007548E+03  0.50400001928E-02 0. -1.
       -1   -1    0    0    0  501  0.00000000000E+00  0.00000000000E+00 -0.13278458653E+04  0.13278458653E+04  0.50400001928E-02 0.  1.
    10030    2    1    2    0    0  0.00000000000E+00  0.00000000000E+00 -0.56808578984E+03  0.20876059408E+04  0.20088248055E+04 0.  0.
        2    1    3    3  502    0 -0.42791865501E+03 -0.67328250098E+02  0.65769508866E+03  0.78753431558E+03  0.25500000920E-02 0. -1.
       -2    1    3    3    0  502  0.42791865501E+03  0.67328250098E+02 -0.12257808785E+04  0.13000716252E+04  0.25500000920E-02 0.  1.
</event>
<event>
 5   0  0.1324930E-04  0.2012867E+04  0.7818609E-02  0.8600628E-01
        1   -1    0    0  501    0  0.00000000000E+00  0.00000000000E+00  0.11258789342E+04  0.11258789342E+04  0.50400001928E-02 0. -1.
       -1   -1    0    0    0  501  0.00000000000E+00  0.00000000000E+00 -0.89966050483E+03  0.89966050484E+03  0.50400001928E-02 0.  1.
    10030    2    1    2    0    0  0.00000000000E+00  0.00000000000E+00  0.22621842940E+03  0.20255394391E+04  0.20128674178E+04 0.  0.
        5    1    3    3  502    0 -0.55036210112E+03  0.84248772798E+03  0.12743634071E+03  0.10143698167E+04  0.46999998093E+01 0. -1.
       -5    1    3    3    0  502  0.55036210112E+03 -0.84248772798E+03  0.98782088694E+02  0.10111696224E+04  0.46999998093E+01 0.  1.
</event>
<event>
 5   0  0.2463085E-04  0.1990919E+04  0.7818609E-02  0.8610878E-01
       -2   -1    0    0    0  501  0.00000000000E+00  0.00000000000E+00  0.10197272353E+04  0.10197272353E+04  0.25500000920E-02 0.  1.
        2   -1    0    0  501    0  0.00000000000E+00  0.00000000000E+00 -0.97176947832E+03  0.97176947832E+03  0.25500000920E-02 0. -1.
    10030    2    1    2    0    0  0.00000000000E+00  0.00000000000E+00  0.47957756982E+02  0.19914967136E+04  0.19909191882E+04 0.  0.
        2    1    3    3  502    0 -0.46138919361E+03 -0.10510569169E+03 -0.85206773176E+03  0.97465204762E+03  0.25500000920E-02 0. -1.
       -2    1    3    3    0  502  0.46138919361E+03  0.10510569169E+03  0.90002548874E+03  0.10168446660E+04  0.25500000920E-02 0.  1.
</event>
<event>
 5   0  0.1258546E-04  0.1947297E+04  0.7818609E-02  0.8631665E-01
       -1   -1    0    0    0  501  0.00000000000E+00  0.00000000000E+00  0.15904634909E+04  0.15904634909E+04  0.50400001928E-02 0.  1.
        1   -1    0    0  501    0  0.00000000000E+00  0.00000000000E+00 -0.59604748340E+03  0.59604748342E+03  0.50400001928E-02 0. -1.
    10030    2    1    2    0    0  0.00000000000E+00  0.00000000000E+00  0.99441600750E+03  0.21865109743E+04  0.19472973694E+04 0.  0.
        4    1    3    3  502    0 -0.85289000129E+03 -0.24018996554E+03  0.44049607703E+02  0.88716095197E+03  0.12699999809E+01 0. -1.
       -4    1    3    3    0  502  0.85289000129E+03  0.24018996554E+03  0.95036639979E+03  0.12993500224E+04  0.12699999809E+01 0.  1.
</event>
<event>
 5   0  0.1207228E-04  0.2028891E+04  0.7818609E-02  0.8593231E-01
       -1   -1    0    0    0  501  0.00000000000E+00  0.00000000000E+00  0.85541149079E+03  0.85541149080E+03  0.50400001928E-02 0.  1.
        1   -1    0    0  501    0  0.00000000000E+00  0.00000000000E+00 -0.12030467269E+04  0.12030467269E+04  0.50400001928E-02 0. -1.
    10030    2    1    2    0    0  0.00000000000E+00  0.00000000000E+00 -0.34763523615E+03  0.20584582177E+04  0.20288913171E+04 0.  0.
        1    1    3    3  502    0  0.69995234938E+03 -0.50034872804E+03 -0.71906713609E+03  0.11213115924E+04  0.50400001928E-02 0. -1.
       -1    1    3    3    0  502 -0.69995234938E+03  0.50034872804E+03  0.37143189994E+03  0.93714662533E+03  0.50400001928E-02 0.  1.
</event>
<event>
 5   0  0.1207228E-04  0.2016225E+04  0.7818609E-02  0.8599072E-01
       -1   -1    0    0    0  501  0.00000000000E+00  0.00000000000E+00  0.80087407861E+03  0.80087407863E+03  0.50400001928E-02 0.  1.
        1   -1    0    0  501    0  0.00000000000E+00  0.00000000000E+00 -0.12689769240E+04  0.12689769240E+04  0.50400001928E-02 0. -1.
    10030    2    1    2    0    0  0.00000000000E+00  0.00000000000E+00 -0.46810284535E+03  0.20698510026E+04  0.20162249128E+04 0.  0.
        1    1    3    3  502    0  0.78773401544E+03 -0.61828608159E+03 -0.11482388507E+03  0.10079618457E+04  0.50400001928E-02 0.  1.
       -1    1    3    3    0  502 -0.78773401544E+03  0.61828608159E+03 -0.35327896027E+03  0.10618891569E+04  0.50400001928E-02 0. -1.
</event>
<event>
 5   0  0.2540506E-04  0.1988827E+04  0.7818609E-02  0.8611862E-01
        2   -1    0    0  501    0  0.00000000000E+00  0.00000000000E+00  0.22903070428E+04  0.22903070428E+04  0.25500000920E-02 0. -1.
       -2   -1    0    0    0  501  0.00000000000E+00  0.00000000000E+00 -0.43175787582E+03  0.43175787583E+03  0.25500000920E-02 0.  1.
    10030    2    1    2    0    0  0.00000000000E+00  0.00000000000E+00  0.18585491670E+04  0.27220649186E+04  0.19888268942E+04 0.  0.
        4    1    3    3  502    0  0.60512532863E+03 -0.66229124109E+03  0.15164523056E+04  0.17619408502E+04  0.12699999809E+01 0. -1.
       -4    1    3    3    0  502 -0.60512532863E+03  0.66229124109E+03  0.34209686137E+03  0.96012406846E+03  0.12699999809E+01 0.  1.
</event>
<event>
 5   0  0.1231056E-04  0.2022079E+04  0.7818609E-02  0.8596367E-01
       -1   -1    0    0    0  501  0.00000000000E+00  0.00000000000E+00  0.79090236555E+03  0.79090236556E+03  0.50400001928E-02 0. -1.
        1   -1    0    0  501    0  0.00000000000E+00  0.00000000000E+00 -0.12924486209E+04  0.12924486209E+04  0.50400001928E-02 0.  1.
    10030    2    1    2    0    0  0.00000000000E+00  0.00000000000E+00 -0.50154625532E+03  0.20833509864E+04  0.20220788032E+04 0.  0.
        3    1    3    3  502    0  0.43718905267E+03  0.84473853938E+03 -0.60391745791E+03  0.11266915167E+04  0.10100000352E+00 0.  1.
       -3    1    3    3    0  502 -0.43718905267E+03 -0.84473853938E+03  0.10237120259E+03  0.95665946972E+03  0.10100000352E+00 0. -1.
</event>
<event>
 5   0  0.2540506E-04  0.2018756E+04  0.7818609E-02  0.8597901E-01
       -2   -1    0    0    0  501  0.00000000000E+00  0.00000000000E+00  0.41344690553E+03  0.41344690553E+03  0.25500000920E-02 0.  1.
        2   -1    0    0  501    0  0.00000000000E+00  0.00000000000E+00 -0.24642687380E+04  0.24642687380E+04  0.25500000920E-02 0. -1.
    10030    2    1    2    0    0  0.00000000000E+00  0.00000000000E+00 -0.20508218325E+04  0.28777156436E+04  0.20187563341E+04 0.  0.
        4    1    3    3  502    0  0.75060859355E+03 -0.16329719798E+03 -0.19588217698E+04  0.21040588333E+04  0.12699999809E+01 0. -1.
       -4    1    3    3    0  502 -0.75060859355E+03  0.16329719798E+03 -0.92000062763E+02  0.77365681024E+03  0.12699999809E+01 0.  1.
</event>
<event>
 5   0  0.2488886E-04  0.1963014E+04  0.7818609E-02  0.8624111E-01
        2   -1    0    0  501    0  0.00000000000E+00  0.00000000000E+00  0.15367107304E+04  0.15367107304E+04  0.25500000920E-02 0.  1.
       -2   -1    0    0    0  501  0.00000000000E+00  0.00000000000E+00 -0.62689458882E+03  0.62689458883E+03  0.25500000920E-02 0. -1.
    10030    2    1    2    0    0  0.00000000000E+00  0.00000000000E+00  0.90981614153E+03  0.21636053192E+04  0.19630136438E+04 0.  0.
        3    1    3    3  502    0 -0.86373455606E+03  0.17245298659E+03 -0.22451816328E+02  0.88106839131E+03  0.10100000352E+00 0. -1.
       -3    1    3    3    0  502  0.86373455606E+03 -0.17245298659E+03  0.93226795786E+03  0.12825369279E+04  0.10100000352E+00 0.  1.
</event>
<event>
 5   0  0.2421737E-04  0.1308977E+04  0.7818609E-02  0.9022476E-01
        2   -1    0    0  501    0  0.00000000000E+00  0.00000000000E+00  0.62858436284E+03  0.62858436284E+03  0.25500000920E-02 0.  1.
       -2   -1    0    0    0  501  0.00000000000E+00  0.00000000000E+00 -0.68146055385E+03  0.68146055386E+03  0.25500000920E-02 0. -1.
    10030    2    1    2    0    0  0.00000000000E+00  0.00000000000E+00 -0.52876191017E+02  0.13100449167E+04  0.13089773841E+04 0.  0.
        1    1    3    3  502    0 -0.28727550222E+03 -0.32050034629E+03  0.46702361038E+03  0.63510529743E+03  0.50400001928E-02 0.  1.
       -1    1    3    3    0  502  0.28727550222E+03  0.32050034629E+03 -0.51989980139E+03  0.67493961927E+03  0.50400001928E-02 0. -1.
</event>
<event>
 5   0  0.2540506E-04  0.2008196E+04  0.7818609E-02  0.8602798E-01
        2   -1    0    0  501    0  0.00000000000E+00  0.00000000000E+00  0.18220445171E+04  0.18220445171E+04  0.25500000920E-02 0.  1.
       -2   -1    0    0    0  501  0.00000000000E+00  0.00000000000E+00 -0.55334172264E+03  0.55334172264E+03  0.25500000920E-02 0. -1.
    10030    2    1    2    0    0  0.00000000000E+00  0.00000000000E+00  0.12687027945E+04  0.23753862398E+04  0.20081964564E+04 0.  0.
        4    1    3    3  502    0  0.65901131853E+03 -0.66566478167E+03  0.10621526686E+04  0.14161834005E+04  0.12699999809E+01 0.  1.
       -4    1    3    3    0  502 -0.65901131853E+03  0.66566478167E+03  0.20655012591E+03  0.95920283930E+03  0.12699999809E+01 0. -1.
</event>
<event>
 5   0  0.1231056E-04  0.1459038E+04  0.7818609E-02  0.8912158E-01
       -1   -1    0    0    0  501  0.00000000000E+00  0.00000000000E+00  0.40972339896E+03  0.40972339899E+03  0.50400001928E-02 0. -1.
        1   -1    0    0  501    0  0.00000000000E+00  0.00000000000E+00 -0.12989202902E+04  0.12989202902E+04  0.50400001928E-02 0.  1.
    10030    2    1    2    0    0  0.00000000000E+00  0.00000000000E+00 -0.88919689128E+03  0.17086436892E+04  0.14590380890E+04 0.  0.
        3    1    3    3  502    0 -0.52271073900E+03 -0.33935046580E+03 -0.49555064277E+00  0.62320583364E+03  0.10100000352E+00 0. -1.
       -3    1    3    3    0  502  0.52271073900E+03  0.33935046580E+03 -0.88870134063E+03  0.10854378556E+04  0.10100000352E+00 0.  1.
</event>
<event>
 5   0  0.2488886E-04  0.1990844E+04  0.7818609E-02  0.8610913E-01
        2   -1    0    0  501    0  0.00000000000E+00  0.00000000000E+00  0.14298817167E+04  0.14298817167E+04  0.25500000920E-02 0. -1.
       -2   -1    0    0    0  501  0.00000000000E+00  0.00000000000E+00 -0.69296972453E+03  0.69296972454E+03  0.25500000920E-02 0.  1.
    10030    2    1    2    0    0  0.00000000000E+00  0.00000000000E+00  0.73691199218E+03  0.21228514413E+04  0.19908437803E+04 0.  0.
        3    1    3    3  502    0 -0.12952634224E+02 -0.62577025903E+03  0.11938003334E+04  0.13479300553E+04  0.10100000352E+00 0. -1.
       -3    1    3    3    0  502  0.12952634224E+02  0.62577025903E+03 -0.45688834123E+03  0.77492138593E+03  0.10100000352E+00 0.  1.
</event>
<event>
 5   0  0.1207228E-04  0.2025749E+04  0.7818609E-02  0.8594676E-01
        1   -1    0    0  501    0  0.00000000000E+00  0.00000000000E+00  0.77216893658E+03  0.77216893659E+03  0.50400001928E-02 0.  1.
       -1   -1    0    0    0  501  0.00000000000E+00  0.00000000000E+00 -0.13286148483E+04  0.13286148483E+04  0.50400001928E-02 0. -1.
    10030    2    1    2    0    0  0.00000000000E+00  0.00000000000E+00 -0.55644591171E+03  0.21007837849E+04  0.20257493572E+04 0.  0.
        1    1    3    3  502    0  0.93470332939E+02 -0.60634547370E+03  0.55755922422E+03  0.82901376656E+03  0.50400001928E-02 0.  1.
       -1    1    3    3    0  502 -0.93470332939E+02  0.60634547370E+03 -0.11140051359E+04  0.12717700183E+04  0.50400001928E-02 0. -1.
</event>
<event>
 5   0  0.2540506E-04  0.1899584E+04  0.7818609E-02  0.8655063E-01
       -2   -1    0    0    0  501  0.00000000000E+00  0.00000000000E+00  0.90270662397E+03  0.90270662397E+03  0.25500000920E-02 0.  1.
        2   -1    0    0  501    0  0.00000000000E+00  0.00000000000E+00 -0.99933368225E+03  0.99933368225E+03  0.25500000920E-02 0. -1.
    10030    2    1    2    0    0  0.00000000000E+00  0.00000000000E+00 -0.96627058279E+02  0.19020403062E+04  0.18995843067E+04 0.  0.
        4    1    3    3  502    0  0.27433803109E+01 -0.35976623948E+03  0.83183618382E+03  0.90630696942E+03  0.12699999809E+01 0.  1.
       -4    1    3    3    0  502 -0.27433803109E+01  0.35976623948E+03 -0.92846324210E+03  0.99573333681E+03  0.12699999809E+01 0. -1.
</event>
<event>
 5   0  0.2463085E-04  0.2144747E+04  0.7818609E-02  0.8541784E-01
       -2   -1    0    0    0  501  0.00000000000E+00  0.00000000000E+00  0.11927007193E+04  0.11927007193E+04  0.25500000920E-02 0.  1.
        2   -1    0    0  501    0  0.00000000000E+00  0.00000000000E+00 -0.96418590273E+03  0.96418590273E+03  0.25500000920E-02 0. -1.
    10030    2    1    2    0    0  0.00000000000E+00  0.00000000000E+00  0.22851481656E+03  0.21568866220E+04  0.21447472762E+04 0.  0.
        2    1    3    3  502    0  0.89560152841E+03  0.49170754344E+03  0.44184151909E+03  0.11131497356E+04  0.25500000920E-02 0.  1.
       -2    1    3    3    0  502 -0.89560152841E+03 -0.49170754344E+03 -0.21332670253E+03  0.10437368864E+04  0.25500000920E-02 0. -1.
</event>
<event>
 5   0  0.2421737E-04  0.2056288E+04  0.7818609E-02  0.8580747E-01
       -2   -1    0    0    0  501  0.00000000000E+00  0.00000000000E+00  0.67605184786E+03  0.67605184787E+03  0.25500000920E-02 0.  1.
        2   -1    0    0  501    0  0.00000000000E+00  0.00000000000E+00 -0.15636081494E+04  0.15636081494E+04  0.25500000920E-02 0. -1.
    10030    2    1    2    0    0  0.00000000000E+00  0.00000000000E+00 -0.88755630151E+03  0.22396599972E+04  0.20562880914E+04 0.  0.
        1    1    3    3  502    0  0.65028944981E+03 -0.52673960630E+03  0.20677028212E+03  0.86202374153E+03  0.50400001928E-02 0.  1.
       -1    1    3    3    0  502 -0.65028944981E+03  0.52673960630E+03 -0.10943265836E+04  0.13776362557E+04  0.50400001928E-02 0. -1.
</event>
<event>
 5   0  0.2421737E-04  0.1960534E+04  0.7818609E-02  0.8625298E-01
       -2   -1    0    0    0  501  0.00000000000E+00  0.00000000000E+00  0.73171747183E+03  0.73171747183E+03  0.25500000920E-02 0.  1.
        2   -1    0    0  501    0  0.00000000000E+00  0.00000000000E+00 -0.13132442576E+04  0.13132442577E+04  0.25500000920E-02 0. -1.
    10030    2    1    2    0    0  0.00000000000E+00  0.00000000000E+00 -0.58152678582E+03  0.20449617295E+04  0.19605343844E+04 0.  0.
        1    1    3    3  502    0  0.62733390028E+02 -0.78284528832E+03 -0.90266173008E+03  0.11964866997E+04  0.50400001928E-02 0. -1.
       -1    1    3    3    0  502 -0.62733390028E+02  0.78284528832E+03  0.32113494426E+03  0.84847502975E+03  0.50400001928E-02 0.  1.
</event>
<event>
 5   0  0.2463085E-04  0.1914178E+04  0.7818609E-02  0.8647831E-01
        2   -1    0    0  501    0  0.00000000000E+00  0.00000000000E+00  0.10687086868E+04  0.10687086868E+04  0.25500000920E-02 0. -1.
       -2   -1    0    0    0  501  0.00000000000E+00  0.00000000000E+00 -0.85712736068E+03  0.85712736069E+03  0.25500000920E-02 0.  1.
    10030    2    1    2    0    0  0.00000000000E+00  0.00000000000E+00  0.21158132613E+03  0.19258360475E+04  0.19141781067E+04 0.  0.
        2    1    3    3  502    0  0.40635854375E+03 -0.79919760445E+02 -0.76231138845E+03  0.86754428541E+03  0.25500000920E-02 0.  1.
       -2    1    3    3    0  502 -0.40635854375E+03  0.79919760445E+02  0.97389271458E+03  0.10582917621E+04  0.25500000920E-02 0. -1.
</event>
<event>
 5   0  0.1210633E-04  0.1905802E+04  0.7818609E-02  0.8651974E-01
        1   -1    0    0  501    0  0.00000000000E+00  0.00000000000E+00  0.18917189104E+04  0.18917189104E+04  0.50400001928E-02 0.  1.
       -1   -1    0    0    0  501  0.00000000000E+00  0.00000000000E+00 -0.47999734789E+03  0.47999734792E+03  0.50400001928E-02 0. -1.
    10030    2    1    2    0    0  0.00000000000E+00  0.00000000000E+00  0.14117215625E+04  0.23717162583E+04  0.19058017315E+04 0.  0.
        2    1    3    3  502    0  0.75765557971E+03  0.29039297559E+03  0.84060662464E+02  0.81574276136E+03  0.25500000920E-02 0. -1.
       -2    1    3    3    0  502 -0.75765557971E+03 -0.29039297559E+03  0.13276609000E+04  0.15559734969E+04  0.25500000920E-02 0.  1.
</event>
<event>
 5   0  0.1210633E-04  0.2221277E+04  0.7818609E-02  0.8509624E-01
        1   -1    0    0  501    0  0.00000000000E+00  0.00000000000E+00  0.18754955786E+04  0.18754955786E+04  0.50400001928E-02 0.  1.
       -1   -1    0    0    0  501  0.00000000000E+00  0.00000000000E+00 -0.65770260352E+03  0.65770260354E+03  0.50400001928E-02 0. -1.
    10030    2    1    2    0    0  0.00000000000E+00  0.00000000000E+00  0.12177929751E+04  0.25331981822E+04  0.22212774027E+04 0.  0.
        2    1    3    3  502    0  0.39689140701E+03  0.29471611462E+03  0.17431099584E+04  0.18118533893E+04  0.25500000920E-02 0.  1.
       -2    1    3    3    0  502 -0.39689140701E+03 -0.29471611462E+03 -0.52531698334E+03  0.72134479285E+03  0.25500000920E-02 0. -1.
</event>
<event>
 5   0  0.1258546E-04  0.1968027E+04  0.7818609E-02  0.8621716E-01
        1   -1    0    0  501    0  0.00000000000E+00  0.00000000000E+00  0.86534081623E+03  0.86534081625E+03  0.50400001928E-02 0.  1.
       -1   -1    0    0    0  501  0.00000000000E+00  0.00000000000E+00 -0.11189614219E+04  0.11189614220E+04  0.50400001928E-02 0. -1.
    10030    2    1    2    0    0  0.00000000000E+00  0.00000000000E+00 -0.25362060571E+03  0.19843022382E+04  0.19680274289E+04 0.  0.
        4    1    3    3  502    0  0.55958624756E+03 -0.34969159277E+03 -0.86281976553E+03  0.10862230614E+04  0.12699999809E+01 0. -1.
       -4    1    3    3    0  502 -0.55958624756E+03  0.34969159277E+03  0.60919915982E+03  0.89807917677E+03  0.12699999809E+01 0.  1.
</event>
<event>
 5   0  0.1324930E-04  0.1426246E+04  0.7818609E-02  0.8935037E-01
        1   -1    0    0  501    0  0.00000000000E+00  0.00000000000E+00  0.38902025064E+03  0.38902025068E+03  0.50400001928E-02 0. -1.
       -1   -1    0    0    0  501  0.00000000000E+00  0.00000000000E+00 -0.13072432281E+04  0.13072432281E+04  0.50400001928E-02 0.  1.
    10030    2    1    2    0    0  0.00000000000E+00  0.00000000000E+00 -0.91822297744E+03  0.16962634788E+04  0.14262455445E+04 0.  0.
        5    1    3    3  502    0  0.19831963398E+03  0.14464253896E+03 -0.12553969369E+04  0.12791777439E+04  0.46999998093E+01 0.  1.
       -5    1    3    3    0  502 -0.19831963398E+03 -0.14464253896E+03  0.33717395946E+03  0.41708573487E+03  0.46999998093E+01 0. -1.
</event>
<event>
 5   0  0.1324930E-04  0.1991224E+04  0.7818609E-02  0.8610735E-01
       -1   -1    0    0    0  501  0.00000000000E+00  0.00000000000E+00  0.11441074392E+04  0.11441074392E+04  0.50400001928E-02 0. -1.
        1   -1    0    0  501    0  0.00000000000E+00  0.00000000000E+00 -0.86639022908E+03  0.86639022909E+03  0.50400001928E-02 0.  1.
    10030    2    1    2    0    0  0.00000000000E+00  0.00000000000E+00  0.27771721007E+03  0.20104976683E+04  0.19912242529E+04 0.  0.
        5    1    3    3  502    0  0.77906484829E+03  0.51026430961E+03  0.49427386919E+03  0.10543436116E+04  0.46999998093E+01 0. -1.
       -5    1    3    3    0  502 -0.77906484829E+03 -0.51026430961E+03 -0.21655665912E+03  0.95615405668E+03  0.46999998093E+01 0.  1.
</event>
<event>
 5   0  0.2488886E-04  0.2004022E+04  0.7818609E-02  0.8604742E-01
        2   -1    0    0  501    0  0.00000000000E+00  0.00000000000E+00  0.12272639653E+04  0.12272639653E+04  0.25500000920E-02 0. -1.
       -2   -1    0    0    0  501  0.00000000000E+00  0.00000000000E+00 -0.81810141806E+03  0.81810141806E+03  0.25500000920E-02 0.  1.
    10030    2    1    2    0    0  0.00000000000E+00  0.00000000000E+00  0.40916254724E+03  0.20453653834E+04  0.20040223455E+04 0.  0.
        3    1    3    3  502    0  0.45739756068E+03  0.87771981474E+03  0.45082633316E+02  0.99077598666E+03  0.10100000352E+00 0.  1.
       -3    1    3    3    0  502 -0.45739756068E+03 -0.87771981474E+03  0.36407991393E+03  0.10545893967E+04  0.10100000352E+00 0. -1.
</event>
<event>
 5   0  0.2488886E-04  0.1931406E+04  0.7818609E-02  0.8639380E-01
        2   -1    0    0  501    0  0.00000000000E+00  0.00000000000E+00  0.68746564735E+03  0.68746564736E+03  0.25500000920E-02 0.  1.
       -2   -1    0    0    0  501  0.00000000000E+00  0.00000000000E+00 -0.13565504750E+04  0.13565504750E+04  0.25500000920E-02 0. -1.
    10030    2    1    2    0    0  0.00000000000E+00  0.00000000000E+00 -0.66908482763E+03  0.20440161223E+04  0.19314055508E+04 0.  0.
        3    1    3    3  502    0  0.57899936009E+03 -0.18223583634E+03  0.46033670214E+03  0.76181365738E+03  0.10100000352E+00 0.  1.
       -3    1    3    3    0  502 -0.57899936009E+03  0.18223583634E+03 -0.11294215298E+04  0.12822024650E+04  0.10100000352E+00 0. -1.
</event>
<event>
 5   0  0.1324930E-04  0.1983053E+04  0.7818609E-02  0.8614585E-01
       -1   -1    0    0    0  501  0.00000000000E+00  0.00000000000E+00  0.61562871731E+03  0.61562871733E+03  0.50400001928E-02 0. -1.
        1   -1    0    0  501    0  0.00000000000E+00  0.00000000000E+00 -0.15969443399E+04  0.15969443399E+04  0.50400001928E-02 0.  1.
    10030    2    1    2    0    0  0.00000000000E+00  0.00000000000E+00 -0.98131562256E+03  0.22125730572E+04  0.19830529954E+04 0.  0.
        5    1    3    3  502    0 -0.44199251535E+03  0.87499089326E+03 -0.65666060994E+03  0.11799117313E+04  0.46999998093E+01 0. -1.
       -5    1    3    3    0  502  0.44199251535E+03 -0.87499089326E+03 -0.32465501262E+03  0.10326613260E+04  0.46999998093E+01 0.  1.
</event>
<event>
 5   0  0.2421737E-04  0.2002077E+04  0.7818609E-02  0.8605650E-01
       -2   -1    0    0    0  501  0.00000000000E+00  0.00000000000E+00  0.46772273351E+03  0.46772273352E+03  0.25500000920E-02 0.  1.
        2   -1    0    0  501    0  0.00000000000E+00  0.00000000000E+00 -0.21424627992E+04  0.21424627992E+04  0.25500000920E-02 0. -1.
    10030    2    1    2    0    0  0.00000000000E+00  0.00000000000E+00 -0.16747400657E+04  0.26101855328E+04  0.20020774779E+04 0.  0.
        1    1    3    3  502    0  0.96874465548E+03  0.22677256383E+03 -0.69344678512E+03  0.12127491278E+04  0.50400001928E-02 0. -1.
       -1    1    3    3    0  502 -0.96874465548E+03 -0.22677256383E+03 -0.98129328060E+03  0.13974364049E+04  0.50400001928E-02 0.  1.
</event>
<event>
 5   0  0.1210633E-04  0.1981300E+04  0.7818609E-02  0.8615414E-01
       -1   -1    0    0    0  501  0.00000000000E+00  0.00000000000E+00  0.96450960076E+03  0.96450960077E+03  0.50400001928E-02 0.  1.
        1   -1    0    0  501    0  0.00000000000E+00  0.00000000000E+00 -0.10174985953E+04  0.10174985953E+04  0.50400001928E-02 0. -1.
    10030    2    1    2    0    0  0.00000000000E+00  0.00000000000E+00 -0.52988994575E+02  0.19820081961E+04  0.19812997390E+04 0.  0.
        2    1    3    3  502    0 -0.14973064451E+03 -0.75898742788E+03  0.59252074014E+03  0.97445472398E+03  0.25500000920E-02 0.  1.
       -2    1    3    3    0  502  0.14973064451E+03  0.75898742788E+03 -0.64550973472E+03  0.10075534721E+04  0.25500000920E-02 0. -1.
</event>
<event>
 5   0  0.2488886E-04  0.1494868E+04  0.7818609E-02  0.8887873E-01
       -2   -1    0    0    0  501  0.00000000000E+00  0.00000000000E+00  0.84249976432E+03  0.84249976433E+03  0.25500000920E-02 0.  1.
        2   -1    0    0  501    0  0.00000000000E+00  0.00000000000E+00 -0.66309508413E+03  0.66309508414E+03  0.25500000920E-02 0. -1.
    10030    2    1    2    0    0  0.00000000000E+00  0.00000000000E+00  0.17940468019E+03  0.15055948485E+04  0.14948678231E+04 0.  0.
        3    1    3    3  502    0  0.13010276557E+03 -0.65606416868E+03 -0.24632408365E+03  0.71275696238E+03  0.10100000352E+00 0. -1.
       -3    1    3    3    0  502 -0.13010276557E+03  0.65606416868E+03  0.42572876385E+03  0.79283788608E+03  0.10100000352E+00 0.  1.
</event>
<event>
 5   0  0.2540506E-04  0.1564279E+04  0.7818609E-02  0.8842798E-01
       -2   -1    0    0    0  501  0.00000000000E+00  0.00000000000E+00  0.94018953395E+03  0.94018953396E+03  0.25500000920E-02 0.  1.
        2   -1    0    0  501    0  0.00000000000E+00  0.00000000000E+00 -0.65065853106E+03  0.65065853107E+03  0.25500000920E-02 0. -1.
    10030    2    1    2    0    0  0.00000000000E+00  0.00000000000E+00  0.28953100289E+03  0.15908480650E+04  0.15642791836E+04 0.  0.
        4    1    3    3  502    0  0.60428730978E+02 -0.32675077828E+03  0.86483309162E+03  0.92647481990E+03  0.12699999809E+01 0.  1.
       -4    1    3    3    0  502 -0.60428730978E+02  0.32675077828E+03 -0.57530208874E+03  0.66437324513E+03  0.12699999809E+01 0. -1.
</event>
<event>
 5   0  0.2596061E-04  0.1978848E+04  0.7818609E-02  0.8616574E-01
        2   -1    0    0  501    0  0.00000000000E+00  0.00000000000E+00  0.14104243405E+04  0.14104243405E+04  0.25500000920E-02 0.  1.
       -2   -1    0    0    0  501  0.00000000000E+00  0.00000000000E+00 -0.69408858130E+03  0.69408858130E+03  0.25500000920E-02 0. -1.
    10030    2    1    2    0    0  0.00000000000E+00  0.00000000000E+00  0.71633575916E+03  0.21045129218E+04  0.19788475732E+04 0.  0.
        5    1    3    3  502    0 -0.13002753849E+03 -0.58311641264E+03 -0.48058947518E+03  0.76675957452E+03  0.46999998093E+01 0. -1.
       -5    1    3    3    0  502  0.13002753849E+03  0.58311641264E+03  0.11969252343E+04  0.13377533472E+04  0.46999998093E+01 0.  1.
</event>
<event>
 5   0  0.1207228E-04  0.1409043E+04  0.7818609E-02  0.8947299E-01
        1   -1    0    0  501    0  0.00000000000E+00  0.00000000000E+00  0.53773084469E+03  0.53773084471E+03  0.50400001928E-02 0. -1.
       -1   -1    0    0    0  501  0.00000000000E+00  0.00000000000E+00 -0.92304618272E+03  0.92304618273E+03  0.50400001928E-02 0.  1.
    10030    2    1    2    0    0  0.00000000000E+00  0.00000000000E+00 -0.38531533803E+03  0.14607770274E+04  0.14090428007E+04 0.  0.
        1    1    3    3  502    0 -0.38490520533E+02  0.40516117157E+03 -0.78884889601E+03  0.88764839654E+03  0.50400001928E-02 0.  1.
       -1    1    3    3    0  502  0.38490520533E+02 -0.40516117157E+03  0.40353355798E+03  0.57312863091E+03  0.50400001928E-02 0. -1.
</event>
<event>
 5   0  0.1231056E-04  0.1929893E+04  0.7818609E-02  0.8640118E-01
        1   -1    0    0  501    0  0.00000000000E+00  0.00000000000E+00  0.10679072613E+04  0.10679072613E+04  0.50400001928E-02 0. -1.
       -1   -1    0    0    0  501  0.00000000000E+00  0.00000000000E+00 -0.87191213474E+03  0.87191213476E+03  0.50400001928E-02 0.  1.
    10030    2    1    2    0    0  0.00000000000E+00  0.00000000000E+00  0.19599512653E+03  0.19398193960E+04  0.19298925358E+04 0.  0.
        3    1    3    3  502    0 -0.51433827701E+03  0.20926918021E+03 -0.69522824777E+03  0.88976388985E+03  0.10100000352E+00 0.  1.
       -3    1    3    3    0  502  0.51433827701E+03 -0.20926918021E+03  0.89122337430E+03  0.10500555062E+04  0.10100000352E+00 0. -1.
</event>
<event>
 5   0  0.1258546E-04  0.1969407E+04  0.7818609E-02  0.8621059E-01
       -1   -1    0    0    0  501  0.00000000000E+00  0.00000000000E+00  0.73451348774E+03  0.73451348775E+03  0.50400001928E-02 0. -1.
        1   -1    0    0  501    0  0.00000000000E+00  0.00000000000E+00 -0.13201130678E+04  0.13201130678E+04  0.50400001928E-02 0.  1.
    10030    2    1    2    0    0  0.00000000000E+00  0.00000000000E+00 -0.58559958007E+03  0.20546265556E+04  0.19694068688E+04 0.  0.
        4    1    3    3  502    0  0.64615267617E+03 -0.36967092265E+03  0.37966098031E+03  0.83565180838E+03  0.12699999809E+01 0. -1.
       -4    1    3    3    0  502 -0.64615267617E+03  0.36967092265E+03 -0.96526056038E+03  0.12189747472E+04  0.12699999809E+01 0.  1.
</event>
<event>
 5   0  0.1324930E-04  0.2025231E+04  0.7818609E-02  0.8594915E-01
        1   -1    0    0  501    0  0.00000000000E+00  0.00000000000E+00  0.18596431005E+04  0.18596431005E+04  0.50400001928E-02 0.  1.
       -1   -1    0    0    0  501  0.00000000000E+00  0.00000000000E+00 -0.55139059766E+03  0.55139059768E+03  0.50400001928E-02 0. -1.
    10030    2    1    2    0    0  0.00000000000E+00  0.00000000000E+00  0.13082525028E+04  0.24110336982E+04  0.20252305752E+04 0.  0.
        5    1    3    3  502    0  0.45340132944E+03  0.87992628813E+03  0.40011565232E+03  0.10676879991E+04  0.46999998093E+01 0. -1.
       -5    1    3    3    0  502 -0.45340132944E+03 -0.87992628813E+03  0.90813685050E+03  0.13433456991E+04  0.46999998093E+01 0.  1.
</event>
<event>
 5   0  0.2488886E-04  0.2016316E+04  0.7818609E-02  0.8599030E-01
       -2   -1    0    0    0  501  0.00000000000E+00  0.00000000000E+00  0.78983123042E+03  0.78983123043E+03  0.25500000920E-02 0. -1.
        2   -1    0    0  501    0  0.00000000000E+00  0.00000000000E+00 -0.12868355336E+04  0.12868355336E+04  0.25500000920E-02 0.  1.
    10030    2    1    2    0    0  0.00000000000E+00  0.00000000000E+00 -0.49700430313E+03  0.20766667640E+04  0.20163163371E+04 0.  0.
        3    1    3    3  502    0  0.38797007215E+03 -0.36288216524E+03 -0.11309905726E+04  0.12495374858E+04  0.10100000352E+00 0.  1.
       -3    1    3    3    0  502 -0.38797007215E+03  0.36288216524E+03  0.63398626952E+03  0.82712927821E+03  0.10100000352E+00 0. -1.
</event>
<event>
 5   0  0.1210633E-04  0.2032780E+04  0.7818609E-02  0.8591447E-01
       -1   -1    0    0    0  501  0.00000000000E+00  0.00000000000E+00  0.93666525435E+03  0.93666525437E+03  0.50400001928E-02 0.  1.
        1   -1    0    0  501    0  0.00000000000E+00  0.00000000000E+00 -0.11029000867E+04  0.11029000867E+04  0.50400001928E-02 0. -1.
    10030    2    1    2    0    0  0.00000000000E+00  0.00000000000E+00 -0.16623483237E+03  0.20395653411E+04  0.20327795653E+04 0.  0.
        2    1    3    3  502    0 -0.33034832363E+03 -0.87094354886E+03  0.32490397786E+03  0.98652687498E+03  0.25500000920E-02 0.  1.
       -2    1    3    3    0  502  0.33034832363E+03  0.87094354886E+03 -0.49113881024E+03  0.10530384661E+04  0.25500000920E-02 0. -1.
</event>
<event>
 5   0  0.1258546E-04  0.2013200E+04  0.7818609E-02  0.8600474E-01
       -1   -1    0    0    0  501  0.00000000000E+00  0.00000000000E+00  0.92288438290E+03  0.92288438291E+03  0.50400001928E-02 0.  1.
        1   -1    0    0  501    0  0.00000000000E+00  0.00000000000E+00 -0.10979092484E+04  0.10979092484E+04  0.50400001928E-02 0. -1.
    10030    2    1    2    0    0  0.00000000000E+00  0.00000000000E+00 -0.17502486554E+03  0.20207936314E+04  0.20131997410E+04 0.  0.
        4    1    3    3  502    0  0.39663713537E+03  0.47932247757E+03 -0.88180673285E+03  0.10791921894E+04  0.12699999809E+01 0. -1.
       -4    1    3    3    0  502 -0.39663713537E+03 -0.47932247757E+03  0.70678186731E+03  0.94160144196E+03  0.12699999809E+01 0.  1.
</event>
<event>
 5   0  0.1231056E-04  0.2075078E+04  0.7818609E-02  0.8572302E-01
       -1   -1    0    0    0  501  0.00000000000E+00  0.00000000000E+00  0.42326519337E+03  0.42326519340E+03  0.50400001928E-02 0. -1.
        1   -1    0    0  501    0  0.00000000000E+00  0.00000000000E+00 -0.25432934955E+04  0.25432934955E+04  0.50400001928E-02 0.  1.
    10030    2    1    2    0    0  0.00000000000E+00  0.00000000000E+00 -0.21200283021E+04  0.29665586889E+04  0.20750784209E+04 0.  0.
        3    1    3    3  502    0  0.97695129997E+03 -0.18209968852E+03 -0.63377499288E+03  0.11786708153E+04  0.10100000352E+00 0.  1.
       -3    1    3    3    0  502 -0.97695129997E+03  0.18209968852E+03 -0.14862533092E+04  0.17878878736E+04  0.10100000352E+00 0. -1.
</event>
<event>
 5   0  0.1258546E-04  0.2005157E+04  0.7818609E-02  0.8604214E-01
       -1   -1    0    0    0  501  0.00000000000E+00  0.00000000000E+00  0.11934376254E+04  0.11934376254E+04  0.50400001928E-02 0. -1.
        1   -1    0    0  501    0  0.00000000000E+00  0.00000000000E+00 -0.84224200569E+03  0.84224200571E+03  0.50400001928E-02 0.  1.
    10030    2    1    2    0    0  0.00000000000E+00  0.00000000000E+00  0.35119561974E+03  0.20356796312E+04  0.20051566516E+04 0.  0.
        4    1    3    3  502    0 -0.63397383639E+03  0.41206240944E+03 -0.49278817856E+03  0.90252980911E+03  0.12699999809E+01 0.  1.
       -4    1    3    3    0  502  0.63397383639E+03 -0.41206240944E+03  0.84398379831E+03  0.11331498220E+04  0.12699999809E+01 0. -1.
</event>
<event>
 5   0  0.2463085E-04  0.2011388E+04  0.7818609E-02  0.8601315E-01
        2   -1    0    0  501    0  0.00000000000E+00  0.00000000000E+00  0.11369655046E+04  0.11369655046E+04  0.25500000920E-02 0. -1.
       -2   -1    0    0    0  501  0.00000000000E+00  0.00000000000E+00 -0.88957901592E+03  0.88957901593E+03  0.25500000920E-02 0.  1.
    10030    2    1    2    0    0  0.00000000000E+00  0.00000000000E+00  0.24738648869E+03  0.20265445205E+04  0.20113882318E+04 0.  0.
        2    1    3    3  502    0  0.80294126776E+02 -0.40228640208E+03 -0.80145190110E+03  0.90033696241E+03  0.25500000920E-02 0.  1.
       -2    1    3    3    0  502 -0.80294126776E+02  0.40228640208E+03  0.10488383898E+04  0.11262075581E+04  0.25500000920E-02 0. -1.
</event>
<event>
 5   0  0.2596061E-04  0.2005045E+04  0.7818609E-02  0.8604266E-01
       -2   -1    0    0    0  501  0.00000000000E+00  0.00000000000E+00  0.48849926570E+03  0.48849926571E+03  0.25500000920E-02 0.  1.
        2   -1    0    0  501    0  0.00000000000E+00  0.00000000000E+00 -0.20574261201E+04  0.20574261201E+04  0.25500000920E-02 0. -1.
    10030    2    1    2    0    0  0.00000000000E+00  0.00000000000E+00 -0.15689268544E+04  0.25459253858E+04  0.20050447865E+04 0.  0.
        5    1    3    3  502    0 -0.24800172941E+03  0.53328713824E+03  0.24641348527E+03  0.63768465979E+03  0.46999998093E+01 0.  1.
       -5    1    3    3    0  502  0.24800172941E+03 -0.53328713824E+03 -0.18153403397E+04  0.19082407260E+04  0.46999998093E+01 0. -1.
</event>
<event>
 5   0  0.2488886E-04  0.1963842E+04  0.7818609E-02  0.8623715E-01
        2   -1    0    0  501    0  0.00000000000E+00  0.00000000000E+00  0.21483757969E+04  0.21483757969E+04  0.25500000920E-02 0.  1.
       -2   -1    0    0    0  501  0.00000000000E+00  0.00000000000E+00 -0.44878966752E+03  0.44878966753E+03  0.25500000920E-02 0. -1.
    10030    2    1    2    0    0  0.00000000000E+00  0.00000000000E+00  0.16995861294E+04  0.25971654644E+04  0.19638420095E+04 0.  0.
        3    1    3    3  502    0 -0.12736005481E+03 -0.24880202013E+03 -0.39506880302E+03  0.48394462297E+03  0.10100000352E+00 0. -1.
       -3    1    3    3    0  502  0.12736005481E+03  0.24880202013E+03  0.20946549324E+04  0.21132208414E+04  0.10100000352E+00 0.  1.
</event>
<event>
 5   0  0.2596061E-04  0.1993161E+04  0.7818609E-02  0.8609825E-01
        2   -1    0    0  501    0  0.00000000000E+00  0.00000000000E+00  0.15998032131E+04  0.15998032131E+04  0.25500000920E-02 0. -1.
       -2   -1    0    0    0  501  0.00000000000E+00  0.00000000000E+00 -0.62080942271E+03  0.62080942271E+03  0.25500000920E-02 0.  1.
    10030    2    1    2    0    0  0.00000000000E+00  0.00000000000E+00  0.97899379037E+03  0.22206126358E+04  0.19931612169E+04 0.  0.
        5    1    3    3  502    0  0.83031491834E+03  0.30240861702E+03 -0.23815596190E+02  0.88400402029E+03  0.46999998093E+01 0. -1.
       -5    1    3    3    0  502 -0.83031491834E+03 -0.30240861702E+03  0.10028093866E+04  0.13366086155E+04  0.46999998093E+01 0.  1.
</event>
<event>
 5   0  0.1258546E-04  0.1950258E+04  0.7818609E-02  0.8630236E-01
        1   -1    0    0  501    0  0.00000000000E+00  0.00000000000E+00  0.10458863514E+04  0.10458863514E+04  0.50400001928E-02 0. -1.
       -1   -1    0    0    0  501  0.00000000000E+00  0.00000000000E+00 -0.90915860987E+03  0.90915860989E+03  0.50400001928E-02 0.  1.
    10030    2    1    2    0    0  0.00000000000E+00  0.00000000000E+00  0.13672774153E+03  0.19550449613E+04  0.19502580151E+04 0.  0.
        4    1    3    3  502    0 -0.61723591654E+02 -0.79804154848E+03 -0.48995456973E+03  0.93847600298E+03  0.12699999809E+01 0.  1.
       -4    1    3    3    0  502  0.61723591654E+02  0.79804154848E+03  0.62668231126E+03  0.10165689583E+04  0.12699999809E+01 0. -1.
</event>
<event>
 5   0  0.1231056E-04  0.1993849E+04  0.7818609E-02  0.8609502E-01
        1   -1    0    0  501    0  0.00000000000E+00  0.00000000000E+00  0.26957935545E+04  0.26957935545E+04  0.50400001928E-02 0. -1.
       -1   -1    0    0    0  501  0.00000000000E+00  0.00000000000E+00 -0.36867008237E+03  0.36867008240E+03  0.50400001928E-02 0.  1.
    10030    2    1    2    0    0  0.00000000000E+00  0.00000000000E+00  0.23271234721E+04  0.30644636369E+04  0.19938489731E+04 0.  0.
        3    1    3    3  502    0 -0.91866304536E+03 -0.33479533246E+03  0.86462931865E+03  0.13052254880E+04  0.10100000352E+00 0.  1.
       -3    1    3    3    0  502  0.91866304536E+03  0.33479533246E+03  0.14624941535E+04  0.17592381489E+04  0.10100000352E+00 0. -1.
</event>
<event>
 5   0  0.1231056E-04  0.1297895E+04  0.7818609E-02  0.9031236E-01
       -1   -1    0    0    0  501  0.00000000000E+00  0.00000000000E+00  0.10218320048E+04  0.10218320048E+04  0.50400001928E-02 0. -1.
        1   -1    0    0  501    0  0.00000000000E+00  0.00000000000E+00 -0.41213495163E+03  0.41213495166E+03  0.50400001928E-02 0.  1.
    10030    2    1    2    0    0  0.00000000000E+00  0.00000000000E+00  0.60969705320E+03  0.14339669565E+04  0.12978947321E+04 0.  0.
        3    1    3    3  502    0  0.49560852094E+03  0.30258933545E+02  0.76649385168E+03  0.91326679779E+03  0.10100000352E+00 0. -1.
       -3    1    3    3    0  502 -0.49560852094E+03 -0.30258933545E+02 -0.15679679847E+03  0.52070015872E+03  0.10100000352E+00 0.  1.
</event>
<event>
 5   0  0.1324930E-04  0.1596836E+04  0.7818609E-02  0.8822494E-01
        1   -1    0    0  501    0  0.00000000000E+00  0.00000000000E+00  0.94597620267E+03  0.94597620268E+03  0.50400001928E-02 0. -1.
       -1   -1    0    0    0  501  0.00000000000E+00  0.00000000000E+00 -0.67387659406E+03  0.67387659408E+03  0.50400001928E-02 0.  1.
    10030    2    1    2    0    0  0.00000000000E+00  0.00000000000E+00  0.27209960861E+03  0.16198527968E+04  0.15968358983E+04 0.  0.
        5    1    3    3  502    0 -0.73123857608E+03 -0.22329188458E+03 -0.97221345362E+02  0.77074198073E+03  0.46999998093E+01 0.  1.
       -5    1    3    3    0  502  0.73123857608E+03  0.22329188458E+03  0.36932095397E+03  0.84911081603E+03  0.46999998093E+01 0. -1.
</event>
<event>
 5   0  0.2463085E-04  0.2046193E+04  0.7818609E-02  0.8585323E-01
       -2   -1    0    0    0  501  0.00000000000E+00  0.00000000000E+00  0.10944082886E+04  0.10944082886E+04  0.25500000920E-02 0. -1.
        2   -1    0    0  501    0  0.00000000000E+00  0.00000000000E+00 -0.95643115743E+03  0.95643115743E+03  0.25500000920E-02 0.  1.
    10030    2    1    2    0    0  0.00000000000E+00  0.00000000000E+00  0.13797713116E+03  0.20508394460E+04  0.20461927438E+04 0.  0.
        2    1    3    3  502    0 -0.13052446573E+03  0.98051964965E+03 -0.19289154267E+03  0.10078008567E+04  0.25500000920E-02 0.  1.
       -2    1    3    3    0  502  0.13052446573E+03 -0.98051964965E+03  0.33086867383E+03  0.10430385893E+04  0.25500000920E-02 0. -1.
</event>
<event>
 5   0  0.2488886E-04  0.2059105E+04  0.7818609E-02  0.8579475E-01
        2   -1    0    0  501    0  0.00000000000E+00  0.00000000000E+00  0.13478115683E+04  0.13478115683E+04  0.25500000920E-02 0.  1.
       -2   -1    0    0    0  501  0.00000000000E+00  0.00000000000E+00 -0.78644384161E+03  0.78644384161E+03  0.25500000920E-02 0. -1.
    10030    2    1    2    0    0  0.00000000000E+00  0.00000000000E+00  0.56136772668E+03  0.21342554099E+04  0.20591047642E+04 0.  0.
        3    1    3    3  502    0  0.33905263174E+03  0.64050693708E+03 -0.47728678564E+03  0.86776062914E+03  0.10100000352E+00 0. -1.
       -3    1    3    3    0  502 -0.33905263174E+03 -0.64050693708E+03  0.10386545123E+04  0.12664947808E+04  0.10100000352E+00 0.  1.
</event>
<event>
 5   0  0.2488886E-04  0.1993277E+04  0.7818609E-02  0.8609770E-01
        2   -1    0    0  501    0  0.00000000000E+00  0.00000000000E+00  0.67190319960E+03  0.67190319961E+03  0.25500000920E-02 0. -1.
       -2   -1    0    0    0  501  0.00000000000E+00  0.00000000000E+00 -0.14783205600E+04  0.14783205600E+04  0.25500000920E-02 0.  1.
    10030    2    1    2    0    0  0.00000000000E+00  0.00000000000E+00 -0.80641736043E+03  0.21502237596E+04  0.19932770147E+04 0.  0.
        3    1    3    3  502    0  0.21350896176E+03  0.24618191938E+03  0.61280949520E+03  0.69406563219E+03  0.10100000352E+00 0. -1.
       -3    1    3    3    0  502 -0.21350896176E+03 -0.24618191938E+03 -0.14192268556E+04  0.14561581274E+04  0.10100000352E+00 0.  1.
</event>
<event>
 5   0  0.1210633E-04  0.1997931E+04  0.7818609E-02  0.8607588E-01
        1   -1    0    0  501    0  0.00000000000E+00  0.00000000000E+00  0.21618713135E+04  0.21618713135E+04  0.50400001928E-02 0. -1.
       -1   -1    0    0    0  501  0.00000000000E+00  0.00000000000E+00 -0.46160577283E+03  0.46160577285E+03  0.50400001928E-02 0.  1.
    10030    2    1    2    0    0  0.00000000000E+00  0.00000000000E+00  0.17002655407E+04  0.26234770864E+04  0.19979312085E+04 0.  0.
        2    1    3    3  502    0  0.34077194937E+03  0.23955665222E+03  0.20423923962E+04  0.20844374808E+04  0.25500000920E-02 0. -1.
       -2    1    3    3    0  502 -0.34077194937E+03 -0.23955665222E+03 -0.34212685555E+03  0.53903960559E+03  0.25500000920E-02 0.  1.
</event>
<event>
 5   0  0.2540506E-04  0.1907485E+04  0.7818609E-02  0.8651140E-01
       -2   -1    0    0    0  501  0.00000000000E+00  0.00000000000E+00  0.98717810224E+03  0.98717810224E+03  0.25500000920E-02 0. -1.
        2   -1    0    0  501    0  0.00000000000E+00  0.00000000000E+00 -0.92143933276E+03  0.92143933276E+03  0.25500000920E-02 0.  1.
    10030    2    1    2    0    0  0.00000000000E+00  0.00000000000E+00  0.65738769480E+02  0.19086174350E+04  0.19074849744E+04 0.  0.
        4    1    3    3  502    0 -0.49498630992E+03  0.68783252517E+03  0.47073413433E+03  0.96939015253E+03  0.12699999809E+01 0. -1.
       -4    1    3    3    0  502  0.49498630992E+03 -0.68783252517E+03 -0.40499536485E+03  0.93922728248E+03  0.12699999809E+01 0.  1.
</event>
<event>
 5   0  0.2421737E-04  0.2000651E+04  0.7818609E-02  0.8606316E-01
        2   -1    0    0  501    0  0.00000000000E+00  0.00000000000E+00  0.13705505219E+04  0.13705505219E+04  0.25500000920E-02 0.  1.
       -2   -1    0    0    0  501  0.00000000000E+00  0.00000000000E+00 -0.73010896025E+03  0.73010896026E+03  0.25500000920E-02 0. -1.
    10030    2    1    2    0    0  0.00000000000E+00  0.00000000000E+00  0.64044156164E+03  0.21006594822E+04  0.20006511105E+04 0.  0.
        1    1    3    3  502    0  0.13505781414E+03 -0.63342888897E+03 -0.48023813982E+03  0.80628868372E+03  0.50400001928E-02 0. -1.
       -1    1    3    3    0  502 -0.13505781414E+03  0.63342888897E+03  0.11206797015E+04  0.12943707984E+04  0.50400001928E-02 0.  1.
</event>
<event>
 5   0  0.2488886E-04  0.2010045E+04  0.7818609E-02  0.8601938E-01
       -2   -1    0    0    0  501  0.00000000000E+00  0.00000000000E+00  0.78287784798E+03  0.78287784799E+03  0.25500000920E-02 0. -1.
        2   -1    0    0  501    0  0.00000000000E+00  0.00000000000E+00 -0.12902022022E+04  0.12902022022E+04  0.25500000920E-02 0.  1.
    10030    2    1    2    0    0  0.00000000000E+00  0.00000000000E+00 -0.50732435426E+03  0.20730800502E+04  0.20100454956E+04 0.  0.
        3    1    3    3  502    0  0.17712734368E+03 -0.16492748450E+03  0.75237392049E+03  0.79034277213E+03  0.10100000352E+00 0. -1.
       -3    1    3    3    0  502 -0.17712734368E+03  0.16492748450E+03 -0.12596982748E+04  0.12827372781E+04  0.10100000352E+00 0.  1.
</event>
<event>
 5   0  0.2488886E-04  0.2094803E+04  0.7818609E-02  0.8563536E-01
       -2   -1    0    0    0  501  0.00000000000E+00  0.00000000000E+00  0.95026746983E+03  0.95026746984E+03  0.25500000920E-02 0. -1.
        2   -1    0    0  501    0  0.00000000000E+00  0.00000000000E+00 -0.11544640065E+04  0.11544640065E+04  0.25500000920E-02 0.  1.
    10030    2    1    2    0    0  0.00000000000E+00  0.00000000000E+00 -0.20419653669E+03  0.21047314764E+04  0.20948027024E+04 0.  0.
        3    1    3    3  502    0 -0.26677986680E+03 -0.78559717785E+03 -0.74443675233E+03  0.11146840412E+04  0.10100000352E+00 0.  1.
       -3    1    3    3    0  502  0.26677986680E+03  0.78559717785E+03  0.54024021564E+03  0.99004743521E+03  0.10100000352E+00 0. -1.
</event>
<event>
 5   0  0.2596061E-04  0.1978802E+04  0.7818609E-02  0.8616596E-01
       -2   -1    0    0    0  501  0.00000000000E+00  0.00000000000E+00  0.54763601981E+03  0.54763601982E+03  0.25500000920E-02 0.  1.
        2   -1    0    0  501    0  0.00000000000E+00  0.00000000000E+00 -0.17875281664E+04  0.17875281664E+04  0.25500000920E-02 0. -1.
    10030    2    1    2    0    0  0.00000000000E+00  0.00000000000E+00 -0.12398921466E+04  0.23351641862E+04  0.19788024766E+04 0.  0.
        5    1    3    3  502    0 -0.88337834409E+03  0.18676328454E+02 -0.94591959227E+02  0.88863706472E+03  0.46999998093E+01 0.  1.
       -5    1    3    3    0  502  0.88337834409E+03 -0.18676328454E+02 -0.11453001873E+04  0.14465271215E+04  0.46999998093E+01 0. -1.
</event>
<event>
 5   0  0.1231056E-04  0.2079215E+04  0.7818609E-02  0.8570455E-01
        1   -1    0    0  501    0  0.00000000000E+00  0.00000000000E+00  0.11073058481E+04  0.11073058481E+04  0.50400001928E-02 0. -1.
       -1   -1    0    0    0  501  0.00000000000E+00  0.00000000000E+00 -0.97604765417E+03  0.97604765419E+03  0.50400001928E-02 0.  1.
    10030    2    1    2    0    0  0.00000000000E+00  0.00000000000E+00  0.13125819388E+03  0.20833535023E+04  0.20792145396E+04 0.  0.
        3    1    3    3  502    0 -0.76035707861E+03 -0.18688254540E+03 -0.61962943031E+03  0.99850318671E+03  0.10100000352E+00 0.  1.
       -3    1    3    3    0  502  0.76035707861E+03  0.18688254540E+03  0.75088762419E+03  0.10848503155E+04  0.10100000352E+00 0. -1.
</event>
<event>
 5   0  0.1210633E-04  0.1982360E+04  0.7818609E-02  0.8614912E-01
        1   -1    0    0  501    0  0.00000000000E+00  0.00000000000E+00  0.12082805747E+04  0.12082805747E+04  0.50400001928E-02 0.  1.
       -1   -1    0    0    0  501  0.00000000000E+00  0.00000000000E+00 -0.81308784191E+03  0.81308784192E+03  0.50400001928E-02 0. -1.
    10030    2    1    2    0    0  0.00000000000E+00  0.00000000000E+00  0.39519273279E+03  0.20213684166E+04  0.19823604566E+04 0.  0.
        2    1    3    3  502    0 -0.27170809346E+02  0.73976236461E+03  0.86969585999E+03  0.11420847157E+04  0.25500000920E-02 0.  1.
       -2    1    3    3    0  502  0.27170809346E+02 -0.73976236461E+03 -0.47450312720E+03  0.87928370092E+03  0.25500000920E-02 0. -1.
</event>
<event>
 5   0  0.1258546E-04  0.1895317E+04  0.7818609E-02  0.8657191E-01
        1   -1    0    0  501    0  0.00000000000E+00  0.00000000000E+00  0.21533970972E+04  0.21533970972E+04  0.50400001928E-02 0.  1.
       -1   -1    0    0    0  501  0.00000000000E+00  0.00000000000E+00 -0.41704170152E+03  0.41704170155E+03  0.50400001928E-02 0. -1.
    10030    2    1    2    0    0  0.00000000000E+00  0.00000000000E+00  0.17363553957E+04  0.25704387988E+04  0.18953167435E+04 0.  0.
        4    1    3    3  502    0 -0.15550620726E+03  0.34295850066E+02  0.21351206462E+04  0.21410511840E+04  0.12699999809E+01 0.  1.
       -4    1    3    3    0  502  0.15550620726E+03 -0.34295850066E+02 -0.39876525048E+03  0.42938761477E+03  0.12699999809E+01 0. -1.
</event>
<event>
 5   0  0.2488886E-04  0.2045035E+04  0.7818609E-02  0.8585850E-01
       -2   -1    0    0    0  501  0.00000000000E+00  0.00000000000E+00  0.44385841431E+03  0.44385841431E+03  0.25500000920E-02 0. -1.
        2   -1    0    0  501    0  0.00000000000E+00  0.00000000000E+00 -0.23555760883E+04  0.23555760883E+04  0.25500000920E-02 0.  1.
    10030    2    1    2    0    0  0.00000000000E+00  0.00000000000E+00 -0.19117176740E+04  0.27994345026E+04  0.20450352245E+04 0.  0.
        3    1    3    3  502    0  0.52199157596E+03 -0.79598996611E+03 -0.44464183689E+03  0.10506101108E+04  0.10100000352E+00 0. -1.
       -3    1    3    3    0  502 -0.52199157596E+03  0.79598996611E+03 -0.14670758371E+04  0.17488243918E+04  0.10100000352E+00 0.  1.
</event>
<event>
 5   0  0.2488886E-04  0.2003500E+04  0.7818609E-02  0.8604986E-01
       -2   -1    0    0    0  501  0.00000000000E+00  0.00000000000E+00  0.11173382172E+04  0.11173382172E+04  0.25500000920E-02 0. -1.
        2   -1    0    0  501    0  0.00000000000E+00  0.00000000000E+00 -0.89811957078E+03  0.89811957078E+03  0.25500000920E-02 0.  1.
    10030    2    1    2    0    0  0.00000000000E+00  0.00000000000E+00  0.21921864642E+03  0.20154577880E+04  0.20035002571E+04 0.  0.
        3    1    3    3  502    0  0.23641973843E+03  0.85412779148E+03  0.57938116207E+03  0.10588253482E+04  0.10100000352E+00 0. -1.
       -3    1    3    3    0  502 -0.23641973843E+03 -0.85412779148E+03 -0.36016251564E+03  0.95663243975E+03  0.10100000352E+00 0.  1.
</event>
<event>
 5   0  0.2421737E-04  0.2104239E+04  0.7818609E-02  0.8559378E-01
        2   -1    0    0  501    0  0.00000000000E+00  0.00000000000E+00  0.14890095707E+04  0.14890095707E+04  0.25500000920E-02 0. -1.
       -2   -1    0    0    0  501  0.00000000000E+00  0.00000000000E+00 -0.74341714478E+03  0.74341714478E+03  0.25500000920E-02 0.  1.
    10030    2    1    2    0    0  0.00000000000E+00  0.00000000000E+00  0.74559242596E+03  0.22324267155E+04  0.21042388112E+04 0.  0.
        1    1    3    3  502    0  0.84681947203E+03 -0.50847844093E+03  0.75722629109E+03  0.12446064434E+04  0.50400001928E-02 0. -1.
       -1    1    3    3    0  502 -0.84681947203E+03  0.50847844093E+03 -0.11633865129E+02  0.98782027209E+03  0.50400001928E-02 0.  1.
</event>
<event>
 5   0  0.1207228E-04  0.1987506E+04  0.7818609E-02  0.8612484E-01
       -1   -1    0    0    0  501  0.00000000000E+00  0.00000000000E+00  0.68280365263E+03  0.68280365265E+03  0.50400001928E-02 0. -1.
        1   -1    0    0  501    0  0.00000000000E+00  0.00000000000E+00 -0.14463085945E+04  0.14463085946E+04  0.50400001928E-02 0.  1.
    10030    2    1    2    0    0  0.00000000000E+00  0.00000000000E+00 -0.76350494192E+03  0.21291122472E+04  0.19875057647E+04 0.  0.
        1    1    3    3  502    0  0.38955894327E+03 -0.27332660502E+03 -0.13163091698E+04  0.13996904778E+04  0.50400001928E-02 0.  1.
       -1    1    3    3    0  502 -0.38955894327E+03  0.27332660502E+03  0.55280422784E+03  0.72942176938E+03  0.50400001928E-02 0. -1.
</event>
<event>
 5   0  0.2463085E-04  0.1995671E+04  0.7818609E-02  0.8608647E-01
       -2   -1    0    0    0  501  0.00000000000E+00  0.00000000000E+00  0.13397918427E+04  0.13397918427E+04  0.25500000920E-02 0.  1.
        2   -1    0    0  501    0  0.00000000000E+00  0.00000000000E+00 -0.74315688602E+03  0.74315688602E+03  0.25500000920E-02 0. -1.
    10030    2    1    2    0    0  0.00000000000E+00  0.00000000000E+00  0.59663495669E+03  0.20829487287E+04  0.19956708484E+04 0.  0.
        2    1    3    3  502    0 -0.42329120224E+03  0.18267200269E+03 -0.62533134885E+03  0.77690655700E+03  0.25500000920E-02 0. -1.
       -2    1    3    3    0  502  0.42329120224E+03 -0.18267200269E+03  0.12219663055E+04  0.13060421717E+04  0.25500000920E-02 0.  1.
</event>
<event>
 5   0  0.2488886E-04  0.2001367E+04  0.7818609E-02  0.8605982E-01
       -2   -1    0    0    0  501  0.00000000000E+00  0.00000000000E+00  0.15999416226E+04  0.15999416226E+04  0.25500000920E-02 0. -1.
        2   -1    0    0  501    0  0.00000000000E+00  0.00000000000E+00 -0.62587736842E+03  0.62587736843E+03  0.25500000920E-02 0.  1.
    10030    2    1    2    0    0  0.00000000000E+00  0.00000000000E+00  0.97406425421E+03  0.22258189911E+04  0.20013667854E+04 0.  0.
        3    1    3    3  502    0  0.53552522441E+03  0.84070176976E+03  0.58525772256E+03  0.11558950401E+04  0.10100000352E+00 0. -1.
       -3    1    3    3    0  502 -0.53552522441E+03 -0.84070176976E+03  0.38880653165E+03  0.10699239510E+04  0.10100000352E+00 0.  1.
</event>
<event>
 5   0  0.1207228E-04  0.1867788E+04  0.7818609E-02  0.8671058E-01
        1   -1    0    0  501    0  0.00000000000E+00  0.00000000000E+00  0.93878553796E+03  0.93878553798E+03  0.50400001928E-02 0. -1.
       -1   -1    0    0    0  501  0.00000000000E+00  0.00000000000E+00 -0.92902825643E+03  0.92902825644E+03  0.50400001928E-02 0.  1.
    10030    2    1    2    0    0  0.00000000000E+00  0.00000000000E+00  0.97572815353E+01  0.18678137944E+04  0.18677883087E+04 0.  0.
        1    1    3    3  502    0  0.41859904163E+02  0.39317536646E+03  0.85095115881E+03  0.93832669954E+03  0.50400001928E-02 0. -1.
       -1    1    3    3    0  502 -0.41859904163E+02 -0.39317536646E+03 -0.84119387727E+03  0.92948709488E+03  0.50400001928E-02 0.  1.
</event>
<event>
 5   0  0.2540506E-04  0.1765519E+04  0.7818609E-02  0.8724854E-01
       -2   -1    0    0    0  501  0.00000000000E+00  0.00000000000E+00  0.52384262647E+03  0.52384262648E+03  0.25500000920E-02 0.  1.
        2   -1    0    0  501    0  0.00000000000E+00  0.00000000000E+00 -0.14875926231E+04  0.14875926231E+04  0.25500000920E-02 0. -1.
    10030    2    1    2    0    0  0.00000000000E+00  0.00000000000E+00 -0.96374999662E+03  0.20114352496E+04  0.17655191042E+04 0.  0.
        4    1    3    3  502    0  0.49293001302E+03 -0.53014113712E+03 -0.10574503803E+04  0.12814962125E+04  0.12699999809E+01 0. -1.
       -4    1    3    3    0  502 -0.49293001302E+03  0.53014113712E+03  0.93700383686E+02  0.72993903705E+03  0.12699999809E+01 0.  1.
</event>
<event>
 5   0  0.9099125E-05  0.1991119E+04  0.7818609E-02  0.8610784E-01
        3   -1    0    0  501    0  0.00000000000E+00  0.00000000000E+00  0.13583222267E+04  0.13583222305E+04  0.10100000352E+00 0. -1.
       -3   -1    0    0    0  501  0.00000000000E+00  0.00000000000E+00 -0.72967827823E+03  0.72967828522E+03  0.10100000352E+00 0.  1.
    10030    2    1    2    0    0  0.00000000000E+00  0.00000000000E+00  0.62864394852E+03  0.20880005157E+04  0.19911185147E+04 0.  0.
        2    1    3    3  502    0 -0.81669869856E+03 -0.37509837045E+03 -0.13482004576E+03  0.90877499772E+03  0.25500000920E-02 0.  1.
       -2    1    3    3    0  502  0.81669869856E+03  0.37509837045E+03  0.76346399428E+03  0.11792255180E+04  0.25500000920E-02 0. -1.
</event>
<event>
 5   0  0.2596061E-04  0.1951069E+04  0.7818609E-02  0.8629846E-01
        2   -1    0    0  501    0  0.00000000000E+00  0.00000000000E+00  0.17585824445E+04  0.17585824445E+04  0.25500000920E-02 0. -1.
       -2   -1    0    0    0  501  0.00000000000E+00  0.00000000000E+00 -0.54115589378E+03  0.54115589378E+03  0.25500000920E-02 0.  1.
    10030    2    1    2    0    0  0.00000000000E+00  0.00000000000E+00  0.12174265507E+04  0.22997383383E+04  0.19510686862E+04 0.  0.
        5    1    3    3  502    0 -0.24677853808E+03  0.19430985413E+01 -0.50373997407E+03  0.56096298805E+03  0.46999998093E+01 0.  1.
       -5    1    3    3    0  502  0.24677853808E+03 -0.19430985413E+01  0.17211665248E+04  0.17387753502E+04  0.46999998093E+01 0. -1.
</event>
<event>
 5   0  0.2540506E-04  0.2002545E+04  0.7818609E-02  0.8605432E-01
       -2   -1    0    0    0  501  0.00000000000E+00  0.00000000000E+00  0.76564228673E+03  0.76564228673E+03  0.25500000920E-02 0.  1.
        2   -1    0    0  501    0  0.00000000000E+00  0.00000000000E+00 -0.13094189437E+04  0.13094189437E+04  0.25500000920E-02 0. -1.
    10030    2    1    2    0    0  0.00000000000E+00  0.00000000000E+00 -0.54377665698E+03  0.20750612305E+04  0.20025448952E+04 0.  0.
        4    1    3    3  502    0  0.29901512188E+03  0.18084334472E+03 -0.12441791927E+04  0.12923226512E+04  0.12699999809E+01 0. -1.
       -4    1    3    3    0  502 -0.29901512188E+03 -0.18084334472E+03  0.70040253572E+03  0.78273857921E+03  0.12699999809E+01 0.  1.
</event>
<event>
 5   0  0.2488886E-04  0.2015551E+04  0.7818609E-02  0.8599385E-01
       -2   -1    0    0    0  501  0.00000000000E+00  0.00000000000E+00  0.82587628658E+03  0.82587628658E+03  0.25500000920E-02 0. -1.
        2   -1    0    0  501    0  0.00000000000E+00  0.00000000000E+00 -0.12297376459E+04  0.12297376459E+04  0.25500000920E-02 0.  1.
    10030    2    1    2    0    0  0.00000000000E+00  0.00000000000E+00 -0.40386135927E+03  0.20556139324E+04  0.20155507043E+04 0.  0.
        3    1    3    3  502    0  0.60464946776E+02  0.66718010477E+03  0.56591270665E+03  0.87695068489E+03  0.10100000352E+00 0. -1.
       -3    1    3    3    0  502 -0.60464946776E+02 -0.66718010477E+03 -0.96977406592E+03  0.11786632475E+04  0.10100000352E+00 0.  1.
</event>
<event>
 5   0  0.2488886E-04  0.1902053E+04  0.7818609E-02  0.8653835E-01
       -2   -1    0    0    0  501  0.00000000000E+00  0.00000000000E+00  0.10403425328E+04  0.10403425328E+04  0.25500000920E-02 0. -1.
        2   -1    0    0  501    0  0.00000000000E+00  0.00000000000E+00 -0.86937875108E+03  0.86937875108E+03  0.25500000920E-02 0.  1.
    10030    2    1    2    0    0  0.00000000000E+00  0.00000000000E+00  0.17096378170E+03  0.19097212839E+04  0.19020533030E+04 0.  0.
        3    1    3    3  502    0  0.86341846322E+03 -0.16302506470E+03  0.45079354280E+03  0.98756439930E+03  0.10100000352E+00 0.  1.
       -3    1    3    3    0  502 -0.86341846322E+03  0.16302506470E+03 -0.27982976110E+03  0.92215688456E+03  0.10100000352E+00 0. -1.
</event>
<event>
 5   0  0.2463085E-04  0.1998480E+04  0.7818609E-02  0.8607332E-01
       -2   -1    0    0    0  501  0.00000000000E+00  0.00000000000E+00  0.34143925620E+03  0.34143925620E+03  0.25500000920E-02 0. -1.
        2   -1    0    0  501    0  0.00000000000E+00  0.00000000000E+00 -0.29243288052E+04  0.29243288052E+04  0.25500000920E-02 0.  1.
    10030    2    1    2    0    0  0.00000000000E+00  0.00000000000E+00 -0.25828895490E+04  0.32657680614E+04  0.19984800746E+04 0.  0.
        2    1    3    3  502    0 -0.84228633965E+03 -0.46298107943E+03 -0.84486804905E+03  0.12796873752E+04  0.25500000920E-02 0.  1.
       -2    1    3    3    0  502  0.84228633965E+03  0.46298107943E+03 -0.17380214999E+04  0.19860806862E+04  0.25500000920E-02 0. -1.
</event>
<event>
 5   0  0.2488886E-04  0.1756946E+04  0.7818609E-02  0.8729536E-01
       -2   -1    0    0    0  501  0.00000000000E+00  0.00000000000E+00  0.43342404062E+03  0.43342404062E+03  0.25500000920E-02 0. -1.
        2   -1    0    0  501    0  0.00000000000E+00  0.00000000000E+00 -0.17805075343E+04  0.17805075343E+04  0.25500000920E-02 0.  1.
    10030    2    1    2    0    0  0.00000000000E+00  0.00000000000E+00 -0.13470834936E+04  0.22139315749E+04  0.17569459523E+04 0.  0.
        3    1    3    3  502    0  0.75188976633E+03  0.41872672881E+03 -0.45151878806E+03  0.97187423071E+03  0.10100000352E+00 0. -1.
       -3    1    3    3    0  502 -0.75188976633E+03 -0.41872672881E+03 -0.89556470558E+03  0.12420573442E+04  0.10100000352E+00 0.  1.
</event>
<event>
 5   0  0.1324930E-04  0.2001659E+04  0.7818609E-02  0.8605845E-01
       -1   -1    0    0    0  501  0.00000000000E+00  0.00000000000E+00  0.98666174776E+03  0.98666174777E+03  0.50400001928E-02 0. -1.
        1   -1    0    0  501    0  0.00000000000E+00  0.00000000000E+00 -0.10152009346E+04  0.10152009346E+04  0.50400001928E-02 0.  1.
    10030    2    1    2    0    0  0.00000000000E+00  0.00000000000E+00 -0.28539186824E+02  0.20018626824E+04  0.20016592402E+04 0.  0.
        5    1    3    3  502    0  0.48653577741E+03  0.61187272161E+03  0.61071995633E+03  0.99202129272E+03  0.46999998093E+01 0. -1.
       -5    1    3    3    0  502 -0.48653577741E+03 -0.61187272161E+03 -0.63925914315E+03  0.10098413897E+04  0.46999998093E+01 0.  1.
</event>
<event>
 5   0  0.2421737E-04  0.1801554E+04  0.7818609E-02  0.8705474E-01
        2   -1    0    0  501    0  0.00000000000E+00  0.00000000000E+00  0.11486336887E+04  0.11486336887E+04  0.25500000920E-02 0.  1.
       -2   -1    0    0    0  501  0.00000000000E+00  0.00000000000E+00 -0.70640366495E+03  0.70640366495E+03  0.25500000920E-02 0. -1.
    10030    2    1    2    0    0  0.00000000000E+00  0.00000000000E+00  0.44223002372E+03  0.18550373536E+04  0.18015538264E+04 0.  0.
        1    1    3    3  502    0 -0.40000841482E+03 -0.14610597440E+02 -0.60979799733E+03  0.72943388944E+03  0.50400001928E-02 0. -1.
       -1    1    3    3    0  502  0.40000841482E+03  0.14610597440E+02  0.10520280211E+04  0.11256034642E+04  0.50400001928E-02 0.  1.
</event>
<event>
 5   0  0.1207228E-04  0.2008468E+04  0.7818609E-02  0.8602672E-01
       -1   -1    0    0    0  501  0.00000000000E+00  0.00000000000E+00  0.52750065419E+03  0.52750065422E+03  0.50400001928E-02 0.  1.
        1   -1    0    0  501    0  0.00000000000E+00  0.00000000000E+00 -0.19118183550E+04  0.19118183550E+04  0.50400001928E-02 0. -1.
    10030    2    1    2    0    0  0.00000000000E+00  0.00000000000E+00 -0.13843177008E+04  0.24393190092E+04  0.20084675083E+04 0.  0.
        1    1    3    3  502    0 -0.39082827067E+03  0.91686997309E+03 -0.84134268332E+03  0.13043215844E+04  0.50400001928E-02 0.  1.
       -1    1    3    3    0  502  0.39082827067E+03 -0.91686997309E+03 -0.54297501747E+03  0.11349974248E+04  0.50400001928E-02 0. -1.
</event>
<event>
 5   0  0.2540506E-04  0.2049024E+04  0.7818609E-02  0.8584037E-01
       -2   -1    0    0    0  501  0.00000000000E+00  0.00000000000E+00  0.85879384774E+03  0.85879384774E+03  0.25500000920E-02 0. -1.
        2   -1    0    0  501    0  0.00000000000E+00  0.00000000000E+00 -0.12222081443E+04  0.12222081443E+04  0.25500000920E-02 0.  1.
    10030    2    1    2    0    0  0.00000000000E+00  0.00000000000E+00 -0.36341429654E+03  0.20810019920E+04  0.20490239969E+04 0.  0.
        4    1    3    3  502    0 -0.34003400367E+03 -0.14925775273E+03 -0.11514503001E+04  0.12098513987E+04  0.12699999809E+01 0.  1.
       -4    1    3    3    0  502  0.34003400367E+03  0.14925775273E+03  0.78803600358E+03  0.87115059332E+03  0.12699999809E+01 0. -1.
</event>
<event>
 5   0  0.2540506E-04  0.2077938E+04  0.7818609E-02  0.8571025E-01
       -2   -1    0    0    0  501  0.00000000000E+00  0.00000000000E+00  0.92847929337E+03  0.92847929337E+03  0.25500000920E-02 0. -1.
        2   -1    0    0  501    0  0.00000000000E+00  0.00000000000E+00 -0.11626071326E+04  0.11626071326E+04  0.25500000920E-02 0.  1.
    10030    2    1    2    0    0  0.00000000000E+00  0.00000000000E+00 -0.23412783926E+03  0.20910864260E+04  0.20779380635E+04 0.  0.
        4    1    3    3  502    0 -0.55271126421E+03 -0.76913999237E+03  0.31270862292E+03  0.99742386437E+03  0.12699999809E+01 0.  1.
       -4    1    3    3    0  502  0.55271126421E+03  0.76913999237E+03 -0.54683646218E+03  0.10936625616E+04  0.12699999809E+01 0. -1.
</event>
<event>
 5   0  0.9099125E-05  0.1993404E+04  0.7818609E-02  0.8609711E-01
       -3   -1    0    0    0  501  0.00000000000E+00  0.00000000000E+00  0.55760510513E+03  0.55760511427E+03  0.10100000352E+00 0. -1.
        3   -1    0    0  501    0  0.00000000000E+00  0.00000000000E+00 -0.17815745548E+04  0.17815745576E+04  0.10100000352E+00 0.  1.
    10030    2    1    2    0    0  0.00000000000E+00  0.00000000000E+00 -0.12239694497E+04  0.23391796719E+04  0.19934042048E+04 0.  0.
        5    1    3    3  502    0 -0.64690467888E+03  0.66303791751E+03 -0.10436011122E+04  0.13954319457E+04  0.46999998093E+01 0.  1.
       -5    1    3    3    0  502  0.64690467888E+03 -0.66303791751E+03 -0.18036833742E+03  0.94374772622E+03  0.46999998093E+01 0. -1.
</event>
<event>
 5   0  0.2540506E-04  0.1996438E+04  0.7818609E-02  0.8608288E-01
       -2   -1    0    0    0  501  0.00000000000E+00  0.00000000000E+00  0.10161800988E+04  0.10161800988E+04  0.25500000920E-02 0. -1.
        2   -1    0    0  501    0  0.00000000000E+00  0.00000000000E+00 -0.98057560575E+03  0.98057560576E+03  0.25500000920E-02 0.  1.
    10030    2    1    2    0    0  0.00000000000E+00  0.00000000000E+00  0.35604493040E+02  0.19967557046E+04  0.19964382444E+04 0.  0.
        4    1    3    3  502    0 -0.30172945099E+03  0.90102411648E+03  0.32371798362E+03  0.10038326882E+04  0.12699999809E+01 0. -1.
       -4    1    3    3    0  502  0.30172945099E+03 -0.90102411648E+03 -0.28811349058E+03  0.99292301636E+03  0.12699999809E+01 0.  1.
</event>
<event>
 5   0  0.2421737E-04  0.1950268E+04  0.7818609E-02  0.8630231E-01
        2   -1    0    0  501    0  0.00000000000E+00  0.00000000000E+00  0.10969672722E+04  0.10969672722E+04  0.25500000920E-02 0. -1.
       -2   -1    0    0    0  501  0.00000000000E+00  0.00000000000E+00 -0.86683229762E+03  0.86683229762E+03  0.25500000920E-02 0.  1.
    10030    2    1    2    0    0  0.00000000000E+00  0.00000000000E+00  0.23013497455E+03  0.19637995698E+04  0.19502683517E+04 0.  0.
        1    1    3    3  502    0  0.49934386954E+03 -0.71094781258E+03 -0.33083169628E+03  0.92964547197E+03  0.50400001928E-02 0.  1.
       -1    1    3    3    0  502 -0.49934386954E+03  0.71094781258E+03  0.56096667083E+03  0.10341540978E+04  0.50400001928E-02 0. -1.
</event>
<event>
 5   0  0.1258546E-04  0.2031214E+04  0.7818609E-02  0.8592165E-01
        1   -1    0    0  501    0  0.00000000000E+00  0.00000000000E+00  0.11571097919E+04  0.11571097919E+04  0.50400001928E-02 0.  1.
       -1   -1    0    0    0  501  0.00000000000E+00  0.00000000000E+00 -0.89140870278E+03  0.89140870280E+03  0.50400001928E-02 0. -1.
    10030    2    1    2    0    0  0.00000000000E+00  0.00000000000E+00  0.26570108910E+03  0.20485184947E+04  0.20312141577E+04 0.  0.
        4    1    3    3  502    0  0.76482731699E+02  0.65010792220E+03  0.91597477357E+03  0.11258336100E+04  0.12699999809E+01 0.  1.
       -4    1    3    3    0  502 -0.76482731699E+02 -0.65010792220E+03 -0.65027368447E+03  0.92268488466E+03  0.12699999809E+01 0. -1.
</event>
<event>
 5   0  0.1324930E-04  0.1980875E+04  0.7818609E-02  0.8615615E-01
       -1   -1    0    0    0  501  0.00000000000E+00  0.00000000000E+00  0.62622656226E+03  0.62622656228E+03  0.50400001928E-02 0.  1.
        1   -1    0    0  501    0  0.00000000000E+00  0.00000000000E+00 -0.15664722264E+04  0.15664722264E+04  0.50400001928E-02 0. -1.
    10030    2    1    2    0    0  0.00000000000E+00  0.00000000000E+00 -0.94024566413E+03  0.21926987887E+04  0.19808750766E+04 0.  0.
        5    1    3    3  502    0 -0.40168437192E+03 -0.88112578167E+03 -0.70022531566E+03  0.11950190628E+04  0.46999998093E+01 0. -1.
       -5    1    3    3    0  502  0.40168437192E+03  0.88112578167E+03 -0.24002034847E+03  0.99767972589E+03  0.46999998093E+01 0.  1.
</event>
<event>
 5   0  0.2540506E-04  0.2014061E+04  0.7818609E-02  0.8600075E-01
       -2   -1    0    0    0  501  0.00000000000E+00  0.00000000000E+00  0.83032932285E+03  0.83032932285E+03  0.25500000920E-02 0.  1.
        2   -1    0    0  501    0  0.00000000000E+00  0.00000000000E+00 -0.12213350125E+04  0.12213350125E+04  0.25500000920E-02 0. -1.
    10030    2    1    2    0    0  0.00000000000E+00  0.00000000000E+00 -0.39100568967E+03  0.20516643354E+04  0.20140608471E+04 0.  0.
        4    1    3    3  502    0  0.81312226308E+03 -0.59372718104E+03 -0.17440675197E+03  0.10218116794E+04  0.12699999809E+01 0. -1.
       -4    1    3    3    0  502 -0.81312226308E+03  0.59372718104E+03 -0.21659893770E+03  0.10298526559E+04  0.12699999809E+01 0.  1.
</event>
<event>
 5   0  0.2421737E-04  0.1901199E+04  0.7818609E-02  0.8654260E-01
        2   -1    0    0  501    0  0.00000000000E+00  0.00000000000E+00  0.99310948218E+03  0.99310948219E+03  0.25500000920E-02 0.  1.
       -2   -1    0    0    0  501  0.00000000000E+00  0.00000000000E+00 -0.90990943080E+03  0.90990943080E+03  0.25500000920E-02 0. -1.
    10030    2    1    2    0    0  0.00000000000E+00  0.00000000000E+00  0.83200051383E+02  0.19030189130E+04  0.19011992885E+04 0.  0.
        1    1    3    3  502    0  0.13647828042E+03  0.39636550949E+03 -0.81239163882E+03  0.91417291198E+03  0.50400001928E-02 0. -1.
       -1    1    3    3    0  502 -0.13647828042E+03 -0.39636550949E+03  0.89559169020E+03  0.98884600102E+03  0.50400001928E-02 0.  1.
</event>
<event>
 5   0  0.2463085E-04  0.1317614E+04  0.7818609E-02  0.9015713E-01
       -2   -1    0    0    0  501  0.00000000000E+00  0.00000000000E+00  0.32741981321E+03  0.32741981322E+03  0.25500000920E-02 0. -1.
        2   -1    0    0  501    0  0.00000000000E+00  0.00000000000E+00 -0.13255961411E+04  0.13255961411E+04  0.25500000920E-02 0.  1.
    10030    2    1    2    0    0  0.00000000000E+00  0.00000000000E+00 -0.99817632786E+03  0.16530159543E+04  0.13176136625E+04 0.  0.
        2    1    3    3  502    0 -0.71622850160E+02  0.34262964328E+03  0.20110691134E+03  0.40369406104E+03  0.25500000920E-02 0. -1.
       -2    1    3    3    0  502  0.71622850160E+02 -0.34262964328E+03 -0.11992832392E+04  0.12493218932E+04  0.25500000920E-02 0.  1.
</event>
<event>
 5   0  0.2596061E-04  0.1965438E+04  0.7818609E-02  0.8622952E-01
       -2   -1    0    0    0  501  0.00000000000E+00  0.00000000000E+00  0.50781969128E+03  0.50781969129E+03  0.25500000920E-02 0.  1.
        2   -1    0    0  501    0  0.00000000000E+00  0.00000000000E+00 -0.19017323169E+04  0.19017323169E+04  0.25500000920E-02 0. -1.
    10030    2    1    2    0    0  0.00000000000E+00  0.00000000000E+00 -0.13939126256E+04  0.24095520082E+04  0.19654384937E+04 0.  0.
        5    1    3    3  502    0  0.94442098085E+03 -0.15150337941E+03 -0.97335766937E+03  0.13646726734E+04  0.46999998093E+01 0.  1.
       -5    1    3    3    0  502 -0.94442098085E+03  0.15150337941E+03 -0.42055495625E+03  0.10448793348E+04  0.46999998093E+01 0. -1.
</event>
<event>
 5   0  0.2463085E-04  0.1913661E+04  0.7818609E-02  0.8648086E-01
        2   -1    0    0  501    0  0.00000000000E+00  0.00000000000E+00  0.65781847334E+03  0.65781847334E+03  0.25500000920E-02 0. -1.
       -2   -1    0    0    0  501  0.00000000000E+00  0.00000000000E+00 -0.13917593821E+04  0.13917593821E+04  0.25500000920E-02 0.  1.
    10030    2    1    2    0    0  0.00000000000E+00  0.00000000000E+00 -0.73394090876E+03  0.20495778554E+04  0.19136614455E+04 0.  0.
        2    1    3    3  502    0 -0.44788197700E+03 -0.56962747647E+02  0.53655898462E+03  0.70124073179E+03  0.25500000920E-02 0. -1.
       -2    1    3    3    0  502  0.44788197700E+03  0.56962747647E+02 -0.12704998934E+04  0.13483371237E+04  0.25500000920E-02 0.  1.
</event>
<event>
 5   0  0.1231056E-04  0.2122223E+04  0.7818609E-02  0.8551517E-01
       -1   -1    0    0    0  501  0.00000000000E+00  0.00000000000E+00  0.70894667533E+03  0.70894667535E+03  0.50400001928E-02 0. -1.
        1   -1    0    0  501    0  0.00000000000E+00  0.00000000000E+00 -0.15882113832E+04  0.15882113832E+04  0.50400001928E-02 0.  1.
    10030    2    1    2    0    0  0.00000000000E+00  0.00000000000E+00 -0.87926470786E+03  0.22971580586E+04  0.21222225895E+04 0.  0.
        3    1    3    3  502    0 -0.86416448475E+03  0.34060136072E+03 -0.99491765417E+03  0.13611211160E+04  0.10100000352E+00 0.  1.
       -3    1    3    3    0  502  0.86416448475E+03 -0.34060136072E+03  0.11565294631E+03  0.93603694255E+03  0.10100000352E+00 0. -1.
</event>
<event>
 5   0  0.2421737E-04  0.2008730E+04  0.7818609E-02  0.8602550E-01
        2   -1    0    0  501    0  0.00000000000E+00  0.00000000000E+00  0.10360075477E+04  0.10360075477E+04  0.25500000920E-02 0. -1.
       -2   -1    0    0    0  501  0.00000000000E+00  0.00000000000E+00 -0.97368860525E+03  0.97368860526E+03  0.25500000920E-02 0.  1.
    10030    2    1    2    0    0  0.00000000000E+00  0.00000000000E+00  0.62318942400E+02  0.20096961529E+04  0.20087296922E+04 0.  0.
        1    1    3    3  502    0  0.33552209258E+03  0.18933681837E+03 -0.89682398495E+03  0.97607211076E+03  0.50400001928E-02 0.  1.
       -1    1    3    3    0  502 -0.33552209258E+03 -0.18933681837E+03  0.95914292735E+03  0.10336240421E+04  0.50400001928E-02 0. -1.
</event>
<event>
 5   0  0.1210633E-04  0.2035437E+04  0.7818609E-02  0.8590230E-01
        1   -1    0    0  501    0  0.00000000000E+00  0.00000000000E+00  0.12552929326E+04  0.12552929326E+04  0.50400001928E-02 0. -1.
       -1   -1    0    0    0  501  0.00000000000E+00  0.00000000000E+00 -0.82510720267E+03  0.82510720268E+03  0.50400001928E-02 0.  1.
    10030    2    1    2    0    0  0.00000000000E+00  0.00000000000E+00  0.43018572996E+03  0.20804001353E+04  0.20354372898E+04 0.  0.
        2    1    3    3  502    0 -0.73100572037E+03 -0.27908498433E+03 -0.45004625999E+03  0.90266241077E+03  0.25500000920E-02 0.  1.
       -2    1    3    3    0  502  0.73100572037E+03  0.27908498433E+03  0.88023198995E+03  0.11777377246E+04  0.25500000920E-02 0. -1.
</event>
<event>
 5   0  0.1258546E-04  0.1986215E+04  0.7818609E-02  0.8613093E-01
        1   -1    0    0  501    0  0.00000000000E+00  0.00000000000E+00  0.76879205339E+03  0.76879205341E+03  0.50400001928E-02 0.  1.
       -1   -1    0    0    0  501  0.00000000000E+00  0.00000000000E+00 -0.12828726524E+04  0.12828726524E+04  0.50400001928E-02 0. -1.
    10030    2    1    2    0    0  0.00000000000E+00  0.00000000000E+00 -0.51408059900E+03  0.20516647058E+04  0.19862147927E+04 0.  0.
        4    1    3    3  502    0 -0.31289542020E+03  0.52738978249E+03 -0.10639452575E+04  0.12280165514E+04  0.12699999809E+01 0. -1.
       -4    1    3    3    0  502  0.31289542020E+03 -0.52738978249E+03  0.54986465851E+03  0.82364815440E+03  0.12699999809E+01 0.  1.
</event>
<event>
 5   0  0.2488886E-04  0.1995231E+04  0.7818609E-02  0.8608853E-01
       -2   -1    0    0    0  501  0.00000000000E+00  0.00000000000E+00  0.95506944335E+03  0.95506944335E+03  0.25500000920E-02 0. -1.
        2   -1    0    0  501    0  0.00000000000E+00  0.00000000000E+00 -0.10420573270E+04  0.10420573270E+04  0.25500000920E-02 0.  1.
    10030    2    1    2    0    0  0.00000000000E+00  0.00000000000E+00 -0.86987883697E+02  0.19971267704E+04  0.19952314265E+04 0.  0.
        3    1    3    3  502    0 -0.58882228129E+03 -0.62205566416E+03  0.46843316524E+03  0.97626562408E+03  0.10100000352E+00 0. -1.
       -3    1    3    3    0  502  0.58882228129E+03  0.62205566416E+03 -0.55542104894E+03  0.10208611463E+04  0.10100000352E+00 0.  1.
</event>
<event>
 5   0  0.2596061E-04  0.2005175E+04  0.7818609E-02  0.8604205E-01
       -2   -1    0    0    0  501  0.00000000000E+00  0.00000000000E+00  0.10907845021E+04  0.10907845021E+04  0.25500000920E-02 0. -1.
        2   -1    0    0  501    0  0.00000000000E+00  0.00000000000E+00 -0.92152147586E+03  0.92152147586E+03  0.25500000920E-02 0.  1.
    10030    2    1    2    0    0  0.00000000000E+00  0.00000000000E+00  0.16926302628E+03  0.20123059780E+04  0.20051746500E+04 0.  0.
        5    1    3    3  502    0 -0.12657269421E+03 -0.98840620870E+03 -0.26177544758E+02  0.99683240024E+03  0.46999998093E+01 0.  1.
       -5    1    3    3    0  502  0.12657269421E+03  0.98840620870E+03  0.19544057104E+03  0.10154735778E+04  0.46999998093E+01 0. -1.
</event>
<event>
 5   0  0.9099125E-05  0.2026448E+04  0.7818609E-02  0.8594354E-01
        3   -1    0    0  501    0  0.00000000000E+00  0.00000000000E+00  0.15328897888E+04  0.15328897921E+04  0.10100000352E+00 0.  1.
       -3   -1    0    0    0  501  0.00000000000E+00  0.00000000000E+00 -0.66973022352E+03  0.66973023113E+03  0.10100000352E+00 0. -1.
    10030    2    1    2    0    0  0.00000000000E+00  0.00000000000E+00  0.86315956529E+03  0.22026200233E+04  0.20264477619E+04 0.  0.
        5    1    3    3  502    0 -0.75098544334E+03 -0.61576004248E+03  0.74559153458E+03  0.12243644851E+04  0.46999998093E+01 0.  1.
       -5    1    3    3    0  502  0.75098544334E+03  0.61576004248E+03  0.11756803071E+03  0.97825553813E+03  0.46999998093E+01 0. -1.
</event>
<event>
 5   0  0.2596061E-04  0.1986073E+04  0.7818609E-02  0.8613160E-01
       -2   -1    0    0    0  501  0.00000000000E+00  0.00000000000E+00  0.62836973307E+03  0.62836973308E+03  0.25500000920E-02 0.  1.
        2   -1    0    0  501    0  0.00000000000E+00  0.00000000000E+00 -0.15693336767E+04  0.15693336767E+04  0.25500000920E-02 0. -1.
    10030    2    1    2    0    0  0.00000000000E+00  0.00000000000E+00 -0.94096394364E+03  0.21977034098E+04  0.19860732953E+04 0.  0.
        5    1    3    3  502    0  0.32569728414E+03  0.61968862160E+03 -0.12498053533E+04  0.14325251201E+04  0.46999998093E+01 0. -1.
       -5    1    3    3    0  502 -0.32569728414E+03 -0.61968862160E+03  0.30884140968E+03  0.76517828966E+03  0.46999998093E+01 0.  1.
</event>
<event>
 5   0  0.2421737E-04  0.2016009E+04  0.7818609E-02  0.8599172E-01
       -2   -1    0    0    0  501  0.00000000000E+00  0.00000000000E+00  0.35826140714E+03  0.35826140714E+03  0.25500000920E-02 0.  1.
        2   -1    0    0  501    0  0.00000000000E+00  0.00000000000E+00 -0.28361232797E+04  0.28361232797E+04  0.25500000920E-02 0. -1.
    10030    2    1    2    0    0  0.00000000000E+00  0.00000000000E+00 -0.24778618726E+04  0.31943846869E+04  0.20160094415E+04 0.  0.
        1    1    3    3  502    0 -0.18347098998E+03  0.33797298629E+03 -0.27153209063E+04  0.27424177231E+04  0.50400001928E-02 0. -1.
       -1    1    3    3    0  502  0.18347098998E+03 -0.33797298629E+03  0.23745903373E+03  0.45196696378E+03  0.50400001928E-02 0.  1.
</event>
<event>
 5   0  0.1258546E-04  0.1984937E+04  0.7818609E-02  0.8613696E-01
       -1   -1    0    0    0  501  0.00000000000E+00  0.00000000000E+00  0.88075176214E+03  0.88075176216E+03  0.50400001928E-02 0.  1.
        1   -1    0    0  501    0  0.00000000000E+00  0.00000000000E+00 -0.11183553823E+04  0.11183553823E+04  0.50400001928E-02 0. -1.
    10030    2    1    2    0    0  0.00000000000E+00  0.00000000000E+00 -0.23760362014E+03  0.19991071445E+04  0.19849367483E+04 0.  0.
        4    1    3    3  502    0 -0.25648857578E+03 -0.25361474315E+03 -0.10500024291E+04  0.11102313009E+04  0.12699999809E+01 0. -1.
       -4    1    3    3    0  502  0.25648857578E+03  0.25361474315E+03  0.81239880900E+03  0.88887584353E+03  0.12699999809E+01 0.  1.
</event>
<event>
 5   0  0.9099125E-05  0.1998829E+04  0.7818609E-02  0.8607168E-01
       -3   -1    0    0    0  501  0.00000000000E+00  0.00000000000E+00  0.84387381415E+03  0.84387382020E+03  0.10100000352E+00 0. -1.
        3   -1    0    0  501    0  0.00000000000E+00  0.00000000000E+00 -0.11836240988E+04  0.11836241031E+04  0.10100000352E+00 0.  1.
    10030    2    1    2    0    0  0.00000000000E+00  0.00000000000E+00 -0.33975028468E+03  0.20274979233E+04  0.19988290505E+04 0.  0.
        2    1    3    3  502    0 -0.49449799993E+03  0.69436863109E+03 -0.69904072310E+03  0.11024218795E+04  0.25500000920E-02 0.  1.
       -2    1    3    3    0  502  0.49449799993E+03 -0.69436863109E+03  0.35929043842E+03  0.92507604386E+03  0.25500000920E-02 0. -1.
</event>
<event>
 5   0  0.2596061E-04  0.1749609E+04  0.7818609E-02  0.8733566E-01
       -2   -1    0    0    0  501  0.00000000000E+00  0.00000000000E+00  0.44723299264E+03  0.44723299265E+03  0.25500000920E-02 0.  1.
        2   -1    0    0  501    0  0.00000000000E+00  0.00000000000E+00 -0.17111500513E+04  0.17111500513E+04  0.25500000920E-02 0. -1.
    10030    2    1    2    0    0  0.00000000000E+00  0.00000000000E+00 -0.12639170587E+04  0.21583830440E+04  0.17496088229E+04 0.  0.
        5    1    3    3  502    0 -0.19027521582E+03  0.23653998546E+03  0.38015427466E+03  0.48651329378E+03  0.46999998093E+01 0.  1.
       -5    1    3    3    0  502  0.19027521582E+03 -0.23653998546E+03 -0.16440713334E+04  0.16718697502E+04  0.46999998093E+01 0. -1.
</event>
<event>
 5   0  0.2463085E-04  0.1963464E+04  0.7818609E-02  0.8623895E-01
        2   -1    0    0  501    0  0.00000000000E+00  0.00000000000E+00  0.16816348036E+04  0.16816348036E+04  0.25500000920E-02 0.  1.
       -2   -1    0    0    0  501  0.00000000000E+00  0.00000000000E+00 -0.57313149035E+03  0.57313149036E+03  0.25500000920E-02 0. -1.
    10030    2    1    2    0    0  0.00000000000E+00  0.00000000000E+00  0.11085033133E+04  0.22547662940E+04  0.19634641440E+04 0.  0.
        2    1    3    3  502    0 -0.49532539408E+03  0.37906520271E+03 -0.31635482886E+03  0.69936975319E+03  0.25500000920E-02 0. -1.
       -2    1    3    3    0  502  0.49532539408E+03 -0.37906520271E+03  0.14248581421E+04  0.15553965408E+04  0.25500000920E-02 0.  1.
</event>
<event>
 5   0  0.2488886E-04  0.1708439E+04  0.7818609E-02  0.8756566E-01
       -2   -1    0    0    0  501  0.00000000000E+00  0.00000000000E+00  0.47263273002E+03  0.47263273003E+03  0.25500000920E-02 0. -1.
        2   -1    0    0  501    0  0.00000000000E+00  0.00000000000E+00 -0.15438859524E+04  0.15438859524E+04  0.25500000920E-02 0.  1.
    10030    2    1    2    0    0  0.00000000000E+00  0.00000000000E+00 -0.10712532224E+04  0.20165186825E+04  0.17084390917E+04 0.  0.
        3    1    3    3  502    0  0.16447519645E+03  0.25494879579E+03  0.40689331633E+03  0.50755606567E+03  0.10100000352E+00 0. -1.
       -3    1    3    3    0  502 -0.16447519645E+03 -0.25494879579E+03 -0.14781465387E+04  0.15089626168E+04  0.10100000352E+00 0.  1.
</event>
<event>
 5   0  0.1207228E-04  0.2031014E+04  0.7818609E-02  0.8592256E-01
       -1   -1    0    0    0  501  0.00000000000E+00  0.00000000000E+00  0.13839760879E+04  0.13839760879E+04  0.50400001928E-02 0.  1.
        1   -1    0    0  501    0  0.00000000000E+00  0.00000000000E+00 -0.74513873988E+03  0.74513873990E+03  0.50400001928E-02 0. -1.
    10030    2    1    2    0    0  0.00000000000E+00  0.00000000000E+00  0.63883734800E+03  0.21291148278E+04  0.20310137352E+04 0.  0.
        1    1    3    3  502    0 -0.72238086388E+03 -0.71196331206E+03  0.26670747124E+03  0.10487415055E+04  0.50400001928E-02 0. -1.
       -1    1    3    3    0  502  0.72238086388E+03  0.71196331206E+03  0.37212987675E+03  0.10803733222E+04  0.50400001928E-02 0.  1.
</event>
<event>
 5   0  0.2488886E-04  0.2067808E+04  0.7818609E-02  0.8575558E-01
       -2   -1    0    0    0  501  0.00000000000E+00  0.00000000000E+00  0.13347312442E+04  0.13347312442E+04  0.25500000920E-02 0. -1.
        2   -1    0    0  501    0  0.00000000000E+00  0.00000000000E+00 -0.80087855211E+03  0.80087855211E+03  0.25500000920E-02 0.  1.
    10030    2    1    2    0    0  0.00000000000E+00  0.00000000000E+00  0.53385269204E+03  0.21356097963E+04  0.20678081403E+04 0.  0.
        3    1    3    3  502    0 -0.55981930618E+02  0.10230532469E+04  0.40998048118E+03  0.11035650989E+04  0.10100000352E+00 0. -1.
       -3    1    3    3    0  502  0.55981930618E+02 -0.10230532469E+04  0.12387221086E+03  0.10320446973E+04  0.10100000352E+00 0.  1.
</event>
<event>
 5   0  0.2596061E-04  0.2014763E+04  0.7818609E-02  0.8599750E-01
        2   -1    0    0  501    0  0.00000000000E+00  0.00000000000E+00  0.18658608622E+04  0.18658608622E+04  0.25500000920E-02 0.  1.
       -2   -1    0    0    0  501  0.00000000000E+00  0.00000000000E+00 -0.54388680627E+03  0.54388680627E+03  0.25500000920E-02 0. -1.
    10030    2    1    2    0    0  0.00000000000E+00  0.00000000000E+00  0.13219740559E+04  0.24097476685E+04  0.20147626215E+04 0.  0.
        5    1    3    3  502    0 -0.96849225296E+03  0.18845525654E+02  0.33025803854E+03  0.10234377655E+04  0.46999998093E+01 0.  1.
       -5    1    3    3    0  502  0.96849225296E+03 -0.18845525654E+02  0.99171601738E+03  0.13863099029E+04  0.46999998093E+01 0. -1.
</event>
<event>
 5   0  0.1207228E-04  0.1985631E+04  0.7818609E-02  0.8613368E-01
       -1   -1    0    0    0  501  0.00000000000E+00  0.00000000000E+00  0.11901485204E+04  0.11901485204E+04  0.50400001928E-02 0. -1.
        1   -1    0    0  501    0  0.00000000000E+00  0.00000000000E+00 -0.82820133179E+03  0.82820133181E+03  0.50400001928E-02 0.  1.
    10030    2    1    2    0    0  0.00000000000E+00  0.00000000000E+00  0.36194718857E+03  0.20183498522E+04  0.19856309724E+04 0.  0.
        1    1    3    3  502    0 -0.41531940540E+03  0.40601029513E+02 -0.73472790999E+03  0.84496375889E+03  0.50400001928E-02 0.  1.
       -1    1    3    3    0  502  0.41531940540E+03 -0.40601029513E+02  0.10966750986E+04  0.11733860933E+04  0.50400001928E-02 0. -1.
</event>
<event>
 5   0  0.1210633E-04  0.1997200E+04  0.7818609E-02  0.8607931E-01
       -1   -1    0    0    0  501  0.00000000000E+00  0.00000000000E+00  0.15042461973E+04  0.15042461973E+04  0.50400001928E-02 0. -1.
        1   -1    0    0  501    0  0.00000000000E+00  0.00000000000E+00 -0.66292501944E+03  0.66292501946E+03  0.50400001928E-02 0.  1.
    10030    2    1    2    0    0  0.00000000000E+00  0.00000000000E+00  0.84132117784E+03  0.21671712167E+04  0.19972004803E+04 0.  0.
        2    1    3    3  502    0  0.11584654247E+03 -0.96809336964E+03  0.18647591769E+03  0.99267238384E+03  0.25500000920E-02 0.  1.
       -2    1    3    3    0  502 -0.11584654247E+03  0.96809336964E+03  0.65484526015E+03  0.11744988329E+04  0.25500000920E-02 0. -1.
</event>
<event>
 5   0  0.2540506E-04  0.1945482E+04  0.7818609E-02  0.8632543E-01
        2   -1    0    0  501    0  0.00000000000E+00  0.00000000000E+00  0.19456384588E+04  0.19456384588E+04  0.25500000920E-02 0.  1.
       -2   -1    0    0    0  501  0.00000000000E+00  0.00000000000E+00 -0.48633119573E+03  0.48633119573E+03  0.25500000920E-02 0. -1.
    10030    2    1    2    0    0  0.00000000000E+00  0.00000000000E+00  0.14593072631E+04  0.24319696545E+04  0.19454816145E+04 0.  0.
        4    1    3    3  502    0  0.30058716583E+03  0.66965977383E+03  0.15275665597E+04  0.16947737501E+04  0.12699999809E+01 0.  1.
       -4    1    3    3    0  502 -0.30058716583E+03 -0.66965977383E+03 -0.68259296650E+02  0.73719590437E+03  0.12699999809E+01 0. -1.
</event>
<event>
 5   0  0.2540506E-04  0.1480511E+04  0.7818609E-02  0.8897517E-01
       -2   -1    0    0    0  501  0.00000000000E+00  0.00000000000E+00  0.14428805297E+04  0.14428805297E+04  0.25500000920E-02 0. -1.
        2   -1    0    0  501    0  0.00000000000E+00  0.00000000000E+00 -0.37978094003E+03  0.37978094004E+03  0.25500000920E-02 0.  1.
    10030    2    1    2    0    0  0.00000000000E+00  0.00000000000E+00  0.10630995897E+04  0.18226614697E+04  0.14805114305E+04 0.  0.
        4    1    3    3  502    0 -0.61650329152E+03 -0.54017741758E+02  0.10315997967E+04  0.12029937566E+04  0.12699999809E+01 0. -1.
       -4    1    3    3    0  502  0.61650329152E+03  0.54017741758E+02  0.31499792948E+02  0.61966771316E+03  0.12699999809E+01 0.  1.
</event>
<event>
 5   0  0.2463085E-04  0.1993049E+04  0.7818609E-02  0.8609877E-01
        2   -1    0    0  501    0  0.00000000000E+00  0.00000000000E+00  0.10887262097E+04  0.10887262097E+04  0.25500000920E-02 0. -1.
       -2   -1    0    0    0  501  0.00000000000E+00  0.00000000000E+00 -0.91213114685E+03  0.91213114685E+03  0.25500000920E-02 0.  1.
    10030    2    1    2    0    0  0.00000000000E+00  0.00000000000E+00  0.17659506286E+03  0.20008573566E+04  0.19930490072E+04 0.  0.
        2    1    3    3  502    0 -0.22760921877E+03 -0.37904905511E+03  0.98486803349E+03  0.10795597186E+04  0.25500000920E-02 0. -1.
       -2    1    3    3    0  502  0.22760921877E+03  0.37904905511E+03 -0.80827297063E+03  0.92129763796E+03  0.25500000920E-02 0.  1.
</event>
<event>
 5   0  0.2421737E-04  0.1996211E+04  0.7818609E-02  0.8608394E-01
       -2   -1    0    0    0  501  0.00000000000E+00  0.00000000000E+00  0.77046841662E+03  0.77046841662E+03  0.25500000920E-02 0. -1.
        2   -1    0    0  501    0  0.00000000000E+00  0.00000000000E+00 -0.12929979962E+04  0.12929979962E+04  0.25500000920E-02 0.  1.
    10030    2    1    2    0    0  0.00000000000E+00  0.00000000000E+00 -0.52252957956E+03  0.20634664128E+04  0.19962105288E+04 0.  0.
        1    1    3    3  502    0  0.65820847779E+03  0.18067312790E+03  0.49151051522E+03  0.84110865289E+03  0.50400001928E-02 0. -1.
       -1    1    3    3    0  502 -0.65820847779E+03 -0.18067312790E+03 -0.10140400948E+04  0.12223577599E+04  0.50400001928E-02 0.  1.
</event>
<event>
 5   0  0.2540506E-04  0.1984716E+04  0.7818609E-02  0.8613800E-01
       -2   -1    0    0    0  501  0.00000000000E+00  0.00000000000E+00  0.10945764789E+04  0.10945764789E+04  0.25500000920E-02 0. -1.
        2   -1    0    0  501    0  0.00000000000E+00  0.00000000000E+00 -0.89968539026E+03  0.89968539027E+03  0.25500000920E-02 0.  1.
    10030    2    1    2    0    0  0.00000000000E+00  0.00000000000E+00  0.19489108860E+03  0.19942618691E+04  0.19847160669E+04 0.  0.
        4    1    3    3  502    0 -0.65245585164E+02  0.79165164434E+03 -0.50022917715E+03  0.93872261874E+03  0.12699999809E+01 0.  1.
       -4    1    3    3    0  502  0.65245585164E+02 -0.79165164434E+03  0.69512026575E+03  0.10555392504E+04  0.12699999809E+01 0. -1.
</event>
<event>
 5   0  0.2488886E-04  0.2007359E+04  0.7818609E-02  0.8603188E-01
       -2   -1    0    0    0  501  0.00000000000E+00  0.00000000000E+00  0.41740820086E+03  0.41740820087E+03  0.25500000920E-02 0.  1.
        2   -1    0    0  501    0  0.00000000000E+00  0.00000000000E+00 -0.24133985418E+04  0.24133985418E+04  0.25500000920E-02 0. -1.
    10030    2    1    2    0    0  0.00000000000E+00  0.00000000000E+00 -0.19959903409E+04  0.28308067427E+04  0.20073588053E+04 0.  0.
        3    1    3    3  502    0  0.16115794893E+03 -0.50843973288E+03 -0.21970006512E+04  0.22608172677E+04  0.10100000352E+00 0. -1.
       -3    1    3    3    0  502 -0.16115794893E+03  0.50843973288E+03  0.20101031029E+03  0.56998947492E+03  0.10100000352E+00 0.  1.
</event>
<event>
 5   0  0.1207228E-04  0.1979055E+04  0.7818609E-02  0.8616476E-01
       -1   -1    0    0    0  501  0.00000000000E+00  0.00000000000E+00  0.37965461807E+03  0.37965461811E+03  0.50400001928E-02 0. -1.
        1   -1    0    0  501    0  0.00000000000E+00  0.00000000000E+00 -0.25790941427E+04  0.25790941427E+04  0.50400001928E-02 0.  1.
    10030    2    1    2    0    0  0.00000000000E+00  0.00000000000E+00 -0.21994395246E+04  0.29587487608E+04  0.19790553320E+04 0.  0.
        1    1    3    3  502    0  0.65687148896E+03 -0.73967222422E+03 -0.10640311043E+04  0.14528445696E+04  0.50400001928E-02 0. -1.
       -1    1    3    3    0  502 -0.65687148896E+03  0.73967222422E+03 -0.11354084203E+04  0.15059041912E+04  0.50400001928E-02 0.  1.
</event>
<event>
 5   0  0.1231056E-04  0.1856019E+04  0.7818609E-02  0.8677064E-01
       -1   -1    0    0    0  501  0.00000000000E+00  0.00000000000E+00  0.10560752154E+04  0.10560752154E+04  0.50400001928E-02 0.  1.
        1   -1    0    0  501    0  0.00000000000E+00  0.00000000000E+00 -0.81547397109E+03  0.81547397110E+03  0.50400001928E-02 0. -1.
    10030    2    1    2    0    0  0.00000000000E+00  0.00000000000E+00  0.24060124433E+03  0.18715491865E+04  0.18560192345E+04 0.  0.
        3    1    3    3  502    0  0.73508773728E+02 -0.29883894258E+02 -0.81204678080E+03  0.81591456131E+03  0.10100000352E+00 0. -1.
       -3    1    3    3    0  502 -0.73508773728E+02  0.29883894258E+02  0.10526480251E+04  0.10556346252E+04  0.10100000352E+00 0.  1.
</event>
<event>
 5   0  0.1258546E-04  0.2024716E+04  0.7818609E-02  0.8595151E-01
        1   -1    0    0  501    0  0.00000000000E+00  0.00000000000E+00  0.17028000630E+04  0.17028000630E+04  0.50400001928E-02 0. -1.
       -1   -1    0    0    0  501  0.00000000000E+00  0.00000000000E+00 -0.60187288620E+03  0.60187288622E+03  0.50400001928E-02 0.  1.
    10030    2    1    2    0    0  0.00000000000E+00  0.00000000000E+00  0.11009271768E+04  0.23046729492E+04  0.20247164627E+04 0.  0.
        4    1    3    3  502    0  0.96376997032E+03 -0.16531626569E+03  0.25214673631E+03  0.10098324678E+04  0.12699999809E+01 0.  1.
       -4    1    3    3    0  502 -0.96376997032E+03  0.16531626569E+03  0.84878044049E+03  0.12948404815E+04  0.12699999809E+01 0. -1.
</event>
<event>
 5   0  0.1207228E-04  0.2005803E+04  0.7818609E-02  0.8603912E-01
       -1   -1    0    0    0  501  0.00000000000E+00  0.00000000000E+00  0.79549840032E+03  0.79549840033E+03  0.50400001928E-02 0.  1.
        1   -1    0    0  501    0  0.00000000000E+00  0.00000000000E+00 -0.12643787437E+04  0.12643787437E+04  0.50400001928E-02 0. -1.
    10030    2    1    2    0    0  0.00000000000E+00  0.00000000000E+00 -0.46888034341E+03  0.20598771441E+04  0.20058028498E+04 0.  0.
        1    1    3    3  502    0  0.11758249642E+03  0.45225426466E+03 -0.11457478690E+04  0.12373753443E+04  0.50400001928E-02 0. -1.
       -1    1    3    3    0  502 -0.11758249642E+03 -0.45225426466E+03  0.67686752559E+03  0.82250179975E+03  0.50400001928E-02 0.  1.
</event>
<event>
 5   0  0.2421737E-04  0.2022031E+04  0.7818609E-02  0.8596389E-01
        2   -1    0    0  501    0  0.00000000000E+00  0.00000000000E+00  0.15135622273E+04  0.15135622273E+04  0.25500000920E-02 0.  1.
       -2   -1    0    0    0  501  0.00000000000E+00  0.00000000000E+00 -0.67532867001E+03  0.67532867002E+03  0.25500000920E-02 0. -1.
    10030    2    1    2    0    0  0.00000000000E+00  0.00000000000E+00  0.83823355724E+03  0.21888908973E+04  0.20220306288E+04 0.  0.
        1    1    3    3  502    0 -0.95886891528E+03  0.32031209733E+03  0.43109953474E+03  0.10990342330E+04  0.50400001928E-02 0.  1.
       -1    1    3    3    0  502  0.95886891528E+03 -0.32031209733E+03  0.40713402250E+03  0.10898566643E+04  0.50400001928E-02 0. -1.
</event>
<event>
 5   0  0.2540506E-04  0.2062560E+04  0.7818609E-02  0.8577918E-01
       -2   -1    0    0    0  501  0.00000000000E+00  0.00000000000E+00  0.73275601124E+03  0.73275601125E+03  0.25500000920E-02 0.  1.
        2   -1    0    0  501    0  0.00000000000E+00  0.00000000000E+00 -0.14514229309E+04  0.14514229309E+04  0.25500000920E-02 0. -1.
    10030    2    1    2    0    0  0.00000000000E+00  0.00000000000E+00 -0.71866691963E+03  0.21841789421E+04  0.20625604257E+04 0.  0.
        4    1    3    3  502    0  0.87146227519E+03  0.54679110556E+03 -0.43503466507E+03  0.11169976647E+04  0.12699999809E+01 0.  1.
       -4    1    3    3    0  502 -0.87146227519E+03 -0.54679110556E+03 -0.28363225457E+03  0.10671812774E+04  0.12699999809E+01 0. -1.
</event>
<event>
 5   0  0.2463085E-04  0.1929739E+04  0.7818609E-02  0.8640193E-01
       -2   -1    0    0    0  501  0.00000000000E+00  0.00000000000E+00  0.56320913096E+03  0.56320913097E+03  0.25500000920E-02 0.  1.
        2   -1    0    0  501    0  0.00000000000E+00  0.00000000000E+00 -0.16529793483E+04  0.16529793483E+04  0.25500000920E-02 0. -1.
    10030    2    1    2    0    0  0.00000000000E+00  0.00000000000E+00 -0.10897702173E+04  0.22161884792E+04  0.19297389069E+04 0.  0.
        2    1    3    3  502    0  0.11402318048E+03  0.48343570500E+03 -0.14948755914E+04  0.15752347128E+04  0.25500000920E-02 0. -1.
       -2    1    3    3    0  502 -0.11402318048E+03 -0.48343570500E+03  0.40510537412E+03  0.64095376643E+03  0.25500000920E-02 0.  1.
</event>
<event>
 5   0  0.1324930E-04  0.1839105E+04  0.7818609E-02  0.8685776E-01
        1   -1    0    0  501    0  0.00000000000E+00  0.00000000000E+00  0.11637122655E+04  0.11637122655E+04  0.50400001928E-02 0. -1.
       -1   -1    0    0    0  501  0.00000000000E+00  0.00000000000E+00 -0.72662043659E+03  0.72662043660E+03  0.50400001928E-02 0.  1.
    10030    2    1    2    0    0  0.00000000000E+00  0.00000000000E+00  0.43709182892E+03  0.18903327021E+04  0.18391053417E+04 0.  0.
        5    1    3    3  502    0  0.73343731823E+03 -0.10758105466E+03 -0.34071560497E+03  0.81585120982E+03  0.46999998093E+01 0.  1.
       -5    1    3    3    0  502 -0.73343731823E+03  0.10758105466E+03  0.77780743389E+03  0.10744814923E+04  0.46999998093E+01 0. -1.
</event>
<event>
 5   0  0.1231056E-04  0.1957788E+04  0.7818609E-02  0.8626615E-01
        1   -1    0    0  501    0  0.00000000000E+00  0.00000000000E+00  0.97834197370E+03  0.97834197371E+03  0.50400001928E-02 0.  1.
       -1   -1    0    0    0  501  0.00000000000E+00  0.00000000000E+00 -0.97944613271E+03  0.97944613272E+03  0.50400001928E-02 0. -1.
    10030    2    1    2    0    0  0.00000000000E+00  0.00000000000E+00 -0.11041590130E+01  0.19577881064E+04  0.19577877951E+04 0.  0.
        3    1    3    3  502    0 -0.49770880340E+02  0.70827642526E+03 -0.67442206828E+03  0.97927410437E+03  0.10100000352E+00 0. -1.
       -3    1    3    3    0  502  0.49770880340E+02 -0.70827642526E+03  0.67331790926E+03  0.97851400207E+03  0.10100000352E+00 0.  1.
</event>
<event>
 5   0  0.2421737E-04  0.1754833E+04  0.7818609E-02  0.8730695E-01
       -2   -1    0    0    0  501  0.00000000000E+00  0.00000000000E+00  0.80524682080E+03  0.80524682080E+03  0.25500000920E-02 0. -1.
        2   -1    0    0  501    0  0.00000000000E+00  0.00000000000E+00 -0.95605386460E+03  0.95605386460E+03  0.25500000920E-02 0.  1.
    10030    2    1    2    0    0  0.00000000000E+00  0.00000000000E+00 -0.15080704380E+03  0.17613006854E+04  0.17548325675E+04 0.  0.
        1    1    3    3  502    0  0.39706752178E+03 -0.65902754727E+03  0.34790855467E+03  0.84440528619E+03  0.50400001928E-02 0. -1.
       -1    1    3    3    0  502 -0.39706752178E+03  0.65902754727E+03 -0.49871559847E+03  0.91689539921E+03  0.50400001928E-02 0.  1.
</event>
<event>
 5   0  0.1258546E-04  0.1988872E+04  0.7818609E-02  0.8611841E-01
       -1   -1    0    0    0  501  0.00000000000E+00  0.00000000000E+00  0.65489186396E+03  0.65489186398E+03  0.50400001928E-02 0. -1.
        1   -1    0    0  501    0  0.00000000000E+00  0.00000000000E+00 -0.15100245167E+04  0.15100245167E+04  0.50400001928E-02 0.  1.
    10030    2    1    2    0    0  0.00000000000E+00  0.00000000000E+00 -0.85513265275E+03  0.21649163807E+04  0.19888718113E+04 0.  0.
        4    1    3    3  502    0  0.56024292940E+03 -0.61893372845E+03  0.16058437128E+03  0.85014119613E+03  0.12699999809E+01 0. -1.
       -4    1    3    3    0  502 -0.56024292940E+03  0.61893372845E+03 -0.10157170240E+04  0.13147751846E+04  0.12699999809E+01 0.  1.
</event>
<event>
 5   0  0.1231056E-04  0.2003047E+04  0.7818609E-02  0.8605197E-01
       -1   -1    0    0    0  501  0.00000000000E+00  0.00000000000E+00  0.10710638184E+04  0.10710638184E+04  0.50400001928E-02 0. -1.
        1   -1    0    0  501    0  0.00000000000E+00  0.00000000000E+00 -0.93649806034E+03  0.93649806035E+03  0.50400001928E-02 0.  1.
    10030    2    1    2    0    0  0.00000000000E+00  0.00000000000E+00  0.13456575801E+03  0.20075618787E+04  0.20030468676E+04 0.  0.
        3    1    3    3  502    0 -0.31620011100E+03 -0.62857105306E+03  0.78160609690E+03  0.10516616280E+04  0.10100000352E+00 0. -1.
       -3    1    3    3    0  502  0.31620011100E+03  0.62857105306E+03 -0.64704033889E+03  0.95590025070E+03  0.10100000352E+00 0.  1.
</event>
<event>
 5   0  0.1207228E-04  0.1991801E+04  0.7818609E-02  0.8610464E-01
        1   -1    0    0  501    0  0.00000000000E+00  0.00000000000E+00  0.16871889001E+04  0.16871889001E+04  0.50400001928E-02 0. -1.
       -1   -1    0    0    0  501  0.00000000000E+00  0.00000000000E+00 -0.58785223578E+03  0.58785223580E+03  0.50400001928E-02 0.  1.
    10030    2    1    2    0    0  0.00000000000E+00  0.00000000000E+00  0.10993366643E+04  0.22750411359E+04  0.19918009611E+04 0.  0.
        1    1    3    3  502    0 -0.26546065888E+03  0.56455138747E+03 -0.33701539725E+03  0.70906065221E+03  0.50400001928E-02 0.  1.
       -1    1    3    3    0  502  0.26546065888E+03 -0.56455138747E+03  0.14363520615E+04  0.15659804837E+04  0.50400001928E-02 0. -1.
</event>
<event>
 5   0  0.1324930E-04  0.1979293E+04  0.7818609E-02  0.8616363E-01
        1   -1    0    0  501    0  0.00000000000E+00  0.00000000000E+00  0.19347601559E+04  0.19347601559E+04  0.50400001928E-02 0. -1.
       -1   -1    0    0    0  501  0.00000000000E+00  0.00000000000E+00 -0.50621284044E+03  0.50621284046E+03  0.50400001928E-02 0.  1.
    10030    2    1    2    0    0  0.00000000000E+00  0.00000000000E+00  0.14285473155E+04  0.24409729964E+04  0.19792932417E+04 0.  0.
        5    1    3    3  502    0 -0.77719571263E+03 -0.54177271866E+03  0.36149488316E+03  0.10140273640E+04  0.46999998093E+01 0.  1.
       -5    1    3    3    0  502  0.77719571263E+03  0.54177271866E+03  0.10670524323E+04  0.14269456324E+04  0.46999998093E+01 0. -1.
</event>
<event>
 5   0  0.1231056E-04  0.1970633E+04  0.7818609E-02  0.8620475E-01
       -1   -1    0    0    0  501  0.00000000000E+00  0.00000000000E+00  0.90079599603E+03  0.90079599605E+03  0.50400001928E-02 0.  1.
        1   -1    0    0  501    0  0.00000000000E+00  0.00000000000E+00 -0.10777671141E+04  0.10777671141E+04  0.50400001928E-02 0. -1.
    10030    2    1    2    0    0  0.00000000000E+00  0.00000000000E+00 -0.17697111803E+03  0.19785631101E+04  0.19706326913E+04 0.  0.
        3    1    3    3  502    0 -0.69933812164E+03 -0.45601841879E+03  0.43690001406E+03  0.94228882999E+03  0.10100000352E+00 0.  1.
       -3    1    3    3    0  502  0.69933812164E+03  0.45601841879E+03 -0.61387113209E+03  0.10362742801E+04  0.10100000352E+00 0. -1.
</event>
<event>
 5   0  0.2540506E-04  0.1739408E+04  0.7818609E-02  0.8739202E-01
       -2   -1    0    0    0  501  0.00000000000E+00  0.00000000000E+00  0.65390372946E+03  0.65390372947E+03  0.25500000920E-02 0. -1.
        2   -1    0    0  501    0  0.00000000000E+00  0.00000000000E+00 -0.11567221071E+04  0.11567221071E+04  0.25500000920E-02 0.  1.
    10030    2    1    2    0    0  0.00000000000E+00  0.00000000000E+00 -0.50281837766E+03  0.18106258366E+04  0.17394078300E+04 0.  0.
        4    1    3    3  502    0 -0.61785753462E+03  0.50611351371E+03  0.10690004351E+03  0.80580894389E+03  0.12699999809E+01 0. -1.
       -4    1    3    3    0  502  0.61785753462E+03 -0.50611351371E+03 -0.60971842117E+03  0.10048168927E+04  0.12699999809E+01 0.  1.
</event>
<event>
 5   0  0.2421737E-04  0.1795765E+04  0.7818609E-02  0.8708555E-01
        2   -1    0    0  501    0  0.00000000000E+00  0.00000000000E+00  0.96278806944E+03  0.96278806944E+03  0.25500000920E-02 0. -1.
       -2   -1    0    0    0  501  0.00000000000E+00  0.00000000000E+00 -0.83735208616E+03  0.83735208617E+03  0.25500000920E-02 0.  1.
    10030    2    1    2    0    0  0.00000000000E+00  0.00000000000E+00  0.12543598327E+03  0.18001401556E+04  0.17957645709E+04 0.  0.
        1    1    3    3  502    0 -0.87716313853E+02 -0.47033022846E+03  0.82436397620E+03  0.95314250813E+03  0.50400001928E-02 0. -1.
       -1    1    3    3    0  502  0.87716313853E+02  0.47033022846E+03 -0.69892799293E+03  0.84699764748E+03  0.50400001928E-02 0.  1.
</event>
<event>
 5   0  0.1258546E-04  0.1980243E+04  0.7818609E-02  0.8615914E-01
       -1   -1    0    0    0  501  0.00000000000E+00  0.00000000000E+00  0.13081737359E+04  0.13081737359E+04  0.50400001928E-02 0.  1.
        1   -1    0    0  501    0  0.00000000000E+00  0.00000000000E+00 -0.74939599357E+03  0.74939599358E+03  0.50400001928E-02 0. -1.
    10030    2    1    2    0    0  0.00000000000E+00  0.00000000000E+00  0.55877774230E+03  0.20575697295E+04  0.19802425675E+04 0.  0.
        4    1    3    3  502    0 -0.69016148896E+02  0.18647244819E+02 -0.74670988446E+03  0.75012546484E+03  0.12699999809E+01 0. -1.
       -4    1    3    3    0  502  0.69016148896E+02 -0.18647244819E+02  0.13054876268E+04  0.13074442646E+04  0.12699999809E+01 0.  1.
</event>
<event>
 5   0  0.2596061E-04  0.2068122E+04  0.7818609E-02  0.8575417E-01
        2   -1    0    0  501    0  0.00000000000E+00  0.00000000000E+00  0.15803627263E+04  0.15803627264E+04  0.25500000920E-02 0. -1.
       -2   -1    0    0    0  501  0.00000000000E+00  0.00000000000E+00 -0.67660571092E+03  0.67660571092E+03  0.25500000920E-02 0.  1.
    10030    2    1    2    0    0  0.00000000000E+00  0.00000000000E+00  0.90375701543E+03  0.22569684373E+04  0.20681222846E+04 0.  0.
        5    1    3    3  502    0 -0.69493507332E+03 -0.64529091370E+02  0.12845449222E+04  0.14619085152E+04  0.46999998093E+01 0. -1.
       -5    1    3    3    0  502  0.69493507332E+03  0.64529091370E+02 -0.38078790674E+03  0.79505992207E+03  0.46999998093E+01 0.  1.
</event>
<event>
 5   0  0.1258546E-04  0.1927005E+04  0.7818609E-02  0.8641530E-01
        1   -1    0    0  501    0  0.00000000000E+00  0.00000000000E+00  0.15140879177E+04  0.15140879177E+04  0.50400001928E-02 0. -1.
       -1   -1    0    0    0  501  0.00000000000E+00  0.00000000000E+00 -0.61313298852E+03  0.61313298854E+03  0.50400001928E-02 0.  1.
    10030    2    1    2    0    0  0.00000000000E+00  0.00000000000E+00  0.90095492922E+03  0.21272209063E+04  0.19270051893E+04 0.  0.
        4    1    3    3  502    0 -0.37544625618E+03  0.88733272754E+03  0.44601023212E+03  0.10617184187E+04  0.12699999809E+01 0.  1.
       -4    1    3    3    0  502  0.37544625618E+03 -0.88733272754E+03  0.45494469710E+03  0.10655024875E+04  0.12699999809E+01 0. -1.
</event>
<event>
 5   0  0.1207228E-04  0.1980674E+04  0.7818609E-02  0.8615710E-01
       -1   -1    0    0    0  501  0.00000000000E+00  0.00000000000E+00  0.72935445479E+03  0.72935445481E+03  0.50400001928E-02 0. -1.
        1   -1    0    0  501    0  0.00000000000E+00  0.00000000000E+00 -0.13447064148E+04  0.13447064148E+04  0.50400001928E-02 0.  1.
    10030    2    1    2    0    0  0.00000000000E+00  0.00000000000E+00 -0.61535195997E+03  0.20740608696E+04  0.19806742428E+04 0.  0.
        1    1    3    3  502    0 -0.93251681308E+02 -0.71584306686E+03 -0.10176093012E+04  0.12476601550E+04  0.50400001928E-02 0.  1.
       -1    1    3    3    0  502  0.93251681308E+02  0.71584306686E+03  0.40225734125E+03  0.82640071458E+03  0.50400001928E-02 0. -1.
</event>
<event>
 5   0  0.1207228E-04  0.1941334E+04  0.7818609E-02  0.8634551E-01
       -1   -1    0    0    0  501  0.00000000000E+00  0.00000000000E+00  0.73871281639E+03  0.73871281641E+03  0.50400001928E-02 0. -1.
        1   -1    0    0  501    0  0.00000000000E+00  0.00000000000E+00 -0.12754542962E+04  0.12754542963E+04  0.50400001928E-02 0.  1.
    10030    2    1    2    0    0  0.00000000000E+00  0.00000000000E+00 -0.53674147985E+03  0.20141671127E+04  0.19413340108E+04 0.  0.
        1    1    3    3  502    0  0.89826779569E+02 -0.35292666359E+03 -0.12018872416E+04  0.12558499201E+04  0.50400001928E-02 0.  1.
       -1    1    3    3    0  502 -0.89826779569E+02  0.35292666359E+03  0.66514576174E+03  0.75831719259E+03  0.50400001928E-02 0. -1.
</event>
<event>
 5   0  0.1231056E-04  0.1874370E+04  0.7818609E-02  0.8667720E-01
       -1   -1    0    0    0  501  0.00000000000E+00  0.00000000000E+00  0.13751256316E+04  0.13751256316E+04  0.50400001928E-02 0.  1.
        1   -1    0    0  501    0  0.00000000000E+00  0.00000000000E+00 -0.63871679905E+03  0.63871679907E+03  0.50400001928E-02 0. -1.
    10030    2    1    2    0    0  0.00000000000E+00  0.00000000000E+00  0.73640883257E+03  0.20138424307E+04  0.18743701254E+04 0.  0.
        3    1    3    3  502    0  0.26169845173E+03 -0.71270836026E+03  0.95852077553E+03  0.12227842711E+04  0.10100000352E+00 0.  1.
       -3    1    3    3    0  502 -0.26169845173E+03  0.71270836026E+03 -0.22211194296E+03  0.79105815957E+03  0.10100000352E+00 0. -1.
</event>
<event>
 5   0  0.2596061E-04  0.1919813E+04  0.7818609E-02  0.8645057E-01
       -2   -1    0    0    0  501  0.00000000000E+00  0.00000000000E+00  0.76557883676E+03  0.76557883677E+03  0.25500000920E-02 0. -1.
        2   -1    0    0  501    0  0.00000000000E+00  0.00000000000E+00 -0.12035601607E+04  0.12035601607E+04  0.25500000920E-02 0.  1.
    10030    2    1    2    0    0  0.00000000000E+00  0.00000000000E+00 -0.43798132389E+03  0.19691389974E+04  0.19198126865E+04 0.  0.
        5    1    3    3  502    0 -0.67266192891E+03  0.12117868582E+03  0.47229903724E+03  0.83081093823E+03  0.46999998093E+01 0. -1.
       -5    1    3    3    0  502  0.67266192891E+03 -0.12117868582E+03 -0.91028036113E+03  0.11383280592E+04  0.46999998093E+01 0.  1.
</event>
<event>
 5   0  0.2421737E-04  0.1919902E+04  0.7818609E-02  0.8645013E-01
        2   -1    0    0  501    0  0.00000000000E+00  0.00000000000E+00  0.15529002689E+04  0.15529002689E+04  0.25500000920E-02 0.  1.
       -2   -1    0    0    0  501  0.00000000000E+00  0.00000000000E+00 -0.59340935753E+03  0.59340935754E+03  0.25500000920E-02 0. -1.
    10030    2    1    2    0    0  0.00000000000E+00  0.00000000000E+00  0.95949091134E+03  0.21463096264E+04  0.19199016130E+04 0.  0.
        1    1    3    3  502    0 -0.83255230103E+02 -0.78460165732E+03  0.10910116388E+04  0.13464165737E+04  0.50400001928E-02 0.  1.
       -1    1    3    3    0  502  0.83255230103E+02  0.78460165732E+03 -0.13152072742E+03  0.79989305271E+03  0.50400001928E-02 0. -1.
</event>
<event>
 5   0  0.1258546E-04  0.2019467E+04  0.7818609E-02  0.8597573E-01
        1   -1    0    0  501    0  0.00000000000E+00  0.00000000000E+00  0.12175119908E+04  0.12175119908E+04  0.50400001928E-02 0.  1.
       -1   -1    0    0    0  501  0.00000000000E+00  0.00000000000E+00 -0.83741413958E+03  0.83741413959E+03  0.50400001928E-02 0. -1.
    10030    2    1    2    0    0  0.00000000000E+00  0.00000000000E+00  0.38009785124E+03  0.20549261304E+04  0.20194670151E+04 0.  0.
        4    1    3    3  502    0 -0.67755239445E+02 -0.93205234554E+03  0.57918734956E+03  0.10994416520E+04  0.12699999809E+01 0. -1.
       -4    1    3    3    0  502  0.67755239445E+02  0.93205234554E+03 -0.19908949832E+03  0.95548447844E+03  0.12699999809E+01 0.  1.
</event>
<event>
 5   0  0.1231056E-04  0.2011088E+04  0.7818609E-02  0.8601454E-01
        1   -1    0    0  501    0  0.00000000000E+00  0.00000000000E+00  0.11512386425E+04  0.11512386425E+04  0.50400001928E-02 0. -1.
       -1   -1    0    0    0  501  0.00000000000E+00  0.00000000000E+00 -0.87828802546E+03  0.87828802547E+03  0.50400001928E-02 0.  1.
    10030    2    1    2    0    0  0.00000000000E+00  0.00000000000E+00  0.27295061703E+03  0.20295266680E+04  0.20110883761E+04 0.  0.
        3    1    3    3  502    0  0.60068311241E+02 -0.10022620985E+04  0.81370764895E+02  0.10073523354E+04  0.10100000352E+00 0.  1.
       -3    1    3    3    0  502 -0.60068311241E+02  0.10022620985E+04  0.19157985213E+03  0.10221743325E+04  0.10100000352E+00 0. -1.
</event>
<event>
 5   0  0.2596061E-04  0.1976949E+04  0.7818609E-02  0.8617474E-01
       -2   -1    0    0    0  501  0.00000000000E+00  0.00000000000E+00  0.80252405995E+03  0.80252405996E+03  0.25500000920E-02 0.  1.
        2   -1    0    0  501    0  0.00000000000E+00  0.00000000000E+00 -0.12175104296E+04  0.12175104296E+04  0.25500000920E-02 0. -1.
    10030    2    1    2    0    0  0.00000000000E+00  0.00000000000E+00 -0.41498636964E+03  0.20200344896E+04  0.19769485709E+04 0.  0.
        5    1    3    3  502    0 -0.75225049331E+03 -0.62160013928E+03 -0.36837883607E+03  0.10430688351E+04  0.46999998093E+01 0. -1.
       -5    1    3    3    0  502  0.75225049331E+03  0.62160013928E+03 -0.46607533572E+02  0.97696565448E+03  0.46999998093E+01 0.  1.
</event>
<event>
 5   0  0.1231056E-04  0.2027992E+04  0.7818609E-02  0.8593644E-01
       -1   -1    0    0    0  501  0.00000000000E+00  0.00000000000E+00  0.81343969838E+03  0.81343969840E+03  0.50400001928E-02 0. -1.
        1   -1    0    0  501    0  0.00000000000E+00  0.00000000000E+00 -0.12640004479E+04  0.12640004479E+04  0.50400001928E-02 0.  1.
    10030    2    1    2    0    0  0.00000000000E+00  0.00000000000E+00 -0.45056074955E+03  0.20774401463E+04  0.20279922516E+04 0.  0.
        3    1    3    3  502    0  0.85194108432E+03 -0.54340109155E+03 -0.13896572027E+03  0.10199999211E+04  0.10100000352E+00 0. -1.
       -3    1    3    3    0  502 -0.85194108432E+03  0.54340109155E+03 -0.31159502928E+03  0.10574402252E+04  0.10100000352E+00 0.  1.
</event>
<event>
 5   0  0.1231056E-04  0.1945280E+04  0.7818609E-02  0.8632640E-01
        1   -1    0    0  501    0  0.00000000000E+00  0.00000000000E+00  0.14509907192E+04  0.14509907192E+04  0.50400001928E-02 0.  1.
       -1   -1    0    0    0  501  0.00000000000E+00  0.00000000000E+00 -0.65198786212E+03  0.65198786214E+03  0.50400001928E-02 0. -1.
    10030    2    1    2    0    0  0.00000000000E+00  0.00000000000E+00  0.79900285709E+03  0.21029785814E+04  0.19452797609E+04 0.  0.
        3    1    3    3  502    0 -0.18964888666E+03 -0.31938569327E+03 -0.57229004069E+03  0.68226814535E+03  0.10100000352E+00 0. -1.
       -3    1    3    3    0  502  0.18964888666E+03  0.31938569327E+03  0.13712928978E+04  0.14207104360E+04  0.10100000352E+00 0.  1.
</event>
<event>
 5   0  0.2540506E-04  0.1985981E+04  0.7818609E-02  0.8613203E-01
        2   -1    0    0  501    0  0.00000000000E+00  0.00000000000E+00  0.64038848098E+03  0.64038848098E+03  0.25500000920E-02 0.  1.
       -2   -1    0    0    0  501  0.00000000000E+00  0.00000000000E+00 -0.15397382210E+04  0.15397382210E+04  0.25500000920E-02 0. -1.
    10030    2    1    2    0    0  0.00000000000E+00  0.00000000000E+00 -0.89934974002E+03  0.21801267020E+04  0.19859814908E+04 0.  0.
        4    1    3    3  502    0 -0.47864282727E+03 -0.74080215235E+03  0.51150858427E+02  0.88346183180E+03  0.12699999809E+01 0.  1.
       -4    1    3    3    0  502  0.47864282727E+03  0.74080215235E+03 -0.95050059845E+03  0.12966648702E+04  0.12699999809E+01 0. -1.
</event>
<event>
 5   0  0.2463085E-04  0.1975663E+04  0.7818609E-02  0.8618084E-01
        2   -1    0    0  501    0  0.00000000000E+00  0.00000000000E+00  0.11516391344E+04  0.11516391344E+04  0.25500000920E-02 0. -1.
       -2   -1    0    0    0  501  0.00000000000E+00  0.00000000000E+00 -0.84732384160E+03  0.84732384161E+03  0.25500000920E-02 0.  1.
    10030    2    1    2    0    0  0.00000000000E+00  0.00000000000E+00  0.30431529279E+03  0.19989629760E+04  0.19756632259E+04 0.  0.
        2    1    3    3  502    0  0.29751560163E+03  0.83915136539E+02  0.11014409466E+04  0.11439971338E+04  0.25500000920E-02 0. -1.
       -2    1    3    3    0  502 -0.29751560163E+03 -0.83915136539E+02 -0.79712565380E+03  0.85496584219E+03  0.25500000920E-02 0.  1.
</event>
<event>
 5   0  0.1210633E-04  0.1593072E+04  0.7818609E-02  0.8824815E-01
       -1   -1    0    0    0  501  0.00000000000E+00  0.00000000000E+00  0.21371014869E+04  0.21371014869E+04  0.50400001928E-02 0.  1.
        1   -1    0    0  501    0  0.00000000000E+00  0.00000000000E+00 -0.29688328710E+03  0.29688328715E+03  0.50400001928E-02 0. -1.
    10030    2    1    2    0    0  0.00000000000E+00  0.00000000000E+00  0.18402181998E+04  0.24339847740E+04  0.15930721444E+04 0.  0.
        2    1    3    3  502    0  0.17955021407E+03  0.74646733335E+03  0.12442809471E+04  0.14620830463E+04  0.25500000920E-02 0.  1.
       -2    1    3    3    0  502 -0.17955021407E+03 -0.74646733335E+03  0.59593725271E+03  0.97190172770E+03  0.25500000920E-02 0. -1.
</event>
<event>
 5   0  0.2463085E-04  0.1875997E+04  0.7818609E-02  0.8666897E-01
        2   -1    0    0  501    0  0.00000000000E+00  0.00000000000E+00  0.26113523719E+04  0.26113523719E+04  0.25500000920E-02 0. -1.
       -2   -1    0    0    0  501  0.00000000000E+00  0.00000000000E+00 -0.33692944695E+03  0.33692944696E+03  0.25500000920E-02 0.  1.
    10030    2    1    2    0    0  0.00000000000E+00  0.00000000000E+00  0.22744229250E+04  0.29482818189E+04  0.18759973459E+04 0.  0.
        2    1    3    3  502    0  0.11563393365E+03 -0.86030984263E+03  0.16958135230E+04  0.19050689585E+04  0.25500000920E-02 0. -1.
       -2    1    3    3    0  502 -0.11563393365E+03  0.86030984263E+03  0.57860940196E+03  0.10432128603E+04  0.25500000920E-02 0.  1.
</event>
<event>
 5   0  0.1210633E-04  0.1987404E+04  0.7818609E-02  0.8612533E-01
        1   -1    0    0  501    0  0.00000000000E+00  0.00000000000E+00  0.79180869234E+03  0.79180869236E+03  0.50400001928E-02 0.  1.
       -1   -1    0    0    0  501  0.00000000000E+00  0.00000000000E+00 -0.12470731131E+04  0.12470731131E+04  0.50400001928E-02 0. -1.
    10030    2    1    2    0    0  0.00000000000E+00  0.00000000000E+00 -0.45526442071E+03  0.20388818054E+04  0.19874036640E+04 0.  0.
        2    1    3    3  502    0 -0.73178560335E+03 -0.49442589147E+03 -0.69492610431E+03  0.11237835298E+04  0.25500000920E-02 0. -1.
       -2    1    3    3    0  502  0.73178560335E+03  0.49442589147E+03  0.23966168360E+03  0.91509827561E+03  0.25500000920E-02 0.  1.
</event>
<event>
 5   0  0.9099125E-05  0.1991689E+04  0.7818609E-02  0.8610516E-01
        3   -1    0    0  501    0  0.00000000000E+00  0.00000000000E+00  0.86857323539E+03  0.86857324126E+03  0.10100000352E+00 0.  1.
       -3   -1    0    0    0  501  0.00000000000E+00  0.00000000000E+00 -0.11417647954E+04  0.11417647999E+04  0.10100000352E+00 0. -1.
    10030    2    1    2    0    0  0.00000000000E+00  0.00000000000E+00 -0.27319156000E+03  0.20103380411E+04  0.19916890850E+04 0.  0.
        3    1    3    3  502    0  0.52676635375E+03  0.70195399670E+02 -0.98667881848E+03  0.11206896478E+04  0.10100000352E+00 0. -1.
       -3    1    3    3    0  502 -0.52676635375E+03 -0.70195399670E+02  0.71348725848E+03  0.88964839335E+03  0.10100000352E+00 0.  1.
</event>
<event>
 5   0  0.1207228E-04  0.1860162E+04  0.7818609E-02  0.8674944E-01
       -1   -1    0    0    0  501  0.00000000000E+00  0.00000000000E+00  0.57683667950E+03  0.57683667952E+03  0.50400001928E-02 0. -1.
        1   -1    0    0  501    0  0.00000000000E+00  0.00000000000E+00 -0.14996454384E+04  0.14996454384E+04  0.50400001928E-02 0.  1.
    10030    2    1    2    0    0  0.00000000000E+00  0.00000000000E+00 -0.92280875886E+03  0.20764821179E+04  0.18601618157E+04 0.  0.
        1    1    3    3  502    0  0.81646430511E+03  0.38981946095E+03 -0.22074764698E+03  0.93129087687E+03  0.50400001928E-02 0.  1.
       -1    1    3    3    0  502 -0.81646430511E+03 -0.38981946095E+03 -0.70206111188E+03  0.11451912410E+04  0.50400001928E-02 0. -1.
</event>
<event>
 5   0  0.2463085E-04  0.2029170E+04  0.7818609E-02  0.8593103E-01
       -2   -1    0    0    0  501  0.00000000000E+00  0.00000000000E+00  0.70577267464E+03  0.70577267464E+03  0.25500000920E-02 0. -1.
        2   -1    0    0  501    0  0.00000000000E+00  0.00000000000E+00 -0.14585188147E+04  0.14585188147E+04  0.25500000920E-02 0.  1.
    10030    2    1    2    0    0  0.00000000000E+00  0.00000000000E+00 -0.75274614002E+03  0.21642914893E+04  0.20291700026E+04 0.  0.
        2    1    3    3  502    0  0.95428706856E+03 -0.30688961736E+03 -0.20929707622E+03  0.10240362848E+04  0.25500000920E-02 0.  1.
       -2    1    3    3    0  502 -0.95428706856E+03  0.30688961736E+03 -0.54344906379E+03  0.11402552045E+04  0.25500000920E-02 0. -1.
</event>
<event>
 5   0  0.2540506E-04  0.1928290E+04  0.7818609E-02  0.8640902E-01
        2   -1    0    0  501    0  0.00000000000E+00  0.00000000000E+00  0.81820808463E+03  0.81820808464E+03  0.25500000920E-02 0.  1.
       -2   -1    0    0    0  501  0.00000000000E+00  0.00000000000E+00 -0.11361109584E+04  0.11361109584E+04  0.25500000920E-02 0. -1.
    10030    2    1    2    0    0  0.00000000000E+00  0.00000000000E+00 -0.31790287375E+03  0.19543190430E+04  0.19282895749E+04 0.  0.
        4    1    3    3  502    0 -0.34666772526E+03 -0.50861715373E+03 -0.91106285698E+03  0.10995030983E+04  0.12699999809E+01 0. -1.
       -4    1    3    3    0  502  0.34666772526E+03  0.50861715373E+03  0.59315998324E+03  0.85481594476E+03  0.12699999809E+01 0.  1.
</event>
<event>
 5   0  0.2421737E-04  0.2039590E+04  0.7818609E-02  0.8588331E-01
       -2   -1    0    0    0  501  0.00000000000E+00  0.00000000000E+00  0.63652979633E+03  0.63652979633E+03  0.25500000920E-02 0.  1.
        2   -1    0    0  501    0  0.00000000000E+00  0.00000000000E+00 -0.16338309860E+04  0.16338309860E+04  0.25500000920E-02 0. -1.
    10030    2    1    2    0    0  0.00000000000E+00  0.00000000000E+00 -0.99730118965E+03  0.22703607823E+04  0.20395902576E+04 0.  0.
        1    1    3    3  502    0  0.89127445190E+03  0.27888814007E+03 -0.95467815890E+03  0.13354995808E+04  0.50400001928E-02 0.  1.
       -1    1    3    3    0  502 -0.89127445190E+03 -0.27888814007E+03 -0.42623030745E+02  0.93486120149E+03  0.50400001928E-02 0. -1.
</event>
<event>
 5   0  0.2421737E-04  0.1997931E+04  0.7818609E-02  0.8607589E-01
       -2   -1    0    0    0  501  0.00000000000E+00  0.00000000000E+00  0.46233386722E+03  0.46233386722E+03  0.25500000920E-02 0.  1.
        2   -1    0    0  501    0  0.00000000000E+00  0.00000000000E+00 -0.21584666726E+04  0.21584666726E+04  0.25500000920E-02 0. -1.
    10030    2    1    2    0    0  0.00000000000E+00  0.00000000000E+00 -0.16961328054E+04  0.26208005398E+04  0.19979311740E+04 0.  0.
        1    1    3    3  502    0 -0.60644441739E+02 -0.51712029572E+03 -0.19664046636E+04  0.20341677536E+04  0.50400001928E-02 0. -1.
       -1    1    3    3    0  502  0.60644441739E+02  0.51712029572E+03  0.27027185822E+03  0.58663278627E+03  0.50400001928E-02 0.  1.
</event>
<event>
 5   0  0.1210633E-04  0.1845688E+04  0.7818609E-02  0.8682374E-01
        1   -1    0    0  501    0  0.00000000000E+00  0.00000000000E+00  0.14927261178E+04  0.14927261178E+04  0.50400001928E-02 0.  1.
       -1   -1    0    0    0  501  0.00000000000E+00  0.00000000000E+00 -0.57052727459E+03  0.57052727461E+03  0.50400001928E-02 0. -1.
    10030    2    1    2    0    0  0.00000000000E+00  0.00000000000E+00  0.92219884319E+03  0.20632533924E+04  0.18456879083E+04 0.  0.
        2    1    3    3  502    0 -0.13944064563E+03 -0.73816765007E+03 -0.13809324616E+03  0.76380947749E+03  0.25500000920E-02 0. -1.
       -2    1    3    3    0  502  0.13944064563E+03  0.73816765007E+03  0.10602920893E+04  0.12994439149E+04  0.25500000920E-02 0.  1.
</event>
<event>
 5   0  0.2596061E-04  0.1977844E+04  0.7818609E-02  0.8617050E-01
       -2   -1    0    0    0  501  0.00000000000E+00  0.00000000000E+00  0.10149403998E+04  0.10149403998E+04  0.25500000920E-02 0.  1.
        2   -1    0    0  501    0  0.00000000000E+00  0.00000000000E+00 -0.96357030890E+03  0.96357030890E+03  0.25500000920E-02 0. -1.
    10030    2    1    2    0    0  0.00000000000E+00  0.00000000000E+00  0.51370090924E+02  0.19785107087E+04  0.19778437093E+04 0.  0.
        5    1    3    3  502    0 -0.47395269700E+03 -0.81829589589E+03  0.31510079920E+03  0.99676975068E+03  0.46999998093E+01 0.  1.
       -5    1    3    3    0  502  0.47395269700E+03  0.81829589589E+03 -0.26373070827E+03  0.98174095805E+03  0.46999998093E+01 0. -1.
</event>
<event>
 5   0  0.2421737E-04  0.1842352E+04  0.7818609E-02  0.8684096E-01
       -2   -1    0    0    0  501  0.00000000000E+00  0.00000000000E+00  0.18168455004E+04  0.18168455004E+04  0.25500000920E-02 0.  1.
        2   -1    0    0  501    0  0.00000000000E+00  0.00000000000E+00 -0.46705391207E+03  0.46705391207E+03  0.25500000920E-02 0. -1.
    10030    2    1    2    0    0  0.00000000000E+00  0.00000000000E+00  0.13497915883E+04  0.22838994124E+04  0.18423515393E+04 0.  0.
        1    1    3    3  502    0  0.57082524398E+03  0.15560159671E+03  0.15501658165E+04  0.16592369857E+04  0.50400001928E-02 0.  1.
       -1    1    3    3    0  502 -0.57082524398E+03 -0.15560159671E+03 -0.20037422818E+03  0.62466242676E+03  0.50400001928E-02 0. -1.
</event>
<event>
 5   0  0.2596061E-04  0.1707191E+04  0.7818609E-02  0.8757274E-01
        2   -1    0    0  501    0  0.00000000000E+00  0.00000000000E+00  0.12299534164E+04  0.12299534164E+04  0.25500000920E-02 0. -1.
       -2   -1    0    0    0  501  0.00000000000E+00  0.00000000000E+00 -0.59240078794E+03  0.59240078795E+03  0.25500000920E-02 0.  1.
    10030    2    1    2    0    0  0.00000000000E+00  0.00000000000E+00  0.63755262846E+03  0.18223542044E+04  0.17071911118E+04 0.  0.
        5    1    3    3  502    0  0.11307143920E+03 -0.67396838561E+03  0.86473133109E+03  0.11021800670E+04  0.46999998093E+01 0. -1.
       -5    1    3    3    0  502 -0.11307143920E+03  0.67396838561E+03 -0.22717870263E+03  0.72017413734E+03  0.46999998093E+01 0.  1.
</event>
<event>
 5   0  0.2540506E-04  0.1995303E+04  0.7818609E-02  0.8608820E-01
       -2   -1    0    0    0  501  0.00000000000E+00  0.00000000000E+00  0.52806152567E+03  0.52806152567E+03  0.25500000920E-02 0. -1.
        2   -1    0    0  501    0  0.00000000000E+00  0.00000000000E+00 -0.18848349819E+04  0.18848349819E+04  0.25500000920E-02 0.  1.
    10030    2    1    2    0    0  0.00000000000E+00  0.00000000000E+00 -0.13567734562E+04  0.24128965075E+04  0.19953033215E+04 0.  0.
        4    1    3    3  502    0  0.11798094998E+03 -0.60919368120E+03  0.26630705332E+03  0.67524625532E+03  0.12699999809E+01 0. -1.
       -4    1    3    3    0  502 -0.11798094998E+03  0.60919368120E+03 -0.16230805095E+04  0.17376502522E+04  0.12699999809E+01 0.  1.
</event>
<event>
 5   0  0.1207228E-04  0.1958173E+04  0.7818609E-02  0.8626430E-01
       -1   -1    0    0    0  501  0.00000000000E+00  0.00000000000E+00  0.10138252734E+04  0.10138252734E+04  0.50400001928E-02 0. -1.
        1   -1    0    0  501    0  0.00000000000E+00  0.00000000000E+00 -0.94553821802E+03  0.94553821803E+03  0.50400001928E-02 0.  1.
    10030    2    1    2    0    0  0.00000000000E+00  0.00000000000E+00  0.68287055387E+02  0.19593634914E+04  0.19581731715E+04 0.  0.
        1    1    3    3  502    0 -0.31789057609E+03 -0.89745395186E+03  0.26260780819E+03  0.98764410342E+03  0.50400001928E-02 0. -1.
       -1    1    3    3    0  502  0.31789057609E+03  0.89745395186E+03 -0.19432075281E+03  0.97171938803E+03  0.50400001928E-02 0.  1.
</event>
<event>
 5   0  0.2488886E-04  0.1943965E+04  0.7818609E-02  0.8633277E-01
        2   -1    0    0  501    0  0.00000000000E+00  0.00000000000E+00  0.63373704923E+03  0.63373704924E+03  0.25500000920E-02 0. -1.
       -2   -1    0    0    0  501  0.00000000000E+00  0.00000000000E+00 -0.14907595499E+04  0.14907595499E+04  0.25500000920E-02 0.  1.
    10030    2    1    2    0    0  0.00000000000E+00  0.00000000000E+00 -0.85702250065E+03  0.21244965991E+04  0.19439645658E+04 0.  0.
        3    1    3    3  502    0  0.40507640883E+03  0.53105311726E+03  0.34321546303E+03  0.75093353541E+03  0.10100000352E+00 0. -1.
       -3    1    3    3    0  502 -0.40507640883E+03 -0.53105311726E+03 -0.12002379637E+04  0.13735630637E+04  0.10100000352E+00 0.  1.
</event>
<event>
 5   0  0.2421737E-04  0.1945426E+04  0.7818609E-02  0.8632570E-01
        2   -1    0    0  501    0  0.00000000000E+00  0.00000000000E+00  0.14831430110E+04  0.14831430110E+04  0.25500000920E-02 0.  1.
       -2   -1    0    0    0  501  0.00000000000E+00  0.00000000000E+00 -0.63794958588E+03  0.63794958589E+03  0.25500000920E-02 0. -1.
    10030    2    1    2    0    0  0.00000000000E+00  0.00000000000E+00  0.84519342514E+03  0.21210925969E+04  0.19454258862E+04 0.  0.
        1    1    3    3  502    0 -0.16152996206E+03  0.53179881612E+03 -0.44777783872E+03  0.71372747064E+03  0.50400001928E-02 0. -1.
       -1    1    3    3    0  502  0.16152996206E+03 -0.53179881612E+03  0.12929712639E+04  0.14073651263E+04  0.50400001928E-02 0.  1.
</event>
<event>
 5   0  0.1258546E-04  0.1979867E+04  0.7818609E-02  0.8616092E-01
       -1   -1    0    0    0  501  0.00000000000E+00  0.00000000000E+00  0.10912196309E+04  0.10912196309E+04  0.50400001928E-02 0.  1.
        1   -1    0    0  501    0  0.00000000000E+00  0.00000000000E+00 -0.89804861931E+03  0.89804861932E+03  0.50400001928E-02 0. -1.
    10030    2    1    2    0    0  0.00000000000E+00  0.00000000000E+00  0.19317101156E+03  0.19892682502E+04  0.19798669479E+04 0.  0.
        4    1    3    3  502    0  0.83666598461E+03  0.37726386673E+03 -0.27615948004E+03  0.95843813899E+03  0.12699999809E+01 0. -1.
       -4    1    3    3    0  502 -0.83666598461E+03 -0.37726386673E+03  0.46933049160E+03  0.10308301112E+04  0.12699999809E+01 0.  1.
</event>
<event>
 5   0  0.2488886E-04  0.2011563E+04  0.7818609E-02  0.8601234E-01
       -2   -1    0    0    0  501  0.00000000000E+00  0.00000000000E+00  0.45774648201E+03  0.45774648202E+03  0.25500000920E-02 0.  1.
        2   -1    0    0  501    0  0.00000000000E+00  0.00000000000E+00 -0.22099484173E+04  0.22099484173E+04  0.25500000920E-02 0. -1.
    10030    2    1    2    0    0  0.00000000000E+00  0.00000000000E+00 -0.17522019353E+04  0.26676948993E+04  0.20115626895E+04 0.  0.
        3    1    3    3  502    0 -0.99930860253E+03 -0.45537650175E+02 -0.10145883785E+04  0.14248090920E+04  0.10100000352E+00 0.  1.
       -3    1    3    3    0  502  0.99930860253E+03  0.45537650175E+02 -0.73761355679E+03  0.12428858073E+04  0.10100000352E+00 0. -1.
</event>
<event>
 5   0  0.2421737E-04  0.2005869E+04  0.7818609E-02  0.8603882E-01
       -2   -1    0    0    0  501  0.00000000000E+00  0.00000000000E+00  0.19552351585E+04  0.19552351585E+04  0.25500000920E-02 0.  1.
        2   -1    0    0  501    0  0.00000000000E+00  0.00000000000E+00 -0.51445335833E+03  0.51445335833E+03  0.25500000920E-02 0. -1.
    10030    2    1    2    0    0  0.00000000000E+00  0.00000000000E+00  0.14407818001E+04  0.24696885168E+04  0.20058686832E+04 0.  0.
        1    1    3    3  502    0 -0.99084938263E+02  0.66627804248E+03 -0.19448366169E+03  0.70111921210E+03  0.50400001928E-02 0. -1.
       -1    1    3    3    0  502  0.99084938263E+02 -0.66627804248E+03  0.16352654618E+04  0.17685693047E+04  0.50400001928E-02 0.  1.
</event>
<event>
 5   0  0.1210633E-04  0.1809405E+04  0.7818609E-02  0.8701314E-01
        1   -1    0    0  501    0  0.00000000000E+00  0.00000000000E+00  0.17495900289E+04  0.17495900289E+04  0.50400001928E-02 0. -1.
       -1   -1    0    0    0  501  0.00000000000E+00  0.00000000000E+00 -0.46781645479E+03  0.46781645482E+03  0.50400001928E-02 0.  1.
    10030    2    1    2    0    0  0.00000000000E+00  0.00000000000E+00  0.12817735741E+04  0.22174064837E+04  0.18094054324E+04 0.  0.
        2    1    3    3  502    0  0.21920426528E+02  0.72464604372E+03 -0.22344665561E+02  0.72532177540E+03  0.25500000920E-02 0.  1.
       -2    1    3    3    0  502 -0.21920426528E+02 -0.72464604372E+03  0.13041182397E+04  0.14920847083E+04  0.25500000920E-02 0. -1.
</event>
<event>
 5   0  0.2596061E-04  0.1956304E+04  0.7818609E-02  0.8627327E-01
       -2   -1    0    0    0  501  0.00000000000E+00  0.00000000000E+00  0.68241416220E+03  0.68241416220E+03  0.25500000920E-02 0. -1.
        2   -1    0    0  501    0  0.00000000000E+00  0.00000000000E+00 -0.14020535527E+04  0.14020535527E+04  0.25500000920E-02 0.  1.
    10030    2    1    2    0    0  0.00000000000E+00  0.00000000000E+00 -0.71963939048E+03  0.20844677149E+04  0.19563038624E+04 0.  0.
        5    1    3    3  502    0  0.63349984931E+02 -0.11035831010E+03  0.67354522375E+03  0.68547606496E+03  0.46999998093E+01 0. -1.
       -5    1    3    3    0  502 -0.63349984931E+02  0.11035831010E+03 -0.13931846142E+04  0.13989916499E+04  0.46999998093E+01 0.  1.
</event>
<event>
 5   0  0.1207228E-04  0.1942769E+04  0.7818609E-02  0.8633856E-01
        1   -1    0    0  501    0  0.00000000000E+00  0.00000000000E+00  0.10403194042E+04  0.10403194043E+04  0.50400001928E-02 0.  1.
       -1   -1    0    0    0  501  0.00000000000E+00  0.00000000000E+00 -0.90701705177E+03  0.90701705178E+03  0.50400001928E-02 0. -1.
    10030    2    1    2    0    0  0.00000000000E+00  0.00000000000E+00  0.13330235248E+03  0.19473364560E+04  0.19427685801E+04 0.  0.
        1    1    3    3  502    0 -0.72408236493E+03 -0.32577759697E+03  0.62757494784E+03  0.10120655261E+04  0.50400001928E-02 0.  1.
       -1    1    3    3    0  502  0.72408236493E+03  0.32577759697E+03 -0.49427259536E+03  0.93527092997E+03  0.50400001928E-02 0. -1.
</event>
<event>
 5   0  0.2421737E-04  0.2018100E+04  0.7818609E-02  0.8598205E-01
        2   -1    0    0  501    0  0.00000000000E+00  0.00000000000E+00  0.15708340943E+04  0.15708340943E+04  0.25500000920E-02 0. -1.
       -2   -1    0    0    0  501  0.00000000000E+00  0.00000000000E+00 -0.64817907149E+03  0.64817907149E+03  0.25500000920E-02 0.  1.
    10030    2    1    2    0    0  0.00000000000E+00  0.00000000000E+00  0.92265502284E+03  0.22190131658E+04  0.20180998833E+04 0.  0.
        1    1    3    3  502    0  0.18635887762E+03 -0.60960152750E+03  0.13214008626E+04  0.14671209539E+04  0.50400001928E-02 0. -1.
       -1    1    3    3    0  502 -0.18635887762E+03  0.60960152750E+03 -0.39874583977E+03  0.75189221193E+03  0.50400001928E-02 0.  1.
</event>
<event>
 5   0  0.2463085E-04  0.1964231E+04  0.7818609E-02  0.8623529E-01
       -2   -1    0    0    0  501  0.00000000000E+00  0.00000000000E+00  0.10629418518E+04  0.10629418518E+04  0.25500000920E-02 0.  1.
        2   -1    0    0  501    0  0.00000000000E+00  0.00000000000E+00 -0.90743564914E+03  0.90743564914E+03  0.25500000920E-02 0. -1.
    10030    2    1    2    0    0  0.00000000000E+00  0.00000000000E+00  0.15550620266E+03  0.19703775009E+04  0.19642314826E+04 0.  0.
        2    1    3    3  502    0 -0.17429617033E+03  0.95457744489E+03 -0.74226982494E+02  0.97319417293E+03  0.25500000920E-02 0. -1.
       -2    1    3    3    0  502  0.17429617033E+03 -0.95457744489E+03  0.22973318515E+03  0.99718332801E+03  0.25500000920E-02 0.  1.
</event>
<event>
 5   0  0.1324930E-04  0.1943266E+04  0.7818609E-02  0.8633615E-01
       -1   -1    0    0    0  501  0.00000000000E+00  0.00000000000E+00  0.49106595880E+03  0.49106595883E+03  0.50400001928E-02 0.  1.
        1   -1    0    0  501    0  0.00000000000E+00  0.00000000000E+00 -0.19224931323E+04  0.19224931323E+04  0.50400001928E-02 0. -1.
    10030    2    1    2    0    0  0.00000000000E+00  0.00000000000E+00 -0.14314271735E+04  0.24135590912E+04  0.19432662539E+04 0.  0.
        5    1    3    3  502    0  0.77779144972E+03  0.41063257036E+02 -0.14371535068E+04  0.16346492047E+04  0.46999998093E+01 0. -1.
       -5    1    3    3    0  502 -0.77779144972E+03 -0.41063257036E+02  0.57263332647E+01  0.77890988646E+03  0.46999998093E+01 0.  1.
</event>
<event>
 5   0  0.1231056E-04  0.1874065E+04  0.7818609E-02  0.8667874E-01
        1   -1    0    0  501    0  0.00000000000E+00  0.00000000000E+00  0.46994040899E+03  0.46994040902E+03  0.50400001928E-02 0.  1.
       -1   -1    0    0    0  501  0.00000000000E+00  0.00000000000E+00 -0.18683864533E+04  0.18683864533E+04  0.50400001928E-02 0. -1.
    10030    2    1    2    0    0  0.00000000000E+00  0.00000000000E+00 -0.13984460443E+04  0.23383268623E+04  0.18740654141E+04 0.  0.
        3    1    3    3  502    0 -0.89828893484E+03 -0.16140380794E+03 -0.96407132553E+03  0.13275570536E+04  0.10100000352E+00 0. -1.
       -3    1    3    3    0  502  0.89828893484E+03  0.16140380794E+03 -0.43437471876E+03  0.10107698087E+04  0.10100000352E+00 0.  1.
</event>
<event>
 5   0  0.2421737E-04  0.1953376E+04  0.7818609E-02  0.8628735E-01
        2   -1    0    0  501    0  0.00000000000E+00  0.00000000000E+00  0.15258543802E+04  0.15258543802E+04  0.25500000920E-02 0. -1.
       -2   -1    0    0    0  501  0.00000000000E+00  0.00000000000E+00 -0.62517040991E+03  0.62517040992E+03  0.25500000920E-02 0.  1.
    10030    2    1    2    0    0  0.00000000000E+00  0.00000000000E+00  0.90068397030E+03  0.21510247901E+04  0.19533755485E+04 0.  0.
        1    1    3    3  502    0 -0.86620384788E+02  0.86279776155E+03 -0.44573438671E+02  0.86827982809E+03  0.50400001928E-02 0.  1.
       -1    1    3    3    0  502  0.86620384788E+02 -0.86279776155E+03  0.94525740897E+03  0.12827449620E+04  0.50400001928E-02 0. -1.
</event>
<event>
 5   0  0.2596061E-04  0.2025798E+04  0.7818609E-02  0.8594653E-01
        2   -1    0    0  501    0  0.00000000000E+00  0.00000000000E+00  0.12765694120E+04  0.12765694120E+04  0.25500000920E-02 0. -1.
       -2   -1    0    0    0  501  0.00000000000E+00  0.00000000000E+00 -0.80368846461E+03  0.80368846462E+03  0.25500000920E-02 0.  1.
    10030    2    1    2    0    0  0.00000000000E+00  0.00000000000E+00  0.47288094734E+03  0.20802578766E+04  0.20257977299E+04 0.  0.
        5    1    3    3  502    0 -0.35694875458E+03 -0.74775727076E+03  0.83467264666E+03  0.11761181346E+04  0.46999998093E+01 0. -1.
       -5    1    3    3    0  502  0.35694875458E+03  0.74775727076E+03 -0.36179169932E+03  0.90413974200E+03  0.46999998093E+01 0.  1.
</event>
<event>
 5   0  0.1324930E-04  0.1992832E+04  0.7818609E-02  0.8609980E-01
        1   -1    0    0  501    0  0.00000000000E+00  0.00000000000E+00  0.74306362320E+03  0.74306362322E+03  0.50400001928E-02 0. -1.
       -1   -1    0    0    0  501  0.00000000000E+00  0.00000000000E+00 -0.13361498560E+04  0.13361498560E+04  0.50400001928E-02 0.  1.
    10030    2    1    2    0    0  0.00000000000E+00  0.00000000000E+00 -0.59308623279E+03  0.20792134792E+04  0.19928315063E+04 0.  0.
        5    1    3    3  502    0  0.97676875216E+03  0.17966057606E+03 -0.21263870154E+03  0.10156733851E+04  0.46999998093E+01 0.  1.
       -5    1    3    3    0  502 -0.97676875216E+03 -0.17966057606E+03 -0.38044753124E+03  0.10635400941E+04  0.46999998093E+01 0. -1.
</event>
<event>
 5   0  0.2421737E-04  0.2034488E+04  0.7818609E-02  0.8590664E-01
        2   -1    0    0  501    0  0.00000000000E+00  0.00000000000E+00  0.18052577624E+04  0.18052577624E+04  0.25500000920E-02 0.  1.
       -2   -1    0    0    0  501  0.00000000000E+00  0.00000000000E+00 -0.57320649273E+03  0.57320649274E+03  0.25500000920E-02 0. -1.
    10030    2    1    2    0    0  0.00000000000E+00  0.00000000000E+00  0.12320512697E+04  0.23784642551E+04  0.20344881130E+04 0.  0.
        1    1    3    3  502    0  0.47822228734E+03 -0.61578594244E+03 -0.14781509770E+03  0.79356044896E+03  0.50400001928E-02 0. -1.
       -1    1    3    3    0  502 -0.47822228734E+03  0.61578594244E+03  0.13798663674E+04  0.15849038062E+04  0.50400001928E-02 0.  1.
</event>
<event>
 5   0  0.1207228E-04  0.1983928E+04  0.7818609E-02  0.8614172E-01
       -1   -1    0    0    0  501  0.00000000000E+00  0.00000000000E+00  0.95865527632E+03  0.95865527633E+03  0.50400001928E-02 0. -1.
        1   -1    0    0  501    0  0.00000000000E+00  0.00000000000E+00 -0.10264304187E+04  0.10264304187E+04  0.50400001928E-02 0.  1.
    10030    2    1    2    0    0  0.00000000000E+00  0.00000000000E+00 -0.67775142418E+02  0.19850856951E+04  0.19839283623E+04 0.  0.
        1    1    3    3  502    0 -0.34977491711E+03 -0.80601688721E+03  0.42680171774E+03  0.97681391339E+03  0.50400001928E-02 0. -1.
       -1    1    3    3    0  502  0.34977491711E+03  0.80601688721E+03 -0.49457686016E+03  0.10082717817E+04  0.50400001928E-02 0.  1.
</event>
<event>
 5   0  0.2488886E-04  0.1921773E+04  0.7818609E-02  0.8644094E-01
       -2   -1    0    0    0  501  0.00000000000E+00  0.00000000000E+00  0.59569717168E+03  0.59569717169E+03  0.25500000920E-02 0.  1.
        2   -1    0    0  501    0  0.00000000000E+00  0.00000000000E+00 -0.15499526126E+04  0.15499526126E+04  0.25500000920E-02 0. -1.
    10030    2    1    2    0    0  0.00000000000E+00  0.00000000000E+00 -0.95425544090E+03  0.21456497843E+04  0.19217725022E+04 0.  0.
        3    1    3    3  502    0  0.51925327596E+03 -0.58970724839E+03 -0.10946654212E+04  0.13474683662E+04  0.10100000352E+00 0. -1.
       -3    1    3    3    0  502 -0.51925327596E+03  0.58970724839E+03  0.14040998027E+03  0.79818141808E+03  0.10100000352E+00 0.  1.
</event>
<event>
 5   0  0.2540506E-04  0.2027072E+04  0.7818609E-02  0.8594067E-01
       -2   -1    0    0    0  501  0.00000000000E+00  0.00000000000E+00  0.11529358504E+04  0.11529358504E+04  0.25500000920E-02 0. -1.
        2   -1    0    0  501    0  0.00000000000E+00  0.00000000000E+00 -0.89099037166E+03  0.89099037166E+03  0.25500000920E-02 0.  1.
    10030    2    1    2    0    0  0.00000000000E+00  0.00000000000E+00  0.26194547879E+03  0.20439262221E+04  0.20270715250E+04 0.  0.
        4    1    3    3  502    0 -0.48342788792E+03  0.78317832957E+03  0.55898106592E+03  0.10768157984E+04  0.12699999809E+01 0. -1.
       -4    1    3    3    0  502  0.48342788792E+03 -0.78317832957E+03 -0.29703558713E+03  0.96711042371E+03  0.12699999809E+01 0.  1.
</event>
<event>
 5   0  0.2463085E-04  0.2009836E+04  0.7818609E-02  0.8602036E-01
        2   -1    0    0  501    0  0.00000000000E+00  0.00000000000E+00  0.14782214825E+04  0.14782214825E+04  0.25500000920E-02 0. -1.
       -2   -1    0    0    0  501  0.00000000000E+00  0.00000000000E+00 -0.68315858285E+03  0.68315858285E+03  0.25500000920E-02 0.  1.
    10030    2    1    2    0    0  0.00000000000E+00  0.00000000000E+00  0.79506289968E+03  0.21613800654E+04  0.20098355088E+04 0.  0.
        2    1    3    3  502    0 -0.91826773270E+03  0.34410424038E+03  0.63371942473E+03  0.11675716965E+04  0.25500000920E-02 0. -1.
       -2    1    3    3    0  502  0.91826773270E+03 -0.34410424038E+03  0.16134347495E+03  0.99380836889E+03  0.25500000920E-02 0.  1.
</event>
<event>
 5   0  0.2463085E-04  0.2014932E+04  0.7818609E-02  0.8599671E-01
       -2   -1    0    0    0  501  0.00000000000E+00  0.00000000000E+00  0.13288043262E+04  0.13288043262E+04  0.25500000920E-02 0.  1.
        2   -1    0    0  501    0  0.00000000000E+00  0.00000000000E+00 -0.76383549058E+03  0.76383549059E+03  0.25500000920E-02 0. -1.
    10030    2    1    2    0    0  0.00000000000E+00  0.00000000000E+00  0.56496883560E+03  0.20926398168E+04  0.20149321620E+04 0.  0.
        2    1    3    3  502    0  0.58334020938E+03  0.47469599264E+03 -0.41371566845E+03  0.85836049515E+03  0.25500000920E-02 0. -1.
       -2    1    3    3    0  502 -0.58334020938E+03 -0.47469599264E+03  0.97868450406E+03  0.12342793216E+04  0.25500000920E-02 0.  1.
</event>
<event>
 5   0  0.2421737E-04  0.1958731E+04  0.7818609E-02  0.8626162E-01
       -2   -1    0    0    0  501  0.00000000000E+00  0.00000000000E+00  0.11065083723E+04  0.11065083723E+04  0.25500000920E-02 0. -1.
        2   -1    0    0  501    0  0.00000000000E+00  0.00000000000E+00 -0.86683157817E+03  0.86683157818E+03  0.25500000920E-02 0.  1.
    10030    2    1    2    0    0  0.00000000000E+00  0.00000000000E+00  0.23967679411E+03  0.19733399505E+04  0.19587306079E+04 0.  0.
        1    1    3    3  502    0 -0.52672195661E+03  0.84909969223E+01 -0.71193949058E+03  0.88564437269E+03  0.50400001928E-02 0.  1.
       -1    1    3    3    0  502  0.52672195661E+03 -0.84909969223E+01  0.95161628469E+03  0.10876955778E+04  0.50400001928E-02 0. -1.
</event>
<event>
 5   0  0.1324930E-04  0.1974852E+04  0.7818609E-02  0.8618469E-01
       -1   -1    0    0    0  501  0.00000000000E+00  0.00000000000E+00  0.16644732986E+04  0.16644732986E+04  0.50400001928E-02 0.  1.
        1   -1    0    0  501    0  0.00000000000E+00  0.00000000000E+00 -0.58577667437E+03  0.58577667439E+03  0.50400001928E-02 0. -1.
    10030    2    1    2    0    0  0.00000000000E+00  0.00000000000E+00  0.10786966242E+04  0.22502499730E+04  0.19748515220E+04 0.  0.
        5    1    3    3  502    0  0.50309620622E+02 -0.85597714782E+03 -0.18587612735E+02  0.85766865680E+03  0.46999998093E+01 0. -1.
       -5    1    3    3    0  502 -0.50309620622E+02  0.85597714782E+03  0.10972842370E+04  0.13925813162E+04  0.46999998093E+01 0.  1.
</event>
<event>
 5   0  0.1207228E-04  0.1868286E+04  0.7818609E-02  0.8670805E-01
        1   -1    0    0  501    0  0.00000000000E+00  0.00000000000E+00  0.22171441937E+04  0.22171441937E+04  0.50400001928E-02 0.  1.
       -1   -1    0    0    0  501  0.00000000000E+00  0.00000000000E+00 -0.39357986967E+03  0.39357986970E+03  0.50400001928E-02 0. -1.
    10030    2    1    2    0    0  0.00000000000E+00  0.00000000000E+00  0.18235643240E+04  0.26107240634E+04  0.18682861910E+04 0.  0.
        1    1    3    3  502    0 -0.73282711335E+03  0.57872514476E+03  0.87574815353E+03  0.12801926416E+04  0.50400001928E-02 0. -1.
       -1    1    3    3    0  502  0.73282711335E+03 -0.57872514476E+03  0.94781617049E+03  0.13305314218E+04  0.50400001928E-02 0.  1.
</event>
<event>
 5   0  0.2421737E-04  0.1948960E+04  0.7818609E-02  0.8630863E-01
        2   -1    0    0  501    0  0.00000000000E+00  0.00000000000E+00  0.17692826429E+04  0.17692826429E+04  0.25500000920E-02 0.  1.
       -2   -1    0    0    0  501  0.00000000000E+00  0.00000000000E+00 -0.53672092746E+03  0.53672092746E+03  0.25500000920E-02 0. -1.
    10030    2    1    2    0    0  0.00000000000E+00  0.00000000000E+00  0.12325617155E+04  0.23060035704E+04  0.19489597441E+04 0.  0.
        1    1    3    3  502    0 -0.31111813481E+01  0.67234704085E+03 -0.21831422231E+03  0.70690969896E+03  0.50400001928E-02 0.  1.
       -1    1    3    3    0  502  0.31111813481E+01 -0.67234704085E+03  0.14508759378E+04  0.15990938714E+04  0.50400001928E-02 0. -1.
</event>
<event>
 5   0  0.1210633E-04  0.1954508E+04  0.7818609E-02  0.8628190E-01
       -1   -1    0    0    0  501  0.00000000000E+00  0.00000000000E+00  0.42193166320E+03  0.42193166323E+03  0.50400001928E-02 0. -1.
        1   -1    0    0  501    0  0.00000000000E+00  0.00000000000E+00 -0.22634600585E+04  0.22634600586E+04  0.50400001928E-02 0.  1.
    10030    2    1    2    0    0  0.00000000000E+00  0.00000000000E+00 -0.18415283954E+04  0.26853917218E+04  0.19545080886E+04 0.  0.
        2    1    3    3  502    0 -0.29924804751E+03 -0.15262461102E+03 -0.21816422930E+04  0.22073528853E+04  0.25500000920E-02 0.  1.
       -2    1    3    3    0  502  0.29924804751E+03  0.15262461102E+03  0.34011389761E+03  0.47803883648E+03  0.25500000920E-02 0. -1.
</event>
<event>
 5   0  0.1231056E-04  0.2007806E+04  0.7818609E-02  0.8602980E-01
       -1   -1    0    0    0  501  0.00000000000E+00  0.00000000000E+00  0.10462039355E+04  0.10462039355E+04  0.50400001928E-02 0. -1.
        1   -1    0    0  501    0  0.00000000000E+00  0.00000000000E+00 -0.96331219875E+03  0.96331219877E+03  0.50400001928E-02 0.  1.
    10030    2    1    2    0    0  0.00000000000E+00  0.00000000000E+00  0.82891736736E+02  0.20095161343E+04  0.20078057809E+04 0.  0.
        3    1    3    3  502    0 -0.27867309516E+03 -0.93725073388E+03  0.26906733041E+03  0.10141473614E+04  0.10100000352E+00 0. -1.
       -3    1    3    3    0  502  0.27867309516E+03  0.93725073388E+03 -0.18617559367E+03  0.99536877287E+03  0.10100000352E+00 0.  1.
</event>
<event>
 5   0  0.1258546E-04  0.1668036E+04  0.7818609E-02  0.8779807E-01
       -1   -1    0    0    0  501  0.00000000000E+00  0.00000000000E+00  0.10430437903E+04  0.10430437903E+04  0.50400001928E-02 0.  1.
        1   -1    0    0  501    0  0.00000000000E+00  0.00000000000E+00 -0.66688124777E+03  0.66688124779E+03  0.50400001928E-02 0. -1.
    10030    2    1    2    0    0  0.00000000000E+00  0.00000000000E+00  0.37616254250E+03  0.17099250381E+04  0.16680363837E+04 0.  0.
        4    1    3    3  502    0  0.50810596993E+03 -0.29661112899E+03  0.79405624283E+03  0.98826958275E+03  0.12699999809E+01 0.  1.
       -4    1    3    3    0  502 -0.50810596993E+03  0.29661112899E+03 -0.41789370033E+03  0.72165545532E+03  0.12699999809E+01 0. -1.
</event>
<event>
 5   0  0.2421737E-04  0.2094116E+04  0.7818609E-02  0.8563840E-01
       -2   -1    0    0    0  501  0.00000000000E+00  0.00000000000E+00  0.80219396452E+03  0.80219396452E+03  0.25500000920E-02 0. -1.
        2   -1    0    0  501    0  0.00000000000E+00  0.00000000000E+00 -0.13666644867E+04  0.13666644867E+04  0.25500000920E-02 0.  1.
    10030    2    1    2    0    0  0.00000000000E+00  0.00000000000E+00 -0.56447052214E+03  0.21688584512E+04  0.20941155677E+04 0.  0.
        1    1    3    3  502    0 -0.55574678889E+03 -0.56007573762E+03  0.43065686714E+03  0.89889079563E+03  0.50400001928E-02 0. -1.
       -1    1    3    3    0  502  0.55574678889E+03  0.56007573762E+03 -0.99512738928E+03  0.12699676556E+04  0.50400001928E-02 0.  1.
</event>
<event>
 5   0  0.1210633E-04  0.2012094E+04  0.7818609E-02  0.8600987E-01
       -1   -1    0    0    0  501  0.00000000000E+00  0.00000000000E+00  0.71199242117E+03  0.71199242119E+03  0.50400001928E-02 0. -1.
        1   -1    0    0  501    0  0.00000000000E+00  0.00000000000E+00 -0.14215468112E+04  0.14215468112E+04  0.50400001928E-02 0.  1.
    10030    2    1    2    0    0  0.00000000000E+00  0.00000000000E+00 -0.70955439006E+03  0.21335392324E+04  0.20120939898E+04 0.  0.
        2    1    3    3  502    0 -0.30067125112E+02 -0.16488611833E+03  0.69708427051E+03  0.71695044754E+03  0.25500000920E-02 0. -1.
       -2    1    3    3    0  502  0.30067125112E+02  0.16488611833E+03 -0.14066386606E+04  0.14165887849E+04  0.25500000920E-02 0.  1.
</event>
<event>
 5   0  0.1231056E-04  0.1978284E+04  0.7818609E-02  0.8616841E-01
        1   -1    0    0  501    0  0.00000000000E+00  0.00000000000E+00  0.97882275418E+03  0.97882275420E+03  0.50400001928E-02 0.  1.
       -1   -1    0    0    0  501  0.00000000000E+00  0.00000000000E+00 -0.99956985916E+03  0.99956985917E+03  0.50400001928E-02 0. -1.
    10030    2    1    2    0    0  0.00000000000E+00  0.00000000000E+00 -0.20747104973E+02  0.19783926134E+04  0.19782838245E+04 0.  0.
        3    1    3    3  502    0  0.44460463192E+03 -0.53534204429E+03  0.69261412698E+03  0.98182418091E+03  0.10100000352E+00 0.  1.
       -3    1    3    3    0  502 -0.44460463192E+03  0.53534204429E+03 -0.71336123196E+03  0.99656843246E+03  0.10100000352E+00 0. -1.
</event>
<event>
 5   0  0.1324930E-04  0.2006800E+04  0.7818609E-02  0.8603448E-01
        1   -1    0    0  501    0  0.00000000000E+00  0.00000000000E+00  0.18332320585E+04  0.18332320585E+04  0.50400001928E-02 0. -1.
       -1   -1    0    0    0  501  0.00000000000E+00  0.00000000000E+00 -0.54920047454E+03  0.54920047456E+03  0.50400001928E-02 0.  1.
    10030    2    1    2    0    0  0.00000000000E+00  0.00000000000E+00  0.12840315839E+04  0.23824325330E+04  0.20068003553E+04 0.  0.
        5    1    3    3  502    0 -0.18756006237E+03  0.15422674174E+03  0.17978101189E+04  0.18141411132E+04  0.46999998093E+01 0. -1.
       -5    1    3    3    0  502  0.18756006237E+03 -0.15422674174E+03 -0.51377853499E+03  0.56829141985E+03  0.46999998093E+01 0.  1.
</event>
<event>
 5   0  0.2421737E-04  0.2242721E+04  0.7818609E-02  0.8500854E-01
        2   -1    0    0  501    0  0.00000000000E+00  0.00000000000E+00  0.12363583493E+04  0.12363583493E+04  0.25500000920E-02 0. -1.
       -2   -1    0    0    0  501  0.00000000000E+00  0.00000000000E+00 -0.10170590394E+04  0.10170590394E+04  0.25500000920E-02 0.  1.
    10030    2    1    2    0    0  0.00000000000E+00  0.00000000000E+00  0.21929930986E+03  0.22534173887E+04  0.22427210571E+04 0.  0.
        1    1    3    3  502    0  0.75779902301E+03  0.81680116109E+03 -0.17547712513E+02  0.11143300311E+04  0.50400001928E-02 0. -1.
       -1    1    3    3    0  502 -0.75779902301E+03 -0.81680116109E+03  0.23684702237E+03  0.11390873575E+04  0.50400001928E-02 0.  1.
</event>
<event>
 5   0  0.1324930E-04  0.2013175E+04  0.7818609E-02  0.8600486E-01
        1   -1    0    0  501    0  0.00000000000E+00  0.00000000000E+00  0.18807164627E+04  0.18807164627E+04  0.50400001928E-02 0.  1.
       -1   -1    0    0    0  501  0.00000000000E+00  0.00000000000E+00 -0.53874039364E+03  0.53874039366E+03  0.50400001928E-02 0. -1.
    10030    2    1    2    0    0  0.00000000000E+00  0.00000000000E+00  0.13419760691E+04  0.24194568564E+04  0.20131745354E+04 0.  0.
        5    1    3    3  502    0  0.18313987557E+02  0.23332752578E+01 -0.53852371090E+03  0.53886057892E+03  0.46999998093E+01 0. -1.
       -5    1    3    3    0  502 -0.18313987557E+02 -0.23332752578E+01  0.18804997800E+04  0.18805962775E+04  0.46999998093E+01 0.  1.
</event>
<event>
 5   0  0.2463085E-04  0.1927860E+04  0.7818609E-02  0.8641112E-01
        2   -1    0    0  501    0  0.00000000000E+00  0.00000000000E+00  0.11093594642E+04  0.11093594642E+04  0.25500000920E-02 0. -1.
       -2   -1    0    0    0  501  0.00000000000E+00  0.00000000000E+00 -0.83756517354E+03  0.83756517354E+03  0.25500000920E-02 0.  1.
    10030    2    1    2    0    0  0.00000000000E+00  0.00000000000E+00  0.27179429064E+03  0.19469246377E+04  0.19278598000E+04 0.  0.
        2    1    3    3  502    0  0.16323131620E+03 -0.93865920829E+03  0.28375291501E+03  0.99410325855E+03  0.25500000920E-02 0. -1.
       -2    1    3    3    0  502 -0.16323131620E+03  0.93865920829E+03 -0.11958624368E+02  0.95282137916E+03  0.25500000920E-02 0.  1.
</event>
<event>
 5   0  0.1210633E-04  0.2002996E+04  0.7818609E-02  0.8605221E-01
       -1   -1    0    0    0  501  0.00000000000E+00  0.00000000000E+00  0.56656656585E+03  0.56656656587E+03  0.50400001928E-02 0.  1.
        1   -1    0    0  501    0  0.00000000000E+00  0.00000000000E+00 -0.17703103662E+04  0.17703103662E+04  0.50400001928E-02 0. -1.
    10030    2    1    2    0    0  0.00000000000E+00  0.00000000000E+00 -0.12037438003E+04  0.23368769321E+04  0.20029964201E+04 0.  0.
        2    1    3    3  502    0 -0.57058608459E+03 -0.33509821018E+03 -0.14789402753E+04  0.16202233266E+04  0.25500000920E-02 0. -1.
       -2    1    3    3    0  502  0.57058608459E+03  0.33509821018E+03  0.27519647491E+03  0.71665360544E+03  0.25500000920E-02 0.  1.
</event>
<event>
 5   0  0.2596061E-04  0.1837771E+04  0.7818609E-02  0.8686467E-01
        2   -1    0    0  501    0  0.00000000000E+00  0.00000000000E+00  0.14305351333E+04  0.14305351333E+04  0.25500000920E-02 0. -1.
       -2   -1    0    0    0  501  0.00000000000E+00  0.00000000000E+00 -0.59023423510E+03  0.59023423510E+03  0.25500000920E-02 0.  1.
    10030    2    1    2    0    0  0.00000000000E+00  0.00000000000E+00  0.84030089819E+03  0.20207693684E+04  0.18377712700E+04 0.  0.
        5    1    3    3  502    0  0.32238757032E+03  0.40937736993E+03 -0.41205153479E+03  0.66432833285E+03  0.46999998093E+01 0.  1.
       -5    1    3    3    0  502 -0.32238757032E+03 -0.40937736993E+03  0.12523524330E+04  0.13564410355E+04  0.46999998093E+01 0. -1.
</event>
<event>
 5   0  0.2540506E-04  0.2010589E+04  0.7818609E-02  0.8601686E-01
        2   -1    0    0  501    0  0.00000000000E+00  0.00000000000E+00  0.19687424827E+04  0.19687424827E+04  0.25500000920E-02 0.  1.
       -2   -1    0    0    0  501  0.00000000000E+00  0.00000000000E+00 -0.51333107060E+03  0.51333107061E+03  0.25500000920E-02 0. -1.
    10030    2    1    2    0    0  0.00000000000E+00  0.00000000000E+00  0.14554114121E+04  0.24820735533E+04  0.20105886565E+04 0.  0.
        4    1    3    3  502    0 -0.62656961514E+03 -0.77839557520E+03  0.86364617306E+03  0.13207480756E+04  0.12699999809E+01 0.  1.
       -4    1    3    3    0  502  0.62656961514E+03  0.77839557520E+03  0.59176523906E+03  0.11613254777E+04  0.12699999809E+01 0. -1.
</event>
<event>
 5   0  0.2540506E-04  0.2027156E+04  0.7818609E-02  0.8594029E-01
       -2   -1    0    0    0  501  0.00000000000E+00  0.00000000000E+00  0.89458761520E+03  0.89458761521E+03  0.25500000920E-02 0. -1.
        2   -1    0    0  501    0  0.00000000000E+00  0.00000000000E+00 -0.11483950330E+04  0.11483950330E+04  0.25500000920E-02 0.  1.
    10030    2    1    2    0    0  0.00000000000E+00  0.00000000000E+00 -0.25380741782E+03  0.20429826482E+04  0.20271556170E+04 0.  0.
        4    1    3    3  502    0 -0.67330222149E+03  0.34058069611E+03 -0.80894987855E+03  0.11062244849E+04  0.12699999809E+01 0.  1.
       -4    1    3    3    0  502  0.67330222149E+03 -0.34058069611E+03  0.55514246073E+03  0.93675816336E+03  0.12699999809E+01 0. -1.
</event>
<event>
 5   0  0.1324930E-04  0.1965113E+04  0.7818609E-02  0.8623107E-01
        1   -1    0    0  501    0  0.00000000000E+00  0.00000000000E+00  0.12971255056E+04  0.12971255057E+04  0.50400001928E-02 0. -1.
       -1   -1    0    0    0  501  0.00000000000E+00  0.00000000000E+00 -0.74427429724E+03  0.74427429726E+03  0.50400001928E-02 0.  1.
    10030    2    1    2    0    0  0.00000000000E+00  0.00000000000E+00  0.55285120840E+03  0.20413998029E+04  0.19651128967E+04 0.  0.
        5    1    3    3  502    0  0.62444513002E+03 -0.15720826345E+03 -0.49450873748E+03  0.81191572220E+03  0.46999998093E+01 0.  1.
       -5    1    3    3    0  502 -0.62444513002E+03  0.15720826345E+03  0.10473599459E+04  0.12294840807E+04  0.46999998093E+01 0. -1.
</event>
<event>
 5   0  0.9099125E-05  0.2014225E+04  0.7818609E-02  0.8599999E-01
        3   -1    0    0  501    0  0.00000000000E+00  0.00000000000E+00  0.74808430482E+03  0.74808431164E+03  0.10100000352E+00 0. -1.
       -3   -1    0    0    0  501  0.00000000000E+00  0.00000000000E+00 -0.13558302037E+04  0.13558302075E+04  0.10100000352E+00 0.  1.
    10030    2    1    2    0    0  0.00000000000E+00  0.00000000000E+00 -0.60774589891E+03  0.21039145191E+04  0.20142247209E+04 0.  0.
        4    1    3    3  502    0 -0.78359164873E+02 -0.74493200425E+03 -0.10070583349E+04  0.12550824485E+04  0.12699999809E+01 0.  1.
       -4    1    3    3    0  502  0.78359164873E+02  0.74493200425E+03  0.39931243603E+03  0.84883207064E+03  0.12699999809E+01 0. -1.
</event>
<event>
 5   0  0.1324930E-04  0.1957080E+04  0.7818609E-02  0.8626954E-01
        1   -1    0    0  501    0  0.00000000000E+00  0.00000000000E+00  0.14075194299E+04  0.14075194299E+04  0.50400001928E-02 0.  1.
       -1   -1    0    0    0  501  0.00000000000E+00  0.00000000000E+00 -0.68030357323E+03  0.68030357325E+03  0.50400001928E-02 0. -1.
    10030    2    1    2    0    0  0.00000000000E+00  0.00000000000E+00  0.72721585666E+03  0.20878230032E+04  0.19570799652E+04 0.  0.
        5    1    3    3  502    0  0.86021899620E+02 -0.10635453742E+03 -0.67004168936E+03  0.68387792063E+03  0.46999998093E+01 0. -1.
       -5    1    3    3    0  502 -0.86021899620E+02  0.10635453742E+03  0.13972575460E+04  0.14039450825E+04  0.46999998093E+01 0.  1.
</event>
<event>
 5   0  0.2540506E-04  0.2079994E+04  0.7818609E-02  0.8570108E-01
        2   -1    0    0  501    0  0.00000000000E+00  0.00000000000E+00  0.16995230062E+04  0.16995230062E+04  0.25500000920E-02 0. -1.
       -2   -1    0    0    0  501  0.00000000000E+00  0.00000000000E+00 -0.63640997586E+03  0.63640997587E+03  0.25500000920E-02 0.  1.
    10030    2    1    2    0    0  0.00000000000E+00  0.00000000000E+00  0.10631130303E+04  0.23359329821E+04  0.20799936494E+04 0.  0.
        4    1    3    3  502    0 -0.64077969679E+03  0.37807704737E+03  0.13476431529E+04  0.15393779764E+04  0.12699999809E+01 0. -1.
       -4    1    3    3    0  502  0.64077969679E+03 -0.37807704737E+03 -0.28453012258E+03  0.79655500571E+03  0.12699999809E+01 0.  1.
</event>
<event>
 5   0  0.2596061E-04  0.2014246E+04  0.7818609E-02  0.8599989E-01
        2   -1    0    0  501    0  0.00000000000E+00  0.00000000000E+00  0.93616744389E+03  0.93616744390E+03  0.25500000920E-02 0.  1.
       -2   -1    0    0    0  501  0.00000000000E+00  0.00000000000E+00 -0.10834570112E+04  0.10834570112E+04  0.25500000920E-02 0. -1.
    10030    2    1    2    0    0  0.00000000000E+00  0.00000000000E+00 -0.14728956729E+03  0.20196244551E+04  0.20142464405E+04 0.  0.
        5    1    3    3  502    0 -0.30356712600E+03 -0.13593625210E+03 -0.10267844916E+04  0.10793239305E+04  0.46999998093E+01 0. -1.
       -5    1    3    3    0  502  0.30356712600E+03  0.13593625210E+03  0.87949492435E+03  0.94030052461E+03  0.46999998093E+01 0.  1.
</event>
<event>
 5   0  0.1231056E-04  0.1999096E+04  0.7818609E-02  0.8607043E-01
        1   -1    0    0  501    0  0.00000000000E+00  0.00000000000E+00  0.97108126969E+03  0.97108126970E+03  0.50400001928E-02 0. -1.
       -1   -1    0    0    0  501  0.00000000000E+00  0.00000000000E+00 -0.10288492539E+04  0.10288492539E+04  0.50400001928E-02 0.  1.
    10030    2    1    2    0    0  0.00000000000E+00  0.00000000000E+00 -0.57767984176E+02  0.19999305236E+04  0.19990960355E+04 0.  0.
        3    1    3    3  502    0  0.11093059258E+03 -0.28131326028E+03  0.92422219794E+03  0.97243479378E+03  0.10100000352E+00 0. -1.
       -3    1    3    3    0  502 -0.11093059258E+03  0.28131326028E+03 -0.98199018212E+03  0.10274957298E+04  0.10100000352E+00 0.  1.
</event>
<event>
 5   0  0.2540506E-04  0.2125574E+04  0.7818609E-02  0.8550061E-01
        2   -1    0    0  501    0  0.00000000000E+00  0.00000000000E+00  0.11177604321E+04  0.11177604321E+04  0.25500000920E-02 0.  1.
       -2   -1    0    0    0  501  0.00000000000E+00  0.00000000000E+00 -0.10105176644E+04  0.10105176644E+04  0.25500000920E-02 0. -1.
    10030    2    1    2    0    0  0.00000000000E+00  0.00000000000E+00  0.10724276769E+03  0.21282780965E+04  0.21255744270E+04 0.  0.
        4    1    3    3  502    0 -0.87886601551E+02  0.48554280670E+03  0.99611522604E+03  0.11116307968E+04  0.12699999809E+01 0.  1.
       -4    1    3    3    0  502  0.87886601551E+02 -0.48554280670E+03 -0.88887245836E+03  0.10166472997E+04  0.12699999809E+01 0. -1.
</event>
<event>
 5   0  0.2421737E-04  0.1678626E+04  0.7818609E-02  0.8773650E-01
       -2   -1    0    0    0  501  0.00000000000E+00  0.00000000000E+00  0.50715568525E+03  0.50715568526E+03  0.25500000920E-02 0.  1.
        2   -1    0    0  501    0  0.00000000000E+00  0.00000000000E+00 -0.13890131874E+04  0.13890131874E+04  0.25500000920E-02 0. -1.
    10030    2    1    2    0    0  0.00000000000E+00  0.00000000000E+00 -0.88185750214E+03  0.18961688726E+04  0.16786255507E+04 0.  0.
        1    1    3    3  502    0 -0.54506025009E+03 -0.47324045632E+03  0.42821657227E+02  0.72310504083E+03  0.50400001928E-02 0.  1.
       -1    1    3    3    0  502  0.54506025009E+03  0.47324045632E+03 -0.92467915936E+03  0.11730638318E+04  0.50400001928E-02 0. -1.
</event>
<event>
 5   0  0.1207228E-04  0.2078575E+04  0.7818609E-02  0.8570741E-01
       -1   -1    0    0    0  501  0.00000000000E+00  0.00000000000E+00  0.10030611354E+04  0.10030611354E+04  0.50400001928E-02 0.  1.
        1   -1    0    0  501    0  0.00000000000E+00  0.00000000000E+00 -0.10768219517E+04  0.10768219517E+04  0.50400001928E-02 0. -1.
    10030    2    1    2    0    0  0.00000000000E+00  0.00000000000E+00 -0.73760816321E+02  0.20798830871E+04  0.20785747516E+04 0.  0.
        1    1    3    3  502    0  0.50987665171E+03 -0.76405734723E+03  0.44959473216E+03  0.10226892260E+04  0.50400001928E-02 0.  1.
       -1    1    3    3    0  502 -0.50987665171E+03  0.76405734723E+03 -0.52335554848E+03  0.10571938611E+04  0.50400001928E-02 0. -1.
</event>
<event>
 5   0  0.2488886E-04  0.1830261E+04  0.7818609E-02  0.8690371E-01
        2   -1    0    0  501    0  0.00000000000E+00  0.00000000000E+00  0.19363155444E+04  0.19363155444E+04  0.25500000920E-02 0. -1.
       -2   -1    0    0    0  501  0.00000000000E+00  0.00000000000E+00 -0.43250365861E+03  0.43250365861E+03  0.25500000920E-02 0.  1.
    10030    2    1    2    0    0  0.00000000000E+00  0.00000000000E+00  0.15038118858E+04  0.23688192030E+04  0.18302606996E+04 0.  0.
        3    1    3    3  502    0  0.63665547514E+03  0.52265390172E+03  0.23588012840E+03  0.85681779871E+03  0.10100000352E+00 0.  1.
       -3    1    3    3    0  502 -0.63665547514E+03 -0.52265390172E+03  0.12679317574E+04  0.15120014043E+04  0.10100000352E+00 0. -1.
</event>
<event>
 5   0  0.1231056E-04  0.1272020E+04  0.7818609E-02  0.9052052E-01
       -1   -1    0    0    0  501  0.00000000000E+00  0.00000000000E+00  0.16675730615E+03  0.16675730623E+03  0.50400001928E-02 0.  1.
        1   -1    0    0  501    0  0.00000000000E+00  0.00000000000E+00 -0.24257347156E+04  0.24257347157E+04  0.50400001928E-02 0. -1.
    10030    2    1    2    0    0  0.00000000000E+00  0.00000000000E+00 -0.22589774095E+04  0.25924920219E+04  0.12720204192E+04 0.  0.
        3    1    3    3  502    0 -0.19898047193E+03  0.17133636701E+03 -0.23101033824E+04  0.23249789303E+04  0.10100000352E+00 0. -1.
       -3    1    3    3    0  502  0.19898047193E+03 -0.17133636701E+03  0.51125972872E+02  0.26751309159E+03  0.10100000352E+00 0.  1.
</event>
<event>
 5   0  0.1324930E-04  0.1993562E+04  0.7818609E-02  0.8609636E-01
       -1   -1    0    0    0  501  0.00000000000E+00  0.00000000000E+00  0.65427620550E+03  0.65427620552E+03  0.50400001928E-02 0.  1.
        1   -1    0    0  501    0  0.00000000000E+00  0.00000000000E+00 -0.15185829341E+04  0.15185829342E+04  0.50400001928E-02 0. -1.
    10030    2    1    2    0    0  0.00000000000E+00  0.00000000000E+00 -0.86430672865E+03  0.21728591397E+04  0.19935623190E+04 0.  0.
        5    1    3    3  502    0 -0.12757046434E+03  0.74777396948E+03  0.27261641251E+03  0.80609052294E+03  0.46999998093E+01 0.  1.
       -5    1    3    3    0  502  0.12757046434E+03 -0.74777396948E+03 -0.11369231412E+04  0.13667686167E+04  0.46999998093E+01 0. -1.
</event>
<event>
 5   0  0.1207228E-04  0.2011601E+04  0.7818609E-02  0.8601216E-01
       -1   -1    0    0    0  501  0.00000000000E+00  0.00000000000E+00  0.10793567669E+04  0.10793567669E+04  0.50400001928E-02 0.  1.
        1   -1    0    0  501    0  0.00000000000E+00  0.00000000000E+00 -0.93725711172E+03  0.93725711173E+03  0.50400001928E-02 0. -1.
    10030    2    1    2    0    0  0.00000000000E+00  0.00000000000E+00  0.14209965517E+03  0.20166138786E+04  0.20116011592E+04 0.  0.
        1    1    3    3  502    0 -0.35955255054E+03  0.92631662086E+03 -0.85204823983E+02  0.99729653602E+03  0.50400001928E-02 0.  1.
       -1    1    3    3    0  502  0.35955255054E+03 -0.92631662086E+03  0.22730447915E+03  0.10193173426E+04  0.50400001928E-02 0. -1.
</event>
<event>
 5   0  0.1207228E-04  0.1934217E+04  0.7818609E-02  0.8638009E-01
       -1   -1    0    0    0  501  0.00000000000E+00  0.00000000000E+00  0.39667037353E+03  0.39667037356E+03  0.50400001928E-02 0.  1.
        1   -1    0    0  501    0  0.00000000000E+00  0.00000000000E+00 -0.23578737979E+04  0.23578737979E+04  0.50400001928E-02 0. -1.
    10030    2    1    2    0    0  0.00000000000E+00  0.00000000000E+00 -0.19612034244E+04  0.27545441715E+04  0.19342168236E+04 0.  0.
        1    1    3    3  502    0  0.49174093424E+03  0.75162139675E+03 -0.46999237812E+03  0.10137241765E+04  0.50400001928E-02 0. -1.
       -1    1    3    3    0  502 -0.49174093424E+03 -0.75162139675E+03 -0.14912110463E+04  0.17408199950E+04  0.50400001928E-02 0.  1.
</event>
<event>
 5   0  0.2488886E-04  0.2007662E+04  0.7818609E-02  0.8603047E-01
        2   -1    0    0  501    0  0.00000000000E+00  0.00000000000E+00  0.13349776467E+04  0.13349776467E+04  0.25500000920E-02 0.  1.
       -2   -1    0    0    0  501  0.00000000000E+00  0.00000000000E+00 -0.75482688711E+03  0.75482688711E+03  0.25500000920E-02 0. -1.
    10030    2    1    2    0    0  0.00000000000E+00  0.00000000000E+00  0.58015075963E+03  0.20898045339E+04  0.20076623436E+04 0.  0.
        3    1    3    3  502    0  0.39975116772E+03  0.37885646577E+03 -0.58351398813E+03  0.80238507108E+03  0.10100000352E+00 0. -1.
       -3    1    3    3    0  502 -0.39975116772E+03 -0.37885646577E+03  0.11636647478E+04  0.12874194628E+04  0.10100000352E+00 0.  1.
</event>
<event>
 5   0  0.1207228E-04  0.2022456E+04  0.7818609E-02  0.8596193E-01
       -1   -1    0    0    0  501  0.00000000000E+00  0.00000000000E+00  0.71915322407E+03  0.71915322409E+03  0.50400001928E-02 0. -1.
        1   -1    0    0  501    0  0.00000000000E+00  0.00000000000E+00 -0.14219255909E+04  0.14219255909E+04  0.50400001928E-02 0.  1.
    10030    2    1    2    0    0  0.00000000000E+00  0.00000000000E+00 -0.70277236681E+03  0.21410788150E+04  0.20224563017E+04 0.  0.
        1    1    3    3  502    0  0.16769849941E+03 -0.98918188115E+03 -0.21756480947E+03  0.10266148387E+04  0.50400001928E-02 0.  1.
       -1    1    3    3    0  502 -0.16769849941E+03  0.98918188115E+03 -0.48520755734E+03  0.11144639763E+04  0.50400001928E-02 0. -1.
</event>
<event>
 5   0  0.1210633E-04  0.1978958E+04  0.7818609E-02  0.8616522E-01
       -1   -1    0    0    0  501  0.00000000000E+00  0.00000000000E+00  0.10575638556E+04  0.10575638556E+04  0.50400001928E-02 0. -1.
        1   -1    0    0  501    0  0.00000000000E+00  0.00000000000E+00 -0.92577782841E+03  0.92577782843E+03  0.50400001928E-02 0.  1.
    10030    2    1    2    0    0  0.00000000000E+00  0.00000000000E+00  0.13178602721E+03  0.19833416841E+04  0.19789584833E+04 0.  0.
        2    1    3    3  502    0  0.21630056425E+03 -0.26098889716E+03  0.99755838647E+03  0.10535767048E+04  0.25500000920E-02 0. -1.
       -2    1    3    3    0  502 -0.21630056425E+03  0.26098889716E+03 -0.86577235926E+03  0.92976497923E+03  0.25500000920E-02 0.  1.
</event>
<event>
 5   0  0.1324930E-04  0.2032504E+04  0.7818609E-02  0.8591573E-01
        1   -1    0    0  501    0  0.00000000000E+00  0.00000000000E+00  0.79745984755E+03  0.79745984757E+03  0.50400001928E-02 0. -1.
       -1   -1    0    0    0  501  0.00000000000E+00  0.00000000000E+00 -0.12950721395E+04  0.12950721395E+04  0.50400001928E-02 0.  1.
    10030    2    1    2    0    0  0.00000000000E+00  0.00000000000E+00 -0.49761229193E+03  0.20925319871E+04  0.20325039050E+04 0.  0.
        5    1    3    3  502    0  0.14458249749E+02  0.55589501517E+03 -0.11245261622E+04  0.12545156390E+04  0.46999998093E+01 0.  1.
       -5    1    3    3    0  502 -0.14458249749E+02 -0.55589501517E+03  0.62691387030E+03  0.83801634808E+03  0.46999998093E+01 0. -1.
</event>
<event>
 5   0  0.2540506E-04  0.2006936E+04  0.7818609E-02  0.8603384E-01
       -2   -1    0    0    0  501  0.00000000000E+00  0.00000000000E+00  0.64309857820E+03  0.64309857821E+03  0.25500000920E-02 0. -1.
        2   -1    0    0  501    0  0.00000000000E+00  0.00000000000E+00 -0.15657762893E+04  0.15657762893E+04  0.25500000920E-02 0.  1.
    10030    2    1    2    0    0  0.00000000000E+00  0.00000000000E+00 -0.92267771108E+03  0.22088748675E+04  0.20069364768E+04 0.  0.
        4    1    3    3  502    0 -0.99408442757E+03 -0.13009858783E+02 -0.61133763229E+03  0.11670940061E+04  0.12699999809E+01 0.  1.
       -4    1    3    3    0  502  0.99408442757E+03  0.13009858783E+02 -0.31134007879E+03  0.10417808614E+04  0.12699999809E+01 0. -1.
</event>
<event>
 5   0  0.2488886E-04  0.1983361E+04  0.7818609E-02  0.8614440E-01
        2   -1    0    0  501    0  0.00000000000E+00  0.00000000000E+00  0.11111416973E+04  0.11111416973E+04  0.25500000920E-02 0.  1.
       -2   -1    0    0    0  501  0.00000000000E+00  0.00000000000E+00 -0.88506278377E+03  0.88506278378E+03  0.25500000920E-02 0. -1.
    10030    2    1    2    0    0  0.00000000000E+00  0.00000000000E+00  0.22607891352E+03  0.19962044811E+04  0.19833609493E+04 0.  0.
        3    1    3    3  502    0 -0.70734450307E+03  0.69003141956E+03  0.19694927462E+03  0.10076053955E+04  0.10100000352E+00 0. -1.
       -3    1    3    3    0  502  0.70734450307E+03 -0.69003141956E+03  0.29129638902E+02  0.98859908561E+03  0.10100000352E+00 0.  1.
</event>
<event>
 5   0  0.1258546E-04  0.2003685E+04  0.7818609E-02  0.8604900E-01
        1   -1    0    0  501    0  0.00000000000E+00  0.00000000000E+00  0.16469809390E+04  0.16469809390E+04  0.50400001928E-02 0. -1.
       -1   -1    0    0    0  501  0.00000000000E+00  0.00000000000E+00 -0.60941111854E+03  0.60941111856E+03  0.50400001928E-02 0.  1.
    10030    2    1    2    0    0  0.00000000000E+00  0.00000000000E+00  0.10375698205E+04  0.22563920576E+04  0.20036851013E+04 0.  0.
        4    1    3    3  502    0 -0.94899316608E+03 -0.74973702734E+02  0.16719374916E+03  0.96652183008E+03  0.12699999809E+01 0. -1.
       -4    1    3    3    0  502  0.94899316608E+03  0.74973702734E+02  0.87037607130E+03  0.12898702275E+04  0.12699999809E+01 0.  1.
</event>
<event>
 5   0  0.1210633E-04  0.2018007E+04  0.7818609E-02  0.8598248E-01
        1   -1    0    0  501    0  0.00000000000E+00  0.00000000000E+00  0.15440348582E+04  0.15440348582E+04  0.50400001928E-02 0.  1.
       -1   -1    0    0    0  501  0.00000000000E+00  0.00000000000E+00 -0.65936860388E+03  0.65936860390E+03  0.50400001928E-02 0. -1.
    10030    2    1    2    0    0  0.00000000000E+00  0.00000000000E+00  0.88466625430E+03  0.22034034621E+04  0.20180070454E+04 0.  0.
        2    1    3    3  502    0 -0.86447261573E+03 -0.25533838761E+03  0.93739462731E+03  0.13004688704E+04  0.25500000920E-02 0. -1.
       -2    1    3    3    0  502  0.86447261573E+03  0.25533838761E+03 -0.52728373017E+02  0.90293459169E+03  0.25500000920E-02 0.  1.
</event>
<event>
 5   0  0.1258546E-04  0.1991953E+04  0.7818609E-02  0.8610392E-01
       -1   -1    0    0    0  501  0.00000000000E+00  0.00000000000E+00  0.13144132747E+04  0.13144132748E+04  0.50400001928E-02 0. -1.
        1   -1    0    0  501    0  0.00000000000E+00  0.00000000000E+00 -0.75468558185E+03  0.75468558186E+03  0.50400001928E-02 0.  1.
    10030    2    1    2    0    0  0.00000000000E+00  0.00000000000E+00  0.55972769290E+03  0.20690988566E+04  0.19919525567E+04 0.  0.
        4    1    3    3  502    0  0.40022152160E+03  0.36898981183E+03 -0.58648618513E+03  0.80018648191E+03  0.12699999809E+01 0.  1.
       -4    1    3    3    0  502 -0.40022152160E+03 -0.36898981183E+03  0.11462138780E+04  0.12689123747E+04  0.12699999809E+01 0. -1.
</event>
<event>
 5   0  0.1207228E-04  0.2015260E+04  0.7818609E-02  0.8599519E-01
       -1   -1    0    0    0  501  0.00000000000E+00  0.00000000000E+00  0.12116072089E+04  0.12116072089E+04  0.50400001928E-02 0. -1.
        1   -1    0    0  501    0  0.00000000000E+00  0.00000000000E+00 -0.83799292948E+03  0.83799292949E+03  0.50400001928E-02 0.  1.
    10030    2    1    2    0    0  0.00000000000E+00  0.00000000000E+00  0.37361427944E+03  0.20496001384E+04  0.20152600571E+04 0.  0.
        1    1    3    3  502    0  0.42803936396E+03  0.51822036566E+03 -0.57668327591E+03  0.88562613174E+03  0.50400001928E-02 0.  1.
       -1    1    3    3    0  502 -0.42803936396E+03 -0.51822036566E+03  0.95029755534E+03  0.11639740067E+04  0.50400001928E-02 0. -1.
</event>
<event>
 5   0  0.9099125E-05  0.2007144E+04  0.7818609E-02  0.8603288E-01
        3   -1    0    0  501    0  0.00000000000E+00  0.00000000000E+00  0.10391864930E+04  0.10391864979E+04  0.10100000352E+00 0.  1.
       -3   -1    0    0    0  501  0.00000000000E+00  0.00000000000E+00 -0.96917761008E+03  0.96917761534E+03  0.10100000352E+00 0. -1.
    10030    2    1    2    0    0  0.00000000000E+00  0.00000000000E+00  0.70008882903E+02  0.20083641132E+04  0.20071435344E+04 0.  0.
        5    1    3    3  502    0 -0.45315250067E+03 -0.25477187614E+03  0.89394261947E+03  0.10341234910E+04  0.46999998093E+01 0.  1.
       -5    1    3    3    0  502  0.45315250067E+03  0.25477187614E+03 -0.82393373657E+03  0.97424062222E+03  0.46999998093E+01 0. -1.
</event>
<event>
 5   0  0.1258546E-04  0.1994557E+04  0.7818609E-02  0.8609169E-01
       -1   -1    0    0    0  501  0.00000000000E+00  0.00000000000E+00  0.53095700072E+03  0.53095700074E+03  0.50400001928E-02 0. -1.
        1   -1    0    0  501    0  0.00000000000E+00  0.00000000000E+00 -0.18731550806E+04  0.18731550806E+04  0.50400001928E-02 0.  1.
    10030    2    1    2    0    0  0.00000000000E+00  0.00000000000E+00 -0.13421980799E+04  0.24041120814E+04  0.19945573980E+04 0.  0.
        4    1    3    3  502    0 -0.47150390776E+03 -0.29092965563E+03  0.32839078492E+03  0.64404822806E+03  0.12699999809E+01 0. -1.
       -4    1    3    3    0  502  0.47150390776E+03  0.29092965563E+03 -0.16705888648E+04  0.17600638533E+04  0.12699999809E+01 0.  1.
</event>
<event>
 5   0  0.2540506E-04  0.1355624E+04  0.7818609E-02  0.8986581E-01
       -2   -1    0    0    0  501  0.00000000000E+00  0.00000000000E+00  0.13314195292E+04  0.13314195292E+04  0.25500000920E-02 0. -1.
        2   -1    0    0  501    0  0.00000000000E+00  0.00000000000E+00 -0.34506727714E+03  0.34506727715E+03  0.25500000920E-02 0.  1.
    10030    2    1    2    0    0  0.00000000000E+00  0.00000000000E+00  0.98635225209E+03  0.16764868064E+04  0.13556243015E+04 0.  0.
        4    1    3    3  502    0  0.26108605096E+03 -0.22511642811E+02  0.12662358825E+04  0.12930690713E+04  0.12699999809E+01 0. -1.
       -4    1    3    3    0  502 -0.26108605096E+03  0.22511642811E+02 -0.27988363045E+03  0.38341773507E+03  0.12699999809E+01 0.  1.
</event>
<event>
 5   0  0.2540506E-04  0.1983192E+04  0.7818609E-02  0.8614520E-01
       -2   -1    0    0    0  501  0.00000000000E+00  0.00000000000E+00  0.14806935928E+04  0.14806935928E+04  0.25500000920E-02 0.  1.
        2   -1    0    0  501    0  0.00000000000E+00  0.00000000000E+00 -0.66405524032E+03  0.66405524033E+03  0.25500000920E-02 0. -1.
    10030    2    1    2    0    0  0.00000000000E+00  0.00000000000E+00  0.81663835243E+03  0.21447488331E+04  0.19831917099E+04 0.  0.
        4    1    3    3  502    0  0.58474921653E+03 -0.80082878428E+03  0.40997304885E+03  0.10730041480E+04  0.12699999809E+01 0.  1.
       -4    1    3    3    0  502 -0.58474921653E+03  0.80082878428E+03  0.40666530357E+03  0.10717446851E+04  0.12699999809E+01 0. -1.
</event>
<event>
 5   0  0.1207228E-04  0.1995296E+04  0.7818609E-02  0.8608823E-01
        1   -1    0    0  501    0  0.00000000000E+00  0.00000000000E+00  0.35096389439E+03  0.35096389442E+03  0.50400001928E-02 0.  1.
       -1   -1    0    0    0  501  0.00000000000E+00  0.00000000000E+00 -0.28359072844E+04  0.28359072844E+04  0.50400001928E-02 0. -1.
    10030    2    1    2    0    0  0.00000000000E+00  0.00000000000E+00 -0.24849433900E+04  0.31868711788E+04  0.19952955317E+04 0.  0.
        1    1    3    3  502    0  0.16157735474E+03  0.24419533308E+03 -0.27657299591E+04  0.27811869424E+04  0.50400001928E-02 0. -1.
       -1    1    3    3    0  502 -0.16157735474E+03 -0.24419533308E+03  0.28078656906E+03  0.40568423639E+03  0.50400001928E-02 0.  1.
</event>
<event>
 5   0  0.1258546E-04  0.1985787E+04  0.7818609E-02  0.8613295E-01
        1   -1    0    0  501    0  0.00000000000E+00  0.00000000000E+00  0.18749066933E+04  0.18749066933E+04  0.50400001928E-02 0.  1.
       -1   -1    0    0    0  501  0.00000000000E+00  0.00000000000E+00 -0.52580598812E+03  0.52580598814E+03  0.50400001928E-02 0. -1.
    10030    2    1    2    0    0  0.00000000000E+00  0.00000000000E+00  0.13491007052E+04  0.24007126814E+04  0.19857866618E+04 0.  0.
        4    1    3    3  502    0 -0.45577667836E+02 -0.74389909628E+03  0.14676537045E+04  0.16460474472E+04  0.12699999809E+01 0.  1.
       -4    1    3    3    0  502  0.45577667836E+02  0.74389909628E+03 -0.11855299929E+03  0.75466523425E+03  0.12699999809E+01 0. -1.
</event>
<event>
 5   0  0.2540506E-04  0.1999167E+04  0.7818609E-02  0.8607010E-01
        2   -1    0    0  501    0  0.00000000000E+00  0.00000000000E+00  0.13812324357E+04  0.13812324357E+04  0.25500000920E-02 0.  1.
       -2   -1    0    0    0  501  0.00000000000E+00  0.00000000000E+00 -0.72338791148E+03  0.72338791149E+03  0.25500000920E-02 0. -1.
    10030    2    1    2    0    0  0.00000000000E+00  0.00000000000E+00  0.65784452417E+03  0.21046203471E+04  0.19991666733E+04 0.  0.
        4    1    3    3  502    0  0.28138610343E+03 -0.93498147284E+03  0.55421232933E+03  0.11227294477E+04  0.12699999809E+01 0.  1.
       -4    1    3    3    0  502 -0.28138610343E+03  0.93498147284E+03  0.10363219484E+03  0.98189089948E+03  0.12699999809E+01 0. -1.
</event>
<event>
 5   0  0.2540506E-04  0.1950112E+04  0.7818609E-02  0.8630307E-01
        2   -1    0    0  501    0  0.00000000000E+00  0.00000000000E+00  0.13600952910E+04  0.13600952910E+04  0.25500000920E-02 0.  1.
       -2   -1    0    0    0  501  0.00000000000E+00  0.00000000000E+00 -0.69901998149E+03  0.69901998149E+03  0.25500000920E-02 0. -1.
    10030    2    1    2    0    0  0.00000000000E+00  0.00000000000E+00  0.66107530952E+03  0.20591152725E+04  0.19501115713E+04 0.  0.
        4    1    3    3  502    0 -0.64203321002E+03  0.17878374851E+03 -0.42097701388E+03  0.78828518355E+03  0.12699999809E+01 0. -1.
       -4    1    3    3    0  502  0.64203321002E+03 -0.17878374851E+03  0.10820523234E+04  0.12708300889E+04  0.12699999809E+01 0.  1.
</event>
<event>
 5   0  0.2596061E-04  0.2013176E+04  0.7818609E-02  0.8600485E-01
        2   -1    0    0  501    0  0.00000000000E+00  0.00000000000E+00  0.15132306463E+04  0.15132306463E+04  0.25500000920E-02 0.  1.
       -2   -1    0    0    0  501  0.00000000000E+00  0.00000000000E+00 -0.66957379641E+03  0.66957379641E+03  0.25500000920E-02 0. -1.
    10030    2    1    2    0    0  0.00000000000E+00  0.00000000000E+00  0.84365684986E+03  0.21828044427E+04  0.20131761857E+04 0.  0.
        5    1    3    3  502    0 -0.14996600766E+02  0.10003990078E+04  0.30219369039E+03  0.10451632357E+04  0.46999998093E+01 0.  1.
       -5    1    3    3    0  502  0.14996600766E+02 -0.10003990078E+04  0.54146315948E+03  0.11376412070E+04  0.46999998093E+01 0. -1.
</event>
<event>
 5   0  0.2421737E-04  0.2086494E+04  0.7818609E-02  0.8567216E-01
       -2   -1    0    0    0  501  0.00000000000E+00  0.00000000000E+00  0.13499788000E+04  0.13499788000E+04  0.25500000920E-02 0.  1.
        2   -1    0    0  501    0  0.00000000000E+00  0.00000000000E+00 -0.80620812122E+03  0.80620812123E+03  0.25500000920E-02 0. -1.
    10030    2    1    2    0    0  0.00000000000E+00  0.00000000000E+00  0.54377067882E+03  0.21561869213E+04  0.20864935869E+04 0.  0.
        1    1    3    3  502    0 -0.15773143461E+03 -0.32738339174E+03  0.12824579346E+04  0.13329506535E+04  0.50400001928E-02 0.  1.
       -1    1    3    3    0  502  0.15773143461E+03  0.32738339174E+03 -0.73868725579E+03  0.82323626775E+03  0.50400001928E-02 0. -1.
</event>
<event>
 5   0  0.1324930E-04  0.2037907E+04  0.7818609E-02  0.8589100E-01
        1   -1    0    0  501    0  0.00000000000E+00  0.00000000000E+00  0.10447181491E+04  0.10447181491E+04  0.50400001928E-02 0.  1.
       -1   -1    0    0    0  501  0.00000000000E+00  0.00000000000E+00 -0.99382397400E+03  0.99382397401E+03  0.50400001928E-02 0. -1.
    10030    2    1    2    0    0  0.00000000000E+00  0.00000000000E+00  0.50894175077E+02  0.20385421231E+04  0.20379067129E+04 0.  0.
        5    1    3    3  502    0 -0.43673884564E+03  0.62916325552E+03 -0.64681649484E+03  0.10024873512E+04  0.46999998093E+01 0.  1.
       -5    1    3    3    0  502  0.43673884564E+03 -0.62916325552E+03  0.69771066992E+03  0.10360547719E+04  0.46999998093E+01 0. -1.
</event>
<event>
 5   0  0.2596061E-04  0.1983850E+04  0.7818609E-02  0.8614209E-01
       -2   -1    0    0    0  501  0.00000000000E+00  0.00000000000E+00  0.65259949715E+03  0.65259949716E+03  0.25500000920E-02 0. -1.
        2   -1    0    0  501    0  0.00000000000E+00  0.00000000000E+00 -0.15076866392E+04  0.15076866392E+04  0.25500000920E-02 0.  1.
    10030    2    1    2    0    0  0.00000000000E+00  0.00000000000E+00 -0.85508714203E+03  0.21602861363E+04  0.19838503397E+04 0.  0.
        5    1    3    3  502    0  0.49016994630E+03  0.14706906122E+03  0.49773017510E+03  0.71390006459E+03  0.46999998093E+01 0. -1.
       -5    1    3    3    0  502 -0.49016994630E+03 -0.14706906122E+03 -0.13528173171E+04  0.14463860718E+04  0.46999998093E+01 0.  1.
</event>
<event>
 5   0  0.9099125E-05  0.2017086E+04  0.7818609E-02  0.8598674E-01
       -4   -1    0    0    0  501  0.00000000000E+00  0.00000000000E+00  0.55217762919E+03  0.55217908968E+03  0.12699999809E+01 0. -1.
        4   -1    0    0  501    0  0.00000000000E+00  0.00000000000E+00 -0.18420822625E+04  0.18420827003E+04  0.12699999809E+01 0.  1.
    10030    2    1    2    0    0  0.00000000000E+00  0.00000000000E+00 -0.12899046333E+04  0.23942617900E+04  0.20170859069E+04 0.  0.
        5    1    3    3  502    0 -0.38757974485E+03  0.22064473949E+03 -0.17186602701E+04  0.17755893032E+04  0.46999998093E+01 0.  1.
       -5    1    3    3    0  502  0.38757974485E+03 -0.22064473949E+03  0.42875563684E+03  0.61867248671E+03  0.46999998093E+01 0. -1.
</event>
<event>
 5   0  0.2596061E-04  0.2009971E+04  0.7818609E-02  0.8601973E-01
       -2   -1    0    0    0  501  0.00000000000E+00  0.00000000000E+00  0.85725631709E+03  0.85725631709E+03  0.25500000920E-02 0. -1.
        2   -1    0    0  501    0  0.00000000000E+00  0.00000000000E+00 -0.11781723657E+04  0.11781723657E+04  0.25500000920E-02 0.  1.
    10030    2    1    2    0    0  0.00000000000E+00  0.00000000000E+00 -0.32091604863E+03  0.20354286828E+04  0.20099708487E+04 0.  0.
        5    1    3    3  502    0 -0.43310235511E+03 -0.87293090532E+03 -0.40930937824E+03  0.10569495128E+04  0.46999998093E+01 0. -1.
       -5    1    3    3    0  502  0.43310235511E+03  0.87293090532E+03  0.88393329616E+02  0.97847917003E+03  0.46999998093E+01 0.  1.
</event>
<event>
 5   0  0.1231056E-04  0.2055814E+04  0.7818609E-02  0.8580961E-01
       -1   -1    0    0    0  501  0.00000000000E+00  0.00000000000E+00  0.11635495139E+04  0.11635495139E+04  0.50400001928E-02 0. -1.
        1   -1    0    0  501    0  0.00000000000E+00  0.00000000000E+00 -0.90807704337E+03  0.90807704339E+03  0.50400001928E-02 0.  1.
    10030    2    1    2    0    0  0.00000000000E+00  0.00000000000E+00  0.25547247054E+03  0.20716265573E+04  0.20558138072E+04 0.  0.
        3    1    3    3  502    0 -0.67005711331E+03 -0.48746981084E+03  0.74068226847E+03  0.11114016307E+04  0.10100000352E+00 0. -1.
       -3    1    3    3    0  502  0.67005711331E+03  0.48746981084E+03 -0.48520979793E+03  0.96022492667E+03  0.10100000352E+00 0.  1.
</event>
<event>
 5   0  0.1258546E-04  0.1938897E+04  0.7818609E-02  0.8635733E-01
       -1   -1    0    0    0  501  0.00000000000E+00  0.00000000000E+00  0.36331463058E+03  0.36331463062E+03  0.50400001928E-02 0. -1.
        1   -1    0    0  501    0  0.00000000000E+00  0.00000000000E+00 -0.25868222854E+04  0.25868222854E+04  0.50400001928E-02 0.  1.
    10030    2    1    2    0    0  0.00000000000E+00  0.00000000000E+00 -0.22235076548E+04  0.29501369160E+04  0.19388969886E+04 0.  0.
        4    1    3    3  502    0 -0.77408482576E+03 -0.45822430403E+02 -0.22647367125E+03  0.80783596680E+03  0.12699999809E+01 0. -1.
       -4    1    3    3    0  502  0.77408482576E+03  0.45822430403E+02 -0.19970339836E+04  0.21423009492E+04  0.12699999809E+01 0.  1.
</event>
<event>
 5   0  0.1231056E-04  0.1958636E+04  0.7818609E-02  0.8626208E-01
        1   -1    0    0  501    0  0.00000000000E+00  0.00000000000E+00  0.25951155633E+04  0.25951155633E+04  0.50400001928E-02 0.  1.
       -1   -1    0    0    0  501  0.00000000000E+00  0.00000000000E+00 -0.36956479151E+03  0.36956479154E+03  0.50400001928E-02 0. -1.
    10030    2    1    2    0    0  0.00000000000E+00  0.00000000000E+00  0.22255507718E+04  0.29646803549E+04  0.19586355885E+04 0.  0.
        3    1    3    3  502    0 -0.23487142578E+03 -0.41055099812E+03 -0.18521144254E+03  0.50795668846E+03  0.10100000352E+00 0. -1.
       -3    1    3    3    0  502  0.23487142578E+03  0.41055099812E+03  0.24107622143E+04  0.24567236664E+04  0.10100000352E+00 0.  1.
</event>
<event>
 5   0  0.1231056E-04  0.1969023E+04  0.7818609E-02  0.8621242E-01
        1   -1    0    0  501    0  0.00000000000E+00  0.00000000000E+00  0.11378287264E+04  0.11378287264E+04  0.50400001928E-02 0. -1.
       -1   -1    0    0    0  501  0.00000000000E+00  0.00000000000E+00 -0.85185267858E+03  0.85185267859E+03  0.50400001928E-02 0.  1.
    10030    2    1    2    0    0  0.00000000000E+00  0.00000000000E+00  0.28597604783E+03  0.19896814050E+04  0.19690225477E+04 0.  0.
        3    1    3    3  502    0 -0.30016713402E+03 -0.78266447180E+03  0.66473707208E+03  0.10698314675E+04  0.10100000352E+00 0. -1.
       -3    1    3    3    0  502  0.30016713402E+03  0.78266447180E+03 -0.37876102425E+03  0.91984993746E+03  0.10100000352E+00 0.  1.
</event>
<event>
 5   0  0.2463085E-04  0.1993749E+04  0.7818609E-02  0.8609549E-01
        2   -1    0    0  501    0  0.00000000000E+00  0.00000000000E+00  0.98996507175E+03  0.98996507175E+03  0.25500000920E-02 0.  1.
       -2   -1    0    0    0  501  0.00000000000E+00  0.00000000000E+00 -0.10038318406E+04  0.10038318406E+04  0.25500000920E-02 0. -1.
    10030    2    1    2    0    0  0.00000000000E+00  0.00000000000E+00 -0.13866768808E+02  0.19937969123E+04  0.19937486903E+04 0.  0.
        2    1    3    3  502    0 -0.10671981170E+03 -0.41328514684E+03 -0.90782404796E+03  0.10031641106E+04  0.25500000920E-02 0. -1.
       -2    1    3    3    0  502  0.10671981170E+03  0.41328514684E+03  0.89395727915E+03  0.99063280168E+03  0.25500000920E-02 0.  1.
</event>
<event>
 5   0  0.1324930E-04  0.1986092E+04  0.7818609E-02  0.8613151E-01
        1   -1    0    0  501    0  0.00000000000E+00  0.00000000000E+00  0.17112039597E+04  0.17112039597E+04  0.50400001928E-02 0. -1.
       -1   -1    0    0    0  501  0.00000000000E+00  0.00000000000E+00 -0.57628427457E+03  0.57628427459E+03  0.50400001928E-02 0.  1.
    10030    2    1    2    0    0  0.00000000000E+00  0.00000000000E+00  0.11349196851E+04  0.22874882343E+04  0.19860915715E+04 0.  0.
        5    1    3    3  502    0  0.31296499342E+03  0.34975097503E+03  0.15753890827E+04  0.16438204536E+04  0.46999998093E+01 0. -1.
       -5    1    3    3    0  502 -0.31296499342E+03 -0.34975097503E+03 -0.44046939763E+03  0.64366778068E+03  0.46999998093E+01 0.  1.
</event>
<event>
 5   0  0.1210633E-04  0.2016267E+04  0.7818609E-02  0.8599053E-01
       -1   -1    0    0    0  501  0.00000000000E+00  0.00000000000E+00  0.46566560645E+03  0.46566560647E+03  0.50400001928E-02 0.  1.
        1   -1    0    0  501    0  0.00000000000E+00  0.00000000000E+00 -0.21825378955E+04  0.21825378955E+04  0.50400001928E-02 0. -1.
    10030    2    1    2    0    0  0.00000000000E+00  0.00000000000E+00 -0.17168722890E+04  0.26482035020E+04  0.20162666815E+04 0.  0.
        2    1    3    3  502    0 -0.62665338699E+03  0.50352078326E+03 -0.16574714468E+04  0.18421289976E+04  0.25500000920E-02 0. -1.
       -2    1    3    3    0  502  0.62665338699E+03 -0.50352078326E+03 -0.59400842215E+02  0.80607450441E+03  0.25500000920E-02 0.  1.
</event>
<event>
 5   0  0.1231056E-04  0.1899000E+04  0.7818609E-02  0.8655354E-01
        1   -1    0    0  501    0  0.00000000000E+00  0.00000000000E+00  0.16886614763E+04  0.16886614763E+04  0.50400001928E-02 0.  1.
       -1   -1    0    0    0  501  0.00000000000E+00  0.00000000000E+00 -0.53388458946E+03  0.53388458948E+03  0.50400001928E-02 0. -1.
    10030    2    1    2    0    0  0.00000000000E+00  0.00000000000E+00  0.11547768868E+04  0.22225460658E+04  0.18990000938E+04 0.  0.
        3    1    3    3  502    0  0.18647681571E+02 -0.95049464441E+02  0.16828640217E+04  0.16856492703E+04  0.10100000352E+00 0.  1.
       -3    1    3    3    0  502 -0.18647681571E+02  0.95049464441E+02 -0.52808713490E+03  0.53689679545E+03  0.10100000352E+00 0. -1.
</event>
<event>
 5   0  0.2421737E-04  0.1940573E+04  0.7818609E-02  0.8634920E-01
        2   -1    0    0  501    0  0.00000000000E+00  0.00000000000E+00  0.66644008503E+03  0.66644008504E+03  0.25500000920E-02 0. -1.
       -2   -1    0    0    0  501  0.00000000000E+00  0.00000000000E+00 -0.14126644658E+04  0.14126644658E+04  0.25500000920E-02 0.  1.
    10030    2    1    2    0    0  0.00000000000E+00  0.00000000000E+00 -0.74622438078E+03  0.20791045509E+04  0.19405733449E+04 0.  0.
        1    1    3    3  502    0 -0.12109739491E+03 -0.52019213517E+03 -0.12409961535E+04  0.13510499212E+04  0.50400001928E-02 0.  1.
       -1    1    3    3    0  502  0.12109739491E+03  0.52019213517E+03  0.49477177277E+03  0.72805462961E+03  0.50400001928E-02 0. -1.
</event>
<event>
 5   0  0.2463085E-04  0.1983135E+04  0.7818609E-02  0.8614546E-01
        2   -1    0    0  501    0  0.00000000000E+00  0.00000000000E+00  0.11408593589E+04  0.11408593589E+04  0.25500000920E-02 0.  1.
       -2   -1    0    0    0  501  0.00000000000E+00  0.00000000000E+00 -0.86181213137E+03  0.86181213137E+03  0.25500000920E-02 0. -1.
    10030    2    1    2    0    0  0.00000000000E+00  0.00000000000E+00  0.27904722753E+03  0.20026714903E+04  0.19831353314E+04 0.  0.
        2    1    3    3  502    0  0.16870654250E+03 -0.57806557242E+03 -0.65600884974E+03  0.89048824497E+03  0.25500000920E-02 0. -1.
       -2    1    3    3    0  502 -0.16870654250E+03  0.57806557242E+03  0.93505607727E+03  0.11121832453E+04  0.25500000920E-02 0.  1.
</event>
<event>
 5   0  0.1231056E-04  0.1993550E+04  0.7818609E-02  0.8609642E-01
        1   -1    0    0  501    0  0.00000000000E+00  0.00000000000E+00  0.17772151129E+04  0.17772151129E+04  0.50400001928E-02 0. -1.
       -1   -1    0    0    0  501  0.00000000000E+00  0.00000000000E+00 -0.55905453183E+03  0.55905453185E+03  0.50400001928E-02 0.  1.
    10030    2    1    2    0    0  0.00000000000E+00  0.00000000000E+00  0.12181605811E+04  0.23362696448E+04  0.19935497615E+04 0.  0.
        3    1    3    3  502    0  0.77352719720E+03  0.61227270610E+03  0.77620843589E+03  0.12552775540E+04  0.10100000352E+00 0. -1.
       -3    1    3    3    0  502 -0.77352719720E+03 -0.61227270610E+03  0.44195214519E+03  0.10809920908E+04  0.10100000352E+00 0.  1.
</event>
<event>
 5   0  0.2421737E-04  0.2063008E+04  0.7818609E-02  0.8577716E-01
        2   -1    0    0  501    0  0.00000000000E+00  0.00000000000E+00  0.74673524528E+03  0.74673524528E+03  0.25500000920E-02 0. -1.
       -2   -1    0    0    0  501  0.00000000000E+00  0.00000000000E+00 -0.14248702544E+04  0.14248702544E+04  0.25500000920E-02 0.  1.
    10030    2    1    2    0    0  0.00000000000E+00  0.00000000000E+00 -0.67813500913E+03  0.21716054997E+04  0.20630083266E+04 0.  0.
        1    1    3    3  502    0  0.38520829132E+03 -0.33423655718E+02 -0.13457010438E+04  0.14001478021E+04  0.50400001928E-02 0.  1.
       -1    1    3    3    0  502 -0.38520829132E+03  0.33423655718E+02  0.66756603467E+03  0.77145769757E+03  0.50400001928E-02 0. -1.
</event>
<event>
 5   0  0.1207228E-04  0.2161320E+04  0.7818609E-02  0.8534702E-01
        1   -1    0    0  501    0  0.00000000000E+00  0.00000000000E+00  0.14598973469E+04  0.14598973469E+04  0.50400001928E-02 0.  1.
       -1   -1    0    0    0  501  0.00000000000E+00  0.00000000000E+00 -0.79993687285E+03  0.79993687286E+03  0.50400001928E-02 0. -1.
    10030    2    1    2    0    0  0.00000000000E+00  0.00000000000E+00  0.65996047407E+03  0.22598342198E+04  0.21613197065E+04 0.  0.
        1    1    3    3  502    0 -0.51044998831E+03 -0.39412074332E+03  0.12366472677E+04  0.13946995431E+04  0.50400001928E-02 0.  1.
       -1    1    3    3    0  502  0.51044998831E+03  0.39412074332E+03 -0.57668679359E+03  0.86513467669E+03  0.50400001928E-02 0. -1.
</event>
<event>
 5   0  0.1231056E-04  0.1995029E+04  0.7818609E-02  0.8608948E-01
        1   -1    0    0  501    0  0.00000000000E+00  0.00000000000E+00  0.12251035057E+04  0.12251035057E+04  0.50400001928E-02 0. -1.
       -1   -1    0    0    0  501  0.00000000000E+00  0.00000000000E+00 -0.81220472409E+03  0.81220472411E+03  0.50400001928E-02 0.  1.
    10030    2    1    2    0    0  0.00000000000E+00  0.00000000000E+00  0.41289878164E+03  0.20373082298E+04  0.19950286764E+04 0.  0.
        3    1    3    3  502    0 -0.64047958786E+03 -0.66732742990E+03 -0.17495586553E+03  0.94135517540E+03  0.10100000352E+00 0.  1.
       -3    1    3    3    0  502  0.64047958786E+03  0.66732742990E+03  0.58785464717E+03  0.10959530545E+04  0.10100000352E+00 0. -1.
</event>
<event>
 5   0  0.2540506E-04  0.1972783E+04  0.7818609E-02  0.8619452E-01
        2   -1    0    0  501    0  0.00000000000E+00  0.00000000000E+00  0.18193234103E+04  0.18193234103E+04  0.25500000920E-02 0.  1.
       -2   -1    0    0    0  501  0.00000000000E+00  0.00000000000E+00 -0.53479650716E+03  0.53479650717E+03  0.25500000920E-02 0. -1.
    10030    2    1    2    0    0  0.00000000000E+00  0.00000000000E+00  0.12845269032E+04  0.23541199175E+04  0.19727826086E+04 0.  0.
        4    1    3    3  502    0 -0.41748661455E+03 -0.79422082592E+03  0.11312022724E+04  0.14438497109E+04  0.12699999809E+01 0.  1.
       -4    1    3    3    0  502  0.41748661455E+03  0.79422082592E+03  0.15332463070E+03  0.91027020655E+03  0.12699999809E+01 0. -1.
</event>
<event>
 5   0  0.2596061E-04  0.2083304E+04  0.7818609E-02  0.8568634E-01
        2   -1    0    0  501    0  0.00000000000E+00  0.00000000000E+00  0.19271500093E+04  0.19271500093E+04  0.25500000920E-02 0. -1.
       -2   -1    0    0    0  501  0.00000000000E+00  0.00000000000E+00 -0.56302788718E+03  0.56302788719E+03  0.25500000920E-02 0.  1.
    10030    2    1    2    0    0  0.00000000000E+00  0.00000000000E+00  0.13641221221E+04  0.24901778965E+04  0.20833042966E+04 0.  0.
        5    1    3    3  502    0  0.56582562176E+03  0.75510553177E+03  0.15467121628E+03  0.95618422571E+03  0.46999998093E+01 0.  1.
       -5    1    3    3    0  502 -0.56582562176E+03 -0.75510553177E+03  0.12094509059E+04  0.15339936708E+04  0.46999998093E+01 0. -1.
</event>
<event>
 5   0  0.2421737E-04  0.1985435E+04  0.7818609E-02  0.8613461E-01
        2   -1    0    0  501    0  0.00000000000E+00  0.00000000000E+00  0.22701115191E+04  0.22701115191E+04  0.25500000920E-02 0. -1.
       -2   -1    0    0    0  501  0.00000000000E+00  0.00000000000E+00 -0.43411423297E+03  0.43411423297E+03  0.25500000920E-02 0.  1.
    10030    2    1    2    0    0  0.00000000000E+00  0.00000000000E+00  0.18359972861E+04  0.27042257520E+04  0.19854346837E+04 0.  0.
        1    1    3    3  502    0 -0.43555993242E+03  0.66539446751E+02 -0.29363418269E+03  0.52949125202E+03  0.50400001928E-02 0.  1.
       -1    1    3    3    0  502  0.43555993242E+03 -0.66539446751E+02  0.21296314688E+04  0.21747345000E+04  0.50400001928E-02 0. -1.
</event>
<event>
 5   0  0.2596061E-04  0.1887108E+04  0.7818609E-02  0.8661300E-01
        2   -1    0    0  501    0  0.00000000000E+00  0.00000000000E+00  0.86690532418E+03  0.86690532419E+03  0.25500000920E-02 0. -1.
       -2   -1    0    0    0  501  0.00000000000E+00  0.00000000000E+00 -0.10269800961E+04  0.10269800961E+04  0.25500000920E-02 0.  1.
    10030    2    1    2    0    0  0.00000000000E+00  0.00000000000E+00 -0.16007477189E+03  0.18938854203E+04  0.18871083839E+04 0.  0.
        5    1    3    3  502    0 -0.60353349990E+03  0.44607333080E+03 -0.65396375517E+03  0.99545205059E+03  0.46999998093E+01 0.  1.
       -5    1    3    3    0  502  0.60353349990E+03 -0.44607333080E+03  0.49388898327E+03  0.89843336968E+03  0.46999998093E+01 0. -1.
</event>
<event>
 5   0  0.2540506E-04  0.2054273E+04  0.7818609E-02  0.8581658E-01
       -2   -1    0    0    0  501  0.00000000000E+00  0.00000000000E+00  0.12198550551E+04  0.12198550551E+04  0.25500000920E-02 0. -1.
        2   -1    0    0  501    0  0.00000000000E+00  0.00000000000E+00 -0.86486483319E+03  0.86486483320E+03  0.25500000920E-02 0.  1.
    10030    2    1    2    0    0  0.00000000000E+00  0.00000000000E+00  0.35499022189E+03  0.20847198883E+04  0.20542733399E+04 0.  0.
        4    1    3    3  502    0 -0.33445322868E+03 -0.19020226951E+03 -0.78897066999E+03  0.87778824127E+03  0.12699999809E+01 0.  1.
       -4    1    3    3    0  502  0.33445322868E+03  0.19020226951E+03  0.11439608919E+04  0.12069316470E+04  0.12699999809E+01 0. -1.
</event>
<event>
 5   0  0.1231056E-04  0.2318523E+04  0.7818609E-02  0.8470653E-01
        1   -1    0    0  501    0  0.00000000000E+00  0.00000000000E+00  0.14074295752E+04  0.14074295752E+04  0.50400001928E-02 0. -1.
       -1   -1    0    0    0  501  0.00000000000E+00  0.00000000000E+00 -0.95485200996E+03  0.95485200998E+03  0.50400001928E-02 0.  1.
    10030    2    1    2    0    0  0.00000000000E+00  0.00000000000E+00  0.45257756527E+03  0.23622815852E+04  0.23185227701E+04 0.  0.
        3    1    3    3  502    0 -0.11238499650E+04  0.20170744581E+03  0.43047651568E+03  0.12202600863E+04  0.10100000352E+00 0. -1.
       -3    1    3    3    0  502  0.11238499650E+04 -0.20170744581E+03  0.22101049591E+02  0.11420214989E+04  0.10100000352E+00 0.  1.
</event>
<event>
 5   0  0.1231056E-04  0.1899442E+04  0.7818609E-02  0.8655134E-01
        1   -1    0    0  501    0  0.00000000000E+00  0.00000000000E+00  0.12312257937E+04  0.12312257937E+04  0.50400001928E-02 0. -1.
       -1   -1    0    0    0  501  0.00000000000E+00  0.00000000000E+00 -0.73257869606E+03  0.73257869608E+03  0.50400001928E-02 0.  1.
    10030    2    1    2    0    0  0.00000000000E+00  0.00000000000E+00  0.49864709764E+03  0.19638044898E+04  0.18994417986E+04 0.  0.
        3    1    3    3  502    0  0.92704408102E+03  0.90465091611E+02  0.44101129019E+03  0.10305753875E+04  0.10100000352E+00 0. -1.
       -3    1    3    3    0  502 -0.92704408102E+03 -0.90465091611E+02  0.57635807454E+02  0.93322910234E+03  0.10100000352E+00 0.  1.
</event>
<event>
 5   0  0.2488886E-04  0.2053501E+04  0.7818609E-02  0.8582008E-01
       -2   -1    0    0    0  501  0.00000000000E+00  0.00000000000E+00  0.70917530054E+03  0.70917530054E+03  0.25500000920E-02 0. -1.
        2   -1    0    0  501    0  0.00000000000E+00  0.00000000000E+00 -0.14865387181E+04  0.14865387181E+04  0.25500000920E-02 0.  1.
    10030    2    1    2    0    0  0.00000000000E+00  0.00000000000E+00 -0.77736341754E+03  0.21957140186E+04  0.20535009541E+04 0.  0.
        3    1    3    3  502    0  0.43253155577E+03  0.84816965308E+03 -0.79967214245E+03  0.12433627197E+04  0.10100000352E+00 0.  1.
       -3    1    3    3    0  502 -0.43253155577E+03 -0.84816965308E+03  0.22308724910E+02  0.95235129891E+03  0.10100000352E+00 0. -1.
</event>
<event>
 5   0  0.2540506E-04  0.1977399E+04  0.7818609E-02  0.8617261E-01
        2   -1    0    0  501    0  0.00000000000E+00  0.00000000000E+00  0.11306331672E+04  0.11306331672E+04  0.25500000920E-02 0.  1.
       -2   -1    0    0    0  501  0.00000000000E+00  0.00000000000E+00 -0.86458378639E+03  0.86458378639E+03  0.25500000920E-02 0. -1.
    10030    2    1    2    0    0  0.00000000000E+00  0.00000000000E+00  0.26604938080E+03  0.19952169536E+04  0.19773994080E+04 0.  0.
        4    1    3    3  502    0 -0.66450101163E+03 -0.12143981531E+03 -0.59543362974E+03  0.90047323310E+03  0.12699999809E+01 0. -1.
       -4    1    3    3    0  502  0.66450101163E+03  0.12143981531E+03  0.86148301054E+03  0.10947437205E+04  0.12699999809E+01 0.  1.
</event>
<event>
 5   0  0.1210633E-04  0.2007552E+04  0.7818609E-02  0.8603098E-01
       -1   -1    0    0    0  501  0.00000000000E+00  0.00000000000E+00  0.67746772988E+03  0.67746772990E+03  0.50400001928E-02 0. -1.
        1   -1    0    0  501    0  0.00000000000E+00  0.00000000000E+00 -0.14872536315E+04  0.14872536315E+04  0.50400001928E-02 0.  1.
    10030    2    1    2    0    0  0.00000000000E+00  0.00000000000E+00 -0.80978590163E+03  0.21647213614E+04  0.20075520830E+04 0.  0.
        2    1    3    3  502    0 -0.43784384357E+02  0.71876289745E+02  0.67365647791E+03  0.67889345525E+03  0.25500000920E-02 0. -1.
       -2    1    3    3    0  502  0.43784384357E+02 -0.71876289745E+02 -0.14834423795E+04  0.14858279062E+04  0.25500000920E-02 0.  1.
</event>
<event>
 5   0  0.1207228E-04  0.2010359E+04  0.7818609E-02  0.8601793E-01
        1   -1    0    0  501    0  0.00000000000E+00  0.00000000000E+00  0.14589843984E+04  0.14589843985E+04  0.50400001928E-02 0. -1.
       -1   -1    0    0    0  501  0.00000000000E+00  0.00000000000E+00 -0.69252657496E+03  0.69252657498E+03  0.50400001928E-02 0.  1.
    10030    2    1    2    0    0  0.00000000000E+00  0.00000000000E+00  0.76645782349E+03  0.21515109734E+04  0.20103586430E+04 0.  0.
        1    1    3    3  502    0 -0.14176508460E+03  0.64365915699E+02  0.14460017524E+04  0.14543594392E+04  0.50400001928E-02 0. -1.
       -1    1    3    3    0  502  0.14176508460E+03 -0.64365915699E+02 -0.67954392894E+03  0.69715153424E+03  0.50400001928E-02 0.  1.
</event>
<event>
 5   0  0.1210633E-04  0.1973576E+04  0.7818609E-02  0.8619076E-01
       -1   -1    0    0    0  501  0.00000000000E+00  0.00000000000E+00  0.83593550514E+03  0.83593550516E+03  0.50400001928E-02 0.  1.
        1   -1    0    0  501    0  0.00000000000E+00  0.00000000000E+00 -0.11648627910E+04  0.11648627910E+04  0.50400001928E-02 0. -1.
    10030    2    1    2    0    0  0.00000000000E+00  0.00000000000E+00 -0.32892728587E+03  0.20007982962E+04  0.19735756035E+04 0.  0.
        2    1    3    3  502    0 -0.40189292081E+03 -0.81062297717E+03 -0.56375244180E+03  0.10660414375E+04  0.25500000920E-02 0. -1.
       -2    1    3    3    0  502  0.40189292081E+03  0.81062297717E+03  0.23482515592E+03  0.93475685864E+03  0.25500000920E-02 0.  1.
</event>
<event>
 5   0  0.2540506E-04  0.2070285E+04  0.7818609E-02  0.8574447E-01
        2   -1    0    0  501    0  0.00000000000E+00  0.00000000000E+00  0.15300829778E+04  0.15300829778E+04  0.25500000920E-02 0. -1.
       -2   -1    0    0    0  501  0.00000000000E+00  0.00000000000E+00 -0.70030175929E+03  0.70030175929E+03  0.25500000920E-02 0.  1.
    10030    2    1    2    0    0  0.00000000000E+00  0.00000000000E+00  0.82978121855E+03  0.22303847371E+04  0.20702848125E+04 0.  0.
        4    1    3    3  502    0 -0.27086359041E+03  0.65211648664E+03  0.12303217201E+04  0.14185612939E+04  0.12699999809E+01 0. -1.
       -4    1    3    3    0  502  0.27086359041E+03 -0.65211648664E+03 -0.40054050151E+03  0.81182344325E+03  0.12699999809E+01 0.  1.
</event>
<event>
 5   0  0.2540506E-04  0.1936762E+04  0.7818609E-02  0.8636771E-01
        2   -1    0    0  501    0  0.00000000000E+00  0.00000000000E+00  0.15021667871E+04  0.15021667871E+04  0.25500000920E-02 0.  1.
       -2   -1    0    0    0  501  0.00000000000E+00  0.00000000000E+00 -0.62427301117E+03  0.62427301118E+03  0.25500000920E-02 0. -1.
    10030    2    1    2    0    0  0.00000000000E+00  0.00000000000E+00  0.87789377596E+03  0.21264397983E+04  0.19367624361E+04 0.  0.
        4    1    3    3  502    0 -0.94157260622E+03  0.11211366767E+03  0.65474668309E+03  0.11523121449E+04  0.12699999809E+01 0.  1.
       -4    1    3    3    0  502  0.94157260622E+03 -0.11211366767E+03  0.22314709287E+03  0.97412765345E+03  0.12699999809E+01 0. -1.
</event>
<event>
 5   0  0.2596061E-04  0.2057646E+04  0.7818609E-02  0.8580134E-01
        2   -1    0    0  501    0  0.00000000000E+00  0.00000000000E+00  0.19916769711E+04  0.19916769711E+04  0.25500000920E-02 0.  1.
       -2   -1    0    0    0  501  0.00000000000E+00  0.00000000000E+00 -0.53145011059E+03  0.53145011059E+03  0.25500000920E-02 0. -1.
    10030    2    1    2    0    0  0.00000000000E+00  0.00000000000E+00  0.14602268605E+04  0.25231270817E+04  0.20576461761E+04 0.  0.
        5    1    3    3  502    0 -0.65817088408E+03 -0.34758630134E+02 -0.23856767593E+03  0.70095199623E+03  0.46999998093E+01 0. -1.
       -5    1    3    3    0  502  0.65817088408E+03  0.34758630134E+02  0.16987945364E+04  0.18221750854E+04  0.46999998093E+01 0.  1.
</event>
<event>
 5   0  0.1231056E-04  0.1606327E+04  0.7818609E-02  0.8816671E-01
        1   -1    0    0  501    0  0.00000000000E+00  0.00000000000E+00  0.14258997449E+04  0.14258997449E+04  0.50400001928E-02 0. -1.
       -1   -1    0    0    0  501  0.00000000000E+00  0.00000000000E+00 -0.45239592094E+03  0.45239592097E+03  0.50400001928E-02 0.  1.
    10030    2    1    2    0    0  0.00000000000E+00  0.00000000000E+00  0.97350382395E+03  0.18782956659E+04  0.16063265276E+04 0.  0.
        3    1    3    3  502    0  0.42628308414E+03  0.60793447486E+03  0.84481636909E+03  0.11247294347E+04  0.10100000352E+00 0. -1.
       -3    1    3    3    0  502 -0.42628308414E+03 -0.60793447486E+03  0.12868745485E+03  0.75356623119E+03  0.10100000352E+00 0.  1.
</event>
<event>
 5   0  0.1210633E-04  0.1998772E+04  0.7818609E-02  0.8607195E-01
       -1   -1    0    0    0  501  0.00000000000E+00  0.00000000000E+00  0.54681575097E+03  0.54681575099E+03  0.50400001928E-02 0.  1.
        1   -1    0    0  501    0  0.00000000000E+00  0.00000000000E+00 -0.18265246947E+04  0.18265246947E+04  0.50400001928E-02 0. -1.
    10030    2    1    2    0    0  0.00000000000E+00  0.00000000000E+00 -0.12797089437E+04  0.23733404457E+04  0.19987720957E+04 0.  0.
        2    1    3    3  502    0  0.70235276369E+02  0.90698468774E+03 -0.11311827898E+04  0.14515952335E+04  0.25500000920E-02 0. -1.
       -2    1    3    3    0  502 -0.70235276369E+02 -0.90698468774E+03 -0.14852615390E+03  0.92174521221E+03  0.25500000920E-02 0.  1.
</event>
<event>
 5   0  0.2421737E-04  0.1912004E+04  0.7818609E-02  0.8648904E-01
        2   -1    0    0  501    0  0.00000000000E+00  0.00000000000E+00  0.13388461375E+04  0.13388461375E+04  0.25500000920E-02 0.  1.
       -2   -1    0    0    0  501  0.00000000000E+00  0.00000000000E+00 -0.68263280712E+03  0.68263280712E+03  0.25500000920E-02 0. -1.
    10030    2    1    2    0    0  0.00000000000E+00  0.00000000000E+00  0.65621333037E+03  0.20214789446E+04  0.19120044949E+04 0.  0.
        1    1    3    3  502    0  0.87950819689E+03  0.34883584732E+03  0.18345490341E+03  0.96378255762E+03  0.50400001928E-02 0.  1.
       -1    1    3    3    0  502 -0.87950819689E+03 -0.34883584732E+03  0.47275842696E+03  0.10576963870E+04  0.50400001928E-02 0. -1.
</event>
<event>
 5   0  0.1258546E-04  0.1993939E+04  0.7818609E-02  0.8609460E-01
       -1   -1    0    0    0  501  0.00000000000E+00  0.00000000000E+00  0.71508228574E+03  0.71508228575E+03  0.50400001928E-02 0.  1.
        1   -1    0    0  501    0  0.00000000000E+00  0.00000000000E+00 -0.13899776773E+04  0.13899776773E+04  0.50400001928E-02 0. -1.
    10030    2    1    2    0    0  0.00000000000E+00  0.00000000000E+00 -0.67489539157E+03  0.21050599631E+04  0.19939392314E+04 0.  0.
        4    1    3    3  502    0  0.41812229274E+03 -0.78999802497E+00 -0.12929380306E+04  0.13588661596E+04  0.12699999809E+01 0. -1.
       -4    1    3    3    0  502 -0.41812229274E+03  0.78999802497E+00  0.61804263904E+03  0.74619380348E+03  0.12699999809E+01 0.  1.
</event>
<event>
 5   0  0.2540506E-04  0.2090606E+04  0.7818609E-02  0.8565393E-01
        2   -1    0    0  501    0  0.00000000000E+00  0.00000000000E+00  0.13324220113E+04  0.13324220113E+04  0.25500000920E-02 0. -1.
       -2   -1    0    0    0  501  0.00000000000E+00  0.00000000000E+00 -0.82005433189E+03  0.82005433189E+03  0.25500000920E-02 0.  1.
    10030    2    1    2    0    0  0.00000000000E+00  0.00000000000E+00  0.51236767939E+03  0.21524763432E+04  0.20906060770E+04 0.  0.
        4    1    3    3  502    0 -0.13690027434E+03  0.39979508471E+02  0.13223569626E+04  0.13300261635E+04  0.12699999809E+01 0. -1.
       -4    1    3    3    0  502  0.13690027434E+03 -0.39979508471E+02 -0.80998928321E+03  0.82245017966E+03  0.12699999809E+01 0.  1.
</event>
<event>
 5   0  0.9099125E-05  0.2023994E+04  0.7818609E-02  0.8595484E-01
        3   -1    0    0  501    0  0.00000000000E+00  0.00000000000E+00  0.13863832375E+04  0.13863832412E+04  0.10100000352E+00 0. -1.
       -3   -1    0    0    0  501  0.00000000000E+00  0.00000000000E+00 -0.73871167560E+03  0.73871168250E+03  0.10100000352E+00 0.  1.
    10030    2    1    2    0    0  0.00000000000E+00  0.00000000000E+00  0.64767156188E+03  0.21250949237E+04  0.20239935727E+04 0.  0.
        5    1    3    3  502    0  0.64229156432E+03  0.78203236212E+03  0.32544074268E+03  0.10630366108E+04  0.46999998093E+01 0. -1.
       -5    1    3    3    0  502 -0.64229156432E+03 -0.78203236212E+03  0.32223081921E+03  0.10620583128E+04  0.46999998093E+01 0.  1.
</event>
<event>
 5   0  0.2463085E-04  0.2005262E+04  0.7818609E-02  0.8604164E-01
       -2   -1    0    0    0  501  0.00000000000E+00  0.00000000000E+00  0.13063999325E+04  0.13063999325E+04  0.25500000920E-02 0. -1.
        2   -1    0    0  501    0  0.00000000000E+00  0.00000000000E+00 -0.76949589351E+03  0.76949589351E+03  0.25500000920E-02 0.  1.
    10030    2    1    2    0    0  0.00000000000E+00  0.00000000000E+00  0.53690403895E+03  0.20758958260E+04  0.20052624599E+04 0.  0.
        2    1    3    3  502    0 -0.96462895236E+03 -0.89574474622E+02  0.53588622868E+03  0.11071163680E+04  0.25500000920E-02 0. -1.
       -2    1    3    3    0  502  0.96462895236E+03  0.89574474622E+02  0.10178102733E+01  0.96877945797E+03  0.25500000920E-02 0.  1.
</event>
<event>
 5   0  0.1258546E-04  0.1995631E+04  0.7818609E-02  0.8608666E-01
        1   -1    0    0  501    0  0.00000000000E+00  0.00000000000E+00  0.20586669092E+04  0.20586669092E+04  0.50400001928E-02 0. -1.
       -1   -1    0    0    0  501  0.00000000000E+00  0.00000000000E+00 -0.48363111689E+03  0.48363111692E+03  0.50400001928E-02 0.  1.
    10030    2    1    2    0    0  0.00000000000E+00  0.00000000000E+00  0.15750357923E+04  0.25422980261E+04  0.19956306037E+04 0.  0.
        4    1    3    3  502    0 -0.30265799177E+03 -0.43861483732E+03 -0.28716219801E+03  0.60534996189E+03  0.12699999809E+01 0.  1.
       -4    1    3    3    0  502  0.30265799177E+03  0.43861483732E+03  0.18621979903E+04  0.19369480642E+04  0.12699999809E+01 0. -1.
</event>
<event>
 5   0  0.2540506E-04  0.1939702E+04  0.7818609E-02  0.8635343E-01
        2   -1    0    0  501    0  0.00000000000E+00  0.00000000000E+00  0.14923028339E+04  0.14923028339E+04  0.25500000920E-02 0. -1.
       -2   -1    0    0    0  501  0.00000000000E+00  0.00000000000E+00 -0.63030850755E+03  0.63030850756E+03  0.25500000920E-02 0.  1.
    10030    2    1    2    0    0  0.00000000000E+00  0.00000000000E+00  0.86199432637E+03  0.21226113415E+04  0.19397022164E+04 0.  0.
        4    1    3    3  502    0  0.33868385450E+03 -0.40790375019E+03  0.13196835477E+04  0.14222019905E+04  0.12699999809E+01 0. -1.
       -4    1    3    3    0  502 -0.33868385450E+03  0.40790375019E+03 -0.45768922135E+03  0.70040935099E+03  0.12699999809E+01 0.  1.
</event>
<event>
 5   0  0.1231056E-04  0.1919623E+04  0.7818609E-02  0.8645150E-01
       -1   -1    0    0    0  501  0.00000000000E+00  0.00000000000E+00  0.54514323756E+03  0.54514323758E+03  0.50400001928E-02 0. -1.
        1   -1    0    0  501    0  0.00000000000E+00  0.00000000000E+00 -0.16899006413E+04  0.16899006413E+04  0.50400001928E-02 0.  1.
    10030    2    1    2    0    0  0.00000000000E+00  0.00000000000E+00 -0.11447574037E+04  0.22350438789E+04  0.19196227825E+04 0.  0.
        3    1    3    3  502    0 -0.62704432614E+03  0.41888891848E+03 -0.12637356160E+04  0.14716250305E+04  0.10100000352E+00 0.  1.
       -3    1    3    3    0  502  0.62704432614E+03 -0.41888891848E+03  0.11897821223E+03  0.76341884844E+03  0.10100000352E+00 0. -1.
</event>
<event>
 5   0  0.2596061E-04  0.1984507E+04  0.7818609E-02  0.8613899E-01
        2   -1    0    0  501    0  0.00000000000E+00  0.00000000000E+00  0.19022167951E+04  0.19022167951E+04  0.25500000920E-02 0. -1.
       -2   -1    0    0    0  501  0.00000000000E+00  0.00000000000E+00 -0.51758925196E+03  0.51758925197E+03  0.25500000920E-02 0.  1.
    10030    2    1    2    0    0  0.00000000000E+00  0.00000000000E+00  0.13846275431E+04  0.24198060471E+04  0.19845069595E+04 0.  0.
        5    1    3    3  502    0  0.38725156012E+03  0.25327451170E+03 -0.37796129008E+03  0.59748520977E+03  0.46999998093E+01 0.  1.
       -5    1    3    3    0  502 -0.38725156012E+03 -0.25327451170E+03  0.17625888332E+04  0.18223208373E+04  0.46999998093E+01 0. -1.
</event>
<event>
 5   0  0.2596061E-04  0.1995074E+04  0.7818609E-02  0.8608927E-01
        2   -1    0    0  501    0  0.00000000000E+00  0.00000000000E+00  0.18552553075E+04  0.18552553075E+04  0.25500000920E-02 0.  1.
       -2   -1    0    0    0  501  0.00000000000E+00  0.00000000000E+00 -0.53635758068E+03  0.53635758068E+03  0.25500000920E-02 0. -1.
    10030    2    1    2    0    0  0.00000000000E+00  0.00000000000E+00  0.13188977269E+04  0.23916128882E+04  0.19950741824E+04 0.  0.
        5    1    3    3  502    0  0.14768208970E+03  0.30316452148E+03  0.17848398619E+04  0.18164234499E+04  0.46999998093E+01 0.  1.
       -5    1    3    3    0  502 -0.14768208970E+03 -0.30316452148E+03 -0.46594213507E+03  0.57518943830E+03  0.46999998093E+01 0. -1.
</event>
<event>
 5   0  0.2421737E-04  0.1984888E+04  0.7818609E-02  0.8613719E-01
       -2   -1    0    0    0  501  0.00000000000E+00  0.00000000000E+00  0.67178409266E+03  0.67178409267E+03  0.25500000920E-02 0.  1.
        2   -1    0    0  501    0  0.00000000000E+00  0.00000000000E+00 -0.14661627163E+04  0.14661627163E+04  0.25500000920E-02 0. -1.
    10030    2    1    2    0    0  0.00000000000E+00  0.00000000000E+00 -0.79437862366E+03  0.21379468090E+04  0.19848876946E+04 0.  0.
        1    1    3    3  502    0 -0.74546437083E+03  0.32700459869E+03 -0.10086776537E+04  0.12961789015E+04  0.50400001928E-02 0.  1.
       -1    1    3    3    0  502  0.74546437083E+03 -0.32700459869E+03  0.21429903000E+03  0.84176790746E+03  0.50400001928E-02 0. -1.
</event>
<event>
 5   0  0.1210633E-04  0.2004398E+04  0.7818609E-02  0.8604567E-01
       -1   -1    0    0    0  501  0.00000000000E+00  0.00000000000E+00  0.37093524292E+03  0.37093524295E+03  0.50400001928E-02 0.  1.
        1   -1    0    0  501    0  0.00000000000E+00  0.00000000000E+00 -0.27077570401E+04  0.27077570401E+04  0.50400001928E-02 0. -1.
    10030    2    1    2    0    0  0.00000000000E+00  0.00000000000E+00 -0.23368217972E+04  0.30786922831E+04  0.20043976806E+04 0.  0.
        2    1    3    3  502    0  0.10763955224E+02 -0.34981487485E+03  0.27402344188E+03  0.44449427005E+03  0.25500000920E-02 0.  1.
       -2    1    3    3    0  502 -0.10763955224E+02  0.34981487485E+03 -0.26108452391E+04  0.26341980130E+04  0.25500000920E-02 0. -1.
</event>
<event>
 5   0  0.1231056E-04  0.1938126E+04  0.7818609E-02  0.8636108E-01
       -1   -1    0    0    0  501  0.00000000000E+00  0.00000000000E+00  0.54838080057E+03  0.54838080059E+03  0.50400001928E-02 0. -1.
        1   -1    0    0  501    0  0.00000000000E+00  0.00000000000E+00 -0.17124650294E+04  0.17124650294E+04  0.50400001928E-02 0.  1.
    10030    2    1    2    0    0  0.00000000000E+00  0.00000000000E+00 -0.11640842288E+04  0.22608458300E+04  0.19381258409E+04 0.  0.
        3    1    3    3  502    0 -0.29269141590E+02  0.23744472832E+03 -0.16774740878E+04  0.16944485849E+04  0.10100000352E+00 0.  1.
       -3    1    3    3    0  502  0.29269141590E+02 -0.23744472832E+03  0.51338985898E+03  0.56639724502E+03  0.10100000352E+00 0. -1.
</event>
<event>
 5   0  0.1207228E-04  0.2003658E+04  0.7818609E-02  0.8604912E-01
        1   -1    0    0  501    0  0.00000000000E+00  0.00000000000E+00  0.21702670678E+04  0.21702670678E+04  0.50400001928E-02 0. -1.
       -1   -1    0    0    0  501  0.00000000000E+00  0.00000000000E+00 -0.46245970720E+03  0.46245970722E+03  0.50400001928E-02 0.  1.
    10030    2    1    2    0    0  0.00000000000E+00  0.00000000000E+00  0.17078073606E+04  0.26327267750E+04  0.20036577280E+04 0.  0.
        1    1    3    3  502    0  0.19807596816E+03 -0.48442021589E+03  0.19763704261E+04  0.20444894463E+04  0.50400001928E-02 0. -1.
       -1    1    3    3    0  502 -0.19807596816E+03  0.48442021589E+03 -0.26856306552E+03  0.58823732873E+03  0.50400001928E-02 0.  1.
</event>
<event>
 5   0  0.2540506E-04  0.1975018E+04  0.7818609E-02  0.8618390E-01
       -2   -1    0    0    0  501  0.00000000000E+00  0.00000000000E+00  0.60753001010E+03  0.60753001011E+03  0.25500000920E-02 0.  1.
        2   -1    0    0  501    0  0.00000000000E+00  0.00000000000E+00 -0.16051453653E+04  0.16051453653E+04  0.25500000920E-02 0. -1.
    10030    2    1    2    0    0  0.00000000000E+00  0.00000000000E+00 -0.99761535518E+03  0.22126753754E+04  0.19750179543E+04 0.  0.
        4    1    3    3  502    0 -0.14295199463E+03  0.31477648800E+02  0.59530758604E+03  0.61304065937E+03  0.12699999809E+01 0.  1.
       -4    1    3    3    0  502  0.14295199463E+03 -0.31477648800E+02 -0.15929229412E+04  0.15996347160E+04  0.12699999809E+01 0. -1.
</event>
<event>
 5   0  0.1324930E-04  0.1846582E+04  0.7818609E-02  0.8681913E-01
       -1   -1    0    0    0  501  0.00000000000E+00  0.00000000000E+00  0.45967941826E+03  0.45967941828E+03  0.50400001928E-02 0. -1.
        1   -1    0    0  501    0  0.00000000000E+00  0.00000000000E+00 -0.18544791672E+04  0.18544791672E+04  0.50400001928E-02 0.  1.
    10030    2    1    2    0    0  0.00000000000E+00  0.00000000000E+00 -0.13947997489E+04  0.23141585855E+04  0.18465816037E+04 0.  0.
        5    1    3    3  502    0  0.78525400217E+03 -0.39939700231E+03 -0.35122736425E+03  0.94843268858E+03  0.46999998093E+01 0. -1.
       -5    1    3    3    0  502 -0.78525400217E+03  0.39939700231E+03 -0.10435723847E+04  0.13657258969E+04  0.46999998093E+01 0.  1.
</event>
<event>
 5   0  0.1258546E-04  0.1964105E+04  0.7818609E-02  0.8623589E-01
       -1   -1    0    0    0  501  0.00000000000E+00  0.00000000000E+00  0.10999336799E+04  0.10999336799E+04  0.50400001928E-02 0. -1.
        1   -1    0    0  501    0  0.00000000000E+00  0.00000000000E+00 -0.87680475243E+03  0.87680475244E+03  0.50400001928E-02 0.  1.
    10030    2    1    2    0    0  0.00000000000E+00  0.00000000000E+00  0.22312892749E+03  0.19767384324E+04  0.19641049645E+04 0.  0.
        4    1    3    3  502    0 -0.51319479637E+02  0.10762116394E+03 -0.86949241638E+03  0.87763014930E+03  0.12699999809E+01 0.  1.
       -4    1    3    3    0  502  0.51319479637E+02 -0.10762116394E+03  0.10926213439E+04  0.10991082831E+04  0.12699999809E+01 0. -1.
</event>
<event>
 5   0  0.1210633E-04  0.1980719E+04  0.7818609E-02  0.8615689E-01
        1   -1    0    0  501    0  0.00000000000E+00  0.00000000000E+00  0.66966131998E+03  0.66966132000E+03  0.50400001928E-02 0. -1.
       -1   -1    0    0    0  501  0.00000000000E+00  0.00000000000E+00 -0.14646385131E+04  0.14646385132E+04  0.50400001928E-02 0.  1.
    10030    2    1    2    0    0  0.00000000000E+00  0.00000000000E+00 -0.79497719317E+03  0.21342998332E+04  0.19807188191E+04 0.  0.
        2    1    3    3  502    0 -0.39891410938E+03 -0.53326036222E+03  0.39236417625E+03  0.77294807548E+03  0.25500000920E-02 0.  1.
       -2    1    3    3    0  502  0.39891410938E+03  0.53326036222E+03 -0.11873413694E+04  0.13613517577E+04  0.25500000920E-02 0. -1.
</event>
<event>
 5   0  0.2488886E-04  0.1996070E+04  0.7818609E-02  0.8608460E-01
       -2   -1    0    0    0  501  0.00000000000E+00  0.00000000000E+00  0.77131813927E+03  0.77131813927E+03  0.25500000920E-02 0. -1.
        2   -1    0    0  501    0  0.00000000000E+00  0.00000000000E+00 -0.12913913489E+04  0.12913913489E+04  0.25500000920E-02 0.  1.
    10030    2    1    2    0    0  0.00000000000E+00  0.00000000000E+00 -0.52007320962E+03  0.20627094882E+04  0.19960697105E+04 0.  0.
        3    1    3    3  502    0 -0.30021378473E+02 -0.99489683300E+03 -0.33564039449E+03  0.10504168106E+04  0.10100000352E+00 0. -1.
       -3    1    3    3    0  502  0.30021378473E+02  0.99489683300E+03 -0.18443281514E+03  0.10122926775E+04  0.10100000352E+00 0.  1.
</event>
<event>
 5   0  0.2540506E-04  0.1965776E+04  0.7818609E-02  0.8622791E-01
       -2   -1    0    0    0  501  0.00000000000E+00  0.00000000000E+00  0.44759960343E+03  0.44759960343E+03  0.25500000920E-02 0. -1.
        2   -1    0    0  501    0  0.00000000000E+00  0.00000000000E+00 -0.21583315781E+04  0.21583315781E+04  0.25500000920E-02 0.  1.
    10030    2    1    2    0    0  0.00000000000E+00  0.00000000000E+00 -0.17107319747E+04  0.26059311816E+04  0.19657755298E+04 0.  0.
        4    1    3    3  502    0 -0.30648049972E+03 -0.35418801259E+03  0.29014273494E+03  0.55096630070E+03  0.12699999809E+01 0. -1.
       -4    1    3    3    0  502  0.30648049972E+03  0.35418801259E+03 -0.20008747096E+04  0.20549648808E+04  0.12699999809E+01 0.  1.
</event>
<event>
 5   0  0.2421737E-04  0.2009228E+04  0.7818609E-02  0.8602319E-01
       -2   -1    0    0    0  501  0.00000000000E+00  0.00000000000E+00  0.80152661634E+03  0.80152661634E+03  0.25500000920E-02 0. -1.
        2   -1    0    0  501    0  0.00000000000E+00  0.00000000000E+00 -0.12591582001E+04  0.12591582001E+04  0.25500000920E-02 0.  1.
    10030    2    1    2    0    0  0.00000000000E+00  0.00000000000E+00 -0.45763158374E+03  0.20606848164E+04  0.20092275247E+04 0.  0.
        1    1    3    3  502    0  0.31813488457E+03 -0.42939901832E+03 -0.11012815331E+04  0.12240973559E+04  0.50400001928E-02 0.  1.
       -1    1    3    3    0  502 -0.31813488457E+03  0.42939901832E+03  0.64364994934E+03  0.83658746047E+03  0.50400001928E-02 0. -1.
</event>
<event>
 5   0  0.2488886E-04  0.2008127E+04  0.7818609E-02  0.8602830E-01
       -2   -1    0    0    0  501  0.00000000000E+00  0.00000000000E+00  0.83052062210E+03  0.83052062210E+03  0.25500000920E-02 0.  1.
        2   -1    0    0  501    0  0.00000000000E+00  0.00000000000E+00 -0.12138692399E+04  0.12138692399E+04  0.25500000920E-02 0. -1.
    10030    2    1    2    0    0  0.00000000000E+00  0.00000000000E+00 -0.38334861777E+03  0.20443898620E+04  0.20081269245E+04 0.  0.
        3    1    3    3  502    0  0.83657307437E+03  0.55110059620E+03 -0.26054990889E+03  0.10351099657E+04  0.10100000352E+00 0. -1.
       -3    1    3    3    0  502 -0.83657307437E+03 -0.55110059620E+03 -0.12279870889E+03  0.10092798963E+04  0.10100000352E+00 0.  1.
</event>
<event>
 5   0  0.1324930E-04  0.2016623E+04  0.7818609E-02  0.8598888E-01
       -1   -1    0    0    0  501  0.00000000000E+00  0.00000000000E+00  0.96646749348E+03  0.96646749349E+03  0.50400001928E-02 0. -1.
        1   -1    0    0  501    0  0.00000000000E+00  0.00000000000E+00 -0.10519666737E+04  0.10519666738E+04  0.50400001928E-02 0.  1.
    10030    2    1    2    0    0  0.00000000000E+00  0.00000000000E+00 -0.85499180266E+02  0.20184341673E+04  0.20166225174E+04 0.  0.
        5    1    3    3  502    0  0.57227951723E+03  0.44596456190E+03  0.65808031821E+03  0.97953051587E+03  0.46999998093E+01 0. -1.
       -5    1    3    3    0  502 -0.57227951723E+03 -0.44596456190E+03 -0.74357949848E+03  0.10389036514E+04  0.46999998093E+01 0.  1.
</event>
<event>
 5   0  0.1258546E-04  0.1951411E+04  0.7818609E-02  0.8629681E-01
        1   -1    0    0  501    0  0.00000000000E+00  0.00000000000E+00  0.27657183324E+04  0.27657183324E+04  0.50400001928E-02 0. -1.
       -1   -1    0    0    0  501  0.00000000000E+00  0.00000000000E+00 -0.34421467054E+03  0.34421467058E+03  0.50400001928E-02 0.  1.
    10030    2    1    2    0    0  0.00000000000E+00  0.00000000000E+00  0.24215036618E+04  0.31099330029E+04  0.19514105920E+04 0.  0.
        4    1    3    3  502    0  0.49580180559E+03  0.33670953139E+01 -0.12848236037E+03  0.51219146575E+03  0.12699999809E+01 0.  1.
       -4    1    3    3    0  502 -0.49580180559E+03 -0.33670953139E+01  0.25499860222E+04  0.25977415372E+04  0.12699999809E+01 0. -1.
</event>
<event>
 5   0  0.1324930E-04  0.1939383E+04  0.7818609E-02  0.8635498E-01
        1   -1    0    0  501    0  0.00000000000E+00  0.00000000000E+00  0.22669781540E+04  0.22669781540E+04  0.50400001928E-02 0. -1.
       -1   -1    0    0    0  501  0.00000000000E+00  0.00000000000E+00 -0.41478182885E+03  0.41478182888E+03  0.50400001928E-02 0.  1.
    10030    2    1    2    0    0  0.00000000000E+00  0.00000000000E+00  0.18521963252E+04  0.26817599829E+04  0.19393827314E+04 0.  0.
        5    1    3    3  502    0  0.55003926305E+03 -0.51974771848E+03  0.87713794913E+02  0.76183770028E+03  0.46999998093E+01 0.  1.
       -5    1    3    3    0  502 -0.55003926305E+03  0.51974771848E+03  0.17644825302E+04  0.19199222826E+04  0.46999998093E+01 0. -1.
</event>
<event>
 5   0  0.1207228E-04  0.1915433E+04  0.7818609E-02  0.8647212E-01
        1   -1    0    0  501    0  0.00000000000E+00  0.00000000000E+00  0.12315364670E+04  0.12315364670E+04  0.50400001928E-02 0. -1.
       -1   -1    0    0    0  501  0.00000000000E+00  0.00000000000E+00 -0.74477787182E+03  0.74477787184E+03  0.50400001928E-02 0.  1.
    10030    2    1    2    0    0  0.00000000000E+00  0.00000000000E+00  0.48675859522E+03  0.19763143389E+04  0.19154332241E+04 0.  0.
        1    1    3    3  502    0  0.23078862216E+02 -0.12417984030E+03 -0.73614664607E+03  0.74690370943E+03  0.50400001928E-02 0.  1.
       -1    1    3    3    0  502 -0.23078862216E+02  0.12417984030E+03  0.12229052413E+04  0.12294106295E+04  0.50400001928E-02 0. -1.
</event>
<event>
 5   0  0.2540506E-04  0.1988497E+04  0.7818609E-02  0.8612017E-01
       -2   -1    0    0    0  501  0.00000000000E+00  0.00000000000E+00  0.11001641357E+04  0.11001641357E+04  0.25500000920E-02 0. -1.
        2   -1    0    0  501    0  0.00000000000E+00  0.00000000000E+00 -0.89853004315E+03  0.89853004316E+03  0.25500000920E-02 0.  1.
    10030    2    1    2    0    0  0.00000000000E+00  0.00000000000E+00  0.20163409253E+03  0.19986941788E+04  0.19884974512E+04 0.  0.
        4    1    3    3  502    0  0.63265454716E+03  0.68009749787E+03 -0.25560607141E+03  0.96339008677E+03  0.12699999809E+01 0.  1.
       -4    1    3    3    0  502 -0.63265454716E+03 -0.68009749787E+03  0.45724016394E+03  0.10353040921E+04  0.12699999809E+01 0. -1.
</event>
<event>
 5   0  0.2421737E-04  0.1871757E+04  0.7818609E-02  0.8669044E-01
       -2   -1    0    0    0  501  0.00000000000E+00  0.00000000000E+00  0.76907057551E+03  0.76907057551E+03  0.25500000920E-02 0. -1.
        2   -1    0    0  501    0  0.00000000000E+00  0.00000000000E+00 -0.11388665216E+04  0.11388665216E+04  0.25500000920E-02 0.  1.
    10030    2    1    2    0    0  0.00000000000E+00  0.00000000000E+00 -0.36979594610E+03  0.19079370971E+04  0.18717571757E+04 0.  0.
        1    1    3    3  502    0 -0.80581252112E+03 -0.59064410737E+02 -0.66630460004E+03  0.10472746745E+04  0.50400001928E-02 0.  1.
       -1    1    3    3    0  502  0.80581252112E+03  0.59064410737E+02  0.29650865394E+03  0.86066242261E+03  0.50400001928E-02 0. -1.
</event>
<event>
 5   0  0.2463085E-04  0.1990113E+04  0.7818609E-02  0.8611257E-01
        2   -1    0    0  501    0  0.00000000000E+00  0.00000000000E+00  0.63626809210E+03  0.63626809211E+03  0.25500000920E-02 0. -1.
       -2   -1    0    0    0  501  0.00000000000E+00  0.00000000000E+00 -0.15561643089E+04  0.15561643089E+04  0.25500000920E-02 0.  1.
    10030    2    1    2    0    0  0.00000000000E+00  0.00000000000E+00 -0.91989621685E+03  0.21924324011E+04  0.19901132589E+04 0.  0.
        2    1    3    3  502    0  0.98763260187E+02 -0.92647944456E+03 -0.84477266501E+03  0.12576800858E+04  0.25500000920E-02 0.  1.
       -2    1    3    3    0  502 -0.98763260187E+02  0.92647944456E+03 -0.75123551840E+02  0.93475231522E+03  0.25500000920E-02 0. -1.
</event>
<event>
 5   0  0.1231056E-04  0.1920528E+04  0.7818609E-02  0.8644705E-01
       -1   -1    0    0    0  501  0.00000000000E+00  0.00000000000E+00  0.97450307236E+03  0.97450307238E+03  0.50400001928E-02 0. -1.
        1   -1    0    0  501    0  0.00000000000E+00  0.00000000000E+00 -0.94623313183E+03  0.94623313184E+03  0.50400001928E-02 0.  1.
    10030    2    1    2    0    0  0.00000000000E+00  0.00000000000E+00  0.28269940533E+02  0.19207362042E+04  0.19205281505E+04 0.  0.
        3    1    3    3  502    0  0.78424506146E+03  0.53908516774E+03  0.14242181533E+03  0.96225626430E+03  0.10100000352E+00 0. -1.
       -3    1    3    3    0  502 -0.78424506146E+03 -0.53908516774E+03 -0.11415187480E+03  0.95847993992E+03  0.10100000352E+00 0.  1.
</event>
<event>
 5   0  0.2488886E-04  0.2007942E+04  0.7818609E-02  0.8602917E-01
        2   -1    0    0  501    0  0.00000000000E+00  0.00000000000E+00  0.17939397648E+04  0.17939397648E+04  0.25500000920E-02 0. -1.
       -2   -1    0    0    0  501  0.00000000000E+00  0.00000000000E+00 -0.56186798879E+03  0.56186798880E+03  0.25500000920E-02 0.  1.
    10030    2    1    2    0    0  0.00000000000E+00  0.00000000000E+00  0.12320717761E+04  0.23558077536E+04  0.20079415606E+04 0.  0.
        3    1    3    3  502    0 -0.13494497579E+03  0.79074754849E+03 -0.92263687714E+02  0.80746791281E+03  0.10100000352E+00 0.  1.
       -3    1    3    3    0  502  0.13494497579E+03 -0.79074754849E+03  0.13243354638E+04  0.15483398408E+04  0.10100000352E+00 0. -1.
</event>
<event>
 5   0  0.2596061E-04  0.1982078E+04  0.7818609E-02  0.8615046E-01
       -2   -1    0    0    0  501  0.00000000000E+00  0.00000000000E+00  0.94186573748E+03  0.94186573748E+03  0.25500000920E-02 0.  1.
        2   -1    0    0  501    0  0.00000000000E+00  0.00000000000E+00 -0.10427793177E+04  0.10427793177E+04  0.25500000920E-02 0. -1.
    10030    2    1    2    0    0  0.00000000000E+00  0.00000000000E+00 -0.10091358022E+03  0.19846450552E+04  0.19820778099E+04 0.  0.
        5    1    3    3  502    0 -0.72012057211E+03 -0.66012604052E+03 -0.21739403688E+03  0.10008108138E+04  0.46999998093E+01 0. -1.
       -5    1    3    3    0  502  0.72012057211E+03  0.66012604052E+03  0.11648045666E+03  0.98383424139E+03  0.46999998093E+01 0.  1.
</event>
<event>
 5   0  0.2421737E-04  0.1956677E+04  0.7818609E-02  0.8627148E-01
       -2   -1    0    0    0  501  0.00000000000E+00  0.00000000000E+00  0.14453948071E+04  0.14453948071E+04  0.25500000920E-02 0.  1.
        2   -1    0    0  501    0  0.00000000000E+00  0.00000000000E+00 -0.66220371356E+03  0.66220371356E+03  0.25500000920E-02 0. -1.
    10030    2    1    2    0    0  0.00000000000E+00  0.00000000000E+00  0.78319109358E+03  0.21075985207E+04  0.19566765791E+04 0.  0.
        1    1    3    3  502    0 -0.15545567244E+03  0.92326766955E+03  0.69731156725E+03  0.11674044190E+04  0.50400001928E-02 0.  1.
       -1    1    3    3    0  502  0.15545567244E+03 -0.92326766955E+03  0.85879526330E+02  0.94019410166E+03  0.50400001928E-02 0. -1.
</event>
<event>
 5   0  0.1231056E-04  0.1999806E+04  0.7818609E-02  0.8606712E-01
       -1   -1    0    0    0  501  0.00000000000E+00  0.00000000000E+00  0.89490323778E+03  0.89490323779E+03  0.50400001928E-02 0. -1.
        1   -1    0    0  501    0  0.00000000000E+00  0.00000000000E+00 -0.11172220378E+04  0.11172220378E+04  0.50400001928E-02 0.  1.
    10030    2    1    2    0    0  0.00000000000E+00  0.00000000000E+00 -0.22231880004E+03  0.20121252756E+04  0.19998056095E+04 0.  0.
        3    1    3    3  502    0  0.72010714550E+03  0.12193847893E+03 -0.79828838913E+03  0.10819832051E+04  0.10100000352E+00 0.  1.
       -3    1    3    3    0  502 -0.72010714550E+03 -0.12193847893E+03  0.57596958909E+03  0.93014207055E+03  0.10100000352E+00 0. -1.
</event>
<event>
 5   0  0.1258546E-04  0.1973362E+04  0.7818609E-02  0.8619177E-01
        1   -1    0    0  501    0  0.00000000000E+00  0.00000000000E+00  0.10414498892E+04  0.10414498892E+04  0.50400001928E-02 0.  1.
       -1   -1    0    0    0  501  0.00000000000E+00  0.00000000000E+00 -0.93479203977E+03  0.93479203978E+03  0.50400001928E-02 0. -1.
    10030    2    1    2    0    0  0.00000000000E+00  0.00000000000E+00  0.10665784944E+03  0.19762419290E+04  0.19733616661E+04 0.  0.
        4    1    3    3  502    0 -0.69721346047E+03  0.32997129955E+03  0.66949094317E+03  0.10213752513E+04  0.12699999809E+01 0.  1.
       -4    1    3    3    0  502  0.69721346047E+03 -0.32997129955E+03 -0.56283309373E+03  0.95486667775E+03  0.12699999809E+01 0. -1.
</event>
<event>
 5   0  0.1231056E-04  0.1690867E+04  0.7818609E-02  0.8766590E-01
       -1   -1    0    0    0  501  0.00000000000E+00  0.00000000000E+00  0.63956354908E+03  0.63956354910E+03  0.50400001928E-02 0. -1.
        1   -1    0    0  501    0  0.00000000000E+00  0.00000000000E+00 -0.11175712813E+04  0.11175712813E+04  0.50400001928E-02 0.  1.
    10030    2    1    2    0    0  0.00000000000E+00  0.00000000000E+00 -0.47800773218E+03  0.17571348304E+04  0.16908670616E+04 0.  0.
        3    1    3    3  502    0 -0.54769708891E+03  0.55831607934E+03  0.94621791049E+02  0.78780850414E+03  0.10100000352E+00 0. -1.
       -3    1    3    3    0  502  0.54769708891E+03 -0.55831607934E+03 -0.57262952322E+03  0.96932632623E+03  0.10100000352E+00 0.  1.
</event>
<event>
 5   0  0.2540506E-04  0.2015027E+04  0.7818609E-02  0.8599627E-01
        2   -1    0    0  501    0  0.00000000000E+00  0.00000000000E+00  0.88432993551E+03  0.88432993551E+03  0.25500000920E-02 0. -1.
       -2   -1    0    0    0  501  0.00000000000E+00  0.00000000000E+00 -0.11478557351E+04  0.11478557351E+04  0.25500000920E-02 0.  1.
    10030    2    1    2    0    0  0.00000000000E+00  0.00000000000E+00 -0.26352579960E+03  0.20321856706E+04  0.20150267375E+04 0.  0.
        4    1    3    3  502    0  0.48129473049E+03  0.13364652284E+03  0.75065966116E+03  0.90166376796E+03  0.12699999809E+01 0. -1.
       -4    1    3    3    0  502 -0.48129473049E+03 -0.13364652284E+03 -0.10141854608E+04  0.11305219027E+04  0.12699999809E+01 0.  1.
</event>
<event>
 5   0  0.2596061E-04  0.1983249E+04  0.7818609E-02  0.8614493E-01
       -2   -1    0    0    0  501  0.00000000000E+00  0.00000000000E+00  0.46730361150E+03  0.46730361151E+03  0.25500000920E-02 0. -1.
        2   -1    0    0  501    0  0.00000000000E+00  0.00000000000E+00 -0.21042406920E+04  0.21042406920E+04  0.25500000920E-02 0.  1.
    10030    2    1    2    0    0  0.00000000000E+00  0.00000000000E+00 -0.16369370805E+04  0.25715443035E+04  0.19832491269E+04 0.  0.
        5    1    3    3  502    0  0.15614184434E+03 -0.94630612022E+03 -0.11450078421E+04  0.14936333543E+04  0.46999998093E+01 0.  1.
       -5    1    3    3    0  502 -0.15614184434E+03  0.94630612022E+03 -0.49192923838E+03  0.10779109491E+04  0.46999998093E+01 0. -1.
</event>
<event>
 5   0  0.2463085E-04  0.2000154E+04  0.7818609E-02  0.8606549E-01
       -2   -1    0    0    0  501  0.00000000000E+00  0.00000000000E+00  0.94435000070E+03  0.94435000070E+03  0.25500000920E-02 0. -1.
        2   -1    0    0  501    0  0.00000000000E+00  0.00000000000E+00 -0.10590921199E+04  0.10590921199E+04  0.25500000920E-02 0.  1.
    10030    2    1    2    0    0  0.00000000000E+00  0.00000000000E+00 -0.11474211921E+03  0.20034421206E+04  0.20001536383E+04 0.  0.
        2    1    3    3  502    0  0.67335990662E+03  0.20975069616E+03 -0.76758175013E+03  0.10423965951E+04  0.25500000920E-02 0.  1.
       -2    1    3    3    0  502 -0.67335990662E+03 -0.20975069616E+03  0.65283963092E+03  0.96104552550E+03  0.25500000920E-02 0. -1.
</event>
<event>
 5   0  0.2488886E-04  0.1927611E+04  0.7818609E-02  0.8641233E-01
        2   -1    0    0  501    0  0.00000000000E+00  0.00000000000E+00  0.11654824269E+04  0.11654824269E+04  0.25500000920E-02 0. -1.
       -2   -1    0    0    0  501  0.00000000000E+00  0.00000000000E+00 -0.79702690950E+03  0.79702690950E+03  0.25500000920E-02 0.  1.
    10030    2    1    2    0    0  0.00000000000E+00  0.00000000000E+00  0.36845551740E+03  0.19625093364E+04  0.19276108080E+04 0.  0.
        3    1    3    3  502    0  0.73591090623E+03 -0.42625898131E+03 -0.27747930516E+03  0.89457048691E+03  0.10100000352E+00 0.  1.
       -3    1    3    3    0  502 -0.73591090623E+03  0.42625898131E+03  0.64593482256E+03  0.10679388495E+04  0.10100000352E+00 0. -1.
</event>
<event>
 5   0  0.2463085E-04  0.1979818E+04  0.7818609E-02  0.8616115E-01
       -2   -1    0    0    0  501  0.00000000000E+00  0.00000000000E+00  0.53337572028E+03  0.53337572029E+03  0.25500000920E-02 0.  1.
        2   -1    0    0  501    0  0.00000000000E+00  0.00000000000E+00 -0.18372029182E+04  0.18372029182E+04  0.25500000920E-02 0. -1.
    10030    2    1    2    0    0  0.00000000000E+00  0.00000000000E+00 -0.13038271979E+04  0.23705786385E+04  0.19798175974E+04 0.  0.
        2    1    3    3  502    0 -0.71522892980E+03  0.68428771222E+03 -0.63894352771E+03  0.11781557311E+04  0.25500000920E-02 0.  1.
       -2    1    3    3    0  502  0.71522892980E+03 -0.68428771222E+03 -0.66488367017E+03  0.11924229074E+04  0.25500000920E-02 0. -1.
</event>
<event>
 5   0  0.2488886E-04  0.1942011E+04  0.7818609E-02  0.8634223E-01
        2   -1    0    0  501    0  0.00000000000E+00  0.00000000000E+00  0.53861101096E+03  0.53861101097E+03  0.25500000920E-02 0. -1.
       -2   -1    0    0    0  501  0.00000000000E+00  0.00000000000E+00 -0.17505237792E+04  0.17505237792E+04  0.25500000920E-02 0.  1.
    10030    2    1    2    0    0  0.00000000000E+00  0.00000000000E+00 -0.12119127682E+04  0.22891347902E+04  0.19420106925E+04 0.  0.
        3    1    3    3  502    0 -0.32386854829E+03  0.81840859370E+03 -0.12257345205E+03  0.88865500852E+03  0.10100000352E+00 0. -1.
       -3    1    3    3    0  502  0.32386854829E+03 -0.81840859370E+03 -0.10893393162E+04  0.14004797816E+04  0.10100000352E+00 0.  1.
</event>
<event>
 5   0  0.2488886E-04  0.1973305E+04  0.7818609E-02  0.8619204E-01
        2   -1    0    0  501    0  0.00000000000E+00  0.00000000000E+00  0.21735259043E+04  0.21735259043E+04  0.25500000920E-02 0. -1.
       -2   -1    0    0    0  501  0.00000000000E+00  0.00000000000E+00 -0.44788218191E+03  0.44788218192E+03  0.25500000920E-02 0.  1.
    10030    2    1    2    0    0  0.00000000000E+00  0.00000000000E+00  0.17256437223E+04  0.26214080862E+04  0.19733053737E+04 0.  0.
        3    1    3    3  502    0  0.70567002378E+03 -0.66786264582E+03  0.10908829367E+04  0.14608341069E+04  0.10100000352E+00 0.  1.
       -3    1    3    3    0  502 -0.70567002378E+03  0.66786264582E+03  0.63476078563E+03  0.11605739792E+04  0.10100000352E+00 0. -1.
</event>
<event>
 5   0  0.2463085E-04  0.1973357E+04  0.7818609E-02  0.8619180E-01
        2   -1    0    0  501    0  0.00000000000E+00  0.00000000000E+00  0.13285755707E+04  0.13285755707E+04  0.25500000920E-02 0. -1.
       -2   -1    0    0    0  501  0.00000000000E+00  0.00000000000E+00 -0.73276542323E+03  0.73276542324E+03  0.25500000920E-02 0.  1.
    10030    2    1    2    0    0  0.00000000000E+00  0.00000000000E+00  0.59581014745E+03  0.20613409939E+04  0.19733567750E+04 0.  0.
        2    1    3    3  502    0 -0.41165201360E+02  0.26703965047E+02 -0.73149014382E+03  0.73313403009E+03  0.25500000920E-02 0.  1.
       -2    1    3    3    0  502  0.41165201360E+02 -0.26703965047E+02  0.13273002913E+04  0.13282069638E+04  0.25500000920E-02 0. -1.
</event>
<event>
 5   0  0.1231056E-04  0.1859493E+04  0.7818609E-02  0.8675286E-01
        1   -1    0    0  501    0  0.00000000000E+00  0.00000000000E+00  0.11162815525E+04  0.11162815525E+04  0.50400001928E-02 0. -1.
       -1   -1    0    0    0  501  0.00000000000E+00  0.00000000000E+00 -0.77438243838E+03  0.77438243840E+03  0.50400001928E-02 0.  1.
    10030    2    1    2    0    0  0.00000000000E+00  0.00000000000E+00  0.34189911412E+03  0.18906639909E+04  0.18594932972E+04 0.  0.
        3    1    3    3  502    0 -0.55332577576E+03  0.35601004065E+03  0.83886012750E+03  0.10661139183E+04  0.10100000352E+00 0. -1.
       -3    1    3    3    0  502  0.55332577576E+03 -0.35601004065E+03 -0.49696101338E+03  0.82455007257E+03  0.10100000352E+00 0.  1.
</event>
<event>
 5   0  0.1210633E-04  0.2008209E+04  0.7818609E-02  0.8602793E-01
       -1   -1    0    0    0  501  0.00000000000E+00  0.00000000000E+00  0.19407732153E+04  0.19407732153E+04  0.50400001928E-02 0. -1.
        1   -1    0    0  501    0  0.00000000000E+00  0.00000000000E+00 -0.51949675332E+03  0.51949675334E+03  0.50400001928E-02 0.  1.
    10030    2    1    2    0    0  0.00000000000E+00  0.00000000000E+00  0.14212764619E+04  0.24602699686E+04  0.20082085393E+04 0.  0.
        2    1    3    3  502    0 -0.18591571102E+03  0.12753880789E+03  0.19093628902E+04  0.19226277450E+04  0.25500000920E-02 0. -1.
       -2    1    3    3    0  502  0.18591571102E+03 -0.12753880789E+03 -0.48808642831E+03  0.53764222362E+03  0.25500000920E-02 0.  1.
</event>
<event>
 5   0  0.1210633E-04  0.1978819E+04  0.7818609E-02  0.8616588E-01
        1   -1    0    0  501    0  0.00000000000E+00  0.00000000000E+00  0.79221541074E+03  0.79221541075E+03  0.50400001928E-02 0.  1.
       -1   -1    0    0    0  501  0.00000000000E+00  0.00000000000E+00 -0.12356885254E+04  0.12356885254E+04  0.50400001928E-02 0. -1.
    10030    2    1    2    0    0  0.00000000000E+00  0.00000000000E+00 -0.44347311470E+03  0.20279039362E+04  0.19788193376E+04 0.  0.
        2    1    3    3  502    0  0.76317484878E+03 -0.21381468024E+03 -0.82869363369E+03  0.11466846584E+04  0.25500000920E-02 0. -1.
       -2    1    3    3    0  502 -0.76317484878E+03  0.21381468024E+03  0.38522051899E+03  0.88121927779E+03  0.25500000920E-02 0.  1.
</event>
<event>
 5   0  0.1231056E-04  0.1961111E+04  0.7818609E-02  0.8625022E-01
        1   -1    0    0  501    0  0.00000000000E+00  0.00000000000E+00  0.14324189803E+04  0.14324189803E+04  0.50400001928E-02 0. -1.
       -1   -1    0    0    0  501  0.00000000000E+00  0.00000000000E+00 -0.67123422024E+03  0.67123422026E+03  0.50400001928E-02 0.  1.
    10030    2    1    2    0    0  0.00000000000E+00  0.00000000000E+00  0.76118476007E+03  0.21036532006E+04  0.19611105398E+04 0.  0.
        3    1    3    3  502    0  0.58502729277E+03 -0.15640427446E+03  0.12078606721E+04  0.13511649210E+04  0.10100000352E+00 0. -1.
       -3    1    3    3    0  502 -0.58502729277E+03  0.15640427446E+03 -0.44667591200E+03  0.75248827959E+03  0.10100000352E+00 0.  1.
</event>
<event>
 5   0  0.2421737E-04  0.2000138E+04  0.7818609E-02  0.8606556E-01
        2   -1    0    0  501    0  0.00000000000E+00  0.00000000000E+00  0.62091483164E+03  0.62091483164E+03  0.25500000920E-02 0. -1.
       -2   -1    0    0    0  501  0.00000000000E+00  0.00000000000E+00 -0.16107490991E+04  0.16107490991E+04  0.25500000920E-02 0.  1.
    10030    2    1    2    0    0  0.00000000000E+00  0.00000000000E+00 -0.98983426750E+03  0.22316639308E+04  0.20001380010E+04 0.  0.
        1    1    3    3  502    0 -0.89935059782E+03  0.41756096329E+03 -0.64017690461E+03  0.11802606174E+04  0.50400001928E-02 0.  1.
       -1    1    3    3    0  502  0.89935059782E+03 -0.41756096329E+03 -0.34965736289E+03  0.10514033133E+04  0.50400001928E-02 0. -1.
</event>
<event>
 5   0  0.1231056E-04  0.1391591E+04  0.7818609E-02  0.8959928E-01
        1   -1    0    0  501    0  0.00000000000E+00  0.00000000000E+00  0.60898811879E+03  0.60898811882E+03  0.50400001928E-02 0.  1.
       -1   -1    0    0    0  501  0.00000000000E+00  0.00000000000E+00 -0.79497629485E+03  0.79497629487E+03  0.50400001928E-02 0. -1.
    10030    2    1    2    0    0  0.00000000000E+00  0.00000000000E+00 -0.18598817606E+03  0.14039644137E+04  0.13915906270E+04 0.  0.
        3    1    3    3  502    0 -0.37226440217E+03 -0.58262660180E+03 -0.17176887545E+03  0.71241778405E+03  0.10100000352E+00 0. -1.
       -3    1    3    3    0  502  0.37226440217E+03  0.58262660180E+03 -0.14219300603E+02  0.69154662964E+03  0.10100000352E+00 0.  1.
</event>
<event>
 5   0  0.2488886E-04  0.2018481E+04  0.7818609E-02  0.8598029E-01
        2   -1    0    0  501    0  0.00000000000E+00  0.00000000000E+00  0.13641763557E+04  0.13641763557E+04  0.25500000920E-02 0.  1.
       -2   -1    0    0    0  501  0.00000000000E+00  0.00000000000E+00 -0.74665274394E+03  0.74665274394E+03  0.25500000920E-02 0. -1.
    10030    2    1    2    0    0  0.00000000000E+00  0.00000000000E+00  0.61752361178E+03  0.21108290997E+04  0.20184806357E+04 0.  0.
        3    1    3    3  502    0  0.38467663816E+03  0.88746034025E+03  0.74764005137E+01  0.96727342475E+03  0.10100000352E+00 0. -1.
       -3    1    3    3    0  502 -0.38467663816E+03 -0.88746034025E+03  0.61004721127E+03  0.11435556749E+04  0.10100000352E+00 0.  1.
</event>
<event>
 5   0  0.1207228E-04  0.2085719E+04  0.7818609E-02  0.8567560E-01
        1   -1    0    0  501    0  0.00000000000E+00  0.00000000000E+00  0.16763697462E+04  0.16763697462E+04  0.50400001928E-02 0.  1.
       -1   -1    0    0    0  501  0.00000000000E+00  0.00000000000E+00 -0.64875666332E+03  0.64875666334E+03  0.50400001928E-02 0. -1.
    10030    2    1    2    0    0  0.00000000000E+00  0.00000000000E+00  0.10276130828E+04  0.23251264095E+04  0.20857191019E+04 0.  0.
        1    1    3    3  502    0 -0.73337116836E+03 -0.22444417281E+03  0.13015634628E+04  0.15107203265E+04  0.50400001928E-02 0.  1.
       -1    1    3    3    0  502  0.73337116836E+03  0.22444417281E+03 -0.27395037995E+03  0.81440608298E+03  0.50400001928E-02 0. -1.
</event>
<event>
 5   0  0.2540506E-04  0.1450169E+04  0.7818609E-02  0.8918283E-01
        2   -1    0    0  501    0  0.00000000000E+00  0.00000000000E+00  0.82065088278E+03  0.82065088279E+03  0.25500000920E-02 0.  1.
       -2   -1    0    0    0  501  0.00000000000E+00  0.00000000000E+00 -0.64064732864E+03  0.64064732864E+03  0.25500000920E-02 0. -1.
    10030    2    1    2    0    0  0.00000000000E+00  0.00000000000E+00  0.18000355415E+03  0.14612982114E+04  0.14501693636E+04 0.  0.
        4    1    3    3  502    0  0.22170971208E+03 -0.54522212679E+03  0.51671796281E+03  0.78321225090E+03  0.12699999809E+01 0.  1.
       -4    1    3    3    0  502 -0.22170971208E+03  0.54522212679E+03 -0.33671440866E+03  0.67808596053E+03  0.12699999809E+01 0. -1.
</event>
<event>
 5   0  0.2540506E-04  0.1984740E+04  0.7818609E-02  0.8613788E-01
       -2   -1    0    0    0  501  0.00000000000E+00  0.00000000000E+00  0.90036747052E+03  0.90036747052E+03  0.25500000920E-02 0. -1.
        2   -1    0    0  501    0  0.00000000000E+00  0.00000000000E+00 -0.10937740164E+04  0.10937740164E+04  0.25500000920E-02 0.  1.
    10030    2    1    2    0    0  0.00000000000E+00  0.00000000000E+00 -0.19340654592E+03  0.19941414870E+04  0.19847403301E+04 0.  0.
        4    1    3    3  502    0 -0.71181381627E+03 -0.55834988331E+03 -0.50651200464E+03  0.10368170161E+04  0.12699999809E+01 0.  1.
       -4    1    3    3    0  502  0.71181381627E+03  0.55834988331E+03  0.31310545872E+03  0.95732447081E+03  0.12699999809E+01 0. -1.
</event>
<event>
 5   0  0.1324930E-04  0.1882719E+04  0.7818609E-02  0.8663507E-01
       -1   -1    0    0    0  501  0.00000000000E+00  0.00000000000E+00  0.16524459763E+04  0.16524459763E+04  0.50400001928E-02 0. -1.
        1   -1    0    0  501    0  0.00000000000E+00  0.00000000000E+00 -0.53627003227E+03  0.53627003229E+03  0.50400001928E-02 0.  1.
    10030    2    1    2    0    0  0.00000000000E+00  0.00000000000E+00  0.11161759440E+04  0.21887160086E+04  0.18827185207E+04 0.  0.
        5    1    3    3  502    0 -0.56151286189E+03  0.31629924119E+03  0.13557504059E+04  0.15011406187E+04  0.46999998093E+01 0. -1.
       -5    1    3    3    0  502  0.56151286189E+03 -0.31629924119E+03 -0.23957446184E+03  0.68757538991E+03  0.46999998093E+01 0.  1.
</event>
<event>
 5   0  0.1231056E-04  0.1966902E+04  0.7818609E-02  0.8622254E-01
       -1   -1    0    0    0  501  0.00000000000E+00  0.00000000000E+00  0.41534656210E+03  0.41534656213E+03  0.50400001928E-02 0. -1.
        1   -1    0    0  501    0  0.00000000000E+00  0.00000000000E+00 -0.23285985217E+04  0.23285985217E+04  0.50400001928E-02 0.  1.
    10030    2    1    2    0    0  0.00000000000E+00  0.00000000000E+00 -0.19132519596E+04  0.27439450838E+04  0.19669015131E+04 0.  0.
        3    1    3    3  502    0  0.49905524535E+03 -0.51316248394E+03 -0.15830646804E+02  0.71599056727E+03  0.10100000352E+00 0. -1.
       -3    1    3    3    0  502 -0.49905524535E+03  0.51316248394E+03 -0.18974213128E+04  0.20279545166E+04  0.10100000352E+00 0.  1.
</event>
<event>
 5   0  0.1210633E-04  0.2016063E+04  0.7818609E-02  0.8599147E-01
        1   -1    0    0  501    0  0.00000000000E+00  0.00000000000E+00  0.74620967095E+03  0.74620967097E+03  0.50400001928E-02 0.  1.
       -1   -1    0    0    0  501  0.00000000000E+00  0.00000000000E+00 -0.13617182038E+04  0.13617182038E+04  0.50400001928E-02 0. -1.
    10030    2    1    2    0    0  0.00000000000E+00  0.00000000000E+00 -0.61550853287E+03  0.21079278748E+04  0.20160627895E+04 0.  0.
        2    1    3    3  502    0  0.35339629486E+03 -0.52476928316E+03 -0.11282779540E+04  0.12935543604E+04  0.25500000920E-02 0. -1.
       -2    1    3    3    0  502 -0.35339629486E+03  0.52476928316E+03  0.51276942111E+03  0.81437351443E+03  0.25500000920E-02 0.  1.
</event>
<event>
 5   0  0.2540506E-04  0.2006296E+04  0.7818609E-02  0.8603683E-01
       -2   -1    0    0    0  501  0.00000000000E+00  0.00000000000E+00  0.62643352519E+03  0.62643352519E+03  0.25500000920E-02 0. -1.
        2   -1    0    0  501    0  0.00000000000E+00  0.00000000000E+00 -0.16064053685E+04  0.16064053685E+04  0.25500000920E-02 0.  1.
    10030    2    1    2    0    0  0.00000000000E+00  0.00000000000E+00 -0.97997184333E+03  0.22328388937E+04  0.20062962671E+04 0.  0.
        4    1    3    3  502    0 -0.82031919740E+03  0.56513698131E+03 -0.35829843340E+03  0.10586230555E+04  0.12699999809E+01 0. -1.
       -4    1    3    3    0  502  0.82031919740E+03 -0.56513698131E+03 -0.62167340993E+03  0.11742158382E+04  0.12699999809E+01 0.  1.
</event>
<event>
 5   0  0.1231056E-04  0.1998217E+04  0.7818609E-02  0.8607455E-01
       -1   -1    0    0    0  501  0.00000000000E+00  0.00000000000E+00  0.52149840647E+03  0.52149840650E+03  0.50400001928E-02 0. -1.
        1   -1    0    0  501    0  0.00000000000E+00  0.00000000000E+00 -0.19141347438E+04  0.19141347438E+04  0.50400001928E-02 0.  1.
    10030    2    1    2    0    0  0.00000000000E+00  0.00000000000E+00 -0.13926363373E+04  0.24356331503E+04  0.19982174243E+04 0.  0.
        3    1    3    3  502    0  0.93555011740E+03  0.34102222675E+03 -0.59678500326E+03  0.11609059099E+04  0.10100000352E+00 0.  1.
       -3    1    3    3    0  502 -0.93555011740E+03 -0.34102222675E+03 -0.79585133403E+03  0.12747272404E+04  0.10100000352E+00 0. -1.
</event>
<event>
 5   0  0.2463085E-04  0.1984159E+04  0.7818609E-02  0.8614063E-01
       -2   -1    0    0    0  501  0.00000000000E+00  0.00000000000E+00  0.91726221965E+03  0.91726221965E+03  0.25500000920E-02 0. -1.
        2   -1    0    0  501    0  0.00000000000E+00  0.00000000000E+00 -0.10729988620E+04  0.10729988620E+04  0.25500000920E-02 0.  1.
    10030    2    1    2    0    0  0.00000000000E+00  0.00000000000E+00 -0.15573664230E+03  0.19902610816E+04  0.19841585802E+04 0.  0.
        2    1    3    3  502    0 -0.26157901257E+03 -0.71984846553E+03  0.55463899918E+03  0.94563725210E+03  0.25500000920E-02 0. -1.
       -2    1    3    3    0  502  0.26157901257E+03  0.71984846553E+03 -0.71037564148E+03  0.10446238295E+04  0.25500000920E-02 0.  1.
</event>
<event>
 5   0  0.2540506E-04  0.1975778E+04  0.7818609E-02  0.8618030E-01
       -2   -1    0    0    0  501  0.00000000000E+00  0.00000000000E+00  0.16043481796E+04  0.16043481796E+04  0.25500000920E-02 0. -1.
        2   -1    0    0  501    0  0.00000000000E+00  0.00000000000E+00 -0.60829962803E+03  0.60829962804E+03  0.25500000920E-02 0.  1.
    10030    2    1    2    0    0  0.00000000000E+00  0.00000000000E+00  0.99604855162E+03  0.22126478077E+04  0.19757777212E+04 0.  0.
        4    1    3    3  502    0  0.44763225927E+03 -0.46999289948E+01  0.14842410965E+04  0.15502806115E+04  0.12699999809E+01 0. -1.
       -4    1    3    3    0  502 -0.44763225927E+03  0.46999289948E+01 -0.48819254487E+03  0.66236719623E+03  0.12699999809E+01 0.  1.
</event>
<event>
 5   0  0.1324930E-04  0.2036410E+04  0.7818609E-02  0.8589785E-01
        1   -1    0    0  501    0  0.00000000000E+00  0.00000000000E+00  0.16389249539E+04  0.16389249539E+04  0.50400001928E-02 0.  1.
       -1   -1    0    0    0  501  0.00000000000E+00  0.00000000000E+00 -0.63257393718E+03  0.63257393720E+03  0.50400001928E-02 0. -1.
    10030    2    1    2    0    0  0.00000000000E+00  0.00000000000E+00  0.10063510167E+04  0.22714988911E+04  0.20364097926E+04 0.  0.
        5    1    3    3  502    0  0.49466601188E+03  0.66186480199E+03  0.11668027809E+04  0.14297588255E+04  0.46999998093E+01 0.  1.
       -5    1    3    3    0  502 -0.49466601188E+03 -0.66186480199E+03 -0.16045176423E+03  0.84174006561E+03  0.46999998093E+01 0. -1.
</event>
<event>
 5   0  0.9099125E-05  0.1989864E+04  0.7818609E-02  0.8611374E-01
        4   -1    0    0  501    0  0.00000000000E+00  0.00000000000E+00  0.16180346729E+04  0.16180351714E+04  0.12699999809E+01 0. -1.
       -4   -1    0    0    0  501  0.00000000000E+00  0.00000000000E+00 -0.61178424942E+03  0.61178556761E+03  0.12699999809E+01 0.  1.
    10030    2    1    2    0    0  0.00000000000E+00  0.00000000000E+00  0.10062504235E+04  0.22298207390E+04  0.19898644710E+04 0.  0.
        4    1    3    3  502    0 -0.98627935065E+03 -0.13092414439E+03  0.50387799143E+03  0.11152500761E+04  0.12699999809E+01 0.  1.
       -4    1    3    3    0  502  0.98627935065E+03  0.13092414439E+03  0.50237243210E+03  0.11145706629E+04  0.12699999809E+01 0. -1.
</event>
<event>
 5   0  0.2463085E-04  0.1966618E+04  0.7818609E-02  0.8622389E-01
        2   -1    0    0  501    0  0.00000000000E+00  0.00000000000E+00  0.13616817332E+04  0.13616817332E+04  0.25500000920E-02 0.  1.
       -2   -1    0    0    0  501  0.00000000000E+00  0.00000000000E+00 -0.71007537885E+03  0.71007537886E+03  0.25500000920E-02 0. -1.
    10030    2    1    2    0    0  0.00000000000E+00  0.00000000000E+00  0.65160635434E+03  0.20717571121E+04  0.19666180845E+04 0.  0.
        2    1    3    3  502    0  0.55257297159E+03  0.73233461105E+03 -0.47017848877E+02  0.91861937145E+03  0.25500000920E-02 0. -1.
       -2    1    3    3    0  502 -0.55257297159E+03 -0.73233461105E+03  0.69862420322E+03  0.11531377406E+04  0.25500000920E-02 0.  1.
</event>
<event>
 5   0  0.2488886E-04  0.1997258E+04  0.7818609E-02  0.8607904E-01
       -2   -1    0    0    0  501  0.00000000000E+00  0.00000000000E+00  0.57073184580E+03  0.57073184581E+03  0.25500000920E-02 0.  1.
        2   -1    0    0  501    0  0.00000000000E+00  0.00000000000E+00 -0.17473351601E+04  0.17473351601E+04  0.25500000920E-02 0. -1.
    10030    2    1    2    0    0  0.00000000000E+00  0.00000000000E+00 -0.11766033143E+04  0.23180670059E+04  0.19972579414E+04 0.  0.
        3    1    3    3  502    0 -0.68430218944E+02  0.98637275939E+02  0.56232641296E+03  0.57499827129E+03  0.10100000352E+00 0.  1.
       -3    1    3    3    0  502  0.68430218944E+02 -0.98637275939E+02 -0.17389297272E+04  0.17430687346E+04  0.10100000352E+00 0. -1.
</event>
<event>
 5   0  0.2596061E-04  0.2038030E+04  0.7818609E-02  0.8589044E-01
        2   -1    0    0  501    0  0.00000000000E+00  0.00000000000E+00  0.16398806512E+04  0.16398806512E+04  0.25500000920E-02 0.  1.
       -2   -1    0    0    0  501  0.00000000000E+00  0.00000000000E+00 -0.63321172048E+03  0.63321172049E+03  0.25500000920E-02 0. -1.
    10030    2    1    2    0    0  0.00000000000E+00  0.00000000000E+00  0.10066689308E+04  0.22730923717E+04  0.20380300769E+04 0.  0.
        5    1    3    3  502    0 -0.57297785297E+03  0.42199934756E+03  0.13168299828E+04  0.14968134028E+04  0.46999998093E+01 0.  1.
       -5    1    3    3    0  502  0.57297785297E+03 -0.42199934756E+03 -0.31016105204E+03  0.77627896889E+03  0.46999998093E+01 0. -1.
</event>
<event>
 5   0  0.1210633E-04  0.1985764E+04  0.7818609E-02  0.8613305E-01
       -1   -1    0    0    0  501  0.00000000000E+00  0.00000000000E+00  0.79551839391E+03  0.79551839392E+03  0.50400001928E-02 0. -1.
        1   -1    0    0  501    0  0.00000000000E+00  0.00000000000E+00 -0.12392104658E+04  0.12392104658E+04  0.50400001928E-02 0.  1.
    10030    2    1    2    0    0  0.00000000000E+00  0.00000000000E+00 -0.44369207186E+03  0.20347288597E+04  0.19857640539E+04 0.  0.
        2    1    3    3  502    0 -0.50184031131E+03 -0.72953107406E+03  0.23840155055E+03  0.91700304546E+03  0.25500000920E-02 0. -1.
       -2    1    3    3    0  502  0.50184031131E+03  0.72953107406E+03 -0.68209362241E+03  0.11177258142E+04  0.25500000920E-02 0.  1.
</event>
<event>
 5   0  0.2463085E-04  0.1995258E+04  0.7818609E-02  0.8608841E-01
       -2   -1    0    0    0  501  0.00000000000E+00  0.00000000000E+00  0.47685388948E+03  0.47685388949E+03  0.25500000920E-02 0. -1.
        2   -1    0    0  501    0  0.00000000000E+00  0.00000000000E+00 -0.20871453126E+04  0.20871453126E+04  0.25500000920E-02 0.  1.
    10030    2    1    2    0    0  0.00000000000E+00  0.00000000000E+00 -0.16102914231E+04  0.25639992021E+04  0.19952577380E+04 0.  0.
        2    1    3    3  502    0  0.26766171518E+03 -0.13826396689E+03 -0.20272943882E+04  0.20495565996E+04  0.25500000920E-02 0.  1.
       -2    1    3    3    0  502 -0.26766171518E+03  0.13826396689E+03  0.41700296514E+03  0.51444260249E+03  0.25500000920E-02 0. -1.
</event>
<event>
 5   0  0.1210633E-04  0.1978479E+04  0.7818609E-02  0.8616749E-01
        1   -1    0    0  501    0  0.00000000000E+00  0.00000000000E+00  0.69899312305E+03  0.69899312307E+03  0.50400001928E-02 0. -1.
       -1   -1    0    0    0  501  0.00000000000E+00  0.00000000000E+00 -0.14000066237E+04  0.14000066237E+04  0.50400001928E-02 0.  1.
    10030    2    1    2    0    0  0.00000000000E+00  0.00000000000E+00 -0.70101350062E+03  0.20989997467E+04  0.19784792162E+04 0.  0.
        2    1    3    3  502    0 -0.28218032328E+03 -0.39240261536E+01 -0.13563946801E+04  0.13854413236E+04  0.25500000920E-02 0.  1.
       -2    1    3    3    0  502  0.28218032328E+03  0.39240261536E+01  0.65538117949E+03  0.71355842316E+03  0.25500000920E-02 0. -1.
</event>
<event>
 5   0  0.2488886E-04  0.1675016E+04  0.7818609E-02  0.8775743E-01
        2   -1    0    0  501    0  0.00000000000E+00  0.00000000000E+00  0.19920582745E+04  0.19920582745E+04  0.25500000920E-02 0. -1.
       -2   -1    0    0    0  501  0.00000000000E+00  0.00000000000E+00 -0.35210791820E+03  0.35210791821E+03  0.25500000920E-02 0.  1.
    10030    2    1    2    0    0  0.00000000000E+00  0.00000000000E+00  0.16399503563E+04  0.23441661927E+04  0.16750158112E+04 0.  0.
        3    1    3    3  502    0  0.48547507445E+03 -0.65883369043E+03  0.10690354768E+04  0.13463226732E+04  0.10100000352E+00 0. -1.
       -3    1    3    3    0  502 -0.48547507445E+03  0.65883369043E+03  0.57091487947E+03  0.99784351947E+03  0.10100000352E+00 0.  1.
</event>
<event>
 5   0  0.1207228E-04  0.1987616E+04  0.7818609E-02  0.8612433E-01
        1   -1    0    0  501    0  0.00000000000E+00  0.00000000000E+00  0.16255439283E+04  0.16255439283E+04  0.50400001928E-02 0.  1.
       -1   -1    0    0    0  501  0.00000000000E+00  0.00000000000E+00 -0.60758396118E+03  0.60758396121E+03  0.50400001928E-02 0. -1.
    10030    2    1    2    0    0  0.00000000000E+00  0.00000000000E+00  0.10179599671E+04  0.22331278895E+04  0.19876160787E+04 0.  0.
        1    1    3    3  502    0  0.27532097337E+03  0.10172235680E+03  0.15757363580E+04  0.16028394012E+04  0.50400001928E-02 0.  1.
       -1    1    3    3    0  502 -0.27532097337E+03 -0.10172235680E+03 -0.55777639086E+03  0.63028848829E+03  0.50400001928E-02 0. -1.
</event>
<event>
 5   0  0.1210633E-04  0.1984672E+04  0.7818609E-02  0.8613820E-01
        1   -1    0    0  501    0  0.00000000000E+00  0.00000000000E+00  0.11806836759E+04  0.11806836759E+04  0.50400001928E-02 0. -1.
       -1   -1    0    0    0  501  0.00000000000E+00  0.00000000000E+00 -0.83403471158E+03  0.83403471160E+03  0.50400001928E-02 0.  1.
    10030    2    1    2    0    0  0.00000000000E+00  0.00000000000E+00  0.34664896434E+03  0.20147183875E+04  0.19846724356E+04 0.  0.
        2    1    3    3  502    0 -0.40740747945E+03  0.38653997656E+03  0.10038404387E+04  0.11502563341E+04  0.25500000920E-02 0. -1.
       -2    1    3    3    0  502  0.40740747945E+03 -0.38653997656E+03 -0.65719147437E+03  0.86446205341E+03  0.25500000920E-02 0.  1.
</event>
<event>
 5   0  0.1207228E-04  0.1996379E+04  0.7818609E-02  0.8608316E-01
        1   -1    0    0  501    0  0.00000000000E+00  0.00000000000E+00  0.61146346359E+03  0.61146346361E+03  0.50400001928E-02 0. -1.
       -1   -1    0    0    0  501  0.00000000000E+00  0.00000000000E+00 -0.16295039593E+04  0.16295039594E+04  0.50400001928E-02 0.  1.
    10030    2    1    2    0    0  0.00000000000E+00  0.00000000000E+00 -0.10180404958E+04  0.22409674230E+04  0.19963788568E+04 0.  0.
        1    1    3    3  502    0 -0.21995130811E+03 -0.44411658068E+03  0.46360224086E+03  0.67863477139E+03  0.50400001928E-02 0. -1.
       -1    1    3    3    0  502  0.21995130811E+03  0.44411658068E+03 -0.14816427366E+04  0.15623326516E+04  0.50400001928E-02 0.  1.
</event>
<event>
 5   0  0.2596061E-04  0.1985238E+04  0.7818609E-02  0.8613554E-01
       -2   -1    0    0    0  501  0.00000000000E+00  0.00000000000E+00  0.15403052519E+04  0.15403052519E+04  0.25500000920E-02 0. -1.
        2   -1    0    0  501    0  0.00000000000E+00  0.00000000000E+00 -0.63967343267E+03  0.63967343268E+03  0.25500000920E-02 0.  1.
    10030    2    1    2    0    0  0.00000000000E+00  0.00000000000E+00  0.90063181926E+03  0.21799786846E+04  0.19852378677E+04 0.  0.
        5    1    3    3  502    0  0.94984943200E+03 -0.71700479038E+02  0.14380126752E+03  0.96335652627E+03  0.46999998093E+01 0.  1.
       -5    1    3    3    0  502 -0.94984943200E+03  0.71700479038E+02  0.75683055174E+03  0.12166221584E+04  0.46999998093E+01 0. -1.
</event>
<event>
 5   0  0.1324930E-04  0.1986602E+04  0.7818609E-02  0.8612910E-01
       -1   -1    0    0    0  501  0.00000000000E+00  0.00000000000E+00  0.16282634596E+04  0.16282634596E+04  0.50400001928E-02 0.  1.
        1   -1    0    0  501    0  0.00000000000E+00  0.00000000000E+00 -0.60595043046E+03  0.60595043048E+03  0.50400001928E-02 0. -1.
    10030    2    1    2    0    0  0.00000000000E+00  0.00000000000E+00  0.10223130292E+04  0.22342138901E+04  0.19866020681E+04 0.  0.
        5    1    3    3  502    0 -0.14441236360E+02  0.38077299470E+03  0.15427828110E+04  0.15891499347E+04  0.46999998093E+01 0.  1.
       -5    1    3    3    0  502  0.14441236360E+02 -0.38077299470E+03 -0.52046978186E+03  0.64506395546E+03  0.46999998093E+01 0. -1.
</event>
<event>
 5   0  0.1231056E-04  0.1991165E+04  0.7818609E-02  0.8610762E-01
        1   -1    0    0  501    0  0.00000000000E+00  0.00000000000E+00  0.11204242460E+04  0.11204242460E+04  0.50400001928E-02 0.  1.
       -1   -1    0    0    0  501  0.00000000000E+00  0.00000000000E+00 -0.88465114112E+03  0.88465114114E+03  0.50400001928E-02 0. -1.
    10030    2    1    2    0    0  0.00000000000E+00  0.00000000000E+00  0.23577310488E+03  0.20050753871E+04  0.19911650738E+04 0.  0.
        3    1    3    3  502    0  0.60875506616E+03 -0.17883629854E+03  0.89046170306E+03  0.10933833761E+04  0.10100000352E+00 0.  1.
       -3    1    3    3    0  502 -0.60875506616E+03  0.17883629854E+03 -0.65468859818E+03  0.91169201107E+03  0.10100000352E+00 0. -1.
</event>
<event>
 5   0  0.2421737E-04  0.1991666E+04  0.7818609E-02  0.8610527E-01
       -2   -1    0    0    0  501  0.00000000000E+00  0.00000000000E+00  0.58015794783E+03  0.58015794783E+03  0.25500000920E-02 0. -1.
        2   -1    0    0  501    0  0.00000000000E+00  0.00000000000E+00 -0.17093342074E+04  0.17093342074E+04  0.25500000920E-02 0.  1.
    10030    2    1    2    0    0  0.00000000000E+00  0.00000000000E+00 -0.11291762595E+04  0.22894921552E+04  0.19916664639E+04 0.  0.
        1    1    3    3  502    0  0.79399378927E+03 -0.50516551618E+03 -0.19021075044E+03  0.96010336201E+03  0.50400001928E-02 0. -1.
       -1    1    3    3    0  502 -0.79399378927E+03  0.50516551618E+03 -0.93896550909E+03  0.13293887932E+04  0.50400001928E-02 0.  1.
</event>
<event>
 5   0  0.1207228E-04  0.1937311E+04  0.7818609E-02  0.8636504E-01
       -1   -1    0    0    0  501  0.00000000000E+00  0.00000000000E+00  0.84082181740E+03  0.84082181742E+03  0.50400001928E-02 0. -1.
        1   -1    0    0  501    0  0.00000000000E+00  0.00000000000E+00 -0.11159244614E+04  0.11159244614E+04  0.50400001928E-02 0.  1.
    10030    2    1    2    0    0  0.00000000000E+00  0.00000000000E+00 -0.27510264399E+03  0.19567462788E+04  0.19373111611E+04 0.  0.
        1    1    3    3  502    0 -0.57525002964E+03  0.45816316654E+02 -0.92335486117E+03  0.10888507387E+04  0.50400001928E-02 0.  1.
       -1    1    3    3    0  502  0.57525002964E+03 -0.45816316654E+02  0.64825221718E+03  0.86789554013E+03  0.50400001928E-02 0. -1.
</event>
<event>
 5   0  0.2488886E-04  0.1598007E+04  0.7818609E-02  0.8821774E-01
       -2   -1    0    0    0  501  0.00000000000E+00  0.00000000000E+00  0.55972989498E+03  0.55972989498E+03  0.25500000920E-02 0. -1.
        2   -1    0    0  501    0  0.00000000000E+00  0.00000000000E+00 -0.11405612176E+04  0.11405612176E+04  0.25500000920E-02 0.  1.
    10030    2    1    2    0    0  0.00000000000E+00  0.00000000000E+00 -0.58083132265E+03  0.17002911126E+04  0.15980065213E+04 0.  0.
        3    1    3    3  502    0 -0.26275917645E+03  0.12288115427E+03 -0.10825577479E+04  0.11207468271E+04  0.10100000352E+00 0.  1.
       -3    1    3    3    0  502  0.26275917645E+03 -0.12288115427E+03  0.50172642521E+03  0.57954428548E+03  0.10100000352E+00 0. -1.
</event>
<event>
 5   0  0.1207228E-04  0.2004210E+04  0.7818609E-02  0.8604655E-01
        1   -1    0    0  501    0  0.00000000000E+00  0.00000000000E+00  0.16797329039E+04  0.16797329039E+04  0.50400001928E-02 0.  1.
       -1   -1    0    0    0  501  0.00000000000E+00  0.00000000000E+00 -0.59784172828E+03  0.59784172831E+03  0.50400001928E-02 0. -1.
    10030    2    1    2    0    0  0.00000000000E+00  0.00000000000E+00  0.10818911756E+04  0.22775746322E+04  0.20042099914E+04 0.  0.
        1    1    3    3  502    0  0.90801068938E+03  0.99771974390E+01  0.10225834290E+04  0.13675744315E+04  0.50400001928E-02 0.  1.
       -1    1    3    3    0  502 -0.90801068938E+03 -0.99771974390E+01  0.59307746674E+02  0.91000020073E+03  0.50400001928E-02 0. -1.
</event>
<event>
 5   0  0.1258546E-04  0.2000197E+04  0.7818609E-02  0.8606529E-01
        1   -1    0    0  501    0  0.00000000000E+00  0.00000000000E+00  0.10887908096E+04  0.10887908096E+04  0.50400001928E-02 0. -1.
       -1   -1    0    0    0  501  0.00000000000E+00  0.00000000000E+00 -0.91863085299E+03  0.91863085301E+03  0.50400001928E-02 0.  1.
    10030    2    1    2    0    0  0.00000000000E+00  0.00000000000E+00  0.17015995661E+03  0.20074216626E+04  0.20001968205E+04 0.  0.
        4    1    3    3  502    0 -0.32099535326E+03 -0.80184485868E+03  0.59108563878E+03  0.10466026177E+04  0.12699999809E+01 0.  1.
       -4    1    3    3    0  502  0.32099535326E+03  0.80184485868E+03 -0.42092568216E+03  0.96081904488E+03  0.12699999809E+01 0. -1.
</event>
<event>
 5   0  0.2421737E-04  0.1973799E+04  0.7818609E-02  0.8618969E-01
       -2   -1    0    0    0  501  0.00000000000E+00  0.00000000000E+00  0.73432895286E+03  0.73432895286E+03  0.25500000920E-02 0. -1.
        2   -1    0    0  501    0  0.00000000000E+00  0.00000000000E+00 -0.13263407075E+04  0.13263407075E+04  0.25500000920E-02 0.  1.
    10030    2    1    2    0    0  0.00000000000E+00  0.00000000000E+00 -0.59201175468E+03  0.20606696604E+04  0.19737987566E+04 0.  0.
        1    1    3    3  502    0  0.78001793284E+03 -0.50244665778E+03 -0.64709482147E+03  0.11311995083E+04  0.50400001928E-02 0. -1.
       -1    1    3    3    0  502 -0.78001793284E+03  0.50244665778E+03  0.55083066791E+02  0.92947015215E+03  0.50400001928E-02 0.  1.
</event>
<event>
 5   0  0.1207228E-04  0.1368256E+04  0.7818609E-02  0.8977122E-01
        1   -1    0    0  501    0  0.00000000000E+00  0.00000000000E+00  0.48746877885E+03  0.48746877888E+03  0.50400001928E-02 0. -1.
       -1   -1    0    0    0  501  0.00000000000E+00  0.00000000000E+00 -0.96012548659E+03  0.96012548661E+03  0.50400001928E-02 0.  1.
    10030    2    1    2    0    0  0.00000000000E+00  0.00000000000E+00 -0.47265670774E+03  0.14475942655E+04  0.13682561142E+04 0.  0.
        1    1    3    3  502    0  0.42148439397E+03  0.12544873008E+03 -0.79078179577E+03  0.90483276178E+03  0.50400001928E-02 0.  1.
       -1    1    3    3    0  502 -0.42148439397E+03 -0.12544873008E+03  0.31812508803E+03  0.54276150370E+03  0.50400001928E-02 0. -1.
</event>
<event>
 5   0  0.1207228E-04  0.2004942E+04  0.7818609E-02  0.8604314E-01
       -1   -1    0    0    0  501  0.00000000000E+00  0.00000000000E+00  0.17936913067E+04  0.17936913067E+04  0.50400001928E-02 0.  1.
        1   -1    0    0  501    0  0.00000000000E+00  0.00000000000E+00 -0.56026800946E+03  0.56026800948E+03  0.50400001928E-02 0. -1.
    10030    2    1    2    0    0  0.00000000000E+00  0.00000000000E+00  0.12334232972E+04  0.23539593162E+04  0.20049417528E+04 0.  0.
        1    1    3    3  502    0  0.88096104674E+03 -0.37457669019E+03  0.96608201767E+03  0.13600421051E+04  0.50400001928E-02 0. -1.
       -1    1    3    3    0  502 -0.88096104674E+03  0.37457669019E+03  0.26734127955E+03  0.99391721108E+03  0.50400001928E-02 0.  1.
</event>
<event>
 5   0  0.2488886E-04  0.2023475E+04  0.7818609E-02  0.8595723E-01
       -2   -1    0    0    0  501  0.00000000000E+00  0.00000000000E+00  0.42463739285E+03  0.42463739285E+03  0.25500000920E-02 0. -1.
        2   -1    0    0  501    0  0.00000000000E+00  0.00000000000E+00 -0.24105582352E+04  0.24105582352E+04  0.25500000920E-02 0.  1.
    10030    2    1    2    0    0  0.00000000000E+00  0.00000000000E+00 -0.19859208423E+04  0.28351956280E+04  0.20234753908E+04 0.  0.
        3    1    3    3  502    0  0.92910762789E+03 -0.31593017640E+03 -0.64815102711E+03  0.11760750931E+04  0.10100000352E+00 0. -1.
       -3    1    3    3    0  502 -0.92910762789E+03  0.31593017640E+03 -0.13377698152E+04  0.16591205349E+04  0.10100000352E+00 0.  1.
</event>
<event>
 5   0  0.2596061E-04  0.2019457E+04  0.7818609E-02  0.8597578E-01
       -2   -1    0    0    0  501  0.00000000000E+00  0.00000000000E+00  0.65500928935E+03  0.65500928936E+03  0.25500000920E-02 0.  1.
        2   -1    0    0  501    0  0.00000000000E+00  0.00000000000E+00 -0.15565449520E+04  0.15565449520E+04  0.25500000920E-02 0. -1.
    10030    2    1    2    0    0  0.00000000000E+00  0.00000000000E+00 -0.90153566266E+03  0.22115542414E+04  0.20194567615E+04 0.  0.
        5    1    3    3  502    0 -0.50829553715E+03 -0.25349084426E+03  0.46345183518E+03  0.73309730237E+03  0.46999998093E+01 0.  1.
       -5    1    3    3    0  502  0.50829553715E+03  0.25349084426E+03 -0.13649874978E+04  0.14784569390E+04  0.46999998093E+01 0. -1.
</event>
<event>
 5   0  0.2463085E-04  0.1983524E+04  0.7818609E-02  0.8614363E-01
        2   -1    0    0  501    0  0.00000000000E+00  0.00000000000E+00  0.28772456330E+04  0.28772456330E+04  0.25500000920E-02 0. -1.
       -2   -1    0    0    0  501  0.00000000000E+00  0.00000000000E+00 -0.34185174135E+03  0.34185174136E+03  0.25500000920E-02 0.  1.
    10030    2    1    2    0    0  0.00000000000E+00  0.00000000000E+00  0.25353938916E+04  0.32190973743E+04  0.19835235617E+04 0.  0.
        2    1    3    3  502    0  0.46145137252E+03 -0.86164465248E+03  0.99505359959E+03  0.13948120097E+04  0.25500000920E-02 0.  1.
       -2    1    3    3    0  502 -0.46145137252E+03  0.86164465248E+03  0.15403402920E+04  0.18242853646E+04  0.25500000920E-02 0. -1.
</event>
<event>
 5   0  0.2463085E-04  0.2005263E+04  0.7818609E-02  0.8604164E-01
       -2   -1    0    0    0  501  0.00000000000E+00  0.00000000000E+00  0.88180036762E+03  0.88180036762E+03  0.25500000920E-02 0.  1.
        2   -1    0    0  501    0  0.00000000000E+00  0.00000000000E+00 -0.11400193240E+04  0.11400193240E+04  0.25500000920E-02 0. -1.
    10030    2    1    2    0    0  0.00000000000E+00  0.00000000000E+00 -0.25821895639E+03  0.20218196916E+04  0.20052625354E+04 0.  0.
        2    1    3    3  502    0 -0.28077242776E+03 -0.26778424227E+03 -0.10612580167E+04  0.11299602358E+04  0.25500000920E-02 0. -1.
       -2    1    3    3    0  502  0.28077242776E+03  0.26778424227E+03  0.80303906027E+03  0.89185945581E+03  0.25500000920E-02 0.  1.
</event>
<event>
 5   0  0.2488886E-04  0.1936856E+04  0.7818609E-02  0.8636725E-01
       -2   -1    0    0    0  501  0.00000000000E+00  0.00000000000E+00  0.14836124625E+04  0.14836124625E+04  0.25500000920E-02 0. -1.
        2   -1    0    0  501    0  0.00000000000E+00  0.00000000000E+00 -0.63214124513E+03  0.63214124513E+03  0.25500000920E-02 0.  1.
    10030    2    1    2    0    0  0.00000000000E+00  0.00000000000E+00  0.85147121739E+03  0.21157537077E+04  0.19368558329E+04 0.  0.
        3    1    3    3  502    0 -0.80276997058E+03 -0.27465707987E+03  0.93573849538E+03  0.12631241741E+04  0.10100000352E+00 0. -1.
       -3    1    3    3    0  502  0.80276997058E+03  0.27465707987E+03 -0.84267277994E+02  0.85262953358E+03  0.10100000352E+00 0.  1.
</event>
<event>
 5   0  0.1210633E-04  0.2001543E+04  0.7818609E-02  0.8605899E-01
       -1   -1    0    0    0  501  0.00000000000E+00  0.00000000000E+00  0.10303078704E+04  0.10303078705E+04  0.50400001928E-02 0.  1.
        1   -1    0    0  501    0  0.00000000000E+00  0.00000000000E+00 -0.97208230116E+03  0.97208230117E+03  0.50400001928E-02 0. -1.
    10030    2    1    2    0    0  0.00000000000E+00  0.00000000000E+00  0.58225569284E+02  0.20023901716E+04  0.20015434501E+04 0.  0.
        2    1    3    3  502    0  0.66534298913E+03 -0.71232236995E+03 -0.19783025063E+03  0.99459602854E+03  0.25500000920E-02 0.  1.
       -2    1    3    3    0  502 -0.66534298913E+03  0.71232236995E+03  0.25605581991E+03  0.10077941431E+04  0.25500000920E-02 0. -1.
</event>
<event>
 5   0  0.2421737E-04  0.2033822E+04  0.7818609E-02  0.8590969E-01
       -2   -1    0    0    0  501  0.00000000000E+00  0.00000000000E+00  0.47299935087E+03  0.47299935088E+03  0.25500000920E-02 0. -1.
        2   -1    0    0  501    0  0.00000000000E+00  0.00000000000E+00 -0.21862769123E+04  0.21862769123E+04  0.25500000920E-02 0.  1.
    10030    2    1    2    0    0  0.00000000000E+00  0.00000000000E+00 -0.17132775614E+04  0.26592762632E+04  0.20338215854E+04 0.  0.
        1    1    3    3  502    0 -0.31223688899E+02  0.15845323660E+03 -0.21694017040E+04  0.21754048129E+04  0.50400001928E-02 0.  1.
       -1    1    3    3    0  502  0.31223688899E+02 -0.15845323660E+03  0.45612414254E+03  0.48387145025E+03  0.50400001928E-02 0. -1.
</event>
<event>
 5   0  0.1231056E-04  0.1917372E+04  0.7818609E-02  0.8646257E-01
       -1   -1    0    0    0  501  0.00000000000E+00  0.00000000000E+00  0.12551625682E+04  0.12551625682E+04  0.50400001928E-02 0.  1.
        1   -1    0    0  501    0  0.00000000000E+00  0.00000000000E+00 -0.73223903240E+03  0.73223903242E+03  0.50400001928E-02 0. -1.
    10030    2    1    2    0    0  0.00000000000E+00  0.00000000000E+00  0.52292353582E+03  0.19874016007E+04  0.19173721856E+04 0.  0.
        3    1    3    3  502    0 -0.17560292068E+03  0.57071362254E+03  0.10388742549E+04  0.11982529585E+04  0.10100000352E+00 0.  1.
       -3    1    3    3    0  502  0.17560292068E+03 -0.57071362254E+03 -0.51595071912E+03  0.78914864218E+03  0.10100000352E+00 0. -1.
</event>
<event>
 5   0  0.1231056E-04  0.2005089E+04  0.7818609E-02  0.8604245E-01
        1   -1    0    0  501    0  0.00000000000E+00  0.00000000000E+00  0.12229491008E+04  0.12229491008E+04  0.50400001928E-02 0. -1.
       -1   -1    0    0    0  501  0.00000000000E+00  0.00000000000E+00 -0.82186189809E+03  0.82186189811E+03  0.50400001928E-02 0.  1.
    10030    2    1    2    0    0  0.00000000000E+00  0.00000000000E+00  0.40108720272E+03  0.20448109989E+04  0.20050887953E+04 0.  0.
        3    1    3    3  502    0 -0.70150416193E+03  0.71622976621E+03  0.20201858690E+03  0.10226948161E+04  0.10100000352E+00 0.  1.
       -3    1    3    3    0  502  0.70150416193E+03 -0.71622976621E+03  0.19906861582E+03  0.10221161828E+04  0.10100000352E+00 0. -1.
</event>
<event>
 5   0  0.1258546E-04  0.1965910E+04  0.7818609E-02  0.8622727E-01
        1   -1    0    0  501    0  0.00000000000E+00  0.00000000000E+00  0.17922508895E+04  0.17922508895E+04  0.50400001928E-02 0.  1.
       -1   -1    0    0    0  501  0.00000000000E+00  0.00000000000E+00 -0.53909905314E+03  0.53909905316E+03  0.50400001928E-02 0. -1.
    10030    2    1    2    0    0  0.00000000000E+00  0.00000000000E+00  0.12531518364E+04  0.23313499427E+04  0.19659102294E+04 0.  0.
        4    1    3    3  502    0 -0.88039628133E+03 -0.17187089418E+03  0.14991088036E+03  0.90945703659E+03  0.12699999809E+01 0. -1.
       -4    1    3    3    0  502  0.88039628133E+03  0.17187089418E+03  0.11032409560E+04  0.14218929061E+04  0.12699999809E+01 0.  1.
</event>
<event>
 5   0  0.2540506E-04  0.2023124E+04  0.7818609E-02  0.8595885E-01
        2   -1    0    0  501    0  0.00000000000E+00  0.00000000000E+00  0.68564357516E+03  0.68564357517E+03  0.25500000920E-02 0. -1.
       -2   -1    0    0    0  501  0.00000000000E+00  0.00000000000E+00 -0.14924041382E+04  0.14924041382E+04  0.25500000920E-02 0.  1.
    10030    2    1    2    0    0  0.00000000000E+00  0.00000000000E+00 -0.80676056306E+03  0.21780477134E+04  0.20231236333E+04 0.  0.
        4    1    3    3  502    0  0.24890019165E+03  0.37751796428E+03 -0.13775391596E+04  0.14498575336E+04  0.12699999809E+01 0.  1.
       -4    1    3    3    0  502 -0.24890019165E+03 -0.37751796428E+03  0.57077859651E+03  0.72819017976E+03  0.12699999809E+01 0. -1.
</event>
<event>
 5   0  0.1231056E-04  0.1986237E+04  0.7818609E-02  0.8613082E-01
       -1   -1    0    0    0  501  0.00000000000E+00  0.00000000000E+00  0.87852993666E+03  0.87852993667E+03  0.50400001928E-02 0. -1.
        1   -1    0    0  501    0  0.00000000000E+00  0.00000000000E+00 -0.11226530959E+04  0.11226530959E+04  0.50400001928E-02 0.  1.
    10030    2    1    2    0    0  0.00000000000E+00  0.00000000000E+00 -0.24412315927E+03  0.20011830326E+04  0.19862369982E+04 0.  0.
        3    1    3    3  502    0  0.43434695017E+03  0.52388613560E+03 -0.85080948823E+03  0.10894910517E+04  0.10100000352E+00 0.  1.
       -3    1    3    3    0  502 -0.43434695017E+03 -0.52388613560E+03  0.60668632896E+03  0.91169198095E+03  0.10100000352E+00 0. -1.
</event>
<event>
 5   0  0.2596061E-04  0.2124738E+04  0.7818609E-02  0.8550424E-01
        2   -1    0    0  501    0  0.00000000000E+00  0.00000000000E+00  0.11052885231E+04  0.11052885231E+04  0.25500000920E-02 0. -1.
       -2   -1    0    0    0  501  0.00000000000E+00  0.00000000000E+00 -0.10211164402E+04  0.10211164402E+04  0.25500000920E-02 0.  1.
    10030    2    1    2    0    0  0.00000000000E+00  0.00000000000E+00  0.84172082965E+02  0.21264049633E+04  0.21247383671E+04 0.  0.
        5    1    3    3  502    0 -0.85011838119E+03 -0.45297993436E+03  0.49044873369E+03  0.10809505693E+04  0.46999998093E+01 0. -1.
       -5    1    3    3    0  502  0.85011838119E+03  0.45297993436E+03 -0.40627665073E+03  0.10454543940E+04  0.46999998093E+01 0.  1.
</event>
<event>
 5   0  0.1231056E-04  0.1992392E+04  0.7818609E-02  0.8610186E-01
       -1   -1    0    0    0  501  0.00000000000E+00  0.00000000000E+00  0.69468036146E+03  0.69468036148E+03  0.50400001928E-02 0.  1.
        1   -1    0    0  501    0  0.00000000000E+00  0.00000000000E+00 -0.14285795655E+04  0.14285795655E+04  0.50400001928E-02 0. -1.
    10030    2    1    2    0    0  0.00000000000E+00  0.00000000000E+00 -0.73389920406E+03  0.21232599270E+04  0.19923916974E+04 0.  0.
        3    1    3    3  502    0  0.79133434789E+03 -0.37236060313E+03 -0.87529727297E+03  0.12373389977E+04  0.10100000352E+00 0. -1.
       -3    1    3    3    0  502 -0.79133434789E+03  0.37236060313E+03  0.14139806891E+03  0.88592092932E+03  0.10100000352E+00 0.  1.
</event>
<event>
 5   0  0.2421737E-04  0.1991056E+04  0.7818609E-02  0.8610814E-01
       -2   -1    0    0    0  501  0.00000000000E+00  0.00000000000E+00  0.10942420399E+04  0.10942420399E+04  0.25500000920E-02 0. -1.
        2   -1    0    0  501    0  0.00000000000E+00  0.00000000000E+00 -0.90571908537E+03  0.90571908537E+03  0.25500000920E-02 0.  1.
    10030    2    1    2    0    0  0.00000000000E+00  0.00000000000E+00  0.18852295454E+03  0.19999611253E+04  0.19910559003E+04 0.  0.
        1    1    3    3  502    0  0.57650082745E+03  0.78587291373E+03  0.29796510326E+03  0.10191823406E+04  0.50400001928E-02 0. -1.
       -1    1    3    3    0  502 -0.57650082745E+03 -0.78587291373E+03 -0.10944214872E+03  0.98077878470E+03  0.50400001928E-02 0.  1.
</event>
<event>
 5   0  0.1231056E-04  0.1940062E+04  0.7818609E-02  0.8635168E-01
        1   -1    0    0  501    0  0.00000000000E+00  0.00000000000E+00  0.68527254967E+03  0.68527254969E+03  0.50400001928E-02 0.  1.
       -1   -1    0    0    0  501  0.00000000000E+00  0.00000000000E+00 -0.13731177214E+04  0.13731177214E+04  0.50400001928E-02 0. -1.
    10030    2    1    2    0    0  0.00000000000E+00  0.00000000000E+00 -0.68784517172E+03  0.20583902711E+04  0.19400617330E+04 0.  0.
        3    1    3    3  502    0 -0.89117203885E+03 -0.13340315147E+03 -0.72495892937E+03  0.11565247352E+04  0.10100000352E+00 0. -1.
       -3    1    3    3    0  502  0.89117203885E+03  0.13340315147E+03  0.37113757647E+02  0.90186553590E+03  0.10100000352E+00 0.  1.
</event>
<event>
 5   0  0.2596061E-04  0.2224703E+04  0.7818609E-02  0.8508216E-01
        2   -1    0    0  501    0  0.00000000000E+00  0.00000000000E+00  0.20356845489E+04  0.20356845489E+04  0.25500000920E-02 0. -1.
       -2   -1    0    0    0  501  0.00000000000E+00  0.00000000000E+00 -0.60781828508E+03  0.60781828508E+03  0.25500000920E-02 0.  1.
    10030    2    1    2    0    0  0.00000000000E+00  0.00000000000E+00  0.14278662639E+04  0.26435028340E+04  0.22247033883E+04 0.  0.
        5    1    3    3  502    0 -0.18357354695E+03 -0.10280681980E+04  0.25884637009E+03  0.10759400541E+04  0.46999998093E+01 0.  1.
       -5    1    3    3    0  502  0.18357354695E+03  0.10280681980E+04  0.11690198938E+04  0.15675627799E+04  0.46999998093E+01 0. -1.
</event>
<event>
 5   0  0.2488886E-04  0.2103965E+04  0.7818609E-02  0.8559499E-01
       -2   -1    0    0    0  501  0.00000000000E+00  0.00000000000E+00  0.55640456584E+03  0.55640456585E+03  0.25500000920E-02 0. -1.
        2   -1    0    0  501    0  0.00000000000E+00  0.00000000000E+00 -0.19889615995E+04  0.19889615995E+04  0.25500000920E-02 0.  1.
    10030    2    1    2    0    0  0.00000000000E+00  0.00000000000E+00 -0.14325570337E+04  0.25453661654E+04  0.21039651283E+04 0.  0.
        3    1    3    3  502    0 -0.24720729637E+01 -0.33334107091E+03 -0.19233754895E+04  0.19520490937E+04  0.10100000352E+00 0.  1.
       -3    1    3    3    0  502  0.24720729637E+01  0.33334107091E+03  0.49081845580E+03  0.59331707161E+03  0.10100000352E+00 0. -1.
</event>
<event>
 5   0  0.2488886E-04  0.2016556E+04  0.7818609E-02  0.8598919E-01
       -2   -1    0    0    0  501  0.00000000000E+00  0.00000000000E+00  0.77012084630E+03  0.77012084631E+03  0.25500000920E-02 0. -1.
        2   -1    0    0  501    0  0.00000000000E+00  0.00000000000E+00 -0.13200840305E+04  0.13200840305E+04  0.25500000920E-02 0.  1.
    10030    2    1    2    0    0  0.00000000000E+00  0.00000000000E+00 -0.54996318417E+03  0.20902048768E+04  0.20165557079E+04 0.  0.
        3    1    3    3  502    0 -0.10046545919E+04 -0.74338407342E+02 -0.23140852413E+03  0.10336377330E+04  0.10100000352E+00 0.  1.
       -3    1    3    3    0  502  0.10046545919E+04  0.74338407342E+02 -0.31855466003E+03  0.10565671438E+04  0.10100000352E+00 0. -1.
</event>
<event>
 5   0  0.1207228E-04  0.1506171E+04  0.7818609E-02  0.8880360E-01
        1   -1    0    0  501    0  0.00000000000E+00  0.00000000000E+00  0.91205243212E+03  0.91205243214E+03  0.50400001928E-02 0. -1.
       -1   -1    0    0    0  501  0.00000000000E+00  0.00000000000E+00 -0.62182591945E+03  0.62182591947E+03  0.50400001928E-02 0.  1.
    10030    2    1    2    0    0  0.00000000000E+00  0.00000000000E+00  0.29022651267E+03  0.15338783516E+04  0.15061710955E+04 0.  0.
        1    1    3    3  502    0 -0.50441120167E+03  0.55099382119E+03  0.24233134444E+03  0.78533389834E+03  0.50400001928E-02 0. -1.
       -1    1    3    3    0  502  0.50441120167E+03 -0.55099382119E+03  0.47895168231E+02  0.74854445327E+03  0.50400001928E-02 0.  1.
</event>
<event>
 5   0  0.1258546E-04  0.1991952E+04  0.7818609E-02  0.8610392E-01
       -1   -1    0    0    0  501  0.00000000000E+00  0.00000000000E+00  0.53952095437E+03  0.53952095439E+03  0.50400001928E-02 0. -1.
        1   -1    0    0  501    0  0.00000000000E+00  0.00000000000E+00 -0.18386098837E+04  0.18386098837E+04  0.50400001928E-02 0.  1.
    10030    2    1    2    0    0  0.00000000000E+00  0.00000000000E+00 -0.12990889294E+04  0.23781308381E+04  0.19919523681E+04 0.  0.
        4    1    3    3  502    0  0.17227850683E+03  0.75143632058E+03 -0.14023740016E+04  0.16003096203E+04  0.12699999809E+01 0.  1.
       -4    1    3    3    0  502 -0.17227850683E+03 -0.75143632058E+03  0.10328507219E+03  0.77782121779E+03  0.12699999809E+01 0. -1.
</event>
<event>
 5   0  0.1207228E-04  0.1853244E+04  0.7818609E-02  0.8678486E-01
       -1   -1    0    0    0  501  0.00000000000E+00  0.00000000000E+00  0.35110149790E+03  0.35110149794E+03  0.50400001928E-02 0. -1.
        1   -1    0    0  501    0  0.00000000000E+00  0.00000000000E+00 -0.24455279528E+04  0.24455279528E+04  0.50400001928E-02 0.  1.
    10030    2    1    2    0    0  0.00000000000E+00  0.00000000000E+00 -0.20944264549E+04  0.27966294508E+04  0.18532442121E+04 0.  0.
        1    1    3    3  502    0  0.66448460997E+02 -0.35258811109E+03 -0.23364491421E+04  0.23638376357E+04  0.50400001928E-02 0.  1.
       -1    1    3    3    0  502 -0.66448460997E+02  0.35258811109E+03  0.24202268722E+03  0.43279181508E+03  0.50400001928E-02 0. -1.
</event>
<event>
 5   0  0.9099125E-05  0.2085063E+04  0.7818609E-02  0.8567852E-01
        3   -1    0    0  501    0  0.00000000000E+00  0.00000000000E+00  0.81412635619E+03  0.81412636245E+03  0.10100000352E+00 0.  1.
       -3   -1    0    0    0  501  0.00000000000E+00  0.00000000000E+00 -0.13350164787E+04  0.13350164825E+04  0.10100000352E+00 0. -1.
    10030    2    1    2    0    0  0.00000000000E+00  0.00000000000E+00 -0.52089012252E+03  0.21491428450E+04  0.20850631761E+04 0.  0.
        4    1    3    3  502    0 -0.65425659043E+03  0.77033083660E+03  0.31671555679E+01  0.10106794387E+04  0.12699999809E+01 0.  1.
       -4    1    3    3    0  502  0.65425659043E+03 -0.77033083660E+03 -0.52405727808E+03  0.11384634063E+04  0.12699999809E+01 0. -1.
</event>
<event>
 5   0  0.1231056E-04  0.1951483E+04  0.7818609E-02  0.8629646E-01
        1   -1    0    0  501    0  0.00000000000E+00  0.00000000000E+00  0.10850454681E+04  0.10850454681E+04  0.50400001928E-02 0. -1.
       -1   -1    0    0    0  501  0.00000000000E+00  0.00000000000E+00 -0.87744816510E+03  0.87744816512E+03  0.50400001928E-02 0.  1.
    10030    2    1    2    0    0  0.00000000000E+00  0.00000000000E+00  0.20759730301E+03  0.19624936332E+04  0.19514826723E+04 0.  0.
        3    1    3    3  502    0 -0.12982085041E+03 -0.17074500200E+03  0.10610433182E+04  0.10825064629E+04  0.10100000352E+00 0. -1.
       -3    1    3    3    0  502  0.12982085041E+03  0.17074500200E+03 -0.85344601520E+03  0.87998717034E+03  0.10100000352E+00 0.  1.
</event>
<event>
 5   0  0.1258546E-04  0.1946548E+04  0.7818609E-02  0.8632027E-01
       -1   -1    0    0    0  501  0.00000000000E+00  0.00000000000E+00  0.75340680724E+03  0.75340680726E+03  0.50400001928E-02 0.  1.
        1   -1    0    0  501    0  0.00000000000E+00  0.00000000000E+00 -0.12573055072E+04  0.12573055072E+04  0.50400001928E-02 0. -1.
    10030    2    1    2    0    0  0.00000000000E+00  0.00000000000E+00 -0.50389869993E+03  0.20107123144E+04  0.19465482557E+04 0.  0.
        4    1    3    3  502    0  0.45599515548E+03  0.73364944163E+03  0.21126036248E+03  0.88927253341E+03  0.12699999809E+01 0.  1.
       -4    1    3    3    0  502 -0.45599515548E+03 -0.73364944163E+03 -0.71515906241E+03  0.11214397810E+04  0.12699999809E+01 0. -1.
</event>
<event>
 5   0  0.1210633E-04  0.1858641E+04  0.7818609E-02  0.8675722E-01
        1   -1    0    0  501    0  0.00000000000E+00  0.00000000000E+00  0.74625232119E+03  0.74625232120E+03  0.50400001928E-02 0.  1.
       -1   -1    0    0    0  501  0.00000000000E+00  0.00000000000E+00 -0.11572979295E+04  0.11572979295E+04  0.50400001928E-02 0. -1.
    10030    2    1    2    0    0  0.00000000000E+00  0.00000000000E+00 -0.41104560828E+03  0.19035502507E+04  0.18586406497E+04 0.  0.
        2    1    3    3  502    0  0.21447694081E+03  0.35011458742E+03 -0.10593671646E+04  0.11361511219E+04  0.25500000920E-02 0. -1.
       -2    1    3    3    0  502 -0.21447694081E+03 -0.35011458742E+03  0.64832155629E+03  0.76739912876E+03  0.25500000920E-02 0.  1.
</event>
<event>
 5   0  0.2463085E-04  0.2009384E+04  0.7818609E-02  0.8602246E-01
        2   -1    0    0  501    0  0.00000000000E+00  0.00000000000E+00  0.13928960045E+04  0.13928960045E+04  0.25500000920E-02 0.  1.
       -2   -1    0    0    0  501  0.00000000000E+00  0.00000000000E+00 -0.72468124838E+03  0.72468124838E+03  0.25500000920E-02 0. -1.
    10030    2    1    2    0    0  0.00000000000E+00  0.00000000000E+00  0.66821475616E+03  0.21175772529E+04  0.20093836024E+04 0.  0.
        2    1    3    3  502    0 -0.46657796013E+03 -0.77240811539E+03 -0.13137254568E+03  0.91190352306E+03  0.25500000920E-02 0. -1.
       -2    1    3    3    0  502  0.46657796013E+03  0.77240811539E+03  0.79958730184E+03  0.12056737299E+04  0.25500000920E-02 0.  1.
</event>
<event>
 5   0  0.1324930E-04  0.1994956E+04  0.7818609E-02  0.8608983E-01
       -1   -1    0    0    0  501  0.00000000000E+00  0.00000000000E+00  0.86403492799E+03  0.86403492800E+03  0.50400001928E-02 0. -1.
        1   -1    0    0  501    0  0.00000000000E+00  0.00000000000E+00 -0.11515297868E+04  0.11515297868E+04  0.50400001928E-02 0.  1.
    10030    2    1    2    0    0  0.00000000000E+00  0.00000000000E+00 -0.28749485879E+03  0.20155647148E+04  0.19949555949E+04 0.  0.
        5    1    3    3  502    0 -0.44066063814E+02 -0.58353615622E+03  0.67236184750E+03  0.89137467294E+03  0.46999998093E+01 0. -1.
       -5    1    3    3    0  502  0.44066063814E+02  0.58353615622E+03 -0.95985670628E+03  0.11241900418E+04  0.46999998093E+01 0.  1.
</event>
<event>
 5   0  0.1231056E-04  0.1978239E+04  0.7818609E-02  0.8616863E-01
       -1   -1    0    0    0  501  0.00000000000E+00  0.00000000000E+00  0.85713004500E+03  0.85713004501E+03  0.50400001928E-02 0.  1.
        1   -1    0    0  501    0  0.00000000000E+00  0.00000000000E+00 -0.11414335392E+04  0.11414335392E+04  0.50400001928E-02 0. -1.
    10030    2    1    2    0    0  0.00000000000E+00  0.00000000000E+00 -0.28430349423E+03  0.19985635842E+04  0.19782385911E+04 0.  0.
        3    1    3    3  502    0 -0.94377874725E+03 -0.46247456490E+02 -0.43755950711E+03  0.10413047025E+04  0.10100000352E+00 0. -1.
       -3    1    3    3    0  502  0.94377874725E+03  0.46247456490E+02  0.15325601288E+03  0.95725888174E+03  0.10100000352E+00 0.  1.
</event>
<event>
 5   0  0.2463085E-04  0.2041597E+04  0.7818609E-02  0.8587416E-01
       -2   -1    0    0    0  501  0.00000000000E+00  0.00000000000E+00  0.74052932010E+03  0.74052932010E+03  0.25500000920E-02 0. -1.
        2   -1    0    0  501    0  0.00000000000E+00  0.00000000000E+00 -0.14071410220E+04  0.14071410220E+04  0.25500000920E-02 0.  1.
    10030    2    1    2    0    0  0.00000000000E+00  0.00000000000E+00 -0.66661170186E+03  0.21476703421E+04  0.20415966147E+04 0.  0.
        2    1    3    3  502    0 -0.48713520469E+03 -0.52759999604E+02 -0.12753471372E+04  0.13662337449E+04  0.25500000920E-02 0.  1.
       -2    1    3    3    0  502  0.48713520469E+03  0.52759999604E+02  0.60873543534E+03  0.78143659721E+03  0.25500000920E-02 0. -1.
</event>
<event>
 5   0  0.1210633E-04  0.2021979E+04  0.7818609E-02  0.8596413E-01
        1   -1    0    0  501    0  0.00000000000E+00  0.00000000000E+00  0.11963585289E+04  0.11963585289E+04  0.50400001928E-02 0. -1.
       -1   -1    0    0    0  501  0.00000000000E+00  0.00000000000E+00 -0.85434244003E+03  0.85434244004E+03  0.50400001928E-02 0.  1.
    10030    2    1    2    0    0  0.00000000000E+00  0.00000000000E+00  0.34201608885E+03  0.20507009689E+04  0.20219790946E+04 0.  0.
        2    1    3    3  502    0 -0.19403661105E+03  0.63866957813E+03  0.94110334957E+03  0.11537870475E+04  0.25500000920E-02 0. -1.
       -2    1    3    3    0  502  0.19403661105E+03 -0.63866957813E+03 -0.59908726071E+03  0.89691392141E+03  0.25500000920E-02 0.  1.
</event>
<event>
 5   0  0.1324930E-04  0.2012395E+04  0.7818609E-02  0.8600847E-01
       -1   -1    0    0    0  501  0.00000000000E+00  0.00000000000E+00  0.10800301791E+04  0.10800301791E+04  0.50400001928E-02 0.  1.
        1   -1    0    0  501    0  0.00000000000E+00  0.00000000000E+00 -0.93741256664E+03  0.93741256665E+03  0.50400001928E-02 0. -1.
    10030    2    1    2    0    0  0.00000000000E+00  0.00000000000E+00  0.14261761248E+03  0.20174427458E+04  0.20123954505E+04 0.  0.
        5    1    3    3  502    0 -0.28436663020E+03 -0.24924536578E+03 -0.86345898285E+03  0.94264051355E+03  0.46999998093E+01 0. -1.
       -5    1    3    3    0  502  0.28436663020E+03  0.24924536578E+03  0.10060765953E+04  0.10748022322E+04  0.46999998093E+01 0.  1.
</event>
<event>
 5   0  0.2421737E-04  0.2059119E+04  0.7818609E-02  0.8579469E-01
        2   -1    0    0  501    0  0.00000000000E+00  0.00000000000E+00  0.13176383474E+04  0.13176383474E+04  0.25500000920E-02 0.  1.
       -2   -1    0    0    0  501  0.00000000000E+00  0.00000000000E+00 -0.80446397569E+03  0.80446397570E+03  0.25500000920E-02 0. -1.
    10030    2    1    2    0    0  0.00000000000E+00  0.00000000000E+00  0.51317437174E+03  0.21221023231E+04  0.20591188247E+04 0.  0.
        1    1    3    3  502    0  0.18669266102E+02  0.10237646470E+04  0.36734533917E+03  0.10878350942E+04  0.50400001928E-02 0.  1.
       -1    1    3    3    0  502 -0.18669266102E+02 -0.10237646470E+04  0.14582903257E+03  0.10342672289E+04  0.50400001928E-02 0. -1.
</event>
<event>
 5   0  0.2463085E-04  0.2047832E+04  0.7818609E-02  0.8584578E-01
       -2   -1    0    0    0  501  0.00000000000E+00  0.00000000000E+00  0.84716419225E+03  0.84716419225E+03  0.25500000920E-02 0. -1.
        2   -1    0    0  501    0  0.00000000000E+00  0.00000000000E+00 -0.12375452808E+04  0.12375452808E+04  0.25500000920E-02 0.  1.
    10030    2    1    2    0    0  0.00000000000E+00  0.00000000000E+00 -0.39038108853E+03  0.20847094730E+04  0.20478320714E+04 0.  0.
        2    1    3    3  502    0  0.87822421821E+03 -0.42775912612E+03 -0.50755216905E+03  0.11008473335E+04  0.25500000920E-02 0.  1.
       -2    1    3    3    0  502 -0.87822421821E+03  0.42775912612E+03  0.11717108052E+03  0.98386213950E+03  0.25500000920E-02 0. -1.
</event>
<event>
 5   0  0.2540506E-04  0.1969734E+04  0.7818609E-02  0.8620903E-01
        2   -1    0    0  501    0  0.00000000000E+00  0.00000000000E+00  0.13936279569E+04  0.13936279569E+04  0.25500000920E-02 0. -1.
       -2   -1    0    0    0  501  0.00000000000E+00  0.00000000000E+00 -0.69599870521E+03  0.69599870521E+03  0.25500000920E-02 0.  1.
    10030    2    1    2    0    0  0.00000000000E+00  0.00000000000E+00  0.69762925173E+03  0.20896266621E+04  0.19697342497E+04 0.  0.
        4    1    3    3  502    0 -0.20759198520E+03 -0.56149707866E+03 -0.48082717794E+03  0.76783448060E+03  0.12699999809E+01 0.  1.
       -4    1    3    3    0  502  0.20759198520E+03  0.56149707866E+03  0.11784564297E+04  0.13217921815E+04  0.12699999809E+01 0. -1.
</event>
<event>
 5   0  0.2596061E-04  0.1997128E+04  0.7818609E-02  0.8607964E-01
        2   -1    0    0  501    0  0.00000000000E+00  0.00000000000E+00  0.10527885003E+04  0.10527885003E+04  0.25500000920E-02 0. -1.
       -2   -1    0    0    0  501  0.00000000000E+00  0.00000000000E+00 -0.94713258407E+03  0.94713258407E+03  0.25500000920E-02 0.  1.
    10030    2    1    2    0    0  0.00000000000E+00  0.00000000000E+00  0.10565591623E+03  0.19999210844E+04  0.19971282310E+04 0.  0.
        5    1    3    3  502    0 -0.72740654659E+03 -0.37695867837E+03  0.62449410443E+03  0.10301616891E+04  0.46999998093E+01 0. -1.
       -5    1    3    3    0  502  0.72740654659E+03  0.37695867837E+03 -0.51883818820E+03  0.96975939528E+03  0.46999998093E+01 0.  1.
</event>
<event>
 5   0  0.2540506E-04  0.1940418E+04  0.7818609E-02  0.8634995E-01
       -2   -1    0    0    0  501  0.00000000000E+00  0.00000000000E+00  0.10279600607E+04  0.10279600607E+04  0.25500000920E-02 0. -1.
        2   -1    0    0  501    0  0.00000000000E+00  0.00000000000E+00 -0.91570279809E+03  0.91570279809E+03  0.25500000920E-02 0.  1.
    10030    2    1    2    0    0  0.00000000000E+00  0.00000000000E+00  0.11225726265E+03  0.19436628588E+04  0.19404184126E+04 0.  0.
        4    1    3    3  502    0 -0.53031950001E+03 -0.77708360119E+03  0.29360433868E+03  0.98554696282E+03  0.12699999809E+01 0. -1.
       -4    1    3    3    0  502  0.53031950001E+03  0.77708360119E+03 -0.18134707603E+03  0.95811589602E+03  0.12699999809E+01 0.  1.
</event>
<event>
 5   0  0.2421737E-04  0.1974665E+04  0.7818609E-02  0.8618558E-01
       -2   -1    0    0    0  501  0.00000000000E+00  0.00000000000E+00  0.15331828593E+04  0.15331828593E+04  0.25500000920E-02 0. -1.
        2   -1    0    0  501    0  0.00000000000E+00  0.00000000000E+00 -0.63581818697E+03  0.63581818698E+03  0.25500000920E-02 0.  1.
    10030    2    1    2    0    0  0.00000000000E+00  0.00000000000E+00  0.89736467228E+03  0.21690010462E+04  0.19746650813E+04 0.  0.
        1    1    3    3  502    0 -0.26256690371E+02 -0.78415699582E+03  0.11070295388E+04  0.13568736152E+04  0.50400001928E-02 0. -1.
       -1    1    3    3    0  502  0.26256690371E+02  0.78415699582E+03 -0.20966486654E+03  0.81212743099E+03  0.50400001928E-02 0.  1.
</event>
<event>
 5   0  0.1210633E-04  0.2053646E+04  0.7818609E-02  0.8581942E-01
       -1   -1    0    0    0  501  0.00000000000E+00  0.00000000000E+00  0.81047854192E+03  0.81047854193E+03  0.50400001928E-02 0. -1.
        1   -1    0    0  501    0  0.00000000000E+00  0.00000000000E+00 -0.13009168866E+04  0.13009168867E+04  0.50400001928E-02 0.  1.
    10030    2    1    2    0    0  0.00000000000E+00  0.00000000000E+00 -0.49043834473E+03  0.21113954286E+04  0.20536457547E+04 0.  0.
        2    1    3    3  502    0 -0.32415223869E+03 -0.47924787115E+03 -0.11173733218E+04  0.12582830906E+04  0.25500000920E-02 0.  1.
       -2    1    3    3    0  502  0.32415223869E+03  0.47924787115E+03  0.62693497702E+03  0.85311233802E+03  0.25500000920E-02 0. -1.
</event>
<event>
 5   0  0.2463085E-04  0.1995459E+04  0.7818609E-02  0.8608746E-01
        2   -1    0    0  501    0  0.00000000000E+00  0.00000000000E+00  0.15780978441E+04  0.15780978441E+04  0.25500000920E-02 0. -1.
       -2   -1    0    0    0  501  0.00000000000E+00  0.00000000000E+00 -0.63080032605E+03  0.63080032605E+03  0.25500000920E-02 0.  1.
    10030    2    1    2    0    0  0.00000000000E+00  0.00000000000E+00  0.94729751805E+03  0.22088981701E+04  0.19954594805E+04 0.  0.
        2    1    3    3  502    0 -0.64617273957E+03  0.20391480950E+03  0.12843382931E+04  0.14521175263E+04  0.25500000920E-02 0. -1.
       -2    1    3    3    0  502  0.64617273957E+03 -0.20391480950E+03 -0.33704077507E+03  0.75678064389E+03  0.25500000920E-02 0.  1.
</event>
<event>
 5   0  0.2488886E-04  0.1980955E+04  0.7818609E-02  0.8615577E-01
        2   -1    0    0  501    0  0.00000000000E+00  0.00000000000E+00  0.12795191273E+04  0.12795191273E+04  0.25500000920E-02 0.  1.
       -2   -1    0    0    0  501  0.00000000000E+00  0.00000000000E+00 -0.76672964672E+03  0.76672964673E+03  0.25500000920E-02 0. -1.
    10030    2    1    2    0    0  0.00000000000E+00  0.00000000000E+00  0.51278948059E+03  0.20462487740E+04  0.19809545663E+04 0.  0.
        3    1    3    3  502    0 -0.35324866478E+03 -0.92021646602E+03  0.15591426179E+03  0.99794400180E+03  0.10100000352E+00 0. -1.
       -3    1    3    3    0  502  0.35324866478E+03  0.92021646602E+03  0.35687521880E+03  0.10483047722E+04  0.10100000352E+00 0.  1.
</event>
<event>
 5   0  0.2596061E-04  0.2068726E+04  0.7818609E-02  0.8575146E-01
       -2   -1    0    0    0  501  0.00000000000E+00  0.00000000000E+00  0.61814953520E+03  0.61814953520E+03  0.25500000920E-02 0.  1.
        2   -1    0    0  501    0  0.00000000000E+00  0.00000000000E+00 -0.17308220180E+04  0.17308220180E+04  0.25500000920E-02 0. -1.
    10030    2    1    2    0    0  0.00000000000E+00  0.00000000000E+00 -0.11126724828E+04  0.23489715532E+04  0.20687260098E+04 0.  0.
        5    1    3    3  502    0 -0.79373867802E+03 -0.88794375860E+02  0.18995132036E+03  0.82098058702E+03  0.46999998093E+01 0. -1.
       -5    1    3    3    0  502  0.79373867802E+03  0.88794375860E+02 -0.13026238032E+04  0.15279909662E+04  0.46999998093E+01 0.  1.
</event>
<event>
 5   0  0.2421737E-04  0.2024222E+04  0.7818609E-02  0.8595379E-01
       -2   -1    0    0    0  501  0.00000000000E+00  0.00000000000E+00  0.63599192035E+03  0.63599192036E+03  0.25500000920E-02 0. -1.
        2   -1    0    0  501    0  0.00000000000E+00  0.00000000000E+00 -0.16106629049E+04  0.16106629049E+04  0.25500000920E-02 0.  1.
    10030    2    1    2    0    0  0.00000000000E+00  0.00000000000E+00 -0.97467098456E+03  0.22466548253E+04  0.20242219186E+04 0.  0.
        1    1    3    3  502    0 -0.35676627517E+03  0.25655527616E+03  0.52458918874E+03  0.68432200154E+03  0.50400001928E-02 0. -1.
       -1    1    3    3    0  502  0.35676627517E+03 -0.25655527616E+03 -0.14992601733E+04  0.15623328237E+04  0.50400001928E-02 0.  1.
</event>
<event>
 5   0  0.1207228E-04  0.2000141E+04  0.7818609E-02  0.8606555E-01
       -1   -1    0    0    0  501  0.00000000000E+00  0.00000000000E+00  0.10083390413E+04  0.10083390414E+04  0.50400001928E-02 0.  1.
        1   -1    0    0  501    0  0.00000000000E+00  0.00000000000E+00 -0.99186958421E+03  0.99186958422E+03  0.50400001928E-02 0. -1.
    10030    2    1    2    0    0  0.00000000000E+00  0.00000000000E+00  0.16469457135E+02  0.20002086256E+04  0.20001408207E+04 0.  0.
        1    1    3    3  502    0 -0.27212113423E+03  0.86382055294E+03  0.43240116297E+03  0.10035968439E+04  0.50400001928E-02 0.  1.
       -1    1    3    3    0  502  0.27212113423E+03 -0.86382055294E+03 -0.41593170584E+03  0.99661178165E+03  0.50400001928E-02 0. -1.
</event>
<event>
 5   0  0.2463085E-04  0.1836636E+04  0.7818609E-02  0.8687056E-01
        2   -1    0    0  501    0  0.00000000000E+00  0.00000000000E+00  0.12142004984E+04  0.12142004984E+04  0.25500000920E-02 0.  1.
       -2   -1    0    0    0  501  0.00000000000E+00  0.00000000000E+00 -0.69453734335E+03  0.69453734335E+03  0.25500000920E-02 0. -1.
    10030    2    1    2    0    0  0.00000000000E+00  0.00000000000E+00  0.51966315509E+03  0.19087378418E+04  0.18366356073E+04 0.  0.
        2    1    3    3  502    0  0.58099465239E+03  0.65580862887E+02 -0.47610086286E+03  0.75400773690E+03  0.25500000920E-02 0. -1.
       -2    1    3    3    0  502 -0.58099465239E+03 -0.65580862887E+02  0.99576401795E+03  0.11547301049E+04  0.25500000920E-02 0.  1.
</event>
<event>
 5   0  0.1231056E-04  0.2065798E+04  0.7818609E-02  0.8576461E-01
        1   -1    0    0  501    0  0.00000000000E+00  0.00000000000E+00  0.20835499371E+04  0.20835499371E+04  0.50400001928E-02 0.  1.
       -1   -1    0    0    0  501  0.00000000000E+00  0.00000000000E+00 -0.51204914006E+03  0.51204914009E+03  0.50400001928E-02 0. -1.
    10030    2    1    2    0    0  0.00000000000E+00  0.00000000000E+00  0.15715007971E+04  0.25955990772E+04  0.20657976219E+04 0.  0.
        3    1    3    3  502    0 -0.14446969730E+03 -0.72126921233E+03 -0.12531914266E+03  0.74619412207E+03  0.10100000352E+00 0. -1.
       -3    1    3    3    0  502  0.14446969730E+03  0.72126921233E+03  0.16968199397E+04  0.18494049552E+04  0.10100000352E+00 0.  1.
</event>
<event>
 5   0  0.2596061E-04  0.1682612E+04  0.7818609E-02  0.8771344E-01
        2   -1    0    0  501    0  0.00000000000E+00  0.00000000000E+00  0.84792844787E+03  0.84792844787E+03  0.25500000920E-02 0. -1.
       -2   -1    0    0    0  501  0.00000000000E+00  0.00000000000E+00 -0.83473529116E+03  0.83473529117E+03  0.25500000920E-02 0.  1.
    10030    2    1    2    0    0  0.00000000000E+00  0.00000000000E+00  0.13193156704E+02  0.16826637390E+04  0.16826120169E+04 0.  0.
        5    1    3    3  502    0 -0.53950660939E+03  0.62400199252E+03  0.17191300731E+03  0.84262805574E+03  0.46999998093E+01 0. -1.
       -5    1    3    3    0  502  0.53950660939E+03 -0.62400199252E+03 -0.15871985060E+03  0.84003568330E+03  0.46999998093E+01 0.  1.
</event>
<event>
 5   0  0.1210633E-04  0.2038222E+04  0.7818609E-02  0.8588956E-01
       -1   -1    0    0    0  501  0.00000000000E+00  0.00000000000E+00  0.76975372709E+03  0.76975372710E+03  0.50400001928E-02 0.  1.
        1   -1    0    0  501    0  0.00000000000E+00  0.00000000000E+00 -0.13492463763E+04  0.13492463763E+04  0.50400001928E-02 0. -1.
    10030    2    1    2    0    0  0.00000000000E+00  0.00000000000E+00 -0.57949264917E+03  0.21190001034E+04  0.20382221929E+04 0.  0.
        2    1    3    3  502    0 -0.22994968138E+03 -0.38799648231E+03 -0.12398406252E+04  0.13193266852E+04  0.25500000920E-02 0. -1.
       -2    1    3    3    0  502  0.22994968138E+03  0.38799648231E+03  0.66034797607E+03  0.79967341819E+03  0.25500000920E-02 0.  1.
</event>
<event>
 5   0  0.2540506E-04  0.1537308E+04  0.7818609E-02  0.8860016E-01
       -2   -1    0    0    0  501  0.00000000000E+00  0.00000000000E+00  0.10053889502E+04  0.10053889502E+04  0.25500000920E-02 0.  1.
        2   -1    0    0  501    0  0.00000000000E+00  0.00000000000E+00 -0.58766173137E+03  0.58766173137E+03  0.25500000920E-02 0. -1.
    10030    2    1    2    0    0  0.00000000000E+00  0.00000000000E+00  0.41772721879E+03  0.15930506815E+04  0.15373075309E+04 0.  0.
        4    1    3    3  502    0  0.10971407899E+03  0.11502592447E+03 -0.57044189117E+03  0.59217709051E+03  0.12699999809E+01 0. -1.
       -4    1    3    3    0  502 -0.10971407899E+03 -0.11502592447E+03  0.98816910996E+03  0.10008735910E+04  0.12699999809E+01 0.  1.
</event>
<event>
 5   0  0.1207228E-04  0.2082335E+04  0.7818609E-02  0.8569065E-01
        1   -1    0    0  501    0  0.00000000000E+00  0.00000000000E+00  0.17803433305E+04  0.17803433305E+04  0.50400001928E-02 0. -1.
       -1   -1    0    0    0  501  0.00000000000E+00  0.00000000000E+00 -0.60888781048E+03  0.60888781050E+03  0.50400001928E-02 0.  1.
    10030    2    1    2    0    0  0.00000000000E+00  0.00000000000E+00  0.11714555200E+04  0.23892311410E+04  0.20823346056E+04 0.  0.
        1    1    3    3  502    0  0.55459694205E+03 -0.66477266906E+03 -0.77899870994E+02  0.86923464012E+03  0.50400001928E-02 0.  1.
       -1    1    3    3    0  502 -0.55459694205E+03  0.66477266906E+03  0.12493553910E+04  0.15199965009E+04  0.50400001928E-02 0. -1.
</event>
<event>
 5   0  0.2421737E-04  0.2000220E+04  0.7818609E-02  0.8606518E-01
       -2   -1    0    0    0  501  0.00000000000E+00  0.00000000000E+00  0.63297709568E+03  0.63297709569E+03  0.25500000920E-02 0. -1.
        2   -1    0    0  501    0  0.00000000000E+00  0.00000000000E+00 -0.15801833230E+04  0.15801833230E+04  0.25500000920E-02 0.  1.
    10030    2    1    2    0    0  0.00000000000E+00  0.00000000000E+00 -0.94720622733E+03  0.22131604187E+04  0.20002198384E+04 0.  0.
        1    1    3    3  502    0 -0.75013608699E+03  0.55043903518E+03 -0.87943753871E+03  0.12802724964E+04  0.50400001928E-02 0.  1.
       -1    1    3    3    0  502  0.75013608699E+03 -0.55043903518E+03 -0.67768688621E+02  0.93288792233E+03  0.50400001928E-02 0. -1.
</event>
<event>
 5   0  0.1258546E-04  0.2014445E+04  0.7818609E-02  0.8599897E-01
        1   -1    0    0  501    0  0.00000000000E+00  0.00000000000E+00  0.11712465748E+04  0.11712465748E+04  0.50400001928E-02 0. -1.
       -1   -1    0    0    0  501  0.00000000000E+00  0.00000000000E+00 -0.86616841637E+03  0.86616841639E+03  0.50400001928E-02 0.  1.
    10030    2    1    2    0    0  0.00000000000E+00  0.00000000000E+00  0.30507815838E+03  0.20374149912E+04  0.20144446290E+04 0.  0.
        4    1    3    3  502    0  0.10028750499E+03  0.14146349324E+03  0.11560350401E+04  0.11689688321E+04  0.12699999809E+01 0. -1.
       -4    1    3    3    0  502 -0.10028750499E+03 -0.14146349324E+03 -0.85095688176E+03  0.86844615901E+03  0.12699999809E+01 0.  1.
</event>
<event>
 5   0  0.2488886E-04  0.2271665E+04  0.7818609E-02  0.8489178E-01
        2   -1    0    0  501    0  0.00000000000E+00  0.00000000000E+00  0.53744332866E+03  0.53744332866E+03  0.25500000920E-02 0. -1.
       -2   -1    0    0    0  501  0.00000000000E+00  0.00000000000E+00 -0.24004684665E+04  0.24004684665E+04  0.25500000920E-02 0.  1.
    10030    2    1    2    0    0  0.00000000000E+00  0.00000000000E+00 -0.18630251379E+04  0.29379117952E+04  0.22716652597E+04 0.  0.
        3    1    3    3  502    0  0.22156092946E+03  0.96452849129E+03 -0.16524091041E+04  0.19260997672E+04  0.10100000352E+00 0.  1.
       -3    1    3    3    0  502 -0.22156092946E+03 -0.96452849129E+03 -0.21061603379E+03  0.10118120279E+04  0.10100000352E+00 0. -1.
</event>
<event>
 5   0  0.1231056E-04  0.1990604E+04  0.7818609E-02  0.8611026E-01
        1   -1    0    0  501    0  0.00000000000E+00  0.00000000000E+00  0.10910651602E+04  0.10910651602E+04  0.50400001928E-02 0. -1.
       -1   -1    0    0    0  501  0.00000000000E+00  0.00000000000E+00 -0.90794390588E+03  0.90794390590E+03  0.50400001928E-02 0.  1.
    10030    2    1    2    0    0  0.00000000000E+00  0.00000000000E+00  0.18312125435E+03  0.19990090661E+04  0.19906038915E+04 0.  0.
        3    1    3    3  502    0 -0.50321343654E+02 -0.10354168566E+03 -0.90123543757E+03  0.90855844194E+03  0.10100000352E+00 0.  1.
       -3    1    3    3    0  502  0.50321343654E+02  0.10354168566E+03  0.10843566919E+04  0.10904506242E+04  0.10100000352E+00 0. -1.
</event>
<event>
 5   0  0.2421737E-04  0.1996778E+04  0.7818609E-02  0.8608128E-01
       -2   -1    0    0    0  501  0.00000000000E+00  0.00000000000E+00  0.75976308068E+03  0.75976308068E+03  0.25500000920E-02 0.  1.
        2   -1    0    0  501    0  0.00000000000E+00  0.00000000000E+00 -0.13119629131E+04  0.13119629131E+04  0.25500000920E-02 0. -1.
    10030    2    1    2    0    0  0.00000000000E+00  0.00000000000E+00 -0.55219983245E+03  0.20717259938E+04  0.19967783899E+04 0.  0.
        1    1    3    3  502    0 -0.66566890640E+03 -0.34577323679E+03 -0.95969781928E+03  0.12180698373E+04  0.50400001928E-02 0. -1.
       -1    1    3    3    0  502  0.66566890640E+03  0.34577323679E+03  0.40749798684E+03  0.85365615649E+03  0.50400001928E-02 0.  1.
</event>
<event>
 5   0  0.1258546E-04  0.1995020E+04  0.7818609E-02  0.8608952E-01
       -1   -1    0    0    0  501  0.00000000000E+00  0.00000000000E+00  0.75035872717E+03  0.75035872719E+03  0.50400001928E-02 0. -1.
        1   -1    0    0  501    0  0.00000000000E+00  0.00000000000E+00 -0.13260676027E+04  0.13260676027E+04  0.50400001928E-02 0.  1.
    10030    2    1    2    0    0  0.00000000000E+00  0.00000000000E+00 -0.57570887549E+03  0.20764263299E+04  0.19950201989E+04 0.  0.
        4    1    3    3  502    0  0.54324654145E+02  0.46088159304E+03  0.63116003595E+03  0.78340769381E+03  0.12699999809E+01 0. -1.
       -4    1    3    3    0  502 -0.54324654145E+02 -0.46088159304E+03 -0.12068689114E+04  0.12930186360E+04  0.12699999809E+01 0.  1.
</event>
<event>
 5   0  0.2488886E-04  0.2034071E+04  0.7818609E-02  0.8590855E-01
       -2   -1    0    0    0  501  0.00000000000E+00  0.00000000000E+00  0.53940593763E+03  0.53940593763E+03  0.25500000920E-02 0.  1.
        2   -1    0    0  501    0  0.00000000000E+00  0.00000000000E+00 -0.19175925747E+04  0.19175925747E+04  0.25500000920E-02 0. -1.
    10030    2    1    2    0    0  0.00000000000E+00  0.00000000000E+00 -0.13781866370E+04  0.24569985123E+04  0.20340706190E+04 0.  0.
        3    1    3    3  502    0 -0.80980631382E+03  0.52459345659E+03 -0.10774665187E+04  0.14463466631E+04  0.10100000352E+00 0.  1.
       -3    1    3    3    0  502  0.80980631382E+03 -0.52459345659E+03 -0.30072011831E+03  0.10106518492E+04  0.10100000352E+00 0. -1.
</event>
<event>
 5   0  0.1258546E-04  0.1843784E+04  0.7818609E-02  0.8683356E-01
       -1   -1    0    0    0  501  0.00000000000E+00  0.00000000000E+00  0.10325591978E+04  0.10325591978E+04  0.50400001928E-02 0. -1.
        1   -1    0    0  501    0  0.00000000000E+00  0.00000000000E+00 -0.82308572234E+03  0.82308572235E+03  0.50400001928E-02 0.  1.
    10030    2    1    2    0    0  0.00000000000E+00  0.00000000000E+00  0.20947347550E+03  0.18556449202E+04  0.18437838629E+04 0.  0.
        4    1    3    3  502    0 -0.45794933313E+03 -0.58556457328E+03  0.65347780631E+03  0.98976679952E+03  0.12699999809E+01 0.  1.
       -4    1    3    3    0  502  0.45794933313E+03  0.58556457328E+03 -0.44400433082E+03  0.86587812068E+03  0.12699999809E+01 0. -1.
</event>
<event>
 5   0  0.9099125E-05  0.1963080E+04  0.7818609E-02  0.8624079E-01
        3   -1    0    0  501    0  0.00000000000E+00  0.00000000000E+00  0.78072367333E+03  0.78072367986E+03  0.10100000352E+00 0.  1.
       -3   -1    0    0    0  501  0.00000000000E+00  0.00000000000E+00 -0.12340103196E+04  0.12340103237E+04  0.10100000352E+00 0. -1.
    10030    2    1    2    0    0  0.00000000000E+00  0.00000000000E+00 -0.45328664625E+03  0.20147340036E+04  0.19630803146E+04 0.  0.
        4    1    3    3  502    0 -0.80522256589E+03  0.46125923850E+03 -0.55486444018E+03  0.10812121094E+04  0.12699999809E+01 0. -1.
       -4    1    3    3    0  502  0.80522256589E+03 -0.46125923850E+03  0.10157779393E+03  0.93352189414E+03  0.12699999809E+01 0.  1.
</event>
<event>
 5   0  0.1258546E-04  0.2055539E+04  0.7818609E-02  0.8581086E-01
       -1   -1    0    0    0  501  0.00000000000E+00  0.00000000000E+00  0.85944177485E+03  0.85944177486E+03  0.50400001928E-02 0. -1.
        1   -1    0    0  501    0  0.00000000000E+00  0.00000000000E+00 -0.12290650046E+04  0.12290650046E+04  0.50400001928E-02 0.  1.
    10030    2    1    2    0    0  0.00000000000E+00  0.00000000000E+00 -0.36962322976E+03  0.20885067795E+04  0.20555386729E+04 0.  0.
        4    1    3    3  502    0 -0.82359761673E+03  0.49918486695E+03  0.17984525889E+03  0.97971653846E+03  0.12699999809E+01 0. -1.
       -4    1    3    3    0  502  0.82359761673E+03 -0.49918486695E+03 -0.54946848864E+03  0.11087902410E+04  0.12699999809E+01 0.  1.
</event>
<event>
 5   0  0.1324930E-04  0.1992148E+04  0.7818609E-02  0.8610301E-01
        1   -1    0    0  501    0  0.00000000000E+00  0.00000000000E+00  0.83575291944E+03  0.83575291946E+03  0.50400001928E-02 0. -1.
       -1   -1    0    0    0  501  0.00000000000E+00  0.00000000000E+00 -0.11871491244E+04  0.11871491244E+04  0.50400001928E-02 0.  1.
    10030    2    1    2    0    0  0.00000000000E+00  0.00000000000E+00 -0.35139620494E+03  0.20229020438E+04  0.19921479328E+04 0.  0.
        5    1    3    3  502    0 -0.20425544076E+03 -0.94489772927E+03  0.67984200014E+02  0.96912122322E+03  0.46999998093E+01 0.  1.
       -5    1    3    3    0  502  0.20425544076E+03  0.94489772927E+03 -0.41938040496E+03  0.10537808206E+04  0.46999998093E+01 0. -1.
</event>
<event>
 5   0  0.2463085E-04  0.2008853E+04  0.7818609E-02  0.8602493E-01
        2   -1    0    0  501    0  0.00000000000E+00  0.00000000000E+00  0.10845683426E+04  0.10845683426E+04  0.25500000920E-02 0. -1.
       -2   -1    0    0    0  501  0.00000000000E+00  0.00000000000E+00 -0.93020654412E+03  0.93020654412E+03  0.25500000920E-02 0.  1.
    10030    2    1    2    0    0  0.00000000000E+00  0.00000000000E+00  0.15436179844E+03  0.20147748867E+04  0.20088529760E+04 0.  0.
        2    1    3    3  502    0  0.61765183003E+03 -0.57620773214E+03 -0.46789470141E+03  0.96562652476E+03  0.25500000920E-02 0.  1.
       -2    1    3    3    0  502 -0.61765183003E+03  0.57620773214E+03  0.62225649985E+03  0.10491483619E+04  0.25500000920E-02 0. -1.
</event>
<event>
 5   0  0.2540506E-04  0.2011870E+04  0.7818609E-02  0.8601091E-01
       -2   -1    0    0    0  501  0.00000000000E+00  0.00000000000E+00  0.98053801766E+03  0.98053801766E+03  0.25500000920E-02 0. -1.
        2   -1    0    0  501    0  0.00000000000E+00  0.00000000000E+00 -0.10319898220E+04  0.10319898220E+04  0.25500000920E-02 0.  1.
    10030    2    1    2    0    0  0.00000000000E+00  0.00000000000E+00 -0.51451804325E+02  0.20125278396E+04  0.20118700299E+04 0.  0.
        4    1    3    3  502    0  0.27712911785E+03 -0.69509725556E+03 -0.69821269421E+03  0.10234565559E+04  0.12699999809E+01 0.  1.
       -4    1    3    3    0  502 -0.27712911785E+03  0.69509725556E+03  0.64676088989E+03  0.98907128370E+03  0.12699999809E+01 0. -1.
</event>
<event>
 5   0  0.2488886E-04  0.1998527E+04  0.7818609E-02  0.8607310E-01
       -2   -1    0    0    0  501  0.00000000000E+00  0.00000000000E+00  0.48950346456E+03  0.48950346457E+03  0.25500000920E-02 0.  1.
        2   -1    0    0  501    0  0.00000000000E+00  0.00000000000E+00 -0.20398778117E+04  0.20398778117E+04  0.25500000920E-02 0. -1.
    10030    2    1    2    0    0  0.00000000000E+00  0.00000000000E+00 -0.15503743471E+04  0.25293812762E+04  0.19985267135E+04 0.  0.
        3    1    3    3  502    0 -0.57218222665E+03  0.71209617114E+03 -0.26256489860E+03  0.95048082234E+03  0.10100000352E+00 0.  1.
       -3    1    3    3    0  502  0.57218222665E+03 -0.71209617114E+03 -0.12878094485E+04  0.15789004539E+04  0.10100000352E+00 0. -1.
</event>
<event>
 5   0  0.2596061E-04  0.2082499E+04  0.7818609E-02  0.8568992E-01
        2   -1    0    0  501    0  0.00000000000E+00  0.00000000000E+00  0.11675422541E+04  0.11675422541E+04  0.25500000920E-02 0.  1.
       -2   -1    0    0    0  501  0.00000000000E+00  0.00000000000E+00 -0.92861743725E+03  0.92861743725E+03  0.25500000920E-02 0. -1.
    10030    2    1    2    0    0  0.00000000000E+00  0.00000000000E+00  0.23892481686E+03  0.20961596914E+04  0.20824985915E+04 0.  0.
        5    1    3    3  502    0 -0.54532607920E+03  0.84903311989E+03  0.37793523546E+03  0.10775411377E+04  0.46999998093E+01 0. -1.
       -5    1    3    3    0  502  0.54532607920E+03 -0.84903311989E+03 -0.13901041860E+03  0.10186185536E+04  0.46999998093E+01 0.  1.
</event>
<event>
 5   0  0.1258546E-04  0.1953949E+04  0.7818609E-02  0.8628459E-01
        1   -1    0    0  501    0  0.00000000000E+00  0.00000000000E+00  0.13904856307E+04  0.13904856307E+04  0.50400001928E-02 0.  1.
       -1   -1    0    0    0  501  0.00000000000E+00  0.00000000000E+00 -0.68643577534E+03  0.68643577536E+03  0.50400001928E-02 0. -1.
    10030    2    1    2    0    0  0.00000000000E+00  0.00000000000E+00  0.70404985538E+03  0.20769214061E+04  0.19539489062E+04 0.  0.
        4    1    3    3  502    0 -0.17116240527E+03 -0.67082764399E+02  0.13719338784E+04  0.13841968234E+04  0.12699999809E+01 0.  1.
       -4    1    3    3    0  502  0.17116240527E+03  0.67082764399E+02 -0.66788402307E+03  0.69272458266E+03  0.12699999809E+01 0. -1.
</event>
<event>
 5   0  0.1207228E-04  0.2004959E+04  0.7818609E-02  0.8604306E-01
       -1   -1    0    0    0  501  0.00000000000E+00  0.00000000000E+00  0.86557327623E+03  0.86557327624E+03  0.50400001928E-02 0.  1.
        1   -1    0    0  501    0  0.00000000000E+00  0.00000000000E+00 -0.11610393719E+04  0.11610393719E+04  0.50400001928E-02 0. -1.
    10030    2    1    2    0    0  0.00000000000E+00  0.00000000000E+00 -0.29546609565E+03  0.20266126481E+04  0.20049585063E+04 0.  0.
        1    1    3    3  502    0  0.37484471313E+03 -0.41851412289E+02  0.79111737194E+03  0.87642843169E+03  0.50400001928E-02 0.  1.
       -1    1    3    3    0  502 -0.37484471313E+03  0.41851412289E+02 -0.10865834676E+04  0.11501842164E+04  0.50400001928E-02 0. -1.
</event>
<event>
 5   0  0.2488886E-04  0.1975032E+04  0.7818609E-02  0.8618384E-01
        2   -1    0    0  501    0  0.00000000000E+00  0.00000000000E+00  0.11274202222E+04  0.11274202222E+04  0.25500000920E-02 0.  1.
       -2   -1    0    0    0  501  0.00000000000E+00  0.00000000000E+00 -0.86497249496E+03  0.86497249496E+03  0.25500000920E-02 0. -1.
    10030    2    1    2    0    0  0.00000000000E+00  0.00000000000E+00  0.26244772728E+03  0.19923927172E+04  0.19750316276E+04 0.  0.
        3    1    3    3  502    0 -0.12637324063E+03 -0.21364261907E+03 -0.83298869129E+03  0.86918555824E+03  0.10100000352E+00 0. -1.
       -3    1    3    3    0  502  0.12637324063E+03  0.21364261907E+03  0.10954364186E+04  0.11232071590E+04  0.10100000352E+00 0.  1.
</event>
<event>
 5   0  0.2421737E-04  0.2028084E+04  0.7818609E-02  0.8593602E-01
       -2   -1    0    0    0  501  0.00000000000E+00  0.00000000000E+00  0.55471695698E+03  0.55471695699E+03  0.25500000920E-02 0.  1.
        2   -1    0    0  501    0  0.00000000000E+00  0.00000000000E+00 -0.18537035381E+04  0.18537035381E+04  0.25500000920E-02 0. -1.
    10030    2    1    2    0    0  0.00000000000E+00  0.00000000000E+00 -0.12989865811E+04  0.24084204951E+04  0.20280836135E+04 0.  0.
        1    1    3    3  502    0 -0.22661585198E+03 -0.35758275784E+03 -0.17437414017E+04  0.17943952321E+04  0.50400001928E-02 0. -1.
       -1    1    3    3    0  502  0.22661585198E+03  0.35758275784E+03  0.44475482059E+03  0.61402526295E+03  0.50400001928E-02 0.  1.
</event>
<event>
 5   0  0.2488886E-04  0.2015938E+04  0.7818609E-02  0.8599205E-01
       -2   -1    0    0    0  501  0.00000000000E+00  0.00000000000E+00  0.91948140813E+03  0.91948140813E+03  0.25500000920E-02 0. -1.
        2   -1    0    0  501    0  0.00000000000E+00  0.00000000000E+00 -0.11049721885E+04  0.11049721885E+04  0.25500000920E-02 0.  1.
    10030    2    1    2    0    0  0.00000000000E+00  0.00000000000E+00 -0.18549078041E+03  0.20244535967E+04  0.20159378799E+04 0.  0.
        3    1    3    3  502    0 -0.15612978109E+03 -0.78773080686E+03  0.51901183604E+03  0.95617447612E+03  0.10100000352E+00 0. -1.
       -3    1    3    3    0  502  0.15612978109E+03  0.78773080686E+03 -0.70450261645E+03  0.10682791206E+04  0.10100000352E+00 0.  1.
</event>
<event>
 5   0  0.1231056E-04  0.1985048E+04  0.7818609E-02  0.8613643E-01
       -1   -1    0    0    0  501  0.00000000000E+00  0.00000000000E+00  0.86537845256E+03  0.86537845257E+03  0.50400001928E-02 0. -1.
        1   -1    0    0  501    0  0.00000000000E+00  0.00000000000E+00 -0.11383505882E+04  0.11383505882E+04  0.50400001928E-02 0.  1.
    10030    2    1    2    0    0  0.00000000000E+00  0.00000000000E+00 -0.27297213567E+03  0.20037290408E+04  0.19850481813E+04 0.  0.
        3    1    3    3  502    0 -0.25475387144E+03  0.74216497195E+03 -0.74998504933E+03  0.10854427507E+04  0.10100000352E+00 0.  1.
       -3    1    3    3    0  502  0.25475387144E+03 -0.74216497195E+03  0.47701291366E+03  0.91828629011E+03  0.10100000352E+00 0. -1.
</event>
<event>
 5   0  0.2463085E-04  0.2005322E+04  0.7818609E-02  0.8604136E-01
        2   -1    0    0  501    0  0.00000000000E+00  0.00000000000E+00  0.13688780145E+04  0.13688780145E+04  0.25500000920E-02 0. -1.
       -2   -1    0    0    0  501  0.00000000000E+00  0.00000000000E+00 -0.73441832344E+03  0.73441832345E+03  0.25500000920E-02 0.  1.
    10030    2    1    2    0    0  0.00000000000E+00  0.00000000000E+00  0.63445969104E+03  0.21032963379E+04  0.20053220154E+04 0.  0.
        2    1    3    3  502    0  0.86333896867E+03 -0.38056076707E+03  0.67314406834E+03  0.11590097536E+04  0.25500000920E-02 0. -1.
       -2    1    3    3    0  502 -0.86333896867E+03  0.38056076707E+03 -0.38684377298E+02  0.94428658431E+03  0.25500000920E-02 0.  1.
</event>
<event>
 5   0  0.1207228E-04  0.2008202E+04  0.7818609E-02  0.8602796E-01
        1   -1    0    0  501    0  0.00000000000E+00  0.00000000000E+00  0.77991109008E+03  0.77991109010E+03  0.50400001928E-02 0. -1.
       -1   -1    0    0    0  501  0.00000000000E+00  0.00000000000E+00 -0.12927353691E+04  0.12927353691E+04  0.50400001928E-02 0.  1.
    10030    2    1    2    0    0  0.00000000000E+00  0.00000000000E+00 -0.51282427900E+03  0.20726464592E+04  0.20082018334E+04 0.  0.
        1    1    3    3  502    0 -0.95308195442E+02 -0.54228650421E+03 -0.11230367430E+04  0.12507477087E+04  0.50400001928E-02 0.  1.
       -1    1    3    3    0  502  0.95308195442E+02  0.54228650421E+03  0.61021246400E+03  0.82189875046E+03  0.50400001928E-02 0. -1.
</event>
<event>
 5   0  0.2488886E-04  0.2035083E+04  0.7818609E-02  0.8590392E-01
       -2   -1    0    0    0  501  0.00000000000E+00  0.00000000000E+00  0.10480924439E+04  0.10480924440E+04  0.25500000920E-02 0.  1.
        2   -1    0    0  501    0  0.00000000000E+00  0.00000000000E+00 -0.98788137369E+03  0.98788137369E+03  0.25500000920E-02 0. -1.
    10030    2    1    2    0    0  0.00000000000E+00  0.00000000000E+00  0.60211070262E+02  0.20359738176E+04  0.20350832939E+04 0.  0.
        3    1    3    3  502    0  0.27095740839E+03 -0.95961430351E+03 -0.17274774595E+03  0.10119878075E+04  0.10100000352E+00 0.  1.
       -3    1    3    3    0  502 -0.27095740839E+03  0.95961430351E+03  0.23295881621E+03  0.10239860101E+04  0.10100000352E+00 0. -1.
</event>
<event>
 5   0  0.2463085E-04  0.1989837E+04  0.7818609E-02  0.8611387E-01
        2   -1    0    0  501    0  0.00000000000E+00  0.00000000000E+00  0.20473561341E+04  0.20473561341E+04  0.25500000920E-02 0.  1.
       -2   -1    0    0    0  501  0.00000000000E+00  0.00000000000E+00 -0.48348327802E+03  0.48348327803E+03  0.25500000920E-02 0. -1.
    10030    2    1    2    0    0  0.00000000000E+00  0.00000000000E+00  0.15638728561E+04  0.25308394121E+04  0.19898366315E+04 0.  0.
        2    1    3    3  502    0  0.83757824701E+02 -0.84428147942E+03  0.14428701215E+04  0.16738281803E+04  0.25500000920E-02 0.  1.
       -2    1    3    3    0  502 -0.83757824701E+02  0.84428147942E+03  0.12100273460E+03  0.85701123183E+03  0.25500000920E-02 0. -1.
</event>
<event>
 5   0  0.1207228E-04  0.2002384E+04  0.7818609E-02  0.8605507E-01
        1   -1    0    0  501    0  0.00000000000E+00  0.00000000000E+00  0.14487859816E+04  0.14487859816E+04  0.50400001928E-02 0. -1.
       -1   -1    0    0    0  501  0.00000000000E+00  0.00000000000E+00 -0.69187989502E+03  0.69187989504E+03  0.50400001928E-02 0.  1.
    10030    2    1    2    0    0  0.00000000000E+00  0.00000000000E+00  0.75690608656E+03  0.21406658766E+04  0.20023844714E+04 0.  0.
        1    1    3    3  502    0  0.49822865365E+03  0.82396958066E+03  0.67167186502E+03  0.11740105432E+04  0.50400001928E-02 0.  1.
       -1    1    3    3    0  502 -0.49822865365E+03 -0.82396958066E+03  0.85234221537E+02  0.96665533347E+03  0.50400001928E-02 0. -1.
</event>
<event>
 5   0  0.2596061E-04  0.2021133E+04  0.7818609E-02  0.8596803E-01
       -2   -1    0    0    0  501  0.00000000000E+00  0.00000000000E+00  0.41728765277E+03  0.41728765278E+03  0.25500000920E-02 0. -1.
        2   -1    0    0  501    0  0.00000000000E+00  0.00000000000E+00 -0.24473407999E+04  0.24473407999E+04  0.25500000920E-02 0.  1.
    10030    2    1    2    0    0  0.00000000000E+00  0.00000000000E+00 -0.20300531471E+04  0.28646284526E+04  0.20211334423E+04 0.  0.
        5    1    3    3  502    0 -0.44790849911E+03  0.62474180993E+03 -0.19447597050E+04  0.20911807078E+04  0.46999998093E+01 0.  1.
       -5    1    3    3    0  502  0.44790849911E+03 -0.62474180993E+03 -0.85293442074E+02  0.77344774478E+03  0.46999998093E+01 0. -1.
</event>
<event>
 5   0  0.2463085E-04  0.2071806E+04  0.7818609E-02  0.8573766E-01
        2   -1    0    0  501    0  0.00000000000E+00  0.00000000000E+00  0.11929278361E+04  0.11929278361E+04  0.25500000920E-02 0.  1.
       -2   -1    0    0    0  501  0.00000000000E+00  0.00000000000E+00 -0.89954754803E+03  0.89954754804E+03  0.25500000920E-02 0. -1.
    10030    2    1    2    0    0  0.00000000000E+00  0.00000000000E+00  0.29338028809E+03  0.20924753842E+04  0.20718062747E+04 0.  0.
        2    1    3    3  502    0 -0.38789638737E+03  0.94787203887E+03 -0.10328867505E+02  0.10242224831E+04  0.25500000920E-02 0. -1.
       -2    1    3    3    0  502  0.38789638737E+03 -0.94787203887E+03  0.30370915560E+03  0.10682529011E+04  0.25500000920E-02 0.  1.
</event>
<event>
 5   0  0.2596061E-04  0.2012426E+04  0.7818609E-02  0.8600833E-01
       -2   -1    0    0    0  501  0.00000000000E+00  0.00000000000E+00  0.12256886526E+04  0.12256886526E+04  0.25500000920E-02 0. -1.
        2   -1    0    0  501    0  0.00000000000E+00  0.00000000000E+00 -0.82603695298E+03  0.82603695298E+03  0.25500000920E-02 0.  1.
    10030    2    1    2    0    0  0.00000000000E+00  0.00000000000E+00  0.39965169960E+03  0.20517256056E+04  0.20124255215E+04 0.  0.
        5    1    3    3  502    0 -0.88133063371E+03  0.26760400285E+03  0.61281230725E+03  0.11063076435E+04  0.46999998093E+01 0. -1.
       -5    1    3    3    0  502  0.88133063371E+03 -0.26760400285E+03 -0.21316060765E+03  0.94541796202E+03  0.46999998093E+01 0.  1.
</event>
<event>
 5   0  0.1207228E-04  0.2131586E+04  0.7818609E-02  0.8547456E-01
       -1   -1    0    0    0  501  0.00000000000E+00  0.00000000000E+00  0.66061829851E+03  0.66061829853E+03  0.50400001928E-02 0.  1.
        1   -1    0    0  501    0  0.00000000000E+00  0.00000000000E+00 -0.17194714571E+04  0.17194714571E+04  0.50400001928E-02 0. -1.
    10030    2    1    2    0    0  0.00000000000E+00  0.00000000000E+00 -0.10588531586E+04  0.23800897557E+04  0.21315856149E+04 0.  0.
        1    1    3    3  502    0  0.76378139999E+03  0.57625241330E+03 -0.10537273665E+04  0.14232955539E+04  0.50400001928E-02 0. -1.
       -1    1    3    3    0  502 -0.76378139999E+03 -0.57625241330E+03 -0.51257921342E+01  0.95679420179E+03  0.50400001928E-02 0.  1.
</event>
<event>
 5   0  0.2540506E-04  0.2010290E+04  0.7818609E-02  0.8601825E-01
        2   -1    0    0  501    0  0.00000000000E+00  0.00000000000E+00  0.17016764975E+04  0.17016764975E+04  0.25500000920E-02 0.  1.
       -2   -1    0    0    0  501  0.00000000000E+00  0.00000000000E+00 -0.59371801643E+03  0.59371801644E+03  0.25500000920E-02 0. -1.
    10030    2    1    2    0    0  0.00000000000E+00  0.00000000000E+00  0.11079584810E+04  0.22953945139E+04  0.20102895261E+04 0.  0.
        4    1    3    3  502    0  0.38981305042E+03 -0.92640503963E+03  0.54076809511E+03  0.11413204008E+04  0.12699999809E+01 0. -1.
       -4    1    3    3    0  502 -0.38981305042E+03  0.92640503963E+03  0.56719038594E+03  0.11540741131E+04  0.12699999809E+01 0.  1.
</event>
<event>
 5   0  0.2488886E-04  0.2024586E+04  0.7818609E-02  0.8595211E-01
        2   -1    0    0  501    0  0.00000000000E+00  0.00000000000E+00  0.22607927318E+04  0.22607927318E+04  0.25500000920E-02 0.  1.
       -2   -1    0    0    0  501  0.00000000000E+00  0.00000000000E+00 -0.45326460993E+03  0.45326460994E+03  0.25500000920E-02 0. -1.
    10030    2    1    2    0    0  0.00000000000E+00  0.00000000000E+00  0.18075281219E+04  0.27140573418E+04  0.20245862152E+04 0.  0.
        3    1    3    3  502    0 -0.11544094467E+03 -0.48982109582E+03 -0.27369758746E+03  0.57285399292E+03  0.10100000352E+00 0. -1.
       -3    1    3    3    0  502  0.11544094467E+03  0.48982109582E+03  0.20812257094E+04  0.21412033489E+04  0.10100000352E+00 0.  1.
</event>
<event>
 5   0  0.2596061E-04  0.1980185E+04  0.7818609E-02  0.8615941E-01
        2   -1    0    0  501    0  0.00000000000E+00  0.00000000000E+00  0.81734416289E+03  0.81734416289E+03  0.25500000920E-02 0.  1.
       -2   -1    0    0    0  501  0.00000000000E+00  0.00000000000E+00 -0.11993514090E+04  0.11993514090E+04  0.25500000920E-02 0. -1.
    10030    2    1    2    0    0  0.00000000000E+00  0.00000000000E+00 -0.38200724612E+03  0.20166955719E+04  0.19801847120E+04 0.  0.
        5    1    3    3  502    0 -0.13597733824E+03  0.49433260689E+03  0.67161178360E+03  0.84494913493E+03  0.46999998093E+01 0.  1.
       -5    1    3    3    0  502  0.13597733824E+03 -0.49433260689E+03 -0.10536190297E+04  0.11717464370E+04  0.46999998093E+01 0. -1.
</event>
<event>
 5   0  0.2488886E-04  0.2029242E+04  0.7818609E-02  0.8593070E-01
        2   -1    0    0  501    0  0.00000000000E+00  0.00000000000E+00  0.20104417976E+04  0.20104417976E+04  0.25500000920E-02 0. -1.
       -2   -1    0    0    0  501  0.00000000000E+00  0.00000000000E+00 -0.51205437474E+03  0.51205437474E+03  0.25500000920E-02 0.  1.
    10030    2    1    2    0    0  0.00000000000E+00  0.00000000000E+00  0.14983874228E+04  0.25224961723E+04  0.20292417477E+04 0.  0.
        3    1    3    3  502    0  0.23077703615E+03 -0.93048463501E+03  0.33617186436E+03  0.10159090653E+04  0.10100000352E+00 0.  1.
       -3    1    3    3    0  502 -0.23077703615E+03  0.93048463501E+03  0.11622155585E+04  0.15065871070E+04  0.10100000352E+00 0. -1.
</event>
<event>
 5   0  0.1231056E-04  0.1992049E+04  0.7818609E-02  0.8610347E-01
        1   -1    0    0  501    0  0.00000000000E+00  0.00000000000E+00  0.13414562879E+04  0.13414562879E+04  0.50400001928E-02 0. -1.
       -1   -1    0    0    0  501  0.00000000000E+00  0.00000000000E+00 -0.73954298383E+03  0.73954298385E+03  0.50400001928E-02 0.  1.
    10030    2    1    2    0    0  0.00000000000E+00  0.00000000000E+00  0.60191330404E+03  0.20809992717E+04  0.19920487804E+04 0.  0.
        3    1    3    3  502    0  0.73144289314E+03 -0.25812955927E+03 -0.35178416221E+03  0.85169929100E+03  0.10100000352E+00 0.  1.
       -3    1    3    3    0  502 -0.73144289314E+03  0.25812955927E+03  0.95369746625E+03  0.12292999807E+04  0.10100000352E+00 0. -1.
</event>
<event>
 5   0  0.1231056E-04  0.1976226E+04  0.7818609E-02  0.8617817E-01
       -1   -1    0    0    0  501  0.00000000000E+00  0.00000000000E+00  0.53014999799E+03  0.53014999802E+03  0.50400001928E-02 0.  1.
        1   -1    0    0  501    0  0.00000000000E+00  0.00000000000E+00 -0.18416820950E+04  0.18416820950E+04  0.50400001928E-02 0. -1.
    10030    2    1    2    0    0  0.00000000000E+00  0.00000000000E+00 -0.13115320970E+04  0.23718320930E+04  0.19762264637E+04 0.  0.
        3    1    3    3  502    0 -0.67553800357E+03  0.39479895024E+03 -0.13800141308E+04  0.15863974334E+04  0.10100000352E+00 0. -1.
       -3    1    3    3    0  502  0.67553800357E+03 -0.39479895024E+03  0.68482033767E+02  0.78543465962E+03  0.10100000352E+00 0.  1.
</event>
<event>
 5   0  0.2540506E-04  0.1998553E+04  0.7818609E-02  0.8607297E-01
       -2   -1    0    0    0  501  0.00000000000E+00  0.00000000000E+00  0.49764732044E+03  0.49764732044E+03  0.25500000920E-02 0. -1.
        2   -1    0    0  501    0  0.00000000000E+00  0.00000000000E+00 -0.20065486906E+04  0.20065486906E+04  0.25500000920E-02 0.  1.
    10030    2    1    2    0    0  0.00000000000E+00  0.00000000000E+00 -0.15089013702E+04  0.25041960110E+04  0.19985530558E+04 0.  0.
        4    1    3    3  502    0  0.63985963059E+03  0.76752936195E+03 -0.74755369553E+03  0.12479422298E+04  0.12699999809E+01 0.  1.
       -4    1    3    3    0  502 -0.63985963059E+03 -0.76752936195E+03 -0.76134767463E+03  0.12562537812E+04  0.12699999809E+01 0. -1.
</event>
<event>
 5   0  0.1324930E-04  0.1990801E+04  0.7818609E-02  0.8610934E-01
        1   -1    0    0  501    0  0.00000000000E+00  0.00000000000E+00  0.11952140871E+04  0.11952140871E+04  0.50400001928E-02 0.  1.
       -1   -1    0    0    0  501  0.00000000000E+00  0.00000000000E+00 -0.82899145465E+03  0.82899145467E+03  0.50400001928E-02 0. -1.
    10030    2    1    2    0    0  0.00000000000E+00  0.00000000000E+00  0.36622263243E+03  0.20242055418E+04  0.19908011098E+04 0.  0.
        5    1    3    3  502    0 -0.87389293104E+03  0.22059147319E+03  0.61263378753E+03  0.10898126906E+04  0.46999998093E+01 0. -1.
       -5    1    3    3    0  502  0.87389293104E+03 -0.22059147319E+03 -0.24641115509E+03  0.93439285117E+03  0.46999998093E+01 0.  1.
</event>
<event>
 5   0  0.1231056E-04  0.2001146E+04  0.7818609E-02  0.8606085E-01
       -1   -1    0    0    0  501  0.00000000000E+00  0.00000000000E+00  0.87365655893E+03  0.87365655894E+03  0.50400001928E-02 0. -1.
        1   -1    0    0  501    0  0.00000000000E+00  0.00000000000E+00 -0.11459267903E+04  0.11459267903E+04  0.50400001928E-02 0.  1.
    10030    2    1    2    0    0  0.00000000000E+00  0.00000000000E+00 -0.27227023139E+03  0.20195833493E+04  0.20011461280E+04 0.  0.
        3    1    3    3  502    0  0.68468661211E+03  0.30912438188E+03 -0.80312725698E+03  0.10997122539E+04  0.10100000352E+00 0.  1.
       -3    1    3    3    0  502 -0.68468661211E+03 -0.30912438188E+03  0.53085702559E+03  0.91987109537E+03  0.10100000352E+00 0. -1.
</event>
<event>
 5   0  0.9099125E-05  0.2054538E+04  0.7818609E-02  0.8581538E-01
        3   -1    0    0  501    0  0.00000000000E+00  0.00000000000E+00  0.76482078928E+03  0.76482079595E+03  0.10100000352E+00 0. -1.
       -3   -1    0    0    0  501  0.00000000000E+00  0.00000000000E+00 -0.13797764216E+04  0.13797764253E+04  0.10100000352E+00 0.  1.
    10030    2    1    2    0    0  0.00000000000E+00  0.00000000000E+00 -0.61495563236E+03  0.21445972213E+04  0.20545381018E+04 0.  0.
        1    1    3    3  502    0  0.42864240865E+03  0.88236800712E+03  0.10804495550E+02  0.98103228878E+03  0.50400001928E-02 0. -1.
       -1    1    3    3    0  502 -0.42864240865E+03 -0.88236800712E+03 -0.62576012791E+03  0.11635649325E+04  0.50400001928E-02 0.  1.
</event>
<event>
 5   0  0.1231056E-04  0.1313555E+04  0.7818609E-02  0.9018885E-01
       -1   -1    0    0    0  501  0.00000000000E+00  0.00000000000E+00  0.11312110441E+04  0.11312110441E+04  0.50400001928E-02 0.  1.
        1   -1    0    0  501    0  0.00000000000E+00  0.00000000000E+00 -0.38132263916E+03  0.38132263919E+03  0.50400001928E-02 0. -1.
    10030    2    1    2    0    0  0.00000000000E+00  0.00000000000E+00  0.74988840492E+03  0.15125336833E+04  0.13135545376E+04 0.  0.
        3    1    3    3  502    0  0.53146807202E+03 -0.39986711155E+02  0.81687780544E+03  0.97536998512E+03  0.10100000352E+00 0.  1.
       -3    1    3    3    0  502 -0.53146807202E+03  0.39986711155E+02 -0.66989400522E+02  0.53716369816E+03  0.10100000352E+00 0. -1.
</event>
<event>
 5   0  0.2421737E-04  0.2017310E+04  0.7818609E-02  0.8598570E-01
       -2   -1    0    0    0  501  0.00000000000E+00  0.00000000000E+00  0.15232807717E+04  0.15232807717E+04  0.25500000920E-02 0.  1.
        2   -1    0    0  501    0  0.00000000000E+00  0.00000000000E+00 -0.66789075324E+03  0.66789075324E+03  0.25500000920E-02 0. -1.
    10030    2    1    2    0    0  0.00000000000E+00  0.00000000000E+00  0.85539001851E+03  0.21911715250E+04  0.20173102310E+04 0.  0.
        1    1    3    3  502    0  0.71271426485E+03 -0.64540221230E+03  0.96667850913E+02  0.96635930812E+03  0.50400001928E-02 0.  1.
       -1    1    3    3    0  502 -0.71271426485E+03  0.64540221230E+03  0.75872216759E+03  0.12248122169E+04  0.50400001928E-02 0. -1.
</event>
<event>
 5   0  0.1210633E-04  0.2447993E+04  0.7818609E-02  0.8421751E-01
       -1   -1    0    0    0  501  0.00000000000E+00  0.00000000000E+00  0.10346875545E+04  0.10346875546E+04  0.50400001928E-02 0.  1.
        1   -1    0    0  501    0  0.00000000000E+00  0.00000000000E+00 -0.14479420321E+04  0.14479420321E+04  0.50400001928E-02 0. -1.
    10030    2    1    2    0    0  0.00000000000E+00  0.00000000000E+00 -0.41325447758E+03  0.24826295867E+04  0.24479931375E+04 0.  0.
        2    1    3    3  502    0  0.10163272345E+04 -0.29004894415E+03  0.41945524556E+03  0.11370981227E+04  0.25500000920E-02 0. -1.
       -2    1    3    3    0  502 -0.10163272345E+04  0.29004894415E+03 -0.83270972315E+03  0.13455314640E+04  0.25500000920E-02 0.  1.
</event>
<event>
 5   0  0.1231056E-04  0.1977947E+04  0.7818609E-02  0.8617001E-01
        1   -1    0    0  501    0  0.00000000000E+00  0.00000000000E+00  0.91847493538E+03  0.91847493539E+03  0.50400001928E-02 0. -1.
       -1   -1    0    0    0  501  0.00000000000E+00  0.00000000000E+00 -0.10648827877E+04  0.10648827877E+04  0.50400001928E-02 0.  1.
    10030    2    1    2    0    0  0.00000000000E+00  0.00000000000E+00 -0.14640785236E+03  0.19833577231E+04  0.19779465611E+04 0.  0.
        3    1    3    3  502    0  0.58890773157E+03  0.79289169092E+03 -0.22285190144E+02  0.98792013328E+03  0.10100000352E+00 0.  1.
       -3    1    3    3    0  502 -0.58890773157E+03 -0.79289169092E+03 -0.12412266221E+03  0.99543758986E+03  0.10100000352E+00 0. -1.
</event>
<event>
 5   0  0.1210633E-04  0.2010413E+04  0.7818609E-02  0.8601768E-01
        1   -1    0    0  501    0  0.00000000000E+00  0.00000000000E+00  0.85060977761E+03  0.85060977763E+03  0.50400001928E-02 0. -1.
       -1   -1    0    0    0  501  0.00000000000E+00  0.00000000000E+00 -0.11879009957E+04  0.11879009957E+04  0.50400001928E-02 0.  1.
    10030    2    1    2    0    0  0.00000000000E+00  0.00000000000E+00 -0.33729121805E+03  0.20385107733E+04  0.20104130936E+04 0.  0.
        2    1    3    3  502    0 -0.50895903433E+03 -0.86671378635E+03 -0.15401777194E+03  0.10168350703E+04  0.25500000920E-02 0.  1.
       -2    1    3    3    0  502  0.50895903433E+03  0.86671378635E+03 -0.18327344612E+03  0.10216757030E+04  0.25500000920E-02 0. -1.
</event>
<event>
 5   0  0.1231056E-04  0.2026513E+04  0.7818609E-02  0.8594324E-01
        1   -1    0    0  501    0  0.00000000000E+00  0.00000000000E+00  0.10650969248E+04  0.10650969248E+04  0.50400001928E-02 0.  1.
       -1   -1    0    0    0  501  0.00000000000E+00  0.00000000000E+00 -0.96393901479E+03  0.96393901480E+03  0.50400001928E-02 0. -1.
    10030    2    1    2    0    0  0.00000000000E+00  0.00000000000E+00  0.10115791000E+03  0.20290359396E+04  0.20265127489E+04 0.  0.
        3    1    3    3  502    0 -0.86694126466E+03  0.36048360738E+03 -0.33088475810E+03  0.99550003561E+03  0.10100000352E+00 0. -1.
       -3    1    3    3    0  502  0.86694126466E+03 -0.36048360738E+03  0.43204266811E+03  0.10335359040E+04  0.10100000352E+00 0.  1.
</event>
<event>
 5   0  0.2596061E-04  0.1989728E+04  0.7818609E-02  0.8611438E-01
        2   -1    0    0  501    0  0.00000000000E+00  0.00000000000E+00  0.88091549348E+03  0.88091549349E+03  0.25500000920E-02 0. -1.
       -2   -1    0    0    0  501  0.00000000000E+00  0.00000000000E+00 -0.11235520880E+04  0.11235520881E+04  0.25500000920E-02 0.  1.
    10030    2    1    2    0    0  0.00000000000E+00  0.00000000000E+00 -0.24263659456E+03  0.20044675815E+04  0.19897280639E+04 0.  0.
        5    1    3    3  502    0 -0.37072783353E+03 -0.58652812727E+03 -0.83953575872E+03  0.10891725074E+04  0.46999998093E+01 0.  1.
       -5    1    3    3    0  502  0.37072783353E+03  0.58652812727E+03  0.59689916416E+03  0.91529507417E+03  0.46999998093E+01 0. -1.
</event>
<event>
 5   0  0.2421737E-04  0.1992920E+04  0.7818609E-02  0.8609938E-01
        2   -1    0    0  501    0  0.00000000000E+00  0.00000000000E+00  0.11178511792E+04  0.11178511792E+04  0.25500000920E-02 0. -1.
       -2   -1    0    0    0  501  0.00000000000E+00  0.00000000000E+00 -0.88825075442E+03  0.88825075442E+03  0.25500000920E-02 0.  1.
    10030    2    1    2    0    0  0.00000000000E+00  0.00000000000E+00  0.22960042475E+03  0.20061019336E+04  0.19929196203E+04 0.  0.
        1    1    3    3  502    0  0.17920904739E+03 -0.38851385572E+03 -0.79108202105E+03  0.89937181566E+03  0.50400001928E-02 0.  1.
       -1    1    3    3    0  502 -0.17920904739E+03  0.38851385572E+03  0.10206824458E+04  0.11067301179E+04  0.50400001928E-02 0. -1.
</event>
<event>
 5   0  0.1207228E-04  0.1981861E+04  0.7818609E-02  0.8615149E-01
       -1   -1    0    0    0  501  0.00000000000E+00  0.00000000000E+00  0.51777209579E+03  0.51777209582E+03  0.50400001928E-02 0.  1.
        1   -1    0    0  501    0  0.00000000000E+00  0.00000000000E+00 -0.18964774294E+04  0.18964774294E+04  0.50400001928E-02 0. -1.
    10030    2    1    2    0    0  0.00000000000E+00  0.00000000000E+00 -0.13787053336E+04  0.24142495252E+04  0.19818608360E+04 0.  0.
        1    1    3    3  502    0  0.17411609747E+03  0.94174447564E+03 -0.99931493585E+03  0.13841348973E+04  0.50400001928E-02 0. -1.
       -1    1    3    3    0  502 -0.17411609747E+03 -0.94174447564E+03 -0.37939039776E+03  0.10301146280E+04  0.50400001928E-02 0.  1.
</event>
<event>
 5   0  0.2463085E-04  0.1988301E+04  0.7818609E-02  0.8612110E-01
        2   -1    0    0  501    0  0.00000000000E+00  0.00000000000E+00  0.14589523619E+04  0.14589523619E+04  0.25500000920E-02 0. -1.
       -2   -1    0    0    0  501  0.00000000000E+00  0.00000000000E+00 -0.67742782107E+03  0.67742782108E+03  0.25500000920E-02 0.  1.
    10030    2    1    2    0    0  0.00000000000E+00  0.00000000000E+00  0.78152454083E+03  0.21363801830E+04  0.19883007012E+04 0.  0.
        2    1    3    3  502    0  0.20302072836E+03 -0.42481948834E+03 -0.55003031392E+03  0.72403201591E+03  0.25500000920E-02 0.  1.
       -2    1    3    3    0  502 -0.20302072836E+03  0.42481948834E+03  0.13315548547E+04  0.14123481671E+04  0.25500000920E-02 0. -1.
</event>
<event>
 5   0  0.2596061E-04  0.2044328E+04  0.7818609E-02  0.8586172E-01
        2   -1    0    0  501    0  0.00000000000E+00  0.00000000000E+00  0.73176010385E+03  0.73176010385E+03  0.25500000920E-02 0.  1.
       -2   -1    0    0    0  501  0.00000000000E+00  0.00000000000E+00 -0.14278168805E+04  0.14278168805E+04  0.25500000920E-02 0. -1.
    10030    2    1    2    0    0  0.00000000000E+00  0.00000000000E+00 -0.69605677668E+03  0.21595769844E+04  0.20443281819E+04 0.  0.
        5    1    3    3  502    0 -0.58425060105E+02  0.77173134357E+03  0.35730624768E+03  0.85245093637E+03  0.46999998093E+01 0.  1.
       -5    1    3    3    0  502  0.58425060105E+02 -0.77173134357E+03 -0.10533630244E+04  0.13071260480E+04  0.46999998093E+01 0. -1.
</event>
<event>
 5   0  0.1210633E-04  0.1988666E+04  0.7818609E-02  0.8611938E-01
        1   -1    0    0  501    0  0.00000000000E+00  0.00000000000E+00  0.94421737996E+03  0.94421737997E+03  0.50400001928E-02 0.  1.
       -1   -1    0    0    0  501  0.00000000000E+00  0.00000000000E+00 -0.10471090240E+04  0.10471090241E+04  0.50400001928E-02 0. -1.
    10030    2    1    2    0    0  0.00000000000E+00  0.00000000000E+00 -0.10289164409E+03  0.19913264040E+04  0.19886664268E+04 0.  0.
        2    1    3    3  502    0  0.29774570420E+03  0.12679088119E+03 -0.99290024456E+03  0.10443080616E+04  0.25500000920E-02 0. -1.
       -2    1    3    3    0  502 -0.29774570420E+03 -0.12679088119E+03  0.89000860047E+03  0.94701834240E+03  0.25500000920E-02 0.  1.
</event>
<event>
 5   0  0.2463085E-04  0.2074757E+04  0.7818609E-02  0.8572445E-01
       -2   -1    0    0    0  501  0.00000000000E+00  0.00000000000E+00  0.86210674580E+03  0.86210674581E+03  0.25500000920E-02 0. -1.
        2   -1    0    0  501    0  0.00000000000E+00  0.00000000000E+00 -0.12482846759E+04  0.12482846759E+04  0.25500000920E-02 0.  1.
    10030    2    1    2    0    0  0.00000000000E+00  0.00000000000E+00 -0.38617793006E+03  0.21103914217E+04  0.20747574699E+04 0.  0.
        2    1    3    3  502    0 -0.31848150249E+03 -0.97848275571E+03 -0.32686070007E+03  0.10796744361E+04  0.25500000920E-02 0.  1.
       -2    1    3    3    0  502  0.31848150249E+03  0.97848275571E+03 -0.59317229991E+02  0.10307169856E+04  0.25500000920E-02 0. -1.
</event>
<event>
 5   0  0.2488886E-04  0.2063160E+04  0.7818609E-02  0.8577648E-01
       -2   -1    0    0    0  501  0.00000000000E+00  0.00000000000E+00  0.62588834382E+03  0.62588834382E+03  0.25500000920E-02 0. -1.
        2   -1    0    0  501    0  0.00000000000E+00  0.00000000000E+00 -0.17002342738E+04  0.17002342738E+04  0.25500000920E-02 0.  1.
    10030    2    1    2    0    0  0.00000000000E+00  0.00000000000E+00 -0.10743459299E+04  0.23261226176E+04  0.20631595321E+04 0.  0.
        3    1    3    3  502    0 -0.74047561773E+03 -0.40134280962E+03  0.13437538215E+03  0.85289914106E+03  0.10100000352E+00 0. -1.
       -3    1    3    3    0  502  0.74047561773E+03  0.40134280962E+03 -0.12087213121E+04  0.14732234765E+04  0.10100000352E+00 0.  1.
</event>
<event>
 5   0  0.9099125E-05  0.1914240E+04  0.7818609E-02  0.8647800E-01
        3   -1    0    0  501    0  0.00000000000E+00  0.00000000000E+00  0.12477051101E+04  0.12477051142E+04  0.10100000352E+00 0.  1.
       -3   -1    0    0    0  501  0.00000000000E+00  0.00000000000E+00 -0.73421104694E+03  0.73421105389E+03  0.10100000352E+00 0. -1.
    10030    2    1    2    0    0  0.00000000000E+00  0.00000000000E+00  0.51349406313E+03  0.19819161680E+04  0.19142402003E+04 0.  0.
        4    1    3    3  502    0 -0.62162644900E+03 -0.41097521092E+03  0.87861237770E+03  0.11520769893E+04  0.12699999809E+01 0.  1.
       -4    1    3    3    0  502  0.62162644900E+03  0.41097521092E+03 -0.36511831457E+03  0.82983917877E+03  0.12699999809E+01 0. -1.
</event>
<event>
 5   0  0.1324930E-04  0.2017469E+04  0.7818609E-02  0.8598497E-01
        1   -1    0    0  501    0  0.00000000000E+00  0.00000000000E+00  0.14945096280E+04  0.14945096280E+04  0.50400001928E-02 0. -1.
       -1   -1    0    0    0  501  0.00000000000E+00  0.00000000000E+00 -0.68085540665E+03  0.68085540667E+03  0.50400001928E-02 0.  1.
    10030    2    1    2    0    0  0.00000000000E+00  0.00000000000E+00  0.81365422133E+03  0.21753650347E+04  0.20174686719E+04 0.  0.
        5    1    3    3  502    0  0.77422711266E+03 -0.52543828726E+03  0.81316244154E+03  0.12396645764E+04  0.46999998093E+01 0. -1.
       -5    1    3    3    0  502 -0.77422711266E+03  0.52543828726E+03  0.49177979117E+00  0.93570045824E+03  0.46999998093E+01 0.  1.
</event>
<event>
 5   0  0.2421737E-04  0.1991742E+04  0.7818609E-02  0.8610492E-01
        2   -1    0    0  501    0  0.00000000000E+00  0.00000000000E+00  0.12513990390E+04  0.12513990390E+04  0.25500000920E-02 0.  1.
       -2   -1    0    0    0  501  0.00000000000E+00  0.00000000000E+00 -0.79251984264E+03  0.79251984264E+03  0.25500000920E-02 0. -1.
    10030    2    1    2    0    0  0.00000000000E+00  0.00000000000E+00  0.45887919632E+03  0.20439188816E+04  0.19917415188E+04 0.  0.
        1    1    3    3  502    0 -0.53354565387E+03 -0.36451991788E+03 -0.54817987323E+03  0.84737648583E+03  0.50400001928E-02 0. -1.
       -1    1    3    3    0  502  0.53354565387E+03  0.36451991788E+03  0.10070590696E+04  0.11965423958E+04  0.50400001928E-02 0.  1.
</event>
<event>
 5   0  0.1258546E-04  0.1997768E+04  0.7818609E-02  0.8607665E-01
        1   -1    0    0  501    0  0.00000000000E+00  0.00000000000E+00  0.14394367926E+04  0.14394367926E+04  0.50400001928E-02 0. -1.
       -1   -1    0    0    0  501  0.00000000000E+00  0.00000000000E+00 -0.69316623067E+03  0.69316623069E+03  0.50400001928E-02 0.  1.
    10030    2    1    2    0    0  0.00000000000E+00  0.00000000000E+00  0.74627056193E+03  0.21326030233E+04  0.19977677301E+04 0.  0.
        4    1    3    3  502    0  0.41490731088E+03 -0.89282193759E+03  0.55331176026E+03  0.11293514093E+04  0.12699999809E+01 0. -1.
       -4    1    3    3    0  502 -0.41490731088E+03  0.89282193759E+03  0.19295880167E+03  0.10032516140E+04  0.12699999809E+01 0.  1.
</event>
<event>
 5   0  0.1210633E-04  0.2173159E+04  0.7818609E-02  0.8529684E-01
        1   -1    0    0  501    0  0.00000000000E+00  0.00000000000E+00  0.11607925115E+04  0.11607925115E+04  0.50400001928E-02 0.  1.
       -1   -1    0    0    0  501  0.00000000000E+00  0.00000000000E+00 -0.10171113141E+04  0.10171113141E+04  0.50400001928E-02 0. -1.
    10030    2    1    2    0    0  0.00000000000E+00  0.00000000000E+00  0.14368119735E+03  0.21779038256E+04  0.21731591721E+04 0.  0.
        2    1    3    3  502    0  0.40406094388E+03  0.10056914659E+04 -0.56238652176E+01  0.10838414085E+04  0.25500000920E-02 0.  1.
       -2    1    3    3    0  502 -0.40406094388E+03 -0.10056914659E+04  0.14930506257E+03  0.10940624171E+04  0.25500000920E-02 0. -1.
</event>
<event>
 5   0  0.2540506E-04  0.2033330E+04  0.7818609E-02  0.8591194E-01
        2   -1    0    0  501    0  0.00000000000E+00  0.00000000000E+00  0.79697686539E+03  0.79697686539E+03  0.25500000920E-02 0. -1.
       -2   -1    0    0    0  501  0.00000000000E+00  0.00000000000E+00 -0.12969107440E+04  0.12969107440E+04  0.25500000920E-02 0.  1.
    10030    2    1    2    0    0  0.00000000000E+00  0.00000000000E+00 -0.49993387864E+03  0.20938876094E+04  0.20333301350E+04 0.  0.
        4    1    3    3  502    0 -0.54445036776E+03  0.59160344789E+03 -0.89074105266E+03  0.11999341975E+04  0.12699999809E+01 0.  1.
       -4    1    3    3    0  502  0.54445036776E+03 -0.59160344789E+03  0.39080717402E+03  0.89395341192E+03  0.12699999809E+01 0. -1.
</event>
<event>
 5   0  0.2463085E-04  0.1963201E+04  0.7818609E-02  0.8624021E-01
        2   -1    0    0  501    0  0.00000000000E+00  0.00000000000E+00  0.21248968529E+04  0.21248968529E+04  0.25500000920E-02 0.  1.
       -2   -1    0    0    0  501  0.00000000000E+00  0.00000000000E+00 -0.45345255830E+03  0.45345255831E+03  0.25500000920E-02 0. -1.
    10030    2    1    2    0    0  0.00000000000E+00  0.00000000000E+00  0.16714442946E+04  0.25783494112E+04  0.19632013795E+04 0.  0.
        2    1    3    3  502    0  0.54051821261E+03 -0.80885608192E+03  0.66382106763E+03  0.11777378780E+04  0.25500000920E-02 0. -1.
       -2    1    3    3    0  502 -0.54051821261E+03  0.80885608192E+03  0.10076232269E+04  0.14006115332E+04  0.25500000920E-02 0.  1.
</event>
<event>
 5   0  0.2488886E-04  0.2004113E+04  0.7818609E-02  0.8604700E-01
       -2   -1    0    0    0  501  0.00000000000E+00  0.00000000000E+00  0.81482796259E+03  0.81482796260E+03  0.25500000920E-02 0.  1.
        2   -1    0    0  501    0  0.00000000000E+00  0.00000000000E+00 -0.12323052257E+04  0.12323052257E+04  0.25500000920E-02 0. -1.
    10030    2    1    2    0    0  0.00000000000E+00  0.00000000000E+00 -0.41747726311E+03  0.20471331883E+04  0.20041125281E+04 0.  0.
        3    1    3    3  502    0  0.35372356052E+01  0.10811918757E+03  0.80884600500E+03  0.81604787896E+03  0.10100000352E+00 0.  1.
       -3    1    3    3    0  502 -0.35372356052E+01 -0.10811918757E+03 -0.12263232681E+04  0.12310853093E+04  0.10100000352E+00 0. -1.
</event>
<event>
 5   0  0.9099125E-05  0.1950864E+04  0.7818609E-02  0.8629944E-01
        4   -1    0    0  501    0  0.00000000000E+00  0.00000000000E+00  0.10752010489E+04  0.10752017989E+04  0.12699999809E+01 0.  1.
       -4   -1    0    0    0  501  0.00000000000E+00  0.00000000000E+00 -0.88491949013E+03  0.88492040146E+03  0.12699999809E+01 0. -1.
    10030    2    1    2    0    0  0.00000000000E+00  0.00000000000E+00  0.19028155872E+03  0.19601222004E+04  0.19508644158E+04 0.  0.
        2    1    3    3  502    0  0.96706611842E+02 -0.16631831866E+03 -0.86566808656E+03  0.88678925794E+03  0.25500000920E-02 0. -1.
       -2    1    3    3    0  502 -0.96706611842E+02  0.16631831866E+03  0.10559496453E+04  0.10733329424E+04  0.25500000920E-02 0.  1.
</event>
<event>
 5   0  0.2540506E-04  0.2005056E+04  0.7818609E-02  0.8604261E-01
        2   -1    0    0  501    0  0.00000000000E+00  0.00000000000E+00  0.17089715361E+04  0.17089715361E+04  0.25500000920E-02 0.  1.
       -2   -1    0    0    0  501  0.00000000000E+00  0.00000000000E+00 -0.58810922550E+03  0.58810922551E+03  0.25500000920E-02 0. -1.
    10030    2    1    2    0    0  0.00000000000E+00  0.00000000000E+00  0.11208623106E+04  0.22970807616E+04  0.20050555369E+04 0.  0.
        4    1    3    3  502    0  0.14077197168E+03  0.36683568871E+03 -0.49622023683E+03  0.63294652765E+03  0.12699999809E+01 0. -1.
       -4    1    3    3    0  502 -0.14077197168E+03 -0.36683568871E+03  0.16170825474E+04  0.16641342339E+04  0.12699999809E+01 0.  1.
</event>
<event>
 5   0  0.2488886E-04  0.2464856E+04  0.7818609E-02  0.8415614E-01
       -2   -1    0    0    0  501  0.00000000000E+00  0.00000000000E+00  0.10600880152E+04  0.10600880152E+04  0.25500000920E-02 0. -1.
        2   -1    0    0  501    0  0.00000000000E+00  0.00000000000E+00 -0.14327859616E+04  0.14327859616E+04  0.25500000920E-02 0.  1.
    10030    2    1    2    0    0  0.00000000000E+00  0.00000000000E+00 -0.37269794639E+03  0.24928739767E+04  0.24648563659E+04 0.  0.
        3    1    3    3  502    0  0.44089768709E+03 -0.88533668569E+03 -0.93000790540E+03  0.13576179624E+04  0.10100000352E+00 0.  1.
       -3    1    3    3    0  502 -0.44089768709E+03  0.88533668569E+03  0.55730995901E+03  0.11352560144E+04  0.10100000352E+00 0. -1.
</event>
<event>
 5   0  0.1231056E-04  0.2017960E+04  0.7818609E-02  0.8598269E-01
       -1   -1    0    0    0  501  0.00000000000E+00  0.00000000000E+00  0.37897567605E+03  0.37897567609E+03  0.50400001928E-02 0. -1.
        1   -1    0    0  501    0  0.00000000000E+00  0.00000000000E+00 -0.26862956402E+04  0.26862956402E+04  0.50400001928E-02 0.  1.
    10030    2    1    2    0    0  0.00000000000E+00  0.00000000000E+00 -0.23073199641E+04  0.30652713163E+04  0.20179600654E+04 0.  0.
        3    1    3    3  502    0  0.48001375318E+03  0.53170981133E+03 -0.22330148956E+04  0.23450978787E+04  0.10100000352E+00 0.  1.
       -3    1    3    3    0  502 -0.48001375318E+03 -0.53170981133E+03 -0.74305068523E+02  0.72017343753E+03  0.10100000352E+00 0. -1.
</event>
<event>
 5   0  0.2421737E-04  0.1992063E+04  0.7818609E-02  0.8610340E-01
       -2   -1    0    0    0  501  0.00000000000E+00  0.00000000000E+00  0.10031116812E+04  0.10031116812E+04  0.25500000920E-02 0. -1.
        2   -1    0    0  501    0  0.00000000000E+00  0.00000000000E+00 -0.98900129169E+03  0.98900129169E+03  0.25500000920E-02 0.  1.
    10030    2    1    2    0    0  0.00000000000E+00  0.00000000000E+00  0.14110389503E+02  0.19921129729E+04  0.19920629994E+04 0.  0.
        1    1    3    3  502    0  0.15464405883E+03  0.91413173623E+03  0.37110708882E+03  0.99863511230E+03  0.50400001928E-02 0. -1.
       -1    1    3    3    0  502 -0.15464405883E+03 -0.91413173623E+03 -0.35699669932E+03  0.99347786058E+03  0.50400001928E-02 0.  1.
</event>
<event>
 5   0  0.1210633E-04  0.2041895E+04  0.7818609E-02  0.8587280E-01
       -1   -1    0    0    0  501  0.00000000000E+00  0.00000000000E+00  0.76123975561E+03  0.76123975563E+03  0.50400001928E-02 0.  1.
        1   -1    0    0  501    0  0.00000000000E+00  0.00000000000E+00 -0.13692579740E+04  0.13692579740E+04  0.50400001928E-02 0. -1.
    10030    2    1    2    0    0  0.00000000000E+00  0.00000000000E+00 -0.60801821837E+03  0.21304977296E+04  0.20418948117E+04 0.  0.
        2    1    3    3  502    0  0.32425247659E+03 -0.69847171399E+03  0.39539954001E+03  0.86564611711E+03  0.25500000920E-02 0.  1.
       -2    1    3    3    0  502 -0.32425247659E+03  0.69847171399E+03 -0.10034177584E+04  0.12648516125E+04  0.25500000920E-02 0. -1.
</event>
<event>
 5   0  0.1207228E-04  0.2002241E+04  0.7818609E-02  0.8605574E-01
        1   -1    0    0  501    0  0.00000000000E+00  0.00000000000E+00  0.16727998691E+04  0.16727998691E+04  0.50400001928E-02 0. -1.
       -1   -1    0    0    0  501  0.00000000000E+00  0.00000000000E+00 -0.59914035997E+03  0.59914035999E+03  0.50400001928E-02 0.  1.
    10030    2    1    2    0    0  0.00000000000E+00  0.00000000000E+00  0.10736595091E+04  0.22719402291E+04  0.20022406606E+04 0.  0.
        1    1    3    3  502    0 -0.92175683254E+02 -0.45247510304E+02 -0.59314929718E+03  0.60197157951E+03  0.50400001928E-02 0.  1.
       -1    1    3    3    0  502  0.92175683254E+02  0.45247510304E+02  0.16668088063E+04  0.16699686496E+04  0.50400001928E-02 0. -1.
</event>
<event>
 5   0  0.2540506E-04  0.1965240E+04  0.7818609E-02  0.8623047E-01
       -2   -1    0    0    0  501  0.00000000000E+00  0.00000000000E+00  0.76815670410E+03  0.76815670410E+03  0.25500000920E-02 0.  1.
        2   -1    0    0  501    0  0.00000000000E+00  0.00000000000E+00 -0.12569593036E+04  0.12569593036E+04  0.25500000920E-02 0. -1.
    10030    2    1    2    0    0  0.00000000000E+00  0.00000000000E+00 -0.48880259951E+03  0.20251160077E+04  0.19652396453E+04 0.  0.
        4    1    3    3  502    0  0.27696043428E+03  0.91655950500E+03 -0.16876234317E+02  0.95764023963E+03  0.12699999809E+01 0.  1.
       -4    1    3    3    0  502 -0.27696043428E+03 -0.91655950500E+03 -0.47192636519E+03  0.10674757681E+04  0.12699999809E+01 0. -1.
</event>
<event>
 5   0  0.2540506E-04  0.2006564E+04  0.7818609E-02  0.8603558E-01
        2   -1    0    0  501    0  0.00000000000E+00  0.00000000000E+00  0.10959999520E+04  0.10959999521E+04  0.25500000920E-02 0.  1.
       -2   -1    0    0    0  501  0.00000000000E+00  0.00000000000E+00 -0.91840813480E+03  0.91840813480E+03  0.25500000920E-02 0. -1.
    10030    2    1    2    0    0  0.00000000000E+00  0.00000000000E+00  0.17759181725E+03  0.20144080869E+04  0.20065644985E+04 0.  0.
        4    1    3    3  502    0  0.12020817787E+03 -0.42021697582E+03  0.99539926784E+03  0.10871309158E+04  0.12699999809E+01 0.  1.
       -4    1    3    3    0  502 -0.12020817787E+03  0.42021697582E+03 -0.81780745059E+03  0.92727717104E+03  0.12699999809E+01 0. -1.
</event>
<event>
 5   0  0.2540506E-04  0.1956241E+04  0.7818609E-02  0.8627357E-01
        2   -1    0    0  501    0  0.00000000000E+00  0.00000000000E+00  0.10937994202E+04  0.10937994202E+04  0.25500000920E-02 0. -1.
       -2   -1    0    0    0  501  0.00000000000E+00  0.00000000000E+00 -0.87467582904E+03  0.87467582905E+03  0.25500000920E-02 0.  1.
    10030    2    1    2    0    0  0.00000000000E+00  0.00000000000E+00  0.21912359114E+03  0.19684752492E+04  0.19562412067E+04 0.  0.
        4    1    3    3  502    0 -0.64288794771E+03 -0.25956917253E+03 -0.58470759297E+03  0.90695405110E+03  0.12699999809E+01 0.  1.
       -4    1    3    3    0  502  0.64288794771E+03  0.25956917253E+03  0.80383118410E+03  0.10615211981E+04  0.12699999809E+01 0. -1.
</event>
<event>
 5   0  0.1207228E-04  0.2015575E+04  0.7818609E-02  0.8599373E-01
        1   -1    0    0  501    0  0.00000000000E+00  0.00000000000E+00  0.12228156999E+04  0.12228156999E+04  0.50400001928E-02 0. -1.
       -1   -1    0    0    0  501  0.00000000000E+00  0.00000000000E+00 -0.83057130319E+03  0.83057130321E+03  0.50400001928E-02 0.  1.
    10030    2    1    2    0    0  0.00000000000E+00  0.00000000000E+00  0.39224439668E+03  0.20533870031E+04  0.20155749844E+04 0.  0.
        1    1    3    3  502    0 -0.39021874126E+03  0.34384332273E+03 -0.68328463475E+03  0.85870646249E+03  0.50400001928E-02 0.  1.
       -1    1    3    3    0  502  0.39021874126E+03 -0.34384332273E+03  0.10755290314E+04  0.11946805406E+04  0.50400001928E-02 0. -1.
</event>
<event>
 5   0  0.2488886E-04  0.1943138E+04  0.7818609E-02  0.8633677E-01
        2   -1    0    0  501    0  0.00000000000E+00  0.00000000000E+00  0.90581872524E+03  0.90581872524E+03  0.25500000920E-02 0. -1.
       -2   -1    0    0    0  501  0.00000000000E+00  0.00000000000E+00 -0.10420914528E+04  0.10420914528E+04  0.25500000920E-02 0.  1.
    10030    2    1    2    0    0  0.00000000000E+00  0.00000000000E+00 -0.13627272758E+03  0.19479101781E+04  0.19431376188E+04 0.  0.
        3    1    3    3  502    0 -0.93932501382E+03  0.87941602646E+02 -0.30082872107E+03  0.99023387979E+03  0.10100000352E+00 0.  1.
       -3    1    3    3    0  502  0.93932501382E+03 -0.87941602646E+02  0.16455599349E+03  0.95767629827E+03  0.10100000352E+00 0. -1.
</event>
<event>
 5   0  0.2421737E-04  0.2031095E+04  0.7818609E-02  0.8592219E-01
        2   -1    0    0  501    0  0.00000000000E+00  0.00000000000E+00  0.11644925897E+04  0.11644925897E+04  0.25500000920E-02 0. -1.
       -2   -1    0    0    0  501  0.00000000000E+00  0.00000000000E+00 -0.88565341374E+03  0.88565341375E+03  0.25500000920E-02 0.  1.
    10030    2    1    2    0    0  0.00000000000E+00  0.00000000000E+00  0.27883917600E+03  0.20501460035E+04  0.20310951109E+04 0.  0.
        1    1    3    3  502    0 -0.85171030816E+03 -0.55291288884E+03  0.15417607204E+03  0.10270800226E+04  0.50400001928E-02 0.  1.
       -1    1    3    3    0  502  0.85171030816E+03  0.55291288884E+03  0.12466310396E+03  0.10230659809E+04  0.50400001928E-02 0. -1.
</event>
<event>
 5   0  0.9099125E-05  0.1985723E+04  0.7818609E-02  0.8613325E-01
       -4   -1    0    0    0  501  0.00000000000E+00  0.00000000000E+00  0.88091423197E+03  0.88091514744E+03  0.12699999809E+01 0.  1.
        4   -1    0    0  501    0  0.00000000000E+00  0.00000000000E+00 -0.11190336453E+04  0.11190343659E+04  0.12699999809E+01 0. -1.
    10030    2    1    2    0    0  0.00000000000E+00  0.00000000000E+00 -0.23811941330E+03  0.19999495134E+04  0.19857233445E+04 0.  0.
        4    1    3    3  502    0 -0.31383791821E+03 -0.11237366768E+02 -0.10676951580E+04  0.11129218664E+04  0.12699999809E+01 0. -1.
       -4    1    3    3    0  502  0.31383791821E+03  0.11237366768E+02  0.82957574475E+03  0.88702764697E+03  0.12699999809E+01 0.  1.
</event>
<event>
 5   0  0.1207228E-04  0.1879363E+04  0.7818609E-02  0.8665197E-01
        1   -1    0    0  501    0  0.00000000000E+00  0.00000000000E+00  0.11156281078E+04  0.11156281078E+04  0.50400001928E-02 0.  1.
       -1   -1    0    0    0  501  0.00000000000E+00  0.00000000000E+00 -0.79148352828E+03  0.79148352830E+03  0.50400001928E-02 0. -1.
    10030    2    1    2    0    0  0.00000000000E+00  0.00000000000E+00  0.32414457953E+03  0.19071116361E+04  0.18793629464E+04 0.  0.
        1    1    3    3  502    0 -0.98198565451E+02  0.68451919759E+03  0.80769871688E+03  0.10632905094E+04  0.50400001928E-02 0.  1.
       -1    1    3    3    0  502  0.98198565451E+02 -0.68451919759E+03 -0.48355413734E+03  0.84382112672E+03  0.50400001928E-02 0. -1.
</event>
<event>
 5   0  0.1210633E-04  0.2005840E+04  0.7818609E-02  0.8603895E-01
       -1   -1    0    0    0  501  0.00000000000E+00  0.00000000000E+00  0.16635492654E+04  0.16635492655E+04  0.50400001928E-02 0.  1.
        1   -1    0    0  501    0  0.00000000000E+00  0.00000000000E+00 -0.60463987212E+03  0.60463987214E+03  0.50400001928E-02 0. -1.
    10030    2    1    2    0    0  0.00000000000E+00  0.00000000000E+00  0.10589093933E+04  0.22681891376E+04  0.20058396897E+04 0.  0.
        2    1    3    3  502    0  0.77556608348E+02  0.49439366486E+03  0.15122744171E+04  0.15929262494E+04  0.25500000920E-02 0.  1.
       -2    1    3    3    0  502 -0.77556608348E+02 -0.49439366486E+03 -0.45336502380E+03  0.67526288819E+03  0.25500000920E-02 0. -1.
</event>
<event>
 5   0  0.2488886E-04  0.1722433E+04  0.7818609E-02  0.8748672E-01
       -2   -1    0    0    0  501  0.00000000000E+00  0.00000000000E+00  0.13883860378E+04  0.13883860378E+04  0.25500000920E-02 0. -1.
        2   -1    0    0  501    0  0.00000000000E+00  0.00000000000E+00 -0.53421328729E+03  0.53421328730E+03  0.25500000920E-02 0.  1.
    10030    2    1    2    0    0  0.00000000000E+00  0.00000000000E+00  0.85417275049E+03  0.19225993251E+04  0.17224334754E+04 0.  0.
        3    1    3    3  502    0 -0.66101938715E+03 -0.53948679576E+03  0.29642946496E+03  0.90325138853E+03  0.10100000352E+00 0.  1.
       -3    1    3    3    0  502  0.66101938715E+03  0.53948679576E+03  0.55774328553E+03  0.10193479365E+04  0.10100000352E+00 0. -1.
</event>
<event>
 5   0  0.1210633E-04  0.1663791E+04  0.7818609E-02  0.8782290E-01
        1   -1    0    0  501    0  0.00000000000E+00  0.00000000000E+00  0.17082507167E+04  0.17082507167E+04  0.50400001928E-02 0. -1.
       -1   -1    0    0    0  501  0.00000000000E+00  0.00000000000E+00 -0.40512196747E+03  0.40512196750E+03  0.50400001928E-02 0.  1.
    10030    2    1    2    0    0  0.00000000000E+00  0.00000000000E+00  0.13031287492E+04  0.21133726842E+04  0.16637907216E+04 0.  0.
        2    1    3    3  502    0 -0.23123349682E+03 -0.12360930061E+03 -0.35126384873E+03  0.43833147353E+03  0.25500000920E-02 0.  1.
       -2    1    3    3    0  502  0.23123349682E+03  0.12360930061E+03  0.16543925980E+04  0.16750412107E+04  0.25500000920E-02 0. -1.
</event>
<event>
 5   0  0.2463085E-04  0.1968245E+04  0.7818609E-02  0.8621613E-01
        2   -1    0    0  501    0  0.00000000000E+00  0.00000000000E+00  0.59192034458E+03  0.59192034458E+03  0.25500000920E-02 0.  1.
       -2   -1    0    0    0  501  0.00000000000E+00  0.00000000000E+00 -0.16361953301E+04  0.16361953301E+04  0.25500000920E-02 0. -1.
    10030    2    1    2    0    0  0.00000000000E+00  0.00000000000E+00 -0.10442749856E+04  0.22281156747E+04  0.19682452120E+04 0.  0.
        2    1    3    3  502    0  0.59066477057E+03  0.77624855386E+03 -0.66995591247E+03  0.11833374892E+04  0.25500000920E-02 0. -1.
       -2    1    3    3    0  502 -0.59066477057E+03 -0.77624855386E+03 -0.37431907309E+03  0.10447781856E+04  0.25500000920E-02 0.  1.
</event>
<event>
 5   0  0.1231056E-04  0.1960661E+04  0.7818609E-02  0.8625237E-01
       -1   -1    0    0    0  501  0.00000000000E+00  0.00000000000E+00  0.43624998726E+03  0.43624998729E+03  0.50400001928E-02 0. -1.
        1   -1    0    0  501    0  0.00000000000E+00  0.00000000000E+00 -0.22029753982E+04  0.22029753982E+04  0.50400001928E-02 0.  1.
    10030    2    1    2    0    0  0.00000000000E+00  0.00000000000E+00 -0.17667254110E+04  0.26392253855E+04  0.19606611022E+04 0.  0.
        3    1    3    3  502    0 -0.84357579102E+03  0.19742624527E+03 -0.15008800741E+04  0.17329853561E+04  0.10100000352E+00 0.  1.
       -3    1    3    3    0  502  0.84357579102E+03 -0.19742624527E+03 -0.26584533683E+03  0.90624002937E+03  0.10100000352E+00 0. -1.
</event>
<event>
 5   0  0.1207228E-04  0.1860257E+04  0.7818609E-02  0.8674896E-01
        1   -1    0    0  501    0  0.00000000000E+00  0.00000000000E+00  0.11005620765E+04  0.11005620765E+04  0.50400001928E-02 0.  1.
       -1   -1    0    0    0  501  0.00000000000E+00  0.00000000000E+00 -0.78608839689E+03  0.78608839690E+03  0.50400001928E-02 0. -1.
    10030    2    1    2    0    0  0.00000000000E+00  0.00000000000E+00  0.31447367957E+03  0.18866504734E+04  0.18602570558E+04 0.  0.
        1    1    3    3  502    0  0.86663723211E+03  0.14609361503E+03  0.46608273221E+03  0.99480477971E+03  0.50400001928E-02 0.  1.
       -1    1    3    3    0  502 -0.86663723211E+03 -0.14609361503E+03 -0.15160905264E+03  0.89184569366E+03  0.50400001928E-02 0. -1.
</event>
<event>
 5   0  0.2540506E-04  0.1992739E+04  0.7818609E-02  0.8610023E-01
       -2   -1    0    0    0  501  0.00000000000E+00  0.00000000000E+00  0.41600523487E+03  0.41600523488E+03  0.25500000920E-02 0.  1.
        2   -1    0    0  501    0  0.00000000000E+00  0.00000000000E+00 -0.23863927725E+04  0.23863927725E+04  0.25500000920E-02 0. -1.
    10030    2    1    2    0    0  0.00000000000E+00  0.00000000000E+00 -0.19703875376E+04  0.28023980074E+04  0.19927387042E+04 0.  0.
        4    1    3    3  502    0  0.24271510857E+03 -0.96600391997E+03 -0.94862779932E+03  0.13754891900E+04  0.12699999809E+01 0. -1.
       -4    1    3    3    0  502 -0.24271510857E+03  0.96600391997E+03 -0.10217597383E+04  0.14269088174E+04  0.12699999809E+01 0.  1.
</event>
<event>
 5   0  0.2596061E-04  0.2045441E+04  0.7818609E-02  0.8585665E-01
        2   -1    0    0  501    0  0.00000000000E+00  0.00000000000E+00  0.22298484576E+04  0.22298484576E+04  0.25500000920E-02 0.  1.
       -2   -1    0    0    0  501  0.00000000000E+00  0.00000000000E+00 -0.46907088963E+03  0.46907088964E+03  0.25500000920E-02 0. -1.
    10030    2    1    2    0    0  0.00000000000E+00  0.00000000000E+00  0.17607775680E+04  0.26989193473E+04  0.20454407836E+04 0.  0.
        5    1    3    3  502    0  0.42205472583E+03  0.51505051993E+03  0.19046046453E+04  0.20176590829E+04  0.46999998093E+01 0.  1.
       -5    1    3    3    0  502 -0.42205472583E+03 -0.51505051993E+03 -0.14382707733E+03  0.68126026440E+03  0.46999998093E+01 0. -1.
</event>
<event>
 5   0  0.1210633E-04  0.2048483E+04  0.7818609E-02  0.8584283E-01
       -1   -1    0    0    0  501  0.00000000000E+00  0.00000000000E+00  0.45022324646E+03  0.45022324649E+03  0.50400001928E-02 0. -1.
        1   -1    0    0  501    0  0.00000000000E+00  0.00000000000E+00 -0.23301117496E+04  0.23301117496E+04  0.50400001928E-02 0.  1.
    10030    2    1    2    0    0  0.00000000000E+00  0.00000000000E+00 -0.18798885032E+04  0.27803349961E+04  0.20484828304E+04 0.  0.
        2    1    3    3  502    0 -0.69004583095E+03 -0.73941790476E+03 -0.11595042904E+04  0.15386202541E+04  0.25500000920E-02 0. -1.
       -2    1    3    3    0  502  0.69004583095E+03  0.73941790476E+03 -0.72038421274E+03  0.12417147421E+04  0.25500000920E-02 0.  1.
</event>
<event>
 5   0  0.1210633E-04  0.1748140E+04  0.7818609E-02  0.8734375E-01
        1   -1    0    0  501    0  0.00000000000E+00  0.00000000000E+00  0.99967831925E+03  0.99967831926E+03  0.50400001928E-02 0. -1.
       -1   -1    0    0    0  501  0.00000000000E+00  0.00000000000E+00 -0.76424382716E+03  0.76424382718E+03  0.50400001928E-02 0.  1.
    10030    2    1    2    0    0  0.00000000000E+00  0.00000000000E+00  0.23543449208E+03  0.17639221464E+04  0.17481395650E+04 0.  0.
        2    1    3    3  502    0  0.30513308125E+03  0.76891907152E+03 -0.16706342569E+03  0.84395078295E+03  0.25500000920E-02 0.  1.
       -2    1    3    3    0  502 -0.30513308125E+03 -0.76891907152E+03  0.40249791777E+03  0.91997136349E+03  0.25500000920E-02 0. -1.
</event>
<event>
 5   0  0.1207228E-04  0.1849654E+04  0.7818609E-02  0.8680331E-01
       -1   -1    0    0    0  501  0.00000000000E+00  0.00000000000E+00  0.96570627843E+03  0.96570627845E+03  0.50400001928E-02 0.  1.
        1   -1    0    0  501    0  0.00000000000E+00  0.00000000000E+00 -0.88567853946E+03  0.88567853947E+03  0.50400001928E-02 0. -1.
    10030    2    1    2    0    0  0.00000000000E+00  0.00000000000E+00  0.80027738977E+02  0.18513848179E+04  0.18496543745E+04 0.  0.
        1    1    3    3  502    0 -0.58735331572E+03  0.51485720344E+03 -0.45567006037E+03  0.90426603462E+03  0.50400001928E-02 0.  1.
       -1    1    3    3    0  502  0.58735331572E+03 -0.51485720344E+03  0.53569779934E+03  0.94711878330E+03  0.50400001928E-02 0. -1.
</event>
<event>
 5   0  0.1324930E-04  0.1830798E+04  0.7818609E-02  0.8690091E-01
        1   -1    0    0  501    0  0.00000000000E+00  0.00000000000E+00  0.13951084259E+04  0.13951084259E+04  0.50400001928E-02 0. -1.
       -1   -1    0    0    0  501  0.00000000000E+00  0.00000000000E+00 -0.60063795115E+03  0.60063795117E+03  0.50400001928E-02 0.  1.
    10030    2    1    2    0    0  0.00000000000E+00  0.00000000000E+00  0.79447047477E+03  0.19957463771E+04  0.18307977131E+04 0.  0.
        5    1    3    3  502    0  0.47895737284E+03  0.48737172247E+03 -0.26674153790E+03  0.73355606391E+03  0.46999998093E+01 0.  1.
       -5    1    3    3    0  502 -0.47895737284E+03 -0.48737172247E+03  0.10612120127E+04  0.12621903132E+04  0.46999998093E+01 0. -1.
</event>
<event>
 5   0  0.1231056E-04  0.2029778E+04  0.7818609E-02  0.8592823E-01
        1   -1    0    0  501    0  0.00000000000E+00  0.00000000000E+00  0.13873963963E+04  0.13873963963E+04  0.50400001928E-02 0.  1.
       -1   -1    0    0    0  501  0.00000000000E+00  0.00000000000E+00 -0.74239788481E+03  0.74239788483E+03  0.50400001928E-02 0. -1.
    10030    2    1    2    0    0  0.00000000000E+00  0.00000000000E+00  0.64499851149E+03  0.21297942811E+04  0.20297784609E+04 0.  0.
        3    1    3    3  502    0 -0.94884254583E+03  0.34158832234E+03  0.44220568092E+03  0.11011496870E+04  0.10100000352E+00 0.  1.
       -3    1    3    3    0  502  0.94884254583E+03 -0.34158832234E+03  0.20279283057E+03  0.10286445941E+04  0.10100000352E+00 0. -1.
</event>
<event>
 5   0  0.2421737E-04  0.1993535E+04  0.7818609E-02  0.8609649E-01
        2   -1    0    0  501    0  0.00000000000E+00  0.00000000000E+00  0.22618073402E+04  0.22618073402E+04  0.25500000920E-02 0.  1.
       -2   -1    0    0    0  501  0.00000000000E+00  0.00000000000E+00 -0.43927069208E+03  0.43927069209E+03  0.25500000920E-02 0. -1.
    10030    2    1    2    0    0  0.00000000000E+00  0.00000000000E+00  0.18225366481E+04  0.27010780323E+04  0.19935352274E+04 0.  0.
        1    1    3    3  502    0  0.85487256421E+03  0.88998828644E+02  0.22731245123E+03  0.88904378016E+03  0.50400001928E-02 0.  1.
       -1    1    3    3    0  502 -0.85487256421E+03 -0.88998828644E+02  0.15952241969E+04  0.18120342522E+04  0.50400001928E-02 0. -1.
</event>
<event>
 5   0  0.1324930E-04  0.1911493E+04  0.7818609E-02  0.8649156E-01
        1   -1    0    0  501    0  0.00000000000E+00  0.00000000000E+00  0.19086635842E+04  0.19086635842E+04  0.50400001928E-02 0.  1.
       -1   -1    0    0    0  501  0.00000000000E+00  0.00000000000E+00 -0.47858188999E+03  0.47858189001E+03  0.50400001928E-02 0. -1.
    10030    2    1    2    0    0  0.00000000000E+00  0.00000000000E+00  0.14300816942E+04  0.23872454742E+04  0.19114934742E+04 0.  0.
        5    1    3    3  502    0 -0.45041959180E+03  0.75228593880E+03  0.24010481027E+03  0.90911184807E+03  0.46999998093E+01 0. -1.
       -5    1    3    3    0  502  0.45041959180E+03 -0.75228593880E+03  0.11899768839E+04  0.14781336261E+04  0.46999998093E+01 0.  1.
</event>
<event>
 5   0  0.1207228E-04  0.2177818E+04  0.7818609E-02  0.8527718E-01
        1   -1    0    0  501    0  0.00000000000E+00  0.00000000000E+00  0.17061646992E+04  0.17061646992E+04  0.50400001928E-02 0. -1.
       -1   -1    0    0    0  501  0.00000000000E+00  0.00000000000E+00 -0.69496409417E+03  0.69496409419E+03  0.50400001928E-02 0.  1.
    10030    2    1    2    0    0  0.00000000000E+00  0.00000000000E+00  0.10112006050E+04  0.24011287934E+04  0.21778183622E+04 0.  0.
        1    1    3    3  502    0  0.74594938324E+03  0.55895924037E+03 -0.11500973991E+03  0.93920346840E+03  0.50400001928E-02 0.  1.
       -1    1    3    3    0  502 -0.74594938324E+03 -0.55895924037E+03  0.11262103449E+04  0.14619253250E+04  0.50400001928E-02 0. -1.
</event>
<event>
 5   0  0.1207228E-04  0.1993758E+04  0.7818609E-02  0.8609545E-01
       -1   -1    0    0    0  501  0.00000000000E+00  0.00000000000E+00  0.10507003790E+04  0.10507003790E+04  0.50400001928E-02 0. -1.
        1   -1    0    0  501    0  0.00000000000E+00  0.00000000000E+00 -0.94581450158E+03  0.94581450159E+03  0.50400001928E-02 0.  1.
    10030    2    1    2    0    0  0.00000000000E+00  0.00000000000E+00  0.10488587740E+03  0.19965148806E+04  0.19937579144E+04 0.  0.
        1    1    3    3  502    0 -0.29313892955E+03 -0.25185146541E+03 -0.86774452604E+03  0.94991586740E+03  0.50400001928E-02 0.  1.
       -1    1    3    3    0  502  0.29313892955E+03  0.25185146541E+03  0.97263040344E+03  0.10465990132E+04  0.50400001928E-02 0. -1.
</event>
<event>
 5   0  0.1210633E-04  0.1966475E+04  0.7818609E-02  0.8622457E-01
       -1   -1    0    0    0  501  0.00000000000E+00  0.00000000000E+00  0.95472848211E+03  0.95472848212E+03  0.50400001928E-02 0. -1.
        1   -1    0    0  501    0  0.00000000000E+00  0.00000000000E+00 -0.10125980441E+04  0.10125980441E+04  0.50400001928E-02 0.  1.
    10030    2    1    2    0    0  0.00000000000E+00  0.00000000000E+00 -0.57869561972E+02  0.19673265262E+04  0.19664752158E+04 0.  0.
        2    1    3    3  502    0 -0.35100135442E+03 -0.91265431397E+03 -0.13201504047E+03  0.98669540311E+03  0.25500000920E-02 0.  1.
       -2    1    3    3    0  502  0.35100135442E+03  0.91265431397E+03  0.74145478495E+02  0.98063112310E+03  0.25500000920E-02 0. -1.
</event>
<event>
 5   0  0.1231056E-04  0.1975557E+04  0.7818609E-02  0.8618134E-01
        1   -1    0    0  501    0  0.00000000000E+00  0.00000000000E+00  0.12354828359E+04  0.12354828359E+04  0.50400001928E-02 0.  1.
       -1   -1    0    0    0  501  0.00000000000E+00  0.00000000000E+00 -0.78973725225E+03  0.78973725226E+03  0.50400001928E-02 0. -1.
    10030    2    1    2    0    0  0.00000000000E+00  0.00000000000E+00  0.44574558365E+03  0.20252200882E+04  0.19755574606E+04 0.  0.
        3    1    3    3  502    0  0.46555272509E+03  0.43067751899E+03 -0.55345180044E+03  0.84174305511E+03  0.10100000352E+00 0. -1.
       -3    1    3    3    0  502 -0.46555272509E+03 -0.43067751899E+03  0.99919738409E+03  0.11834770331E+04  0.10100000352E+00 0.  1.
</event>
<event>
 5   0  0.2421737E-04  0.1995119E+04  0.7818609E-02  0.8608906E-01
       -2   -1    0    0    0  501  0.00000000000E+00  0.00000000000E+00  0.54525238467E+03  0.54525238467E+03  0.25500000920E-02 0.  1.
        2   -1    0    0  501    0  0.00000000000E+00  0.00000000000E+00 -0.18250721380E+04  0.18250721380E+04  0.25500000920E-02 0. -1.
    10030    2    1    2    0    0  0.00000000000E+00  0.00000000000E+00 -0.12798197533E+04  0.23703245227E+04  0.19951189793E+04 0.  0.
        1    1    3    3  502    0 -0.70235572955E+03  0.61938127254E+03 -0.10483478154E+04  0.14056919555E+04  0.50400001928E-02 0.  1.
       -1    1    3    3    0  502  0.70235572955E+03 -0.61938127254E+03 -0.23147193792E+03  0.96463256719E+03  0.50400001928E-02 0. -1.
</event>
<event>
 5   0  0.2488886E-04  0.1952757E+04  0.7818609E-02  0.8629032E-01
       -2   -1    0    0    0  501  0.00000000000E+00  0.00000000000E+00  0.10876863706E+04  0.10876863706E+04  0.25500000920E-02 0. -1.
        2   -1    0    0  501    0  0.00000000000E+00  0.00000000000E+00 -0.87646154646E+03  0.87646154646E+03  0.25500000920E-02 0.  1.
    10030    2    1    2    0    0  0.00000000000E+00  0.00000000000E+00  0.21122482417E+03  0.19641479171E+04  0.19527573105E+04 0.  0.
        3    1    3    3  502    0 -0.66035761288E+03  0.64890537482E+03  0.41752594940E+03  0.10156171971E+04  0.10100000352E+00 0. -1.
       -3    1    3    3    0  502  0.66035761288E+03 -0.64890537482E+03 -0.20630112523E+03  0.94853072002E+03  0.10100000352E+00 0.  1.
</event>
<event>
 5   0  0.1231056E-04  0.1964211E+04  0.7818609E-02  0.8623538E-01
        1   -1    0    0  501    0  0.00000000000E+00  0.00000000000E+00  0.12654742772E+04  0.12654742772E+04  0.50400001928E-02 0. -1.
       -1   -1    0    0    0  501  0.00000000000E+00  0.00000000000E+00 -0.76218975403E+03  0.76218975405E+03  0.50400001928E-02 0.  1.
    10030    2    1    2    0    0  0.00000000000E+00  0.00000000000E+00  0.50328452318E+03  0.20276640313E+04  0.19642113207E+04 0.  0.
        3    1    3    3  502    0  0.27833311456E+03  0.67494194625E+03  0.92976142884E+03  0.11821473166E+04  0.10100000352E+00 0. -1.
       -3    1    3    3    0  502 -0.27833311456E+03 -0.67494194625E+03 -0.42647690565E+03  0.84551671464E+03  0.10100000352E+00 0.  1.
</event>
<event>
 5   0  0.2596061E-04  0.1979833E+04  0.7818609E-02  0.8616108E-01
        2   -1    0    0  501    0  0.00000000000E+00  0.00000000000E+00  0.19775502577E+04  0.19775502577E+04  0.25500000920E-02 0.  1.
       -2   -1    0    0    0  501  0.00000000000E+00  0.00000000000E+00 -0.49552939285E+03  0.49552939285E+03  0.25500000920E-02 0. -1.
    10030    2    1    2    0    0  0.00000000000E+00  0.00000000000E+00  0.14820208649E+04  0.24730796506E+04  0.19798325975E+04 0.  0.
        5    1    3    3  502    0  0.67113597352E+03  0.23669517191E+03  0.16005248297E+04  0.17516135190E+04  0.46999998093E+01 0.  1.
       -5    1    3    3    0  502 -0.67113597352E+03 -0.23669517191E+03 -0.11850396484E+03  0.72146613159E+03  0.46999998093E+01 0. -1.
</event>
<event>
 5   0  0.1258546E-04  0.1981653E+04  0.7818609E-02  0.8615247E-01
       -1   -1    0    0    0  501  0.00000000000E+00  0.00000000000E+00  0.47684199302E+03  0.47684199304E+03  0.50400001928E-02 0. -1.
        1   -1    0    0  501    0  0.00000000000E+00  0.00000000000E+00 -0.20588310103E+04  0.20588310103E+04  0.50400001928E-02 0.  1.
    10030    2    1    2    0    0  0.00000000000E+00  0.00000000000E+00 -0.15819890173E+04  0.25356730034E+04  0.19816529285E+04 0.  0.
        4    1    3    3  502    0  0.82938146846E+03 -0.43269749258E+03 -0.12088392957E+04  0.15285270021E+04  0.12699999809E+01 0.  1.
       -4    1    3    3    0  502 -0.82938146846E+03  0.43269749258E+03 -0.37314972159E+03  0.10071460013E+04  0.12699999809E+01 0. -1.
</event>
<event>
 5   0  0.1210633E-04  0.2009401E+04  0.7818609E-02  0.8602238E-01
        1   -1    0    0  501    0  0.00000000000E+00  0.00000000000E+00  0.91063471138E+03  0.91063471139E+03  0.50400001928E-02 0.  1.
       -1   -1    0    0    0  501  0.00000000000E+00  0.00000000000E+00 -0.11084829873E+04  0.11084829873E+04  0.50400001928E-02 0. -1.
    10030    2    1    2    0    0  0.00000000000E+00  0.00000000000E+00 -0.19784827592E+03  0.20191176987E+04  0.20094009906E+04 0.  0.
        2    1    3    3  502    0  0.86189647838E+03 -0.14217303665E+03  0.39980684304E+03  0.96068945219E+03  0.25500000920E-02 0.  1.
       -2    1    3    3    0  502 -0.86189647838E+03  0.14217303665E+03 -0.59765511896E+03  0.10584282465E+04  0.25500000920E-02 0. -1.
</event>
<event>
 5   0  0.1207228E-04  0.1867109E+04  0.7818609E-02  0.8671404E-01
       -1   -1    0    0    0  501  0.00000000000E+00  0.00000000000E+00  0.92880679974E+03  0.92880679975E+03  0.50400001928E-02 0. -1.
        1   -1    0    0  501    0  0.00000000000E+00  0.00000000000E+00 -0.93832691819E+03  0.93832691821E+03  0.50400001928E-02 0.  1.
    10030    2    1    2    0    0  0.00000000000E+00  0.00000000000E+00 -0.95201184564E+01  0.18671337180E+04  0.18671094473E+04 0.  0.
        1    1    3    3  502    0  0.53415207843E+03 -0.46858265501E+03  0.60075278658E+03  0.93047947752E+03  0.50400001928E-02 0. -1.
       -1    1    3    3    0  502 -0.53415207843E+03  0.46858265501E+03 -0.61027290504E+03  0.93665424043E+03  0.50400001928E-02 0.  1.
</event>
<event>
 5   0  0.1324930E-04  0.1991818E+04  0.7818609E-02  0.8610455E-01
        1   -1    0    0  501    0  0.00000000000E+00  0.00000000000E+00  0.52741630559E+03  0.52741630561E+03  0.50400001928E-02 0.  1.
       -1   -1    0    0    0  501  0.00000000000E+00  0.00000000000E+00 -0.18805542856E+04  0.18805542856E+04  0.50400001928E-02 0. -1.
    10030    2    1    2    0    0  0.00000000000E+00  0.00000000000E+00 -0.13531379800E+04  0.24079705912E+04  0.19918182586E+04 0.  0.
        5    1    3    3  502    0 -0.97206368197E+03  0.21524222545E+03 -0.70558046920E+03  0.12202880422E+04  0.46999998093E+01 0. -1.
       -5    1    3    3    0  502  0.97206368197E+03 -0.21524222545E+03 -0.64755751082E+03  0.11876825490E+04  0.46999998093E+01 0.  1.
</event>
<event>
 5   0  0.2596061E-04  0.2061382E+04  0.7818609E-02  0.8578448E-01
       -2   -1    0    0    0  501  0.00000000000E+00  0.00000000000E+00  0.82908041380E+03  0.82908041381E+03  0.25500000920E-02 0. -1.
        2   -1    0    0  501    0  0.00000000000E+00  0.00000000000E+00 -0.12813278597E+04  0.12813278597E+04  0.25500000920E-02 0.  1.
    10030    2    1    2    0    0  0.00000000000E+00  0.00000000000E+00 -0.45224744588E+03  0.21104082735E+04  0.20613818978E+04 0.  0.
        5    1    3    3  502    0  0.16321691388E+03 -0.72405625768E+03  0.50600981656E+03  0.89831244548E+03  0.46999998093E+01 0. -1.
       -5    1    3    3    0  502 -0.16321691388E+03  0.72405625768E+03 -0.95825726244E+03  0.12120958280E+04  0.46999998093E+01 0.  1.
</event>
<event>
 5   0  0.2540506E-04  0.2029972E+04  0.7818609E-02  0.8592735E-01
        2   -1    0    0  501    0  0.00000000000E+00  0.00000000000E+00  0.10901964098E+04  0.10901964098E+04  0.25500000920E-02 0.  1.
       -2   -1    0    0    0  501  0.00000000000E+00  0.00000000000E+00 -0.94496381447E+03  0.94496381447E+03  0.25500000920E-02 0. -1.
    10030    2    1    2    0    0  0.00000000000E+00  0.00000000000E+00  0.14523259535E+03  0.20351602243E+04  0.20299715840E+04 0.  0.
        4    1    3    3  502    0  0.22261814677E+02 -0.57771817447E+03 -0.76374659339E+03  0.95789579252E+03  0.12699999809E+01 0. -1.
       -4    1    3    3    0  502 -0.22261814677E+02  0.57771817447E+03  0.90897918874E+03  0.10772644318E+04  0.12699999809E+01 0.  1.
</event>
<event>
 5   0  0.1324930E-04  0.1892413E+04  0.7818609E-02  0.8658642E-01
       -1   -1    0    0    0  501  0.00000000000E+00  0.00000000000E+00  0.10069241309E+04  0.10069241309E+04  0.50400001928E-02 0.  1.
        1   -1    0    0  501    0  0.00000000000E+00  0.00000000000E+00 -0.88915033283E+03  0.88915033285E+03  0.50400001928E-02 0. -1.
    10030    2    1    2    0    0  0.00000000000E+00  0.00000000000E+00  0.11777379802E+03  0.18960744637E+04  0.18924131960E+04 0.  0.
        5    1    3    3  502    0  0.39940676335E+02  0.79843753760E+03  0.56601541384E+03  0.97953728759E+03  0.46999998093E+01 0.  1.
       -5    1    3    3    0  502 -0.39940676335E+02 -0.79843753760E+03 -0.44824161582E+03  0.91653717613E+03  0.46999998093E+01 0. -1.
</event>
<event>
 5   0  0.9099125E-05  0.1710055E+04  0.7818609E-02  0.8755650E-01
       -3   -1    0    0    0  501  0.00000000000E+00  0.00000000000E+00  0.11244069172E+04  0.11244069217E+04  0.10100000352E+00 0. -1.
        3   -1    0    0  501    0  0.00000000000E+00  0.00000000000E+00 -0.65018465085E+03  0.65018465869E+03  0.10100000352E+00 0.  1.
    10030    2    1    2    0    0  0.00000000000E+00  0.00000000000E+00  0.47422226635E+03  0.17745915804E+04  0.17100551217E+04 0.  0.
        1    1    3    3  502    0 -0.20248925868E+03  0.15055525739E+02  0.10990244972E+04  0.11176240040E+04  0.50400001928E-02 0. -1.
       -1    1    3    3    0  502  0.20248925868E+03 -0.15055525739E+02 -0.62480223089E+03  0.65696757643E+03  0.50400001928E-02 0.  1.
</event>
<event>
 5   0  0.2421737E-04  0.2079022E+04  0.7818609E-02  0.8570541E-01
       -2   -1    0    0    0  501  0.00000000000E+00  0.00000000000E+00  0.90482392475E+03  0.90482392475E+03  0.25500000920E-02 0. -1.
        2   -1    0    0  501    0  0.00000000000E+00  0.00000000000E+00 -0.11942467370E+04  0.11942467370E+04  0.25500000920E-02 0.  1.
    10030    2    1    2    0    0  0.00000000000E+00  0.00000000000E+00 -0.28942281221E+03  0.20990706617E+04  0.20790219043E+04 0.  0.
        1    1    3    3  502    0 -0.45577457209E+03 -0.55007386328E+03 -0.90715681360E+03  0.11546623749E+04  0.50400001928E-02 0.  1.
       -1    1    3    3    0  502  0.45577457209E+03  0.55007386328E+03  0.61773400139E+03  0.94440828677E+03  0.50400001928E-02 0. -1.
</event>
<event>
 5   0  0.2540506E-04  0.1937301E+04  0.7818609E-02  0.8636509E-01
        2   -1    0    0  501    0  0.00000000000E+00  0.00000000000E+00  0.15778706071E+04  0.15778706071E+04  0.25500000920E-02 0. -1.
       -2   -1    0    0    0  501  0.00000000000E+00  0.00000000000E+00 -0.59465189499E+03  0.59465189500E+03  0.25500000920E-02 0.  1.
    10030    2    1    2    0    0  0.00000000000E+00  0.00000000000E+00  0.98321871214E+03  0.21725225021E+04  0.19373009540E+04 0.  0.
        4    1    3    3  502    0  0.96177795235E+03 -0.94655762914E+02  0.41802532794E+03  0.10529593206E+04  0.12699999809E+01 0. -1.
       -4    1    3    3    0  502 -0.96177795235E+03  0.94655762914E+02  0.56519338420E+03  0.11195631816E+04  0.12699999809E+01 0.  1.
</event>
<event>
 5   0  0.2540506E-04  0.1985973E+04  0.7818609E-02  0.8613207E-01
        2   -1    0    0  501    0  0.00000000000E+00  0.00000000000E+00  0.11569089806E+04  0.11569089806E+04  0.25500000920E-02 0.  1.
       -2   -1    0    0    0  501  0.00000000000E+00  0.00000000000E+00 -0.85229035548E+03  0.85229035549E+03  0.25500000920E-02 0. -1.
    10030    2    1    2    0    0  0.00000000000E+00  0.00000000000E+00  0.30461862510E+03  0.20091993361E+04  0.19859731784E+04 0.  0.
        4    1    3    3  502    0 -0.27487443886E+03  0.44249641415E+03  0.10075727517E+04  0.11342678240E+04  0.12699999809E+01 0.  1.
       -4    1    3    3    0  502  0.27487443886E+03 -0.44249641415E+03 -0.70295412665E+03  0.87493151204E+03  0.12699999809E+01 0. -1.
</event>
<event>
 5   0  0.1258546E-04  0.1881481E+04  0.7818609E-02  0.8664130E-01
       -1   -1    0    0    0  501  0.00000000000E+00  0.00000000000E+00  0.40058654119E+03  0.40058654122E+03  0.50400001928E-02 0. -1.
        1   -1    0    0  501    0  0.00000000000E+00  0.00000000000E+00 -0.22092429037E+04  0.22092429037E+04  0.50400001928E-02 0.  1.
    10030    2    1    2    0    0  0.00000000000E+00  0.00000000000E+00 -0.18086563625E+04  0.26098294449E+04  0.18814813031E+04 0.  0.
        4    1    3    3  502    0 -0.57198959403E+03  0.21250397461E+03 -0.18975071119E+04  0.19932046778E+04  0.12699999809E+01 0.  1.
       -4    1    3    3    0  502  0.57198959403E+03 -0.21250397461E+03  0.88850749386E+02  0.61662476715E+03  0.12699999809E+01 0. -1.
</event>
<event>
 5   0  0.1231056E-04  0.1976628E+04  0.7818609E-02  0.8617627E-01
       -1   -1    0    0    0  501  0.00000000000E+00  0.00000000000E+00  0.28685545331E+04  0.28685545331E+04  0.50400001928E-02 0. -1.
        1   -1    0    0  501    0  0.00000000000E+00  0.00000000000E+00 -0.34050746944E+03  0.34050746947E+03  0.50400001928E-02 0.  1.
    10030    2    1    2    0    0  0.00000000000E+00  0.00000000000E+00  0.25280470636E+04  0.32090620025E+04  0.19766276787E+04 0.  0.
        3    1    3    3  502    0  0.50137075865E+03  0.46787751397E+03  0.24194314558E+04  0.25147426480E+04  0.10100000352E+00 0. -1.
       -3    1    3    3    0  502 -0.50137075865E+03 -0.46787751397E+03  0.10861560778E+03  0.69431935459E+03  0.10100000352E+00 0.  1.
</event>
<event>
 5   0  0.1231056E-04  0.2053919E+04  0.7818609E-02  0.8581819E-01
       -1   -1    0    0    0  501  0.00000000000E+00  0.00000000000E+00  0.55521678371E+03  0.55521678373E+03  0.50400001928E-02 0. -1.
        1   -1    0    0  501    0  0.00000000000E+00  0.00000000000E+00 -0.18995209159E+04  0.18995209159E+04  0.50400001928E-02 0.  1.
    10030    2    1    2    0    0  0.00000000000E+00  0.00000000000E+00 -0.13443041322E+04  0.24547376996E+04  0.20539190768E+04 0.  0.
        3    1    3    3  502    0 -0.21019383823E+03 -0.37182595812E+03 -0.17883270055E+04  0.18386270643E+04  0.10100000352E+00 0.  1.
       -3    1    3    3    0  502  0.21019383823E+03  0.37182595812E+03  0.44402287331E+03  0.61611063534E+03  0.10100000352E+00 0. -1.
</event>
<event>
 5   0  0.2540506E-04  0.1990134E+04  0.7818609E-02  0.8611247E-01
        2   -1    0    0  501    0  0.00000000000E+00  0.00000000000E+00  0.17488073294E+04  0.17488073294E+04  0.25500000920E-02 0.  1.
       -2   -1    0    0    0  501  0.00000000000E+00  0.00000000000E+00 -0.56619091427E+03  0.56619091428E+03  0.25500000920E-02 0. -1.
    10030    2    1    2    0    0  0.00000000000E+00  0.00000000000E+00  0.11826164151E+04  0.23149982436E+04  0.19901344886E+04 0.  0.
        4    1    3    3  502    0  0.51110856198E+01 -0.16131011315E+03  0.17334803495E+04  0.17409775446E+04  0.12699999809E+01 0.  1.
       -4    1    3    3    0  502 -0.51110856198E+01  0.16131011315E+03 -0.55086393441E+03  0.57402069905E+03  0.12699999809E+01 0. -1.
</event>
<event>
 5   0  0.1258546E-04  0.2001308E+04  0.7818609E-02  0.8606010E-01
       -1   -1    0    0    0  501  0.00000000000E+00  0.00000000000E+00  0.11082703325E+04  0.11082703325E+04  0.50400001928E-02 0. -1.
        1   -1    0    0  501    0  0.00000000000E+00  0.00000000000E+00 -0.90348722182E+03  0.90348722184E+03  0.50400001928E-02 0.  1.
    10030    2    1    2    0    0  0.00000000000E+00  0.00000000000E+00  0.20478311069E+03  0.20117575544E+04  0.20013076563E+04 0.  0.
        4    1    3    3  502    0  0.39206777074E+03  0.59854741370E+03  0.80556563037E+03  0.10774570716E+04  0.12699999809E+01 0. -1.
       -4    1    3    3    0  502 -0.39206777074E+03 -0.59854741370E+03 -0.60078251969E+03  0.93430048280E+03  0.12699999809E+01 0.  1.
</event>
<event>
 5   0  0.2421737E-04  0.1946550E+04  0.7818609E-02  0.8632026E-01
       -2   -1    0    0    0  501  0.00000000000E+00  0.00000000000E+00  0.61396557277E+03  0.61396557277E+03  0.25500000920E-02 0. -1.
        2   -1    0    0  501    0  0.00000000000E+00  0.00000000000E+00 -0.15428614896E+04  0.15428614896E+04  0.25500000920E-02 0.  1.
    10030    2    1    2    0    0  0.00000000000E+00  0.00000000000E+00 -0.92889591686E+03  0.21568270624E+04  0.19465496019E+04 0.  0.
        1    1    3    3  502    0  0.59601277935E+03 -0.71392064248E+03 -0.14648140210E+03  0.94147263268E+03  0.50400001928E-02 0. -1.
       -1    1    3    3    0  502 -0.59601277935E+03  0.71392064248E+03 -0.78241451476E+03  0.12153544297E+04  0.50400001928E-02 0.  1.
</event>
<event>
 5   0  0.1324930E-04  0.1507189E+04  0.7818609E-02  0.8879686E-01
        1   -1    0    0  501    0  0.00000000000E+00  0.00000000000E+00  0.13288050151E+04  0.13288050151E+04  0.50400001928E-02 0.  1.
       -1   -1    0    0    0  501  0.00000000000E+00  0.00000000000E+00 -0.42737997756E+03  0.42737997759E+03  0.50400001928E-02 0. -1.
    10030    2    1    2    0    0  0.00000000000E+00  0.00000000000E+00  0.90142503757E+03  0.17561849927E+04  0.15071889830E+04 0.  0.
        5    1    3    3  502    0  0.23988707181E+03 -0.19479800391E+03 -0.35014107241E+03  0.46702562043E+03  0.46999998093E+01 0. -1.
       -5    1    3    3    0  502 -0.23988707181E+03  0.19479800391E+03  0.12515661100E+04  0.12891593723E+04  0.46999998093E+01 0.  1.
</event>
<event>
 5   0  0.2488886E-04  0.1971553E+04  0.7818609E-02  0.8620037E-01
       -2   -1    0    0    0  501  0.00000000000E+00  0.00000000000E+00  0.62182379143E+03  0.62182379143E+03  0.25500000920E-02 0. -1.
        2   -1    0    0  501    0  0.00000000000E+00  0.00000000000E+00 -0.15627498360E+04  0.15627498360E+04  0.25500000920E-02 0.  1.
    10030    2    1    2    0    0  0.00000000000E+00  0.00000000000E+00 -0.94092604455E+03  0.21845736274E+04  0.19715527161E+04 0.  0.
        3    1    3    3  502    0 -0.12576145465E+03 -0.97640079288E+03 -0.41417502668E+03  0.10680427963E+04  0.10100000352E+00 0. -1.
       -3    1    3    3    0  502  0.12576145465E+03  0.97640079288E+03 -0.52675101787E+03  0.11165308311E+04  0.10100000352E+00 0.  1.
</event>
<event>
 5   0  0.2421737E-04  0.1312106E+04  0.7818609E-02  0.9020020E-01
        2   -1    0    0  501    0  0.00000000000E+00  0.00000000000E+00  0.94809007092E+03  0.94809007092E+03  0.25500000920E-02 0.  1.
       -2   -1    0    0    0  501  0.00000000000E+00  0.00000000000E+00 -0.45397120244E+03  0.45397120245E+03  0.25500000920E-02 0. -1.
    10030    2    1    2    0    0  0.00000000000E+00  0.00000000000E+00  0.49411886848E+03  0.14020612734E+04  0.13121060773E+04 0.  0.
        1    1    3    3  502    0 -0.27418455803E+03 -0.27795418175E+03  0.81043359574E+03  0.89957674055E+03  0.50400001928E-02 0.  1.
       -1    1    3    3    0  502  0.27418455803E+03  0.27795418175E+03 -0.31631472726E+03  0.50248453282E+03  0.50400001928E-02 0. -1.
</event>
<event>
 5   0  0.1324930E-04  0.1991479E+04  0.7818609E-02  0.8610615E-01
       -1   -1    0    0    0  501  0.00000000000E+00  0.00000000000E+00  0.91091976548E+03  0.91091976550E+03  0.50400001928E-02 0.  1.
        1   -1    0    0  501    0  0.00000000000E+00  0.00000000000E+00 -0.10884569476E+04  0.10884569476E+04  0.50400001928E-02 0. -1.
    10030    2    1    2    0    0  0.00000000000E+00  0.00000000000E+00 -0.17753718207E+03  0.19993767131E+04  0.19914787947E+04 0.  0.
        5    1    3    3  502    0 -0.83528054779E+03  0.47415420474E+03 -0.35241058695E+03  0.10230987808E+04  0.46999998093E+01 0. -1.
       -5    1    3    3    0  502  0.83528054779E+03 -0.47415420474E+03  0.17487340488E+03  0.97627793231E+03  0.46999998093E+01 0.  1.
</event>
<event>
 5   0  0.1210633E-04  0.2002779E+04  0.7818609E-02  0.8605323E-01
        1   -1    0    0  501    0  0.00000000000E+00  0.00000000000E+00  0.25743964066E+04  0.25743964067E+04  0.50400001928E-02 0. -1.
       -1   -1    0    0    0  501  0.00000000000E+00  0.00000000000E+00 -0.38952076805E+03  0.38952076808E+03  0.50400001928E-02 0.  1.
    10030    2    1    2    0    0  0.00000000000E+00  0.00000000000E+00  0.21848756386E+04  0.29639171747E+04  0.20027789350E+04 0.  0.
        2    1    3    3  502    0  0.15484541929E+03 -0.48221577006E+03 -0.18600567803E+03  0.53954357103E+03  0.25500000920E-02 0.  1.
       -2    1    3    3    0  502 -0.15484541929E+03  0.48221577006E+03  0.23708813166E+04  0.24243736037E+04  0.25500000920E-02 0. -1.
</event>
<event>
 5   0  0.2463085E-04  0.1992106E+04  0.7818609E-02  0.8610320E-01
        2   -1    0    0  501    0  0.00000000000E+00  0.00000000000E+00  0.17687064759E+04  0.17687064759E+04  0.25500000920E-02 0.  1.
       -2   -1    0    0    0  501  0.00000000000E+00  0.00000000000E+00 -0.56093052582E+03  0.56093052583E+03  0.25500000920E-02 0. -1.
    10030    2    1    2    0    0  0.00000000000E+00  0.00000000000E+00  0.12077759501E+04  0.23296370017E+04  0.19921058743E+04 0.  0.
        2    1    3    3  502    0  0.24641937907E+03  0.79796552161E+03  0.12386764595E+04  0.14939179547E+04  0.25500000920E-02 0.  1.
       -2    1    3    3    0  502 -0.24641937907E+03 -0.79796552161E+03 -0.30900509434E+02  0.83571904702E+03  0.25500000920E-02 0. -1.
</event>
<event>
 5   0  0.2463085E-04  0.1921251E+04  0.7818609E-02  0.8644350E-01
        2   -1    0    0  501    0  0.00000000000E+00  0.00000000000E+00  0.16602739694E+04  0.16602739694E+04  0.25500000920E-02 0.  1.
       -2   -1    0    0    0  501  0.00000000000E+00  0.00000000000E+00 -0.55581271444E+03  0.55581271445E+03  0.25500000920E-02 0. -1.
    10030    2    1    2    0    0  0.00000000000E+00  0.00000000000E+00  0.11044612549E+04  0.22160866838E+04  0.19212510316E+04 0.  0.
        2    1    3    3  502    0 -0.57923248067E+03 -0.71203819560E+03  0.22538647188E+03  0.94514957567E+03  0.25500000920E-02 0. -1.
       -2    1    3    3    0  502  0.57923248067E+03  0.71203819560E+03  0.87907478303E+03  0.12709371081E+04  0.25500000920E-02 0.  1.
</event>
<event>
 5   0  0.1231056E-04  0.2155300E+04  0.7818609E-02  0.8537267E-01
       -1   -1    0    0    0  501  0.00000000000E+00  0.00000000000E+00  0.80417750261E+03  0.80417750262E+03  0.50400001928E-02 0.  1.
        1   -1    0    0  501    0  0.00000000000E+00  0.00000000000E+00 -0.14441208873E+04  0.14441208873E+04  0.50400001928E-02 0. -1.
    10030    2    1    2    0    0  0.00000000000E+00  0.00000000000E+00 -0.63994338471E+03  0.22482983899E+04  0.21553000057E+04 0.  0.
        3    1    3    3  502    0 -0.66965503821E+03  0.81077690811E+03 -0.74150313554E+02  0.10541799392E+04  0.10100000352E+00 0. -1.
       -3    1    3    3    0  502  0.66965503821E+03 -0.81077690811E+03 -0.56579307115E+03  0.11941184508E+04  0.10100000352E+00 0.  1.
</event>
<event>
 5   0  0.1210633E-04  0.2015447E+04  0.7818609E-02  0.8599433E-01
        1   -1    0    0  501    0  0.00000000000E+00  0.00000000000E+00  0.74848610779E+03  0.74848610781E+03  0.50400001928E-02 0.  1.
       -1   -1    0    0    0  501  0.00000000000E+00  0.00000000000E+00 -0.13567471372E+04  0.13567471372E+04  0.50400001928E-02 0. -1.
    10030    2    1    2    0    0  0.00000000000E+00  0.00000000000E+00 -0.60826102937E+03  0.21052332450E+04  0.20154467336E+04 0.  0.
        2    1    3    3  502    0 -0.23870699491E+03  0.65230381045E+03  0.45847988327E+03  0.83227705358E+03  0.25500000920E-02 0.  1.
       -2    1    3    3    0  502  0.23870699491E+03 -0.65230381045E+03 -0.10667409126E+04  0.12729561914E+04  0.25500000920E-02 0. -1.
</event>
<event>
 5   0  0.2421737E-04  0.2005519E+04  0.7818609E-02  0.8604045E-01
       -2   -1    0    0    0  501  0.00000000000E+00  0.00000000000E+00  0.60029659862E+03  0.60029659863E+03  0.25500000920E-02 0. -1.
        2   -1    0    0  501    0  0.00000000000E+00  0.00000000000E+00 -0.16750495020E+04  0.16750495021E+04  0.25500000920E-02 0.  1.
    10030    2    1    2    0    0  0.00000000000E+00  0.00000000000E+00 -0.10747529034E+04  0.22753461007E+04  0.20055189040E+04 0.  0.
        1    1    3    3  502    0  0.42238978147E+02  0.83163316384E+03 -0.11712279711E+04  0.14370709137E+04  0.50400001928E-02 0.  1.
       -1    1    3    3    0  502 -0.42238978147E+02 -0.83163316384E+03  0.96475067711E+02  0.83827518703E+03  0.50400001928E-02 0. -1.
</event>
<event>
 5   0  0.1258546E-04  0.1994826E+04  0.7818609E-02  0.8609043E-01
       -1   -1    0    0    0  501  0.00000000000E+00  0.00000000000E+00  0.13735162954E+04  0.13735162954E+04  0.50400001928E-02 0.  1.
        1   -1    0    0  501    0  0.00000000000E+00  0.00000000000E+00 -0.72429630852E+03  0.72429630854E+03  0.50400001928E-02 0. -1.
    10030    2    1    2    0    0  0.00000000000E+00  0.00000000000E+00  0.64921998690E+03  0.20978126040E+04  0.19948260902E+04 0.  0.
        4    1    3    3  502    0 -0.55987027306E+03  0.47209824077E+03 -0.38747392470E+03  0.82853432446E+03  0.12699999809E+01 0. -1.
       -4    1    3    3    0  502  0.55987027306E+03 -0.47209824077E+03  0.10366939116E+04  0.12692782795E+04  0.12699999809E+01 0.  1.
</event>
<event>
 5   0  0.2421737E-04  0.2030011E+04  0.7818609E-02  0.8592716E-01
       -2   -1    0    0    0  501  0.00000000000E+00  0.00000000000E+00  0.10513312795E+04  0.10513312795E+04  0.25500000920E-02 0. -1.
        2   -1    0    0  501    0  0.00000000000E+00  0.00000000000E+00 -0.97993531310E+03  0.97993531310E+03  0.25500000920E-02 0.  1.
    10030    2    1    2    0    0  0.00000000000E+00  0.00000000000E+00  0.71395966416E+02  0.20312665926E+04  0.20300114744E+04 0.  0.
        1    1    3    3  502    0 -0.65070183912E+03  0.64960344323E+03  0.46589301511E+03  0.10307540048E+04  0.50400001928E-02 0. -1.
       -1    1    3    3    0  502  0.65070183912E+03 -0.64960344323E+03 -0.39449704870E+03  0.10005125878E+04  0.50400001928E-02 0.  1.
</event>
<event>
 5   0  0.1207228E-04  0.1960529E+04  0.7818609E-02  0.8625300E-01
       -1   -1    0    0    0  501  0.00000000000E+00  0.00000000000E+00  0.12118886759E+04  0.12118886759E+04  0.50400001928E-02 0.  1.
        1   -1    0    0  501    0  0.00000000000E+00  0.00000000000E+00 -0.79291026132E+03  0.79291026133E+03  0.50400001928E-02 0. -1.
    10030    2    1    2    0    0  0.00000000000E+00  0.00000000000E+00  0.41897841461E+03  0.20047989373E+04  0.19605294864E+04 0.  0.
        1    1    3    3  502    0  0.90298440667E+03  0.67167089286E+01  0.59953762019E+03  0.10839148080E+04  0.50400001928E-02 0.  1.
       -1    1    3    3    0  502 -0.90298440667E+03 -0.67167089286E+01 -0.18055920558E+03  0.92088412931E+03  0.50400001928E-02 0. -1.
</event>
<event>
 5   0  0.2540506E-04  0.1977239E+04  0.7818609E-02  0.8617337E-01
        2   -1    0    0  501    0  0.00000000000E+00  0.00000000000E+00  0.14073064363E+04  0.14073064364E+04  0.25500000920E-02 0. -1.
       -2   -1    0    0    0  501  0.00000000000E+00  0.00000000000E+00 -0.69449610967E+03  0.69449610967E+03  0.25500000920E-02 0.  1.
    10030    2    1    2    0    0  0.00000000000E+00  0.00000000000E+00  0.71281032668E+03  0.21018025460E+04  0.19772393332E+04 0.  0.
        4    1    3    3  502    0  0.16480794368E+03  0.46300084534E+03  0.12682545842E+04  0.13601480597E+04  0.12699999809E+01 0. -1.
       -4    1    3    3    0  502 -0.16480794368E+03 -0.46300084534E+03 -0.55544425747E+03  0.74165448636E+03  0.12699999809E+01 0.  1.
</event>
<event>
 5   0  0.9099125E-05  0.1687808E+04  0.7818609E-02  0.8768349E-01
        3   -1    0    0  501    0  0.00000000000E+00  0.00000000000E+00  0.43080412735E+03  0.43080413919E+03  0.10100000352E+00 0. -1.
       -3   -1    0    0    0  501  0.00000000000E+00  0.00000000000E+00 -0.16531263306E+04  0.16531263337E+04  0.10100000352E+00 0.  1.
    10030    2    1    2    0    0  0.00000000000E+00  0.00000000000E+00 -0.12223222033E+04  0.20839304729E+04  0.16878076452E+04 0.  0.
        4    1    3    3  502    0 -0.73781465800E+03 -0.18370685617E+03 -0.15909791274E+03  0.77680913827E+03  0.12699999809E+01 0. -1.
       -4    1    3    3    0  502  0.73781465800E+03  0.18370685617E+03 -0.10632242905E+04  0.13071213346E+04  0.12699999809E+01 0.  1.
</event>
<event>
 5   0  0.2488886E-04  0.1563838E+04  0.7818609E-02  0.8843077E-01
        2   -1    0    0  501    0  0.00000000000E+00  0.00000000000E+00  0.13218580766E+04  0.13218580766E+04  0.25500000920E-02 0.  1.
       -2   -1    0    0    0  501  0.00000000000E+00  0.00000000000E+00 -0.46252843629E+03  0.46252843630E+03  0.25500000920E-02 0. -1.
    10030    2    1    2    0    0  0.00000000000E+00  0.00000000000E+00  0.85932964036E+03  0.17843865129E+04  0.15638375225E+04 0.  0.
        3    1    3    3  502    0 -0.32562664065E+03  0.35113916003E+03 -0.27562274317E+03  0.55253898103E+03  0.10100000352E+00 0. -1.
       -3    1    3    3    0  502  0.32562664065E+03 -0.35113916003E+03  0.11349523835E+04  0.12318475319E+04  0.10100000352E+00 0.  1.
</event>
<event>
 5   0  0.2463085E-04  0.1821802E+04  0.7818609E-02  0.8694790E-01
        2   -1    0    0  501    0  0.00000000000E+00  0.00000000000E+00  0.77970354105E+03  0.77970354106E+03  0.25500000920E-02 0. -1.
       -2   -1    0    0    0  501  0.00000000000E+00  0.00000000000E+00 -0.10641749865E+04  0.10641749865E+04  0.25500000920E-02 0.  1.
    10030    2    1    2    0    0  0.00000000000E+00  0.00000000000E+00 -0.28447144546E+03  0.18438785276E+04  0.18218024100E+04 0.  0.
        2    1    3    3  502    0  0.40512857827E+02 -0.16630050345E+03  0.76328099434E+03  0.78223719256E+03  0.25500000920E-02 0. -1.
       -2    1    3    3    0  502 -0.40512857827E+02  0.16630050345E+03 -0.10477524398E+04  0.10616413350E+04  0.25500000920E-02 0.  1.
</event>
<event>
 5   0  0.2421737E-04  0.1962118E+04  0.7818609E-02  0.8624539E-01
        2   -1    0    0  501    0  0.00000000000E+00  0.00000000000E+00  0.83570142055E+03  0.83570142055E+03  0.25500000920E-02 0. -1.
       -2   -1    0    0    0  501  0.00000000000E+00  0.00000000000E+00 -0.11516996532E+04  0.11516996532E+04  0.25500000920E-02 0.  1.
    10030    2    1    2    0    0  0.00000000000E+00  0.00000000000E+00 -0.31599823264E+03  0.19874010737E+04  0.19621182800E+04 0.  0.
        1    1    3    3  502    0  0.48499684313E+03  0.52893894998E+03 -0.83555717195E+03  0.11014327661E+04  0.50400001928E-02 0.  1.
       -1    1    3    3    0  502 -0.48499684313E+03 -0.52893894998E+03  0.51955893932E+03  0.88596830762E+03  0.50400001928E-02 0. -1.
</event>
<event>
 5   0  0.1210633E-04  0.2106604E+04  0.7818609E-02  0.8558340E-01
        1   -1    0    0  501    0  0.00000000000E+00  0.00000000000E+00  0.13481660785E+04  0.13481660785E+04  0.50400001928E-02 0.  1.
       -1   -1    0    0    0  501  0.00000000000E+00  0.00000000000E+00 -0.82292916964E+03  0.82292916966E+03  0.50400001928E-02 0. -1.
    10030    2    1    2    0    0  0.00000000000E+00  0.00000000000E+00  0.52523690889E+03  0.21710952482E+04  0.21066040839E+04 0.  0.
        2    1    3    3  502    0  0.44045758778E+03  0.89809062902E+03  0.60268279212E+03  0.11678168574E+04  0.25500000920E-02 0.  1.
       -2    1    3    3    0  502 -0.44045758778E+03 -0.89809062902E+03 -0.77445883224E+02  0.10032783908E+04  0.25500000920E-02 0. -1.
</event>
<event>
 5   0  0.2463085E-04  0.2022970E+04  0.7818609E-02  0.8595956E-01
        2   -1    0    0  501    0  0.00000000000E+00  0.00000000000E+00  0.15801721008E+04  0.15801721008E+04  0.25500000920E-02 0.  1.
       -2   -1    0    0    0  501  0.00000000000E+00  0.00000000000E+00 -0.64746221515E+03  0.64746221515E+03  0.25500000920E-02 0. -1.
    10030    2    1    2    0    0  0.00000000000E+00  0.00000000000E+00  0.93270988567E+03  0.22276343160E+04  0.20229698255E+04 0.  0.
        2    1    3    3  502    0  0.45549103788E+03  0.45627998771E+01 -0.52812368080E+03  0.69742922721E+03  0.25500000920E-02 0. -1.
       -2    1    3    3    0  502 -0.45549103788E+03 -0.45627998771E+01  0.14608335665E+04  0.15302050888E+04  0.25500000920E-02 0.  1.
</event>
<event>
 5   0  0.1231056E-04  0.2001588E+04  0.7818609E-02  0.8605879E-01
        1   -1    0    0  501    0  0.00000000000E+00  0.00000000000E+00  0.11713118664E+04  0.11713118665E+04  0.50400001928E-02 0.  1.
       -1   -1    0    0    0  501  0.00000000000E+00  0.00000000000E+00 -0.85509952306E+03  0.85509952307E+03  0.50400001928E-02 0. -1.
    10030    2    1    2    0    0  0.00000000000E+00  0.00000000000E+00  0.31621234338E+03  0.20264113895E+04  0.20015875883E+04 0.  0.
        3    1    3    3  502    0 -0.53125526828E+03 -0.64439170424E+03 -0.40019971919E+03  0.92608458253E+03  0.10100000352E+00 0. -1.
       -3    1    3    3    0  502  0.53125526828E+03  0.64439170424E+03  0.71641206258E+03  0.11003268070E+04  0.10100000352E+00 0.  1.
</event>
<event>
 5   0  0.1258546E-04  0.2212096E+04  0.7818609E-02  0.8513410E-01
        1   -1    0    0  501    0  0.00000000000E+00  0.00000000000E+00  0.15643769039E+04  0.15643769039E+04  0.50400001928E-02 0.  1.
       -1   -1    0    0    0  501  0.00000000000E+00  0.00000000000E+00 -0.78199978335E+03  0.78199978337E+03  0.50400001928E-02 0. -1.
    10030    2    1    2    0    0  0.00000000000E+00  0.00000000000E+00  0.78237712054E+03  0.23463766873E+04  0.22120962004E+04 0.  0.
        4    1    3    3  502    0  0.77347164993E+03  0.64260064056E+03 -0.97364770711E+02  0.10102848549E+04  0.12699999809E+01 0. -1.
       -4    1    3    3    0  502 -0.77347164993E+03 -0.64260064056E+03  0.87974189125E+03  0.13360918324E+04  0.12699999809E+01 0.  1.
</event>
<event>
 5   0  0.1210633E-04  0.1975669E+04  0.7818609E-02  0.8618081E-01
       -1   -1    0    0    0  501  0.00000000000E+00  0.00000000000E+00  0.63260386855E+03  0.63260386857E+03  0.50400001928E-02 0. -1.
        1   -1    0    0  501    0  0.00000000000E+00  0.00000000000E+00 -0.15425407410E+04  0.15425407410E+04  0.50400001928E-02 0.  1.
    10030    2    1    2    0    0  0.00000000000E+00  0.00000000000E+00 -0.90993687243E+03  0.21751446096E+04  0.19756692438E+04 0.  0.
        2    1    3    3  502    0  0.64512250781E+03 -0.20053379941E+03 -0.12484436982E+04  0.14195099585E+04  0.25500000920E-02 0.  1.
       -2    1    3    3    0  502 -0.64512250781E+03  0.20053379941E+03  0.33850682575E+03  0.75563465105E+03  0.25500000920E-02 0. -1.
</event>
<event>
 5   0  0.1324930E-04  0.2025166E+04  0.7818609E-02  0.8594944E-01
        1   -1    0    0  501    0  0.00000000000E+00  0.00000000000E+00  0.14865835133E+04  0.14865835133E+04  0.50400001928E-02 0. -1.
       -1   -1    0    0    0  501  0.00000000000E+00  0.00000000000E+00 -0.68971868564E+03  0.68971868565E+03  0.50400001928E-02 0.  1.
    10030    2    1    2    0    0  0.00000000000E+00  0.00000000000E+00  0.79686482764E+03  0.21763021989E+04  0.20251660938E+04 0.  0.
        5    1    3    3  502    0 -0.52430659121E+03 -0.26420351640E+03  0.12849859862E+04  0.14127674878E+04  0.46999998093E+01 0. -1.
       -5    1    3    3    0  502  0.52430659121E+03  0.26420351640E+03 -0.48812115861E+03  0.76353471116E+03  0.46999998093E+01 0.  1.
</event>
<event>
 5   0  0.2421737E-04  0.2157618E+04  0.7818609E-02  0.8536278E-01
        2   -1    0    0  501    0  0.00000000000E+00  0.00000000000E+00  0.12138339738E+04  0.12138339738E+04  0.25500000920E-02 0. -1.
       -2   -1    0    0    0  501  0.00000000000E+00  0.00000000000E+00 -0.95880424831E+03  0.95880424831E+03  0.25500000920E-02 0.  1.
    10030    2    1    2    0    0  0.00000000000E+00  0.00000000000E+00  0.25502972553E+03  0.21726382222E+04  0.21576182896E+04 0.  0.
        1    1    3    3  502    0 -0.37265288640E+03  0.73974069804E+03  0.82351580748E+03  0.11680174482E+04  0.50400001928E-02 0. -1.
       -1    1    3    3    0  502  0.37265288640E+03 -0.73974069804E+03 -0.56848608195E+03  0.10046207740E+04  0.50400001928E-02 0.  1.
</event>
<event>
 5   0  0.2540506E-04  0.2214372E+04  0.7818609E-02  0.8512470E-01
       -2   -1    0    0    0  501  0.00000000000E+00  0.00000000000E+00  0.81686433528E+03  0.81686433529E+03  0.25500000920E-02 0.  1.
        2   -1    0    0  501    0  0.00000000000E+00  0.00000000000E+00 -0.15006914891E+04  0.15006914891E+04  0.25500000920E-02 0. -1.
    10030    2    1    2    0    0  0.00000000000E+00  0.00000000000E+00 -0.68382715384E+03  0.23175558244E+04  0.22143724671E+04 0.  0.
        4    1    3    3  502    0 -0.29719519148E+02  0.10520189503E+04  0.17958532984E+02  0.10525926294E+04  0.12699999809E+01 0.  1.
       -4    1    3    3    0  502  0.29719519148E+02 -0.10520189503E+04 -0.70178568682E+03  0.12649631950E+04  0.12699999809E+01 0. -1.
</event>
<event>
 5   0  0.2488886E-04  0.1997093E+04  0.7818609E-02  0.8607981E-01
       -2   -1    0    0    0  501  0.00000000000E+00  0.00000000000E+00  0.10680710224E+04  0.10680710224E+04  0.25500000920E-02 0. -1.
        2   -1    0    0  501    0  0.00000000000E+00  0.00000000000E+00 -0.93354766176E+03  0.93354766176E+03  0.25500000920E-02 0.  1.
    10030    2    1    2    0    0  0.00000000000E+00  0.00000000000E+00  0.13452336062E+03  0.20016186841E+04  0.19970930930E+04 0.  0.
        3    1    3    3  502    0  0.23590505026E+03  0.77052767191E+03 -0.52376190172E+03  0.96108825079E+03  0.10100000352E+00 0.  1.
       -3    1    3    3    0  502 -0.23590505026E+03 -0.77052767191E+03  0.65828526234E+03  0.10405304333E+04  0.10100000352E+00 0. -1.
</event>
<event>
 5   0  0.1210633E-04  0.2060386E+04  0.7818609E-02  0.8578897E-01
       -1   -1    0    0    0  501  0.00000000000E+00  0.00000000000E+00  0.19523894902E+04  0.19523894902E+04  0.50400001928E-02 0. -1.
        1   -1    0    0  501    0  0.00000000000E+00  0.00000000000E+00 -0.54358888320E+03  0.54358888322E+03  0.50400001928E-02 0.  1.
    10030    2    1    2    0    0  0.00000000000E+00  0.00000000000E+00  0.14088006070E+04  0.24959783734E+04  0.20603856169E+04 0.  0.
        2    1    3    3  502    0  0.17752296414E+03  0.92700039429E+03  0.20425666844E+03  0.96569400973E+03  0.25500000920E-02 0. -1.
       -2    1    3    3    0  502 -0.17752296414E+03 -0.92700039429E+03  0.12045439385E+04  0.15302843637E+04  0.25500000920E-02 0.  1.
</event>
<event>
 5   0  0.9099125E-05  0.1888682E+04  0.7818609E-02  0.8660511E-01
       -4   -1    0    0    0  501  0.00000000000E+00  0.00000000000E+00  0.82294467172E+03  0.82294565167E+03  0.12699999809E+01 0.  1.
        4   -1    0    0  501    0  0.00000000000E+00  0.00000000000E+00 -0.10836428202E+04  0.10836435644E+04  0.12699999809E+01 0. -1.
    10030    2    1    2    0    0  0.00000000000E+00  0.00000000000E+00 -0.26069814847E+03  0.19065892161E+04  0.18886817927E+04 0.  0.
        4    1    3    3  502    0  0.84770903671E+03 -0.14857458802E+03  0.26204338203E+03  0.89964068722E+03  0.12699999809E+01 0. -1.
       -4    1    3    3    0  502 -0.84770903671E+03  0.14857458802E+03 -0.52274153050E+03  0.10069485288E+04  0.12699999809E+01 0.  1.
</event>
<event>
 5   0  0.9099125E-05  0.1871408E+04  0.7818609E-02  0.8669221E-01
       -3   -1    0    0    0  501  0.00000000000E+00  0.00000000000E+00  0.13139503462E+04  0.13139503501E+04  0.10100000352E+00 0.  1.
        3   -1    0    0  501    0  0.00000000000E+00  0.00000000000E+00 -0.66634316582E+03  0.66634317348E+03  0.10100000352E+00 0. -1.
    10030    2    1    2    0    0  0.00000000000E+00  0.00000000000E+00  0.64760718039E+03  0.19802935236E+04  0.18714078602E+04 0.  0.
        3    1    3    3  502    0 -0.34931873178E+03 -0.60459232822E+03  0.98293097424E+03  0.12056984573E+04  0.10100000352E+00 0.  1.
       -3    1    3    3    0  502  0.34931873178E+03  0.60459232822E+03 -0.33532379385E+03  0.77459506623E+03  0.10100000352E+00 0. -1.
</event>
<event>
 5   0  0.9099125E-05  0.2007640E+04  0.7818609E-02  0.8603057E-01
        3   -1    0    0  501    0  0.00000000000E+00  0.00000000000E+00  0.96062289222E+03  0.96062289753E+03  0.10100000352E+00 0.  1.
       -3   -1    0    0    0  501  0.00000000000E+00  0.00000000000E+00 -0.10489597961E+04  0.10489598010E+04  0.10100000352E+00 0. -1.
    10030    2    1    2    0    0  0.00000000000E+00  0.00000000000E+00 -0.88336903905E+02  0.20095826985E+04  0.20076402102E+04 0.  0.
        1    1    3    3  502    0  0.44595444123E+03 -0.89303570712E+03  0.62078798194E+02  0.10001209502E+04  0.50400001928E-02 0. -1.
       -1    1    3    3    0  502 -0.44595444123E+03  0.89303570712E+03 -0.15041570210E+03  0.10094617483E+04  0.50400001928E-02 0.  1.
</event>
<event>
 5   0  0.1258546E-04  0.2272804E+04  0.7818609E-02  0.8488722E-01
       -1   -1    0    0    0  501  0.00000000000E+00  0.00000000000E+00  0.91436684597E+03  0.91436684598E+03  0.50400001928E-02 0.  1.
        1   -1    0    0  501    0  0.00000000000E+00  0.00000000000E+00 -0.14123538308E+04  0.14123538308E+04  0.50400001928E-02 0. -1.
    10030    2    1    2    0    0  0.00000000000E+00  0.00000000000E+00 -0.49798698484E+03  0.23267206768E+04  0.22728040106E+04 0.  0.
        4    1    3    3  502    0  0.70862028741E+03 -0.39952768539E+03 -0.10613176904E+04  0.13372217228E+04  0.12699999809E+01 0. -1.
       -4    1    3    3    0  502 -0.70862028741E+03  0.39952768539E+03  0.56333070559E+03  0.98949895396E+03  0.12699999809E+01 0.  1.
</event>
<event>
 5   0  0.1207228E-04  0.1414817E+04  0.7818609E-02  0.8943162E-01
        1   -1    0    0  501    0  0.00000000000E+00  0.00000000000E+00  0.44307436663E+03  0.44307436665E+03  0.50400001928E-02 0.  1.
       -1   -1    0    0    0  501  0.00000000000E+00  0.00000000000E+00 -0.11294425089E+04  0.11294425089E+04  0.50400001928E-02 0. -1.
    10030    2    1    2    0    0  0.00000000000E+00  0.00000000000E+00 -0.68636814224E+03  0.15725168755E+04  0.14148173370E+04 0.  0.
        1    1    3    3  502    0  0.61222709249E+03 -0.17872768565E+03 -0.68333786903E+03  0.93472789713E+03  0.50400001928E-02 0. -1.
       -1    1    3    3    0  502 -0.61222709249E+03  0.17872768565E+03 -0.30302732161E+01  0.63778897841E+03  0.50400001928E-02 0.  1.
</event>
<event>
 5   0  0.2540506E-04  0.1983175E+04  0.7818609E-02  0.8614528E-01
       -2   -1    0    0    0  501  0.00000000000E+00  0.00000000000E+00  0.89267880947E+03  0.89267880948E+03  0.25500000920E-02 0. -1.
        2   -1    0    0  501    0  0.00000000000E+00  0.00000000000E+00 -0.11014547331E+04  0.11014547331E+04  0.25500000920E-02 0.  1.
    10030    2    1    2    0    0  0.00000000000E+00  0.00000000000E+00 -0.20877592366E+03  0.19941335426E+04  0.19831745257E+04 0.  0.
        4    1    3    3  502    0 -0.58997578925E+03 -0.49108868870E+03 -0.73555411917E+03  0.10631467477E+04  0.12699999809E+01 0.  1.
       -4    1    3    3    0  502  0.58997578925E+03  0.49108868870E+03  0.52677819551E+03  0.93098679488E+03  0.12699999809E+01 0. -1.
</event>
<event>
 5   0  0.2596061E-04  0.1992745E+04  0.7818609E-02  0.8610020E-01
       -2   -1    0    0    0  501  0.00000000000E+00  0.00000000000E+00  0.11001052974E+04  0.11001052974E+04  0.25500000920E-02 0.  1.
        2   -1    0    0  501    0  0.00000000000E+00  0.00000000000E+00 -0.90242106411E+03  0.90242106412E+03  0.25500000920E-02 0. -1.
    10030    2    1    2    0    0  0.00000000000E+00  0.00000000000E+00  0.19768423325E+03  0.20025263615E+04  0.19927450345E+04 0.  0.
        5    1    3    3  502    0  0.91917549794E+03  0.32657166931E+03 -0.10514056973E+03  0.98112653649E+03  0.46999998093E+01 0. -1.
       -5    1    3    3    0  502 -0.91917549794E+03 -0.32657166931E+03  0.30282480297E+03  0.10213998250E+04  0.46999998093E+01 0.  1.
</event>
<event>
 5   0  0.1324930E-04  0.1993292E+04  0.7818609E-02  0.8609763E-01
        1   -1    0    0  501    0  0.00000000000E+00  0.00000000000E+00  0.15620528110E+04  0.15620528110E+04  0.50400001928E-02 0.  1.
       -1   -1    0    0    0  501  0.00000000000E+00  0.00000000000E+00 -0.63589604219E+03  0.63589604221E+03  0.50400001928E-02 0. -1.
    10030    2    1    2    0    0  0.00000000000E+00  0.00000000000E+00  0.92615676878E+03  0.21979488532E+04  0.19932919507E+04 0.  0.
        5    1    3    3  502    0  0.11755549670E+03 -0.71239339926E+03  0.12206053495E+04  0.14181759973E+04  0.46999998093E+01 0.  1.
       -5    1    3    3    0  502 -0.11755549670E+03  0.71239339926E+03 -0.29444858071E+03  0.77977285590E+03  0.46999998093E+01 0. -1.
</event>
<event>
 5   0  0.2421737E-04  0.2041010E+04  0.7818609E-02  0.8587684E-01
       -2   -1    0    0    0  501  0.00000000000E+00  0.00000000000E+00  0.39083939956E+03  0.39083939957E+03  0.25500000920E-02 0. -1.
        2   -1    0    0  501    0  0.00000000000E+00  0.00000000000E+00 -0.26645995307E+04  0.26645995307E+04  0.25500000920E-02 0.  1.
    10030    2    1    2    0    0  0.00000000000E+00  0.00000000000E+00 -0.22737601311E+04  0.30554389303E+04  0.20410100251E+04 0.  0.
        1    1    3    3  502    0  0.91680514583E+03  0.42716427903E+03 -0.93365135719E+03  0.13764831468E+04  0.50400001928E-02 0.  1.
       -1    1    3    3    0  502 -0.91680514583E+03 -0.42716427903E+03 -0.13401087740E+04  0.16789557834E+04  0.50400001928E-02 0. -1.
</event>
<event>
 5   0  0.2463085E-04  0.2045324E+04  0.7818609E-02  0.8585719E-01
       -2   -1    0    0    0  501  0.00000000000E+00  0.00000000000E+00  0.10615812058E+04  0.10615812058E+04  0.25500000920E-02 0.  1.
        2   -1    0    0  501    0  0.00000000000E+00  0.00000000000E+00 -0.98516920596E+03  0.98516920596E+03  0.25500000920E-02 0. -1.
    10030    2    1    2    0    0  0.00000000000E+00  0.00000000000E+00  0.76411999881E+02  0.20467504118E+04  0.20453235574E+04 0.  0.
        2    1    3    3  502    0 -0.84987463936E+03 -0.80584341899E+02 -0.52526440529E+03  0.10023389817E+04  0.25500000920E-02 0. -1.
       -2    1    3    3    0  502  0.84987463936E+03  0.80584341899E+02  0.60167640517E+03  0.10444114301E+04  0.25500000920E-02 0.  1.
</event>
<event>
 5   0  0.2463085E-04  0.1976194E+04  0.7818609E-02  0.8617832E-01
        2   -1    0    0  501    0  0.00000000000E+00  0.00000000000E+00  0.28416553905E+04  0.28416553905E+04  0.25500000920E-02 0. -1.
       -2   -1    0    0    0  501  0.00000000000E+00  0.00000000000E+00 -0.34357992157E+03  0.34357992158E+03  0.25500000920E-02 0.  1.
    10030    2    1    2    0    0  0.00000000000E+00  0.00000000000E+00  0.24980754689E+04  0.31852353120E+04  0.19761940554E+04 0.  0.
        2    1    3    3  502    0 -0.90319397730E+03  0.17280832031E+03  0.66630096675E+03  0.11355963431E+04  0.25500000920E-02 0. -1.
       -2    1    3    3    0  502  0.90319397730E+03 -0.17280832031E+03  0.18317745021E+04  0.20496389689E+04  0.25500000920E-02 0.  1.
</event>
<event>
 5   0  0.1258546E-04  0.1984281E+04  0.7818609E-02  0.8614005E-01
       -1   -1    0    0    0  501  0.00000000000E+00  0.00000000000E+00  0.90492754835E+03  0.90492754836E+03  0.50400001928E-02 0. -1.
        1   -1    0    0  501    0  0.00000000000E+00  0.00000000000E+00 -0.10877583986E+04  0.10877583986E+04  0.50400001928E-02 0.  1.
    10030    2    1    2    0    0  0.00000000000E+00  0.00000000000E+00 -0.18283085026E+03  0.19926859470E+04  0.19842807673E+04 0.  0.
        4    1    3    3  502    0 -0.18097669724E+03  0.28111171239E+03  0.84665300834E+03  0.91027429340E+03  0.12699999809E+01 0. -1.
       -4    1    3    3    0  502  0.18097669724E+03 -0.28111171239E+03 -0.10294838586E+04  0.10824116536E+04  0.12699999809E+01 0.  1.
</event>
<event>
 5   0  0.1207228E-04  0.2025194E+04  0.7818609E-02  0.8594932E-01
        1   -1    0    0  501    0  0.00000000000E+00  0.00000000000E+00  0.23450203731E+04  0.23450203731E+04  0.50400001928E-02 0. -1.
       -1   -1    0    0    0  501  0.00000000000E+00  0.00000000000E+00 -0.43724660965E+03  0.43724660967E+03  0.50400001928E-02 0.  1.
    10030    2    1    2    0    0  0.00000000000E+00  0.00000000000E+00  0.19077737634E+04  0.27822669827E+04  0.20251935292E+04 0.  0.
        1    1    3    3  502    0  0.25683649206E+03  0.55090500336E+03 -0.15873622250E+03  0.62821850875E+03  0.50400001928E-02 0.  1.
       -1    1    3    3    0  502 -0.25683649206E+03 -0.55090500336E+03  0.20665099859E+04  0.21540484740E+04  0.50400001928E-02 0. -1.
</event>
<event>
 5   0  0.2596061E-04  0.2000323E+04  0.7818609E-02  0.8606470E-01
        2   -1    0    0  501    0  0.00000000000E+00  0.00000000000E+00  0.18374813779E+04  0.18374813779E+04  0.25500000920E-02 0. -1.
       -2   -1    0    0    0  501  0.00000000000E+00  0.00000000000E+00 -0.54439880272E+03  0.54439880272E+03  0.25500000920E-02 0.  1.
    10030    2    1    2    0    0  0.00000000000E+00  0.00000000000E+00  0.12930825752E+04  0.23818801806E+04  0.20003226361E+04 0.  0.
        5    1    3    3  502    0 -0.59303825431E+03 -0.67783630701E+03  0.11644059878E+04  0.14720801013E+04  0.46999998093E+01 0. -1.
       -5    1    3    3    0  502  0.59303825431E+03  0.67783630701E+03  0.12867658736E+03  0.90980007931E+03  0.46999998093E+01 0.  1.
</event>
<event>
 5   0  0.1324930E-04  0.1997657E+04  0.7818609E-02  0.8607717E-01
       -1   -1    0    0    0  501  0.00000000000E+00  0.00000000000E+00  0.47114452935E+03  0.47114452938E+03  0.50400001928E-02 0.  1.
        1   -1    0    0  501    0  0.00000000000E+00  0.00000000000E+00 -0.21175209297E+04  0.21175209297E+04  0.50400001928E-02 0. -1.
    10030    2    1    2    0    0  0.00000000000E+00  0.00000000000E+00 -0.16463764004E+04  0.25886654591E+04  0.19976570295E+04 0.  0.
        5    1    3    3  502    0 -0.33975921152E+03 -0.80320090706E+03 -0.14541335405E+04  0.16956103510E+04  0.46999998093E+01 0. -1.
       -5    1    3    3    0  502  0.33975921152E+03  0.80320090706E+03 -0.19224285988E+03  0.89305510809E+03  0.46999998093E+01 0.  1.
</event>
<event>
 5   0  0.2463085E-04  0.2092318E+04  0.7818609E-02  0.8564635E-01
       -2   -1    0    0    0  501  0.00000000000E+00  0.00000000000E+00  0.87719538085E+03  0.87719538086E+03  0.25500000920E-02 0.  1.
        2   -1    0    0  501    0  0.00000000000E+00  0.00000000000E+00 -0.12476675590E+04  0.12476675590E+04  0.25500000920E-02 0. -1.
    10030    2    1    2    0    0  0.00000000000E+00  0.00000000000E+00 -0.37047217819E+03  0.21248629399E+04  0.20923175855E+04 0.  0.
        2    1    3    3  502    0 -0.41023574897E+03  0.87677553231E+03 -0.58816887163E+03  0.11326832414E+04  0.25500000920E-02 0. -1.
       -2    1    3    3    0  502  0.41023574897E+03 -0.87677553231E+03  0.21769669344E+03  0.99217969851E+03  0.25500000920E-02 0.  1.
</event>
<event>
 5   0  0.2540506E-04  0.1965132E+04  0.7818609E-02  0.8623098E-01
       -2   -1    0    0    0  501  0.00000000000E+00  0.00000000000E+00  0.36167958484E+03  0.36167958485E+03  0.25500000920E-02 0. -1.
        2   -1    0    0  501    0  0.00000000000E+00  0.00000000000E+00 -0.26693139733E+04  0.26693139733E+04  0.25500000920E-02 0.  1.
    10030    2    1    2    0    0  0.00000000000E+00  0.00000000000E+00 -0.23076343884E+04  0.30309935581E+04  0.19651324329E+04 0.  0.
        4    1    3    3  502    0 -0.32533149418E+03 -0.75455425006E+03 -0.19847642692E+04  0.21481348921E+04  0.12699999809E+01 0.  1.
       -4    1    3    3    0  502  0.32533149418E+03  0.75455425006E+03 -0.32287011923E+03  0.88285866603E+03  0.12699999809E+01 0. -1.
</event>
<event>
 5   0  0.1258546E-04  0.1975533E+04  0.7818609E-02  0.8618146E-01
       -1   -1    0    0    0  501  0.00000000000E+00  0.00000000000E+00  0.78234913065E+03  0.78234913067E+03  0.50400001928E-02 0. -1.
        1   -1    0    0  501    0  0.00000000000E+00  0.00000000000E+00 -0.12471191510E+04  0.12471191511E+04  0.50400001928E-02 0.  1.
    10030    2    1    2    0    0  0.00000000000E+00  0.00000000000E+00 -0.46477002039E+03  0.20294682817E+04  0.19755329242E+04 0.  0.
        4    1    3    3  502    0 -0.73490768736E+03  0.18853909150E+03 -0.88214391766E+03  0.11635359050E+04  0.12699999809E+01 0.  1.
       -4    1    3    3    0  502  0.73490768736E+03 -0.18853909150E+03  0.41737389727E+03  0.86593237668E+03  0.12699999809E+01 0. -1.
</event>
<event>
 5   0  0.2596061E-04  0.1979396E+04  0.7818609E-02  0.8616315E-01
       -2   -1    0    0    0  501  0.00000000000E+00  0.00000000000E+00  0.88971225051E+03  0.88971225052E+03  0.25500000920E-02 0. -1.
        2   -1    0    0  501    0  0.00000000000E+00  0.00000000000E+00 -0.11009205510E+04  0.11009205510E+04  0.25500000920E-02 0.  1.
    10030    2    1    2    0    0  0.00000000000E+00  0.00000000000E+00 -0.21120830044E+03  0.19906328015E+04  0.19793963737E+04 0.  0.
        5    1    3    3  502    0 -0.55468966673E+03  0.41232431952E+03 -0.81799562213E+03  0.10709019090E+04  0.46999998093E+01 0.  1.
       -5    1    3    3    0  502  0.55468966673E+03 -0.41232431952E+03  0.60678732169E+03  0.91973089249E+03  0.46999998093E+01 0. -1.
</event>
<event>
 5   0  0.2488886E-04  0.1929873E+04  0.7818609E-02  0.8640128E-01
       -2   -1    0    0    0  501  0.00000000000E+00  0.00000000000E+00  0.34076946483E+03  0.34076946484E+03  0.25500000920E-02 0. -1.
        2   -1    0    0  501    0  0.00000000000E+00  0.00000000000E+00 -0.27323521180E+04  0.27323521180E+04  0.25500000920E-02 0.  1.
    10030    2    1    2    0    0  0.00000000000E+00  0.00000000000E+00 -0.23915826531E+04  0.30731215828E+04  0.19298727098E+04 0.  0.
        3    1    3    3  502    0  0.41392798674E+03  0.21777723945E+03 -0.25397762431E+04  0.25824845943E+04  0.10100000352E+00 0.  1.
       -3    1    3    3    0  502 -0.41392798674E+03 -0.21777723945E+03  0.14819358999E+03  0.49063698856E+03  0.10100000352E+00 0. -1.
</event>
<event>
 5   0  0.2540506E-04  0.1995275E+04  0.7818609E-02  0.8608833E-01
       -2   -1    0    0    0  501  0.00000000000E+00  0.00000000000E+00  0.12205436171E+04  0.12205436171E+04  0.25500000920E-02 0.  1.
        2   -1    0    0  501    0  0.00000000000E+00  0.00000000000E+00 -0.81544055596E+03  0.81544055597E+03  0.25500000920E-02 0. -1.
    10030    2    1    2    0    0  0.00000000000E+00  0.00000000000E+00  0.40510306117E+03  0.20359841731E+04  0.19952751848E+04 0.  0.
        4    1    3    3  502    0  0.51532106901E+03 -0.84994564493E+03  0.11527429049E+03  0.10006263930E+04  0.12699999809E+01 0. -1.
       -4    1    3    3    0  502 -0.51532106901E+03  0.84994564493E+03  0.28982877068E+03  0.10353577801E+04  0.12699999809E+01 0.  1.
</event>
<event>
 5   0  0.1210633E-04  0.1987866E+04  0.7818609E-02  0.8612315E-01
       -1   -1    0    0    0  501  0.00000000000E+00  0.00000000000E+00  0.11174730473E+04  0.11174730473E+04  0.50400001928E-02 0. -1.
        1   -1    0    0  501    0  0.00000000000E+00  0.00000000000E+00 -0.88405069158E+03  0.88405069159E+03  0.50400001928E-02 0.  1.
    10030    2    1    2    0    0  0.00000000000E+00  0.00000000000E+00  0.23342235569E+03  0.20015237389E+04  0.19878660119E+04 0.  0.
        2    1    3    3  502    0 -0.99023649235E+03 -0.65969227488E+02  0.17169931385E+03  0.10071747138E+04  0.25500000920E-02 0.  1.
       -2    1    3    3    0  502  0.99023649235E+03  0.65969227488E+02  0.61723041839E+02  0.99434902507E+03  0.25500000920E-02 0. -1.
</event>
<event>
 5   0  0.2488886E-04  0.2024669E+04  0.7818609E-02  0.8595173E-01
       -2   -1    0    0    0  501  0.00000000000E+00  0.00000000000E+00  0.74191834704E+03  0.74191834704E+03  0.25500000920E-02 0.  1.
        2   -1    0    0  501    0  0.00000000000E+00  0.00000000000E+00 -0.13813121929E+04  0.13813121929E+04  0.25500000920E-02 0. -1.
    10030    2    1    2    0    0  0.00000000000E+00  0.00000000000E+00 -0.63939384588E+03  0.21232305400E+04  0.20246687225E+04 0.  0.
        3    1    3    3  502    0  0.59343043417E+03 -0.69581735537E+03 -0.77499743369E+03  0.11987253667E+04  0.10100000352E+00 0. -1.
       -3    1    3    3    0  502 -0.59343043417E+03  0.69581735537E+03  0.13560358781E+03  0.92450517331E+03  0.10100000352E+00 0.  1.
</event>
<event>
 5   0  0.1231056E-04  0.1899892E+04  0.7818609E-02  0.8654910E-01
       -1   -1    0    0    0  501  0.00000000000E+00  0.00000000000E+00  0.12021945129E+04  0.12021945130E+04  0.50400001928E-02 0.  1.
        1   -1    0    0  501    0  0.00000000000E+00  0.00000000000E+00 -0.75062526160E+03  0.75062526162E+03  0.50400001928E-02 0. -1.
    10030    2    1    2    0    0  0.00000000000E+00  0.00000000000E+00  0.45156925134E+03  0.19528197746E+04  0.18998921767E+04 0.  0.
        3    1    3    3  502    0  0.76289608884E+03  0.47357169793E+03  0.54444879540E+03  0.10500976604E+04  0.10100000352E+00 0.  1.
       -3    1    3    3    0  502 -0.76289608884E+03 -0.47357169793E+03 -0.92879544059E+02  0.90272211414E+03  0.10100000352E+00 0. -1.
</event>
<event>
 5   0  0.2540506E-04  0.1963234E+04  0.7818609E-02  0.8624006E-01
        2   -1    0    0  501    0  0.00000000000E+00  0.00000000000E+00  0.14961791073E+04  0.14961791073E+04  0.25500000920E-02 0.  1.
       -2   -1    0    0    0  501  0.00000000000E+00  0.00000000000E+00 -0.64402172071E+03  0.64402172071E+03  0.25500000920E-02 0. -1.
    10030    2    1    2    0    0  0.00000000000E+00  0.00000000000E+00  0.85215738663E+03  0.21402008280E+04  0.19632339068E+04 0.  0.
        4    1    3    3  502    0  0.48251189242E+03  0.42029839711E+03  0.12375576217E+04  0.13932045610E+04  0.12699999809E+01 0.  1.
       -4    1    3    3    0  502 -0.48251189242E+03 -0.42029839711E+03 -0.38540023503E+03  0.74699626706E+03  0.12699999809E+01 0. -1.
</event>
<event>
 5   0  0.1207228E-04  0.2003251E+04  0.7818609E-02  0.8605102E-01
        1   -1    0    0  501    0  0.00000000000E+00  0.00000000000E+00  0.16108927466E+04  0.16108927467E+04  0.50400001928E-02 0.  1.
       -1   -1    0    0    0  501  0.00000000000E+00  0.00000000000E+00 -0.62279378362E+03  0.62279378364E+03  0.50400001928E-02 0. -1.
    10030    2    1    2    0    0  0.00000000000E+00  0.00000000000E+00  0.98809896302E+03  0.22336865303E+04  0.20032513459E+04 0.  0.
        1    1    3    3  502    0 -0.66941463625E+03 -0.19625757193E+03  0.12954927943E+04  0.14713716627E+04  0.50400001928E-02 0.  1.
       -1    1    3    3    0  502  0.66941463625E+03  0.19625757193E+03 -0.30739383128E+03  0.76231486756E+03  0.50400001928E-02 0. -1.
</event>
<event>
 5   0  0.2596061E-04  0.1963111E+04  0.7818609E-02  0.8624064E-01
       -2   -1    0    0    0  501  0.00000000000E+00  0.00000000000E+00  0.92101902277E+03  0.92101902277E+03  0.25500000920E-02 0. -1.
        2   -1    0    0  501    0  0.00000000000E+00  0.00000000000E+00 -0.10460708591E+04  0.10460708591E+04  0.25500000920E-02 0.  1.
    10030    2    1    2    0    0  0.00000000000E+00  0.00000000000E+00 -0.12505183631E+03  0.19670898818E+04  0.19631109601E+04 0.  0.
        5    1    3    3  502    0  0.45102877702E+03  0.78546391224E+03 -0.44151010968E+03  0.10076377236E+04  0.46999998093E+01 0. -1.
       -5    1    3    3    0  502 -0.45102877702E+03 -0.78546391224E+03  0.31645827338E+03  0.95945215822E+03  0.46999998093E+01 0.  1.
</event>
<event>
 5   0  0.1324930E-04  0.1977879E+04  0.7818609E-02  0.8617034E-01
       -1   -1    0    0    0  501  0.00000000000E+00  0.00000000000E+00  0.55635807471E+03  0.55635807474E+03  0.50400001928E-02 0. -1.
        1   -1    0    0  501    0  0.00000000000E+00  0.00000000000E+00 -0.17578622347E+04  0.17578622347E+04  0.50400001928E-02 0.  1.
    10030    2    1    2    0    0  0.00000000000E+00  0.00000000000E+00 -0.12015041600E+04  0.23142203095E+04  0.19778785085E+04 0.  0.
        5    1    3    3  502    0  0.47654102523E+02  0.49770289625E+03 -0.15990741702E+04  0.16754221493E+04  0.46999998093E+01 0.  1.
       -5    1    3    3    0  502 -0.47654102523E+02 -0.49770289625E+03  0.39757001022E+03  0.63879816018E+03  0.46999998093E+01 0. -1.
</event>
<event>
 5   0  0.1324930E-04  0.1522021E+04  0.7818609E-02  0.8869940E-01
       -1   -1    0    0    0  501  0.00000000000E+00  0.00000000000E+00  0.62023558214E+03  0.62023558216E+03  0.50400001928E-02 0.  1.
        1   -1    0    0  501    0  0.00000000000E+00  0.00000000000E+00 -0.93373674099E+03  0.93373674101E+03  0.50400001928E-02 0. -1.
    10030    2    1    2    0    0  0.00000000000E+00  0.00000000000E+00 -0.31350115885E+03  0.15539723232E+04  0.15220206978E+04 0.  0.
        5    1    3    3  502    0 -0.58537777849E+03 -0.48186701264E+03 -0.90176677210E+02  0.76355542335E+03  0.46999998093E+01 0.  1.
       -5    1    3    3    0  502  0.58537777849E+03  0.48186701264E+03 -0.22332448164E+03  0.79041689982E+03  0.46999998093E+01 0. -1.
</event>
<event>
 5   0  0.2596061E-04  0.1988978E+04  0.7818609E-02  0.8611791E-01
        2   -1    0    0  501    0  0.00000000000E+00  0.00000000000E+00  0.19611093873E+04  0.19611093873E+04  0.25500000920E-02 0.  1.
       -2   -1    0    0    0  501  0.00000000000E+00  0.00000000000E+00 -0.50431079292E+03  0.50431079293E+03  0.25500000920E-02 0. -1.
    10030    2    1    2    0    0  0.00000000000E+00  0.00000000000E+00  0.14567985944E+04  0.24654201802E+04  0.19889782604E+04 0.  0.
        5    1    3    3  502    0 -0.64352422881E+03  0.62037908143E+03  0.12686926181E+04  0.15519654271E+04  0.46999998093E+01 0.  1.
       -5    1    3    3    0  502  0.64352422881E+03 -0.62037908143E+03  0.18810597633E+03  0.91345475316E+03  0.46999998093E+01 0. -1.
</event>
<event>
 5   0  0.1258546E-04  0.1988798E+04  0.7818609E-02  0.8611876E-01
        1   -1    0    0  501    0  0.00000000000E+00  0.00000000000E+00  0.24367410365E+04  0.24367410365E+04  0.50400001928E-02 0.  1.
       -1   -1    0    0    0  501  0.00000000000E+00  0.00000000000E+00 -0.40579981512E+03  0.40579981516E+03  0.50400001928E-02 0. -1.
    10030    2    1    2    0    0  0.00000000000E+00  0.00000000000E+00  0.20309412213E+04  0.28425408516E+04  0.19887976892E+04 0.  0.
        4    1    3    3  502    0  0.23541228460E+03 -0.18677920796E+03  0.23702870999E+04  0.23892609663E+04  0.12699999809E+01 0.  1.
       -4    1    3    3    0  502 -0.23541228460E+03  0.18677920796E+03 -0.33934587854E+03  0.45327988534E+03  0.12699999809E+01 0. -1.
</event>
<event>
 5   0  0.1258546E-04  0.1880777E+04  0.7818609E-02  0.8664484E-01
        1   -1    0    0  501    0  0.00000000000E+00  0.00000000000E+00  0.95554107050E+03  0.95554107052E+03  0.50400001928E-02 0. -1.
       -1   -1    0    0    0  501  0.00000000000E+00  0.00000000000E+00 -0.92547624608E+03  0.92547624610E+03  0.50400001928E-02 0.  1.
    10030    2    1    2    0    0  0.00000000000E+00  0.00000000000E+00  0.30064824419E+02  0.18810173166E+04  0.18807770340E+04 0.  0.
        4    1    3    3  502    0  0.64862317269E+03 -0.48615424171E+03 -0.46175795873E+03  0.93288798482E+03  0.12699999809E+01 0. -1.
       -4    1    3    3    0  502 -0.64862317269E+03  0.48615424171E+03  0.49182278315E+03  0.94812933179E+03  0.12699999809E+01 0.  1.
</event>
<event>
 5   0  0.1324930E-04  0.2027620E+04  0.7818609E-02  0.8593815E-01
       -1   -1    0    0    0  501  0.00000000000E+00  0.00000000000E+00  0.55709811722E+03  0.55709811725E+03  0.50400001928E-02 0.  1.
        1   -1    0    0  501    0  0.00000000000E+00  0.00000000000E+00 -0.18449374146E+04  0.18449374146E+04  0.50400001928E-02 0. -1.
    10030    2    1    2    0    0  0.00000000000E+00  0.00000000000E+00 -0.12878392973E+04  0.24020355318E+04  0.20276204379E+04 0.  0.
        5    1    3    3  502    0  0.96739023653E+02 -0.77666301801E+03  0.11944951447E+03  0.79174121956E+03  0.46999998093E+01 0.  1.
       -5    1    3    3    0  502 -0.96739023653E+02  0.77666301801E+03 -0.14072888118E+04  0.16102943123E+04  0.46999998093E+01 0. -1.
</event>
<event>
 5   0  0.1210633E-04  0.2065204E+04  0.7818609E-02  0.8576728E-01
        1   -1    0    0  501    0  0.00000000000E+00  0.00000000000E+00  0.18309701885E+04  0.18309701885E+04  0.50400001928E-02 0.  1.
       -1   -1    0    0    0  501  0.00000000000E+00  0.00000000000E+00 -0.58235058962E+03  0.58235058964E+03  0.50400001928E-02 0. -1.
    10030    2    1    2    0    0  0.00000000000E+00  0.00000000000E+00  0.12486195989E+04  0.24133207781E+04  0.20652036886E+04 0.  0.
        2    1    3    3  502    0  0.86827210550E+03  0.40206185601E+03  0.10779717883E+04  0.14413789792E+04  0.25500000920E-02 0.  1.
       -2    1    3    3    0  502 -0.86827210550E+03 -0.40206185601E+03  0.17064781054E+03  0.97194179893E+03  0.25500000920E-02 0. -1.
</event>
<event>
 5   0  0.1258546E-04  0.1795571E+04  0.7818609E-02  0.8708658E-01
        1   -1    0    0  501    0  0.00000000000E+00  0.00000000000E+00  0.15506270028E+04  0.15506270028E+04  0.50400001928E-02 0.  1.
       -1   -1    0    0    0  501  0.00000000000E+00  0.00000000000E+00 -0.51980169028E+03  0.51980169030E+03  0.50400001928E-02 0. -1.
    10030    2    1    2    0    0  0.00000000000E+00  0.00000000000E+00  0.10308253125E+04  0.20704286931E+04  0.17955707027E+04 0.  0.
        4    1    3    3  502    0  0.56422726983E+03 -0.63510414096E+03  0.85021632552E+03  0.12019064419E+04  0.12699999809E+01 0.  1.
       -4    1    3    3    0  502 -0.56422726983E+03  0.63510414096E+03  0.18060898703E+03  0.86852225129E+03  0.12699999809E+01 0. -1.
</event>
<event>
 5   0  0.1258546E-04  0.1559752E+04  0.7818609E-02  0.8845663E-01
       -1   -1    0    0    0  501  0.00000000000E+00  0.00000000000E+00  0.10871942129E+04  0.10871942129E+04  0.50400001928E-02 0. -1.
        1   -1    0    0  501    0  0.00000000000E+00  0.00000000000E+00 -0.55942765282E+03  0.55942765284E+03  0.50400001928E-02 0.  1.
    10030    2    1    2    0    0  0.00000000000E+00  0.00000000000E+00  0.52776656008E+03  0.16466218657E+04  0.15597519119E+04 0.  0.
        4    1    3    3  502    0 -0.60866579082E+03 -0.42807820049E+03  0.17474309140E+02  0.74433322849E+03  0.12699999809E+01 0.  1.
       -4    1    3    3    0  502  0.60866579082E+03  0.42807820049E+03  0.51029225094E+03  0.90228863726E+03  0.12699999809E+01 0. -1.
</event>
<event>
 5   0  0.1207228E-04  0.1968494E+04  0.7818609E-02  0.8621494E-01
        1   -1    0    0  501    0  0.00000000000E+00  0.00000000000E+00  0.12775029014E+04  0.12775029014E+04  0.50400001928E-02 0. -1.
       -1   -1    0    0    0  501  0.00000000000E+00  0.00000000000E+00 -0.75830896189E+03  0.75830896191E+03  0.50400001928E-02 0.  1.
    10030    2    1    2    0    0  0.00000000000E+00  0.00000000000E+00  0.51919393951E+03  0.20358118633E+04  0.19684937379E+04 0.  0.
        1    1    3    3  502    0 -0.49966385521E+03 -0.11309629187E+03 -0.60955207787E+03  0.79624649142E+03  0.50400001928E-02 0.  1.
       -1    1    3    3    0  502  0.49966385521E+03  0.11309629187E+03  0.11287460174E+04  0.12395653719E+04  0.50400001928E-02 0. -1.
</event>
<event>
 5   0  0.2463085E-04  0.1876073E+04  0.7818609E-02  0.8666859E-01
       -2   -1    0    0    0  501  0.00000000000E+00  0.00000000000E+00  0.41252444432E+03  0.41252444433E+03  0.25500000920E-02 0. -1.
        2   -1    0    0  501    0  0.00000000000E+00  0.00000000000E+00 -0.21329951006E+04  0.21329951006E+04  0.25500000920E-02 0.  1.
    10030    2    1    2    0    0  0.00000000000E+00  0.00000000000E+00 -0.17204706563E+04  0.25455195449E+04  0.18760731527E+04 0.  0.
        2    1    3    3  502    0  0.29175612436E+03  0.43507905177E+03  0.19556729678E+03  0.55916185937E+03  0.25500000920E-02 0. -1.
       -2    1    3    3    0  502 -0.29175612436E+03 -0.43507905177E+03 -0.19160379530E+04  0.19863576855E+04  0.25500000920E-02 0.  1.
</event>
<event>
 5   0  0.1207228E-04  0.1974667E+04  0.7818609E-02  0.8618557E-01
        1   -1    0    0  501    0  0.00000000000E+00  0.00000000000E+00  0.29172976055E+03  0.29172976059E+03  0.50400001928E-02 0. -1.
       -1   -1    0    0    0  501  0.00000000000E+00  0.00000000000E+00 -0.33415441766E+04  0.33415441766E+04  0.50400001928E-02 0.  1.
    10030    2    1    2    0    0  0.00000000000E+00  0.00000000000E+00 -0.30498144161E+04  0.36332739372E+04  0.19746674481E+04 0.  0.
        1    1    3    3  502    0  0.51545997334E+03 -0.38528522447E+02 -0.30726961138E+04  0.31158698367E+04  0.50400001928E-02 0.  1.
       -1    1    3    3    0  502 -0.51545997334E+03  0.38528522447E+02  0.22881697738E+02  0.51740410056E+03  0.50400001928E-02 0. -1.
</event>
<event>
 5   0  0.1258546E-04  0.1986576E+04  0.7818609E-02  0.8612923E-01
       -1   -1    0    0    0  501  0.00000000000E+00  0.00000000000E+00  0.65391367892E+03  0.65391367894E+03  0.50400001928E-02 0.  1.
        1   -1    0    0  501    0  0.00000000000E+00  0.00000000000E+00 -0.15087933659E+04  0.15087933660E+04  0.50400001928E-02 0. -1.
    10030    2    1    2    0    0  0.00000000000E+00  0.00000000000E+00 -0.85487968703E+03  0.21627070449E+04  0.19865755668E+04 0.  0.
        4    1    3    3  502    0  0.44000048336E+03  0.86747463441E+03 -0.64654576405E+03  0.11679622017E+04  0.12699999809E+01 0. -1.
       -4    1    3    3    0  502 -0.44000048336E+03 -0.86747463441E+03 -0.20833392298E+03  0.99474484319E+03  0.12699999809E+01 0.  1.
</event>
<event>
 5   0  0.2596061E-04  0.2005708E+04  0.7818609E-02  0.8603957E-01
        2   -1    0    0  501    0  0.00000000000E+00  0.00000000000E+00  0.80267561937E+03  0.80267561938E+03  0.25500000920E-02 0.  1.
       -2   -1    0    0    0  501  0.00000000000E+00  0.00000000000E+00 -0.12529540647E+04  0.12529540647E+04  0.25500000920E-02 0. -1.
    10030    2    1    2    0    0  0.00000000000E+00  0.00000000000E+00 -0.45027844537E+03  0.20556296841E+04  0.20057075360E+04 0.  0.
        5    1    3    3  502    0 -0.20900204264E+03 -0.85801899656E+03  0.26188863140E+03  0.92113310523E+03  0.46999998093E+01 0.  1.
       -5    1    3    3    0  502  0.20900204264E+03  0.85801899656E+03 -0.71216707677E+03  0.11344965789E+04  0.46999998093E+01 0. -1.
</event>
<event>
 5   0  0.2596061E-04  0.1982601E+04  0.7818609E-02  0.8614799E-01
        2   -1    0    0  501    0  0.00000000000E+00  0.00000000000E+00  0.82144182402E+03  0.82144182403E+03  0.25500000920E-02 0. -1.
       -2   -1    0    0    0  501  0.00000000000E+00  0.00000000000E+00 -0.11962825453E+04  0.11962825453E+04  0.25500000920E-02 0.  1.
    10030    2    1    2    0    0  0.00000000000E+00  0.00000000000E+00 -0.37484072130E+03  0.20177243694E+04  0.19826008333E+04 0.  0.
        5    1    3    3  502    0  0.96555605450E+02  0.86512764808E+03 -0.67004264669E+03  0.10985208559E+04  0.46999998093E+01 0.  1.
       -5    1    3    3    0  502 -0.96555605450E+02 -0.86512764808E+03  0.29520192540E+03  0.91920351347E+03  0.46999998093E+01 0. -1.
</event>
<event>
 5   0  0.1231056E-04  0.2066763E+04  0.7818609E-02  0.8576028E-01
       -1   -1    0    0    0  501  0.00000000000E+00  0.00000000000E+00  0.94694232669E+03  0.94694232670E+03  0.50400001928E-02 0. -1.
        1   -1    0    0  501    0  0.00000000000E+00  0.00000000000E+00 -0.11277106034E+04  0.11277106035E+04  0.50400001928E-02 0.  1.
    10030    2    1    2    0    0  0.00000000000E+00  0.00000000000E+00 -0.18076827675E+03  0.20746529302E+04  0.20667625918E+04 0.  0.
        3    1    3    3  502    0 -0.14561410825E+03  0.30236331973E+03  0.89071602916E+03  0.95184142610E+03  0.10100000352E+00 0. -1.
       -3    1    3    3    0  502  0.14561410825E+03 -0.30236331973E+03 -0.10714843059E+04  0.11228115041E+04  0.10100000352E+00 0.  1.
</event>
<event>
 5   0  0.1258546E-04  0.1978385E+04  0.7818609E-02  0.8616794E-01
       -1   -1    0    0    0  501  0.00000000000E+00  0.00000000000E+00  0.96263967102E+03  0.96263967104E+03  0.50400001928E-02 0.  1.
        1   -1    0    0  501    0  0.00000000000E+00  0.00000000000E+00 -0.10164775867E+04  0.10164775868E+04  0.50400001928E-02 0. -1.
    10030    2    1    2    0    0  0.00000000000E+00  0.00000000000E+00 -0.53837915723E+02  0.19791172578E+04  0.19783848460E+04 0.  0.
        4    1    3    3  502    0 -0.10078310006E+03  0.23897788419E+03  0.92801935869E+03  0.96358144720E+03  0.12699999809E+01 0.  1.
       -4    1    3    3    0  502  0.10078310006E+03 -0.23897788419E+03 -0.98185727441E+03  0.10155358106E+04  0.12699999809E+01 0. -1.
</event>
<event>
 5   0  0.1258546E-04  0.2027842E+04  0.7818609E-02  0.8593713E-01
       -1   -1    0    0    0  501  0.00000000000E+00  0.00000000000E+00  0.47097290095E+03  0.47097290097E+03  0.50400001928E-02 0. -1.
        1   -1    0    0  501    0  0.00000000000E+00  0.00000000000E+00 -0.21827923601E+04  0.21827923601E+04  0.50400001928E-02 0.  1.
    10030    2    1    2    0    0  0.00000000000E+00  0.00000000000E+00 -0.17118194591E+04  0.26537652610E+04  0.20278422523E+04 0.  0.
        4    1    3    3  502    0  0.42953297989E+03  0.78242347154E+03 -0.22645790736E+03  0.92085279298E+03  0.12699999809E+01 0. -1.
       -4    1    3    3    0  502 -0.42953297989E+03 -0.78242347154E+03 -0.14853615518E+04  0.17329124681E+04  0.12699999809E+01 0.  1.
</event>
<event>
 5   0  0.2540506E-04  0.2018749E+04  0.7818609E-02  0.8597905E-01
       -2   -1    0    0    0  501  0.00000000000E+00  0.00000000000E+00  0.60207458863E+03  0.60207458864E+03  0.25500000920E-02 0.  1.
        2   -1    0    0  501    0  0.00000000000E+00  0.00000000000E+00 -0.16922110814E+04  0.16922110814E+04  0.25500000920E-02 0. -1.
    10030    2    1    2    0    0  0.00000000000E+00  0.00000000000E+00 -0.10901364927E+04  0.22942856700E+04  0.20187494057E+04 0.  0.
        4    1    3    3  502    0  0.25163718718E+02 -0.22336492920E+03  0.57326804321E+03  0.61576210228E+03  0.12699999809E+01 0.  1.
       -4    1    3    3    0  502 -0.25163718718E+02  0.22336492920E+03 -0.16634045359E+04  0.16785235677E+04  0.12699999809E+01 0. -1.
</event>
<event>
 5   0  0.9099125E-05  0.1939872E+04  0.7818609E-02  0.8635260E-01
       -3   -1    0    0    0  501  0.00000000000E+00  0.00000000000E+00  0.71105018124E+03  0.71105018841E+03  0.10100000352E+00 0.  1.
        3   -1    0    0  501    0  0.00000000000E+00  0.00000000000E+00 -0.13230795679E+04  0.13230795717E+04  0.10100000352E+00 0. -1.
    10030    2    1    2    0    0  0.00000000000E+00  0.00000000000E+00 -0.61202938663E+03  0.20341297601E+04  0.19398721378E+04 0.  0.
        3    1    3    3  502    0 -0.60492390569E+03  0.65767742782E+03 -0.70157548996E+03  0.11360812951E+04  0.10100000352E+00 0. -1.
       -3    1    3    3    0  502  0.60492390569E+03 -0.65767742782E+03  0.89546103333E+02  0.89804846504E+03  0.10100000352E+00 0.  1.
</event>
<event>
 5   0  0.1231056E-04  0.1968811E+04  0.7818609E-02  0.8621343E-01
       -1   -1    0    0    0  501  0.00000000000E+00  0.00000000000E+00  0.12163650622E+04  0.12163650622E+04  0.50400001928E-02 0. -1.
        1   -1    0    0  501    0  0.00000000000E+00  0.00000000000E+00 -0.79668074699E+03  0.79668074701E+03  0.50400001928E-02 0.  1.
    10030    2    1    2    0    0  0.00000000000E+00  0.00000000000E+00  0.41968431524E+03  0.20130458093E+04  0.19688114449E+04 0.  0.
        3    1    3    3  502    0  0.63285657930E+03  0.39053724735E+03  0.86933596452E+03  0.11440156559E+04  0.10100000352E+00 0. -1.
       -3    1    3    3    0  502 -0.63285657930E+03 -0.39053724735E+03 -0.44965164928E+03  0.86903015335E+03  0.10100000352E+00 0.  1.
</event>
<event>
 5   0  0.2463085E-04  0.2029984E+04  0.7818609E-02  0.8592729E-01
        2   -1    0    0  501    0  0.00000000000E+00  0.00000000000E+00  0.24386372918E+04  0.24386372919E+04  0.25500000920E-02 0. -1.
       -2   -1    0    0    0  501  0.00000000000E+00  0.00000000000E+00 -0.42245258691E+03  0.42245258692E+03  0.25500000920E-02 0.  1.
    10030    2    1    2    0    0  0.00000000000E+00  0.00000000000E+00  0.20161847049E+04  0.28610898788E+04  0.20299838743E+04 0.  0.
        2    1    3    3  502    0 -0.47546339734E+03  0.66843768726E+03  0.16558008244E+03  0.83683400246E+03  0.25500000920E-02 0.  1.
       -2    1    3    3    0  502  0.47546339734E+03 -0.66843768726E+03  0.18506046225E+04  0.20242558763E+04  0.25500000920E-02 0. -1.
</event>
<event>
 5   0  0.2596061E-04  0.1926554E+04  0.7818609E-02  0.8641750E-01
        2   -1    0    0  501    0  0.00000000000E+00  0.00000000000E+00  0.11450459169E+04  0.11450459169E+04  0.25500000920E-02 0.  1.
       -2   -1    0    0    0  501  0.00000000000E+00  0.00000000000E+00 -0.81036303767E+03  0.81036303768E+03  0.25500000920E-02 0. -1.
    10030    2    1    2    0    0  0.00000000000E+00  0.00000000000E+00  0.33468287921E+03  0.19554089546E+04  0.19265543205E+04 0.  0.
        5    1    3    3  502    0  0.81668845257E+02 -0.85799659936E+03 -0.26927914784E+03  0.90297359555E+03  0.46999998093E+01 0. -1.
       -5    1    3    3    0  502 -0.81668845257E+02  0.85799659936E+03  0.60396202705E+03  0.10524353590E+04  0.46999998093E+01 0.  1.
</event>
<event>
 5   0  0.2488886E-04  0.1509054E+04  0.7818609E-02  0.8878454E-01
       -2   -1    0    0    0  501  0.00000000000E+00  0.00000000000E+00  0.55947017339E+03  0.55947017339E+03  0.25500000920E-02 0.  1.
        2   -1    0    0  501    0  0.00000000000E+00  0.00000000000E+00 -0.10175896246E+04  0.10175896246E+04  0.25500000920E-02 0. -1.
    10030    2    1    2    0    0  0.00000000000E+00  0.00000000000E+00 -0.45811945122E+03  0.15770597980E+04  0.15090540663E+04 0.  0.
        3    1    3    3  502    0 -0.38130826628E+03  0.44895563890E+03  0.26373461446E+03  0.64537827411E+03  0.10100000352E+00 0.  1.
       -3    1    3    3    0  502  0.38130826628E+03 -0.44895563890E+03 -0.72185406568E+03  0.93168152390E+03  0.10100000352E+00 0. -1.
</event>
<event>
 5   0  0.1210633E-04  0.1992340E+04  0.7818609E-02  0.8610210E-01
        1   -1    0    0  501    0  0.00000000000E+00  0.00000000000E+00  0.13659178826E+04  0.13659178826E+04  0.50400001928E-02 0. -1.
       -1   -1    0    0    0  501  0.00000000000E+00  0.00000000000E+00 -0.72651101327E+03  0.72651101329E+03  0.50400001928E-02 0.  1.
    10030    2    1    2    0    0  0.00000000000E+00  0.00000000000E+00  0.63940686931E+03  0.20924288959E+04  0.19923397150E+04 0.  0.
        2    1    3    3  502    0  0.65968033081E+03  0.39393812567E+03 -0.34617415821E+03  0.84273479431E+03  0.25500000920E-02 0.  1.
       -2    1    3    3    0  502 -0.65968033081E+03 -0.39393812567E+03  0.98558102752E+03  0.12496941016E+04  0.25500000920E-02 0. -1.
</event>
<event>
 5   0  0.2488886E-04  0.2011303E+04  0.7818609E-02  0.8601354E-01
       -2   -1    0    0    0  501  0.00000000000E+00  0.00000000000E+00  0.75426195509E+03  0.75426195510E+03  0.25500000920E-02 0.  1.
        2   -1    0    0  501    0  0.00000000000E+00  0.00000000000E+00 -0.13408270931E+04  0.13408270931E+04  0.25500000920E-02 0. -1.
    10030    2    1    2    0    0  0.00000000000E+00  0.00000000000E+00 -0.58656513802E+03  0.20950890482E+04  0.20113029257E+04 0.  0.
        3    1    3    3  502    0  0.90168153469E+03  0.17970781116E+03  0.13113426981E+03  0.92871992242E+03  0.10100000352E+00 0.  1.
       -3    1    3    3    0  502 -0.90168153469E+03 -0.17970781116E+03 -0.71769940783E+03  0.11663691258E+04  0.10100000352E+00 0. -1.
</event>
<event>
 5   0  0.1324930E-04  0.1985626E+04  0.7818609E-02  0.8613371E-01
       -1   -1    0    0    0  501  0.00000000000E+00  0.00000000000E+00  0.15697531294E+04  0.15697531294E+04  0.50400001928E-02 0.  1.
        1   -1    0    0  501    0  0.00000000000E+00  0.00000000000E+00 -0.62791884575E+03  0.62791884577E+03  0.50400001928E-02 0. -1.
    10030    2    1    2    0    0  0.00000000000E+00  0.00000000000E+00  0.94183428368E+03  0.21976719752E+04  0.19856259196E+04 0.  0.
        5    1    3    3  502    0  0.81174053428E+03  0.56673679698E+03  0.55331315268E+03  0.11341476213E+04  0.46999998093E+01 0. -1.
       -5    1    3    3    0  502 -0.81174053428E+03 -0.56673679698E+03  0.38852113100E+03  0.10635243539E+04  0.46999998093E+01 0.  1.
</event>
<event>
 5   0  0.1231056E-04  0.2033536E+04  0.7818609E-02  0.8591100E-01
       -1   -1    0    0    0  501  0.00000000000E+00  0.00000000000E+00  0.75856154931E+03  0.75856154933E+03  0.50400001928E-02 0. -1.
        1   -1    0    0  501    0  0.00000000000E+00  0.00000000000E+00 -0.13628654523E+04  0.13628654523E+04  0.50400001928E-02 0.  1.
    10030    2    1    2    0    0  0.00000000000E+00  0.00000000000E+00 -0.60430390299E+03  0.21214270016E+04  0.20335361605E+04 0.  0.
        3    1    3    3  502    0  0.21862716260E+02  0.84785754219E+03 -0.88717178164E+03  0.12273606522E+04  0.10100000352E+00 0.  1.
       -3    1    3    3    0  502 -0.21862716260E+02 -0.84785754219E+03  0.28286787865E+03  0.89406634944E+03  0.10100000352E+00 0. -1.
</event>
<event>
 5   0  0.1258546E-04  0.2039959E+04  0.7818609E-02  0.8588163E-01
       -1   -1    0    0    0  501  0.00000000000E+00  0.00000000000E+00  0.66943751200E+03  0.66943751202E+03  0.50400001928E-02 0.  1.
        1   -1    0    0  501    0  0.00000000000E+00  0.00000000000E+00 -0.15540778107E+04  0.15540778107E+04  0.50400001928E-02 0. -1.
    10030    2    1    2    0    0  0.00000000000E+00  0.00000000000E+00 -0.88464029869E+03  0.22235153227E+04  0.20399588065E+04 0.  0.
        4    1    3    3  502    0 -0.36495493740E+03 -0.56823086583E+03 -0.12754802739E+04  0.14432359354E+04  0.12699999809E+01 0. -1.
       -4    1    3    3    0  502  0.36495493740E+03  0.56823086583E+03  0.39083997518E+03  0.78027938734E+03  0.12699999809E+01 0.  1.
</event>
<event>
 5   0  0.2540506E-04  0.1259673E+04  0.7818609E-02  0.9062171E-01
        2   -1    0    0  501    0  0.00000000000E+00  0.00000000000E+00  0.64538807732E+03  0.64538807733E+03  0.25500000920E-02 0. -1.
       -2   -1    0    0    0  501  0.00000000000E+00  0.00000000000E+00 -0.61465931512E+03  0.61465931512E+03  0.25500000920E-02 0.  1.
    10030    2    1    2    0    0  0.00000000000E+00  0.00000000000E+00  0.30728762206E+02  0.12600473925E+04  0.12596726457E+04 0.  0.
        4    1    3    3  502    0 -0.11531482008E+03  0.23308247332E+03  0.58917885866E+03  0.64401730372E+03  0.12699999809E+01 0. -1.
       -4    1    3    3    0  502  0.11531482008E+03 -0.23308247332E+03 -0.55845009645E+03  0.61603008873E+03  0.12699999809E+01 0.  1.
</event>
<event>
 5   0  0.1258546E-04  0.2007263E+04  0.7818609E-02  0.8603233E-01
        1   -1    0    0  501    0  0.00000000000E+00  0.00000000000E+00  0.17622131473E+04  0.17622131473E+04  0.50400001928E-02 0.  1.
       -1   -1    0    0    0  501  0.00000000000E+00  0.00000000000E+00 -0.57159713602E+03  0.57159713604E+03  0.50400001928E-02 0. -1.
    10030    2    1    2    0    0  0.00000000000E+00  0.00000000000E+00  0.11906160113E+04  0.23338102834E+04  0.20072628010E+04 0.  0.
        4    1    3    3  502    0 -0.36275700947E+02  0.80610431355E+03  0.12891816621E+04  0.15208915351E+04  0.12699999809E+01 0.  1.
       -4    1    3    3    0  502  0.36275700947E+02 -0.80610431355E+03 -0.98565650810E+02  0.81291874823E+03  0.12699999809E+01 0. -1.
</event>
<event>
 5   0  0.2596061E-04  0.1751926E+04  0.7818609E-02  0.8732291E-01
        2   -1    0    0  501    0  0.00000000000E+00  0.00000000000E+00  0.48999313870E+03  0.48999313871E+03  0.25500000920E-02 0. -1.
       -2   -1    0    0    0  501  0.00000000000E+00  0.00000000000E+00 -0.15659632242E+04  0.15659632242E+04  0.25500000920E-02 0.  1.
    10030    2    1    2    0    0  0.00000000000E+00  0.00000000000E+00 -0.10759700855E+04  0.20559563629E+04  0.17519260662E+04 0.  0.
        5    1    3    3  502    0 -0.70591364298E+02  0.64047127002E+03  0.15837317920E+03  0.66354407715E+03  0.46999998093E+01 0. -1.
       -5    1    3    3    0  502  0.70591364298E+02 -0.64047127002E+03 -0.12343432647E+04  0.13924122857E+04  0.46999998093E+01 0.  1.
</event>
<event>
 5   0  0.1231056E-04  0.2059167E+04  0.7818609E-02  0.8579447E-01
       -1   -1    0    0    0  501  0.00000000000E+00  0.00000000000E+00  0.99872319229E+03  0.99872319231E+03  0.50400001928E-02 0. -1.
        1   -1    0    0  501    0  0.00000000000E+00  0.00000000000E+00 -0.10613969829E+04  0.10613969829E+04  0.50400001928E-02 0.  1.
    10030    2    1    2    0    0  0.00000000000E+00  0.00000000000E+00 -0.62673790625E+02  0.20601201752E+04  0.20591666111E+04 0.  0.
        3    1    3    3  502    0  0.49465884382E+03 -0.44748525252E+03  0.75331664382E+03  0.10061890474E+04  0.10100000352E+00 0. -1.
       -3    1    3    3    0  502 -0.49465884382E+03  0.44748525252E+03 -0.81599043444E+03  0.10539311279E+04  0.10100000352E+00 0.  1.
</event>
<event>
 5   0  0.2463085E-04  0.2003787E+04  0.7818609E-02  0.8604852E-01
        2   -1    0    0  501    0  0.00000000000E+00  0.00000000000E+00  0.13104999601E+04  0.13104999601E+04  0.25500000920E-02 0. -1.
       -2   -1    0    0    0  501  0.00000000000E+00  0.00000000000E+00 -0.76596029102E+03  0.76596029102E+03  0.25500000920E-02 0.  1.
    10030    2    1    2    0    0  0.00000000000E+00  0.00000000000E+00  0.54453966905E+03  0.20764602511E+04  0.20037873448E+04 0.  0.
        2    1    3    3  502    0  0.56584242635E+03 -0.73705101774E+03 -0.11597681271E+03  0.93641469195E+03  0.25500000920E-02 0.  1.
       -2    1    3    3    0  502 -0.56584242635E+03  0.73705101774E+03  0.66051648176E+03  0.11400455591E+04  0.25500000920E-02 0. -1.
</event>
<event>
 5   0  0.2540506E-04  0.2317302E+04  0.7818609E-02  0.8471130E-01
       -2   -1    0    0    0  501  0.00000000000E+00  0.00000000000E+00  0.10522177778E+04  0.10522177778E+04  0.25500000920E-02 0.  1.
        2   -1    0    0  501    0  0.00000000000E+00  0.00000000000E+00 -0.12758498412E+04  0.12758498412E+04  0.25500000920E-02 0. -1.
    10030    2    1    2    0    0  0.00000000000E+00  0.00000000000E+00 -0.22363206340E+03  0.23280676190E+04  0.23173017799E+04 0.  0.
        4    1    3    3  502    0 -0.51539869070E+03  0.60880772980E+02  0.92891560572E+03  0.10640620726E+04  0.12699999809E+01 0.  1.
       -4    1    3    3    0  502  0.51539869070E+03 -0.60880772980E+02 -0.11525476691E+04  0.12640055464E+04  0.12699999809E+01 0. -1.
</event>
<event>
 5   0  0.2463085E-04  0.1988803E+04  0.7818609E-02  0.8611874E-01
       -2   -1    0    0    0  501  0.00000000000E+00  0.00000000000E+00  0.59035528955E+03  0.59035528956E+03  0.25500000920E-02 0. -1.
        2   -1    0    0  501    0  0.00000000000E+00  0.00000000000E+00 -0.16749815381E+04  0.16749815381E+04  0.25500000920E-02 0.  1.
    10030    2    1    2    0    0  0.00000000000E+00  0.00000000000E+00 -0.10846262486E+04  0.22653368277E+04  0.19888028670E+04 0.  0.
        2    1    3    3  502    0  0.67140728387E+03  0.73350277082E+03 -0.53719941893E+03  0.11302200102E+04  0.25500000920E-02 0.  1.
       -2    1    3    3    0  502 -0.67140728387E+03 -0.73350277082E+03 -0.54742682965E+03  0.11351168175E+04  0.25500000920E-02 0. -1.
</event>
<event>
 5   0  0.1258546E-04  0.1993148E+04  0.7818609E-02  0.8609831E-01
        1   -1    0    0  501    0  0.00000000000E+00  0.00000000000E+00  0.66939036700E+03  0.66939036702E+03  0.50400001928E-02 0. -1.
       -1   -1    0    0    0  501  0.00000000000E+00  0.00000000000E+00 -0.14836785399E+04  0.14836785399E+04  0.50400001928E-02 0.  1.
    10030    2    1    2    0    0  0.00000000000E+00  0.00000000000E+00 -0.81428817293E+03  0.21530689070E+04  0.19931483862E+04 0.  0.
        4    1    3    3  502    0 -0.91230899540E+03  0.83465737603E+02 -0.83089965783E+03  0.12367983210E+04  0.12699999809E+01 0.  1.
       -4    1    3    3    0  502  0.91230899540E+03 -0.83465737603E+02  0.16611484899E+02  0.91627058600E+03  0.12699999809E+01 0. -1.
</event>
<event>
 5   0  0.2596061E-04  0.2012835E+04  0.7818609E-02  0.8600643E-01
        2   -1    0    0  501    0  0.00000000000E+00  0.00000000000E+00  0.14018256751E+04  0.14018256751E+04  0.25500000920E-02 0.  1.
       -2   -1    0    0    0  501  0.00000000000E+00  0.00000000000E+00 -0.72254102469E+03  0.72254102469E+03  0.25500000920E-02 0. -1.
    10030    2    1    2    0    0  0.00000000000E+00  0.00000000000E+00  0.67928465046E+03  0.21243666998E+04  0.20128353731E+04 0.  0.
        5    1    3    3  502    0 -0.63508688994E+02  0.32312608958E+03 -0.66405799361E+03  0.74124148037E+03  0.46999998093E+01 0. -1.
       -5    1    3    3    0  502  0.63508688994E+02 -0.32312608958E+03  0.13433426441E+04  0.13831252195E+04  0.46999998093E+01 0.  1.
</event>
<event>
 5   0  0.1210633E-04  0.2027873E+04  0.7818609E-02  0.8593699E-01
       -1   -1    0    0    0  501  0.00000000000E+00  0.00000000000E+00  0.84698484209E+03  0.84698484211E+03  0.50400001928E-02 0. -1.
        1   -1    0    0  501    0  0.00000000000E+00  0.00000000000E+00 -0.12137962785E+04  0.12137962785E+04  0.50400001928E-02 0.  1.
    10030    2    1    2    0    0  0.00000000000E+00  0.00000000000E+00 -0.36681143643E+03  0.20607811206E+04  0.20278728257E+04 0.  0.
        2    1    3    3  502    0  0.93951316308E+03  0.14451353310E+03  0.17516281300E+03  0.96656668467E+03  0.25500000920E-02 0. -1.
       -2    1    3    3    0  502 -0.93951316308E+03 -0.14451353310E+03 -0.54197424943E+03  0.10942144360E+04  0.25500000920E-02 0.  1.
</event>
<event>
 5   0  0.1207228E-04  0.1995448E+04  0.7818609E-02  0.8608752E-01
        1   -1    0    0  501    0  0.00000000000E+00  0.00000000000E+00  0.15006781038E+04  0.15006781038E+04  0.50400001928E-02 0.  1.
       -1   -1    0    0    0  501  0.00000000000E+00  0.00000000000E+00 -0.66333556278E+03  0.66333556280E+03  0.50400001928E-02 0. -1.
    10030    2    1    2    0    0  0.00000000000E+00  0.00000000000E+00  0.83734254097E+03  0.21640136666E+04  0.19954479743E+04 0.  0.
        1    1    3    3  502    0 -0.31321603672E+03  0.56054245658E+03  0.12468162764E+04  0.14024489147E+04  0.50400001928E-02 0.  1.
       -1    1    3    3    0  502  0.31321603672E+03 -0.56054245658E+03 -0.40947373539E+03  0.76156475187E+03  0.50400001928E-02 0. -1.
</event>
<event>
 5   0  0.1324930E-04  0.2015289E+04  0.7818609E-02  0.8599506E-01
        1   -1    0    0  501    0  0.00000000000E+00  0.00000000000E+00  0.47523167702E+03  0.47523167705E+03  0.50400001928E-02 0. -1.
       -1   -1    0    0    0  501  0.00000000000E+00  0.00000000000E+00 -0.21365308219E+04  0.21365308220E+04  0.50400001928E-02 0.  1.
    10030    2    1    2    0    0  0.00000000000E+00  0.00000000000E+00 -0.16612991449E+04  0.26117624990E+04  0.20152886896E+04 0.  0.
        5    1    3    3  502    0  0.60074211123E+03  0.69449532841E+03 -0.13682996423E+04  0.16478716110E+04  0.46999998093E+01 0.  1.
       -5    1    3    3    0  502 -0.60074211123E+03 -0.69449532841E+03 -0.29299950267E+03  0.96389088799E+03  0.46999998093E+01 0. -1.
</event>
<event>
 5   0  0.1258546E-04  0.2014812E+04  0.7818609E-02  0.8599727E-01
       -1   -1    0    0    0  501  0.00000000000E+00  0.00000000000E+00  0.81045458093E+03  0.81045458094E+03  0.50400001928E-02 0. -1.
        1   -1    0    0  501    0  0.00000000000E+00  0.00000000000E+00 -0.12522190791E+04  0.12522190792E+04  0.50400001928E-02 0.  1.
    10030    2    1    2    0    0  0.00000000000E+00  0.00000000000E+00 -0.44176449822E+03  0.20626736601E+04  0.20148118414E+04 0.  0.
        4    1    3    3  502    0  0.87932006992E+03 -0.47518635378E+02  0.28002932574E+03  0.92405618998E+03  0.12699999809E+01 0. -1.
       -4    1    3    3    0  502 -0.87932006992E+03  0.47518635378E+02 -0.72179382395E+03  0.11386174701E+04  0.12699999809E+01 0.  1.
</event>
<event>
 5   0  0.2421737E-04  0.1994017E+04  0.7818609E-02  0.8609423E-01
        2   -1    0    0  501    0  0.00000000000E+00  0.00000000000E+00  0.20703301952E+04  0.20703301952E+04  0.25500000920E-02 0. -1.
       -2   -1    0    0    0  501  0.00000000000E+00  0.00000000000E+00 -0.48012932236E+03  0.48012932237E+03  0.25500000920E-02 0.  1.
    10030    2    1    2    0    0  0.00000000000E+00  0.00000000000E+00  0.15902008728E+04  0.25504595176E+04  0.19940172855E+04 0.  0.
        1    1    3    3  502    0 -0.47185709179E+03 -0.87465247669E+03  0.69309491975E+03  0.12116297445E+04  0.50400001928E-02 0.  1.
       -1    1    3    3    0  502  0.47185709179E+03  0.87465247669E+03  0.89710595308E+03  0.13388297730E+04  0.50400001928E-02 0. -1.
</event>
<event>
 5   0  0.1207228E-04  0.1790142E+04  0.7818609E-02  0.8711560E-01
       -1   -1    0    0    0  501  0.00000000000E+00  0.00000000000E+00  0.10842478335E+04  0.10842478335E+04  0.50400001928E-02 0.  1.
        1   -1    0    0  501    0  0.00000000000E+00  0.00000000000E+00 -0.73890100183E+03  0.73890100185E+03  0.50400001928E-02 0. -1.
    10030    2    1    2    0    0  0.00000000000E+00  0.00000000000E+00  0.34534683169E+03  0.18231488354E+04  0.17901416820E+04 0.  0.
        1    1    3    3  502    0 -0.44563945784E+03  0.66821333325E+03  0.57498648087E+03  0.98778187791E+03  0.50400001928E-02 0.  1.
       -1    1    3    3    0  502  0.44563945784E+03 -0.66821333325E+03 -0.22963964918E+03  0.83536695747E+03  0.50400001928E-02 0. -1.
</event>
<event>
 5   0  0.2488886E-04  0.2049625E+04  0.7818609E-02  0.8583764E-01
       -2   -1    0    0    0  501  0.00000000000E+00  0.00000000000E+00  0.43136328283E+03  0.43136328284E+03  0.25500000920E-02 0.  1.
        2   -1    0    0  501    0  0.00000000000E+00  0.00000000000E+00 -0.24347012768E+04  0.24347012768E+04  0.25500000920E-02 0. -1.
    10030    2    1    2    0    0  0.00000000000E+00  0.00000000000E+00 -0.20033379940E+04  0.28660645596E+04  0.20496250735E+04 0.  0.
        3    1    3    3  502    0 -0.69284683042E+03  0.66275164823E+03 -0.15077125774E+04  0.17867494799E+04  0.10100000352E+00 0. -1.
       -3    1    3    3    0  502  0.69284683042E+03 -0.66275164823E+03 -0.49562541660E+03  0.10793150798E+04  0.10100000352E+00 0.  1.
</event>
<event>
 5   0  0.2421737E-04  0.1556599E+04  0.7818609E-02  0.8847664E-01
       -2   -1    0    0    0  501  0.00000000000E+00  0.00000000000E+00  0.35792112593E+03  0.35792112594E+03  0.25500000920E-02 0. -1.
        2   -1    0    0  501    0  0.00000000000E+00  0.00000000000E+00 -0.16924114795E+04  0.16924114795E+04  0.25500000920E-02 0.  1.
    10030    2    1    2    0    0  0.00000000000E+00  0.00000000000E+00 -0.13344903536E+04  0.20503326054E+04  0.15565986281E+04 0.  0.
        1    1    3    3  502    0  0.10438526447E+03  0.74793571545E+03 -0.41925785389E+03  0.86375995853E+03  0.50400001928E-02 0. -1.
       -1    1    3    3    0  502 -0.10438526447E+03 -0.74793571545E+03 -0.91523249967E+03  0.11865726469E+04  0.50400001928E-02 0.  1.
</event>
<event>
 5   0  0.2421737E-04  0.2011629E+04  0.7818609E-02  0.8601203E-01
       -2   -1    0    0    0  501  0.00000000000E+00  0.00000000000E+00  0.42587394356E+03  0.42587394357E+03  0.25500000920E-02 0.  1.
        2   -1    0    0  501    0  0.00000000000E+00  0.00000000000E+00 -0.23754984084E+04  0.23754984084E+04  0.25500000920E-02 0. -1.
    10030    2    1    2    0    0  0.00000000000E+00  0.00000000000E+00 -0.19496244649E+04  0.28013723520E+04  0.20116290663E+04 0.  0.
        1    1    3    3  502    0 -0.29542245282E+03  0.37605017158E+03  0.25743203211E+03  0.54310165564E+03  0.50400001928E-02 0.  1.
       -1    1    3    3    0  502  0.29542245282E+03 -0.37605017158E+03 -0.22070564970E+04  0.22582706964E+04  0.50400001928E-02 0. -1.
</event>
<event>
 5   0  0.2596061E-04  0.1983970E+04  0.7818609E-02  0.8614152E-01
        2   -1    0    0  501    0  0.00000000000E+00  0.00000000000E+00  0.15486550304E+04  0.15486550304E+04  0.25500000920E-02 0.  1.
       -2   -1    0    0    0  501  0.00000000000E+00  0.00000000000E+00 -0.63541184437E+03  0.63541184437E+03  0.25500000920E-02 0. -1.
    10030    2    1    2    0    0  0.00000000000E+00  0.00000000000E+00  0.91324318601E+03  0.21840668748E+04  0.19839695050E+04 0.  0.
        5    1    3    3  502    0  0.23401807316E+03 -0.82663479385E+03  0.10025425105E+04  0.13203041757E+04  0.46999998093E+01 0.  1.
       -5    1    3    3    0  502 -0.23401807316E+03  0.82663479385E+03 -0.89299324480E+02  0.86376269908E+03  0.46999998093E+01 0. -1.
</event>
<event>
 5   0  0.1324930E-04  0.2011501E+04  0.7818609E-02  0.8601262E-01
        1   -1    0    0  501    0  0.00000000000E+00  0.00000000000E+00  0.21918763267E+04  0.21918763267E+04  0.50400001928E-02 0. -1.
       -1   -1    0    0    0  501  0.00000000000E+00  0.00000000000E+00 -0.46149243171E+03  0.46149243174E+03  0.50400001928E-02 0.  1.
    10030    2    1    2    0    0  0.00000000000E+00  0.00000000000E+00  0.17303838950E+04  0.26533687584E+04  0.20115012663E+04 0.  0.
        5    1    3    3  502    0  0.80088365121E+03  0.33339415457E+03  0.15364381962E+04  0.17644349537E+04  0.46999998093E+01 0. -1.
       -5    1    3    3    0  502 -0.80088365121E+03 -0.33339415457E+03  0.19394569874E+03  0.88893380470E+03  0.46999998093E+01 0.  1.
</event>
<event>
 5   0  0.2488886E-04  0.2012639E+04  0.7818609E-02  0.8600734E-01
       -2   -1    0    0    0  501  0.00000000000E+00  0.00000000000E+00  0.96365671315E+03  0.96365671315E+03  0.25500000920E-02 0.  1.
        2   -1    0    0  501    0  0.00000000000E+00  0.00000000000E+00 -0.10508708406E+04  0.10508708406E+04  0.25500000920E-02 0. -1.
    10030    2    1    2    0    0  0.00000000000E+00  0.00000000000E+00 -0.87214127404E+02  0.20145275537E+04  0.20126388053E+04 0.  0.
        3    1    3    3  502    0  0.36556652976E+03 -0.59874592762E+03  0.67855677910E+03  0.97599942940E+03  0.10100000352E+00 0.  1.
       -3    1    3    3    0  502 -0.36556652976E+03  0.59874592762E+03 -0.76577090650E+03  0.10385281243E+04  0.10100000352E+00 0. -1.
</event>
<event>
 5   0  0.1210633E-04  0.1909709E+04  0.7818609E-02  0.8650039E-01
       -1   -1    0    0    0  501  0.00000000000E+00  0.00000000000E+00  0.89883360137E+03  0.89883360138E+03  0.50400001928E-02 0. -1.
        1   -1    0    0  501    0  0.00000000000E+00  0.00000000000E+00 -0.10143667159E+04  0.10143667159E+04  0.50400001928E-02 0.  1.
    10030    2    1    2    0    0  0.00000000000E+00  0.00000000000E+00 -0.11553311454E+03  0.19132003173E+04  0.19097087614E+04 0.  0.
        2    1    3    3  502    0 -0.18484384854E+03 -0.70074552800E+02  0.87810904807E+03  0.90008510242E+03  0.25500000920E-02 0. -1.
       -2    1    3    3    0  502  0.18484384854E+03  0.70074552800E+02 -0.99364216261E+03  0.10131152149E+04  0.25500000920E-02 0.  1.
</event>
<event>
 5   0  0.1207228E-04  0.1964672E+04  0.7818609E-02  0.8623318E-01
        1   -1    0    0  501    0  0.00000000000E+00  0.00000000000E+00  0.14612287906E+04  0.14612287906E+04  0.50400001928E-02 0. -1.
       -1   -1    0    0    0  501  0.00000000000E+00  0.00000000000E+00 -0.66039200385E+03  0.66039200387E+03  0.50400001928E-02 0.  1.
    10030    2    1    2    0    0  0.00000000000E+00  0.00000000000E+00  0.80083678678E+03  0.21216207945E+04  0.19646717885E+04 0.  0.
        1    1    3    3  502    0 -0.56617144692E+03  0.28525196226E+03  0.12107392706E+04  0.13666778592E+04  0.50400001928E-02 0. -1.
       -1    1    3    3    0  502  0.56617144692E+03 -0.28525196226E+03 -0.40990248387E+03  0.75494293532E+03  0.50400001928E-02 0.  1.
</event>
<event>
 5   0  0.1231056E-04  0.2025417E+04  0.7818609E-02  0.8594829E-01
       -1   -1    0    0    0  501  0.00000000000E+00  0.00000000000E+00  0.69163017350E+03  0.69163017352E+03  0.50400001928E-02 0. -1.
        1   -1    0    0  501    0  0.00000000000E+00  0.00000000000E+00 -0.14828416935E+04  0.14828416935E+04  0.50400001928E-02 0.  1.
    10030    2    1    2    0    0  0.00000000000E+00  0.00000000000E+00 -0.79121151995E+03  0.21744718670E+04  0.20254165574E+04 0.  0.
        3    1    3    3  502    0 -0.59848791436E+03 -0.73710229060E+03 -0.77376408300E+03  0.12248340446E+04  0.10100000352E+00 0.  1.
       -3    1    3    3    0  502  0.59848791436E+03  0.73710229060E+03 -0.17447436944E+02  0.94963782238E+03  0.10100000352E+00 0. -1.
</event>
<event>
 5   0  0.1231056E-04  0.2002025E+04  0.7818609E-02  0.8605675E-01
       -1   -1    0    0    0  501  0.00000000000E+00  0.00000000000E+00  0.14730011706E+04  0.14730011706E+04  0.50400001928E-02 0.  1.
        1   -1    0    0  501    0  0.00000000000E+00  0.00000000000E+00 -0.68026132271E+03  0.68026132273E+03  0.50400001928E-02 0. -1.
    10030    2    1    2    0    0  0.00000000000E+00  0.00000000000E+00  0.79273984793E+03  0.21532624934E+04  0.20020246999E+04 0.  0.
        3    1    3    3  502    0 -0.18868596305E+03 -0.16865598108E+03  0.14380251141E+04  0.14601244713E+04  0.10100000352E+00 0.  1.
       -3    1    3    3    0  502  0.18868596305E+03  0.16865598108E+03 -0.64528526622E+03  0.69313802205E+03  0.10100000352E+00 0. -1.
</event>
<event>
 5   0  0.2463085E-04  0.1999077E+04  0.7818609E-02  0.8607053E-01
       -2   -1    0    0    0  501  0.00000000000E+00  0.00000000000E+00  0.35087340588E+03  0.35087340589E+03  0.25500000920E-02 0. -1.
        2   -1    0    0  501    0  0.00000000000E+00  0.00000000000E+00 -0.28473994886E+04  0.28473994886E+04  0.25500000920E-02 0.  1.
    10030    2    1    2    0    0  0.00000000000E+00  0.00000000000E+00 -0.24965260827E+04  0.31982728945E+04  0.19990765433E+04 0.  0.
        2    1    3    3  502    0  0.22855664883E+03 -0.61240914401E+03 -0.24580412574E+04  0.25434720216E+04  0.25500000920E-02 0.  1.
       -2    1    3    3    0  502 -0.22855664883E+03  0.61240914401E+03 -0.38484825316E+02  0.65480087292E+03  0.25500000920E-02 0. -1.
</event>
<event>
 5   0  0.1324930E-04  0.1991878E+04  0.7818609E-02  0.8610427E-01
        1   -1    0    0  501    0  0.00000000000E+00  0.00000000000E+00  0.69999421000E+03  0.69999421001E+03  0.50400001928E-02 0. -1.
       -1   -1    0    0    0  501  0.00000000000E+00  0.00000000000E+00 -0.14170039390E+04  0.14170039390E+04  0.50400001928E-02 0.  1.
    10030    2    1    2    0    0  0.00000000000E+00  0.00000000000E+00 -0.71700972895E+03  0.21169981490E+04  0.19918780614E+04 0.  0.
        5    1    3    3  502    0  0.52029033885E+03 -0.60293725284E+02 -0.12587883902E+04  0.13634176438E+04  0.46999998093E+01 0.  1.
       -5    1    3    3    0  502 -0.52029033885E+03  0.60293725284E+02  0.54177866127E+03  0.75358050520E+03  0.46999998093E+01 0. -1.
</event>
<event>
 5   0  0.2596061E-04  0.1995585E+04  0.7818609E-02  0.8608687E-01
       -2   -1    0    0    0  501  0.00000000000E+00  0.00000000000E+00  0.92351660165E+03  0.92351660166E+03  0.25500000920E-02 0. -1.
        2   -1    0    0  501    0  0.00000000000E+00  0.00000000000E+00 -0.10780424602E+04  0.10780424602E+04  0.25500000920E-02 0.  1.
    10030    2    1    2    0    0  0.00000000000E+00  0.00000000000E+00 -0.15452585855E+03  0.20015590619E+04  0.19955852368E+04 0.  0.
        5    1    3    3  502    0  0.51297641390E+03 -0.55484633184E+02 -0.93383623358E+03  0.10669093433E+04  0.46999998093E+01 0.  1.
       -5    1    3    3    0  502 -0.51297641390E+03  0.55484633184E+02  0.77931037503E+03  0.93464971854E+03  0.46999998093E+01 0. -1.
</event>
<event>
 5   0  0.1210633E-04  0.1993737E+04  0.7818609E-02  0.8609554E-01
       -1   -1    0    0    0  501  0.00000000000E+00  0.00000000000E+00  0.63094663424E+03  0.63094663426E+03  0.50400001928E-02 0.  1.
        1   -1    0    0  501    0  0.00000000000E+00  0.00000000000E+00 -0.15750097205E+04  0.15750097205E+04  0.50400001928E-02 0. -1.
    10030    2    1    2    0    0  0.00000000000E+00  0.00000000000E+00 -0.94406308624E+03  0.22059563548E+04  0.19937372766E+04 0.  0.
        2    1    3    3  502    0  0.76020748969E+03 -0.29022224576E+03  0.16511307279E+03  0.83030518855E+03  0.25500000920E-02 0.  1.
       -2    1    3    3    0  502 -0.76020748969E+03  0.29022224576E+03 -0.11091761590E+04  0.13756511662E+04  0.25500000920E-02 0. -1.
</event>
<event>
 5   0  0.2596061E-04  0.1998930E+04  0.7818609E-02  0.8607121E-01
       -2   -1    0    0    0  501  0.00000000000E+00  0.00000000000E+00  0.87320113910E+03  0.87320113910E+03  0.25500000920E-02 0.  1.
        2   -1    0    0  501    0  0.00000000000E+00  0.00000000000E+00 -0.11439869287E+04  0.11439869287E+04  0.25500000920E-02 0. -1.
    10030    2    1    2    0    0  0.00000000000E+00  0.00000000000E+00 -0.27078578956E+03  0.20171880678E+04  0.19989304032E+04 0.  0.
        5    1    3    3  502    0  0.70756964519E+03 -0.66840667748E+03 -0.36437133903E+03  0.10393319258E+04  0.46999998093E+01 0. -1.
       -5    1    3    3    0  502 -0.70756964519E+03  0.66840667748E+03  0.93585549466E+02  0.97785614196E+03  0.46999998093E+01 0.  1.
</event>
<event>
 5   0  0.1207228E-04  0.2020861E+04  0.7818609E-02  0.8596929E-01
        1   -1    0    0  501    0  0.00000000000E+00  0.00000000000E+00  0.77857535117E+03  0.77857535118E+03  0.50400001928E-02 0.  1.
       -1   -1    0    0    0  501  0.00000000000E+00  0.00000000000E+00 -0.13113301895E+04  0.13113301895E+04  0.50400001928E-02 0. -1.
    10030    2    1    2    0    0  0.00000000000E+00  0.00000000000E+00 -0.53275483835E+03  0.20899055407E+04  0.20208605720E+04 0.  0.
        1    1    3    3  502    0  0.73522467866E+03 -0.67971966026E+03 -0.12611453085E+03  0.10091972154E+04  0.50400001928E-02 0. -1.
       -1    1    3    3    0  502 -0.73522467866E+03  0.67971966026E+03 -0.40664030750E+03  0.10807083253E+04  0.50400001928E-02 0.  1.
</event>
<event>
 5   0  0.1210633E-04  0.1977516E+04  0.7818609E-02  0.8617205E-01
        1   -1    0    0  501    0  0.00000000000E+00  0.00000000000E+00  0.10741129051E+04  0.10741129051E+04  0.50400001928E-02 0.  1.
       -1   -1    0    0    0  501  0.00000000000E+00  0.00000000000E+00 -0.91018626863E+03  0.91018626865E+03  0.50400001928E-02 0. -1.
    10030    2    1    2    0    0  0.00000000000E+00  0.00000000000E+00  0.16392663649E+03  0.19842991738E+04  0.19775164396E+04 0.  0.
        2    1    3    3  502    0  0.49655111634E+03 -0.55281190076E+03 -0.57256134534E+03  0.93807809000E+03  0.25500000920E-02 0. -1.
       -2    1    3    3    0  502 -0.49655111634E+03  0.55281190076E+03  0.73648798183E+03  0.10462210838E+04  0.25500000920E-02 0.  1.
</event>
<event>
 5   0  0.2421737E-04  0.2068959E+04  0.7818609E-02  0.8575042E-01
        2   -1    0    0  501    0  0.00000000000E+00  0.00000000000E+00  0.19514370201E+04  0.19514370201E+04  0.25500000920E-02 0. -1.
       -2   -1    0    0    0  501  0.00000000000E+00  0.00000000000E+00 -0.54838946901E+03  0.54838946902E+03  0.25500000920E-02 0.  1.
    10030    2    1    2    0    0  0.00000000000E+00  0.00000000000E+00  0.14030475511E+04  0.24998264891E+04  0.20689586862E+04 0.  0.
        1    1    3    3  502    0 -0.35255127077E+03 -0.64478714226E+03  0.15812324120E+04  0.17436567317E+04  0.50400001928E-02 0. -1.
       -1    1    3    3    0  502  0.35255127077E+03  0.64478714226E+03 -0.17818486089E+03  0.75616975741E+03  0.50400001928E-02 0.  1.
</event>
<event>
 5   0  0.2421737E-04  0.2039262E+04  0.7818609E-02  0.8588481E-01
        2   -1    0    0  501    0  0.00000000000E+00  0.00000000000E+00  0.90182432335E+03  0.90182432336E+03  0.25500000920E-02 0. -1.
       -2   -1    0    0    0  501  0.00000000000E+00  0.00000000000E+00 -0.11528264535E+04  0.11528264535E+04  0.25500000920E-02 0.  1.
    10030    2    1    2    0    0  0.00000000000E+00  0.00000000000E+00 -0.25100213013E+03  0.20546507768E+04  0.20392615687E+04 0.  0.
        1    1    3    3  502    0 -0.78359521175E+03  0.38003917283E+03  0.40877956005E+03  0.96205610933E+03  0.50400001928E-02 0. -1.
       -1    1    3    3    0  502  0.78359521175E+03 -0.38003917283E+03 -0.65978169018E+03  0.10925946675E+04  0.50400001928E-02 0.  1.
</event>
<event>
 5   0  0.9099125E-05  0.2005197E+04  0.7818609E-02  0.8604195E-01
        3   -1    0    0  501    0  0.00000000000E+00  0.00000000000E+00  0.25675125780E+04  0.25675125800E+04  0.10100000352E+00 0.  1.
       -3   -1    0    0    0  501  0.00000000000E+00  0.00000000000E+00 -0.39150876239E+03  0.39150877542E+03  0.10100000352E+00 0. -1.
    10030    2    1    2    0    0  0.00000000000E+00  0.00000000000E+00  0.21760038156E+04  0.29590213554E+04  0.20051969420E+04 0.  0.
        3    1    3    3  502    0 -0.27567745815E+03 -0.53912275211E+03 -0.91203049312E+02  0.61234745788E+03  0.10100000352E+00 0. -1.
       -3    1    3    3    0  502  0.27567745815E+03  0.53912275211E+03  0.22672068650E+04  0.23466738976E+04  0.10100000352E+00 0.  1.
</event>
<event>
 5   0  0.1258546E-04  0.2002162E+04  0.7818609E-02  0.8605610E-01
       -1   -1    0    0    0  501  0.00000000000E+00  0.00000000000E+00  0.42514135971E+03  0.42514135974E+03  0.50400001928E-02 0. -1.
        1   -1    0    0  501    0  0.00000000000E+00  0.00000000000E+00 -0.23572479733E+04  0.23572479733E+04  0.50400001928E-02 0.  1.
    10030    2    1    2    0    0  0.00000000000E+00  0.00000000000E+00 -0.19321066136E+04  0.27823893330E+04  0.20021624395E+04 0.  0.
        4    1    3    3  502    0 -0.15646408235E+03 -0.86422319636E+03 -0.29842338932E+03  0.92758874205E+03  0.12699999809E+01 0.  1.
       -4    1    3    3    0  502  0.15646408235E+03  0.86422319636E+03 -0.16336832242E+04  0.18548005910E+04  0.12699999809E+01 0. -1.
</event>
<event>
 5   0  0.2596061E-04  0.2040380E+04  0.7818609E-02  0.8587971E-01
       -2   -1    0    0    0  501  0.00000000000E+00  0.00000000000E+00  0.10341506495E+04  0.10341506495E+04  0.25500000920E-02 0.  1.
        2   -1    0    0  501    0  0.00000000000E+00  0.00000000000E+00 -0.10064176859E+04  0.10064176859E+04  0.25500000920E-02 0. -1.
    10030    2    1    2    0    0  0.00000000000E+00  0.00000000000E+00  0.27732963635E+02  0.20405683354E+04  0.20403798701E+04 0.  0.
        5    1    3    3  502    0  0.33980446473E+03 -0.44604591766E+03 -0.83846887818E+03  0.10087002452E+04  0.46999998093E+01 0. -1.
       -5    1    3    3    0  502 -0.33980446473E+03  0.44604591766E+03  0.86620184182E+03  0.10318680902E+04  0.46999998093E+01 0.  1.
</event>
<event>
 5   0  0.1324930E-04  0.2005754E+04  0.7818609E-02  0.8603935E-01
       -1   -1    0    0    0  501  0.00000000000E+00  0.00000000000E+00  0.64622935958E+03  0.64622935960E+03  0.50400001928E-02 0. -1.
        1   -1    0    0  501    0  0.00000000000E+00  0.00000000000E+00 -0.15563557168E+04  0.15563557168E+04  0.50400001928E-02 0.  1.
    10030    2    1    2    0    0  0.00000000000E+00  0.00000000000E+00 -0.91012635717E+03  0.22025850764E+04  0.20057544796E+04 0.  0.
        5    1    3    3  502    0  0.42533312692E+03 -0.68724818568E+03  0.19693778538E+03  0.83188035131E+03  0.46999998093E+01 0. -1.
       -5    1    3    3    0  502 -0.42533312692E+03  0.68724818568E+03 -0.11070641426E+04  0.13707047251E+04  0.46999998093E+01 0.  1.
</event>
<event>
 5   0  0.1210633E-04  0.1971777E+04  0.7818609E-02  0.8619931E-01
       -1   -1    0    0    0  501  0.00000000000E+00  0.00000000000E+00  0.90038583002E+03  0.90038583004E+03  0.50400001928E-02 0. -1.
        1   -1    0    0  501    0  0.00000000000E+00  0.00000000000E+00 -0.10795101637E+04  0.10795101638E+04  0.50400001928E-02 0.  1.
    10030    2    1    2    0    0  0.00000000000E+00  0.00000000000E+00 -0.17912433373E+03  0.19798959938E+04  0.19717765135E+04 0.  0.
        2    1    3    3  502    0  0.32633750436E+03  0.47692752819E+03 -0.89161265033E+03  0.10625107774E+04  0.25500000920E-02 0.  1.
       -2    1    3    3    0  502 -0.32633750436E+03 -0.47692752819E+03  0.71248831661E+03  0.91738521637E+03  0.25500000920E-02 0. -1.
</event>
<event>
 5   0  0.2596061E-04  0.1991191E+04  0.7818609E-02  0.8610750E-01
        2   -1    0    0  501    0  0.00000000000E+00  0.00000000000E+00  0.19088142540E+04  0.19088142540E+04  0.25500000920E-02 0.  1.
       -2   -1    0    0    0  501  0.00000000000E+00  0.00000000000E+00 -0.51928092379E+03  0.51928092380E+03  0.25500000920E-02 0. -1.
    10030    2    1    2    0    0  0.00000000000E+00  0.00000000000E+00  0.13895333302E+04  0.24280951778E+04  0.19911914314E+04 0.  0.
        5    1    3    3  502    0 -0.67581803890E+03 -0.51615801581E+03  0.63442826240E+02  0.85275799684E+03  0.46999998093E+01 0. -1.
       -5    1    3    3    0  502  0.67581803890E+03  0.51615801581E+03  0.13260905040E+04  0.15753371809E+04  0.46999998093E+01 0.  1.
</event>
<event>
 5   0  0.2421737E-04  0.2008481E+04  0.7818609E-02  0.8602666E-01
       -2   -1    0    0    0  501  0.00000000000E+00  0.00000000000E+00  0.42039415411E+03  0.42039415411E+03  0.25500000920E-02 0. -1.
        2   -1    0    0  501    0  0.00000000000E+00  0.00000000000E+00 -0.23989357971E+04  0.23989357971E+04  0.25500000920E-02 0.  1.
    10030    2    1    2    0    0  0.00000000000E+00  0.00000000000E+00 -0.19785416430E+04  0.28193299512E+04  0.20084806050E+04 0.  0.
        1    1    3    3  502    0 -0.43065485387E+03  0.44682676492E+03  0.11902317877E+03  0.63188945087E+03  0.50400001928E-02 0. -1.
       -1    1    3    3    0  502  0.43065485387E+03 -0.44682676492E+03 -0.20975648218E+04  0.21874405004E+04  0.50400001928E-02 0.  1.
</event>
<event>
 5   0  0.1210633E-04  0.1941584E+04  0.7818609E-02  0.8634430E-01
       -1   -1    0    0    0  501  0.00000000000E+00  0.00000000000E+00  0.18689744384E+04  0.18689744384E+04  0.50400001928E-02 0.  1.
        1   -1    0    0  501    0  0.00000000000E+00  0.00000000000E+00 -0.50425367066E+03  0.50425367069E+03  0.50400001928E-02 0. -1.
    10030    2    1    2    0    0  0.00000000000E+00  0.00000000000E+00  0.13647207677E+04  0.23732281091E+04  0.19415841171E+04 0.  0.
        2    1    3    3  502    0 -0.37790929567E+03  0.55451871442E+03 -0.17511870431E+03  0.69352217052E+03  0.25500000920E-02 0. -1.
       -2    1    3    3    0  502  0.37790929567E+03 -0.55451871442E+03  0.15398394720E+04  0.16797059386E+04  0.25500000920E-02 0.  1.
</event>
<event>
 5   0  0.1324930E-04  0.1946679E+04  0.7818609E-02  0.8631964E-01
       -1   -1    0    0    0  501  0.00000000000E+00  0.00000000000E+00  0.74301223171E+03  0.74301223173E+03  0.50400001928E-02 0. -1.
        1   -1    0    0  501    0  0.00000000000E+00  0.00000000000E+00 -0.12750660116E+04  0.12750660116E+04  0.50400001928E-02 0.  1.
    10030    2    1    2    0    0  0.00000000000E+00  0.00000000000E+00 -0.53205377992E+03  0.20180782434E+04  0.19466788568E+04 0.  0.
        5    1    3    3  502    0  0.94484820340E+03  0.21336411528E+03 -0.16710601471E+03  0.98295924804E+03  0.46999998093E+01 0.  1.
       -5    1    3    3    0  502 -0.94484820340E+03 -0.21336411528E+03 -0.36494776521E+03  0.10351189953E+04  0.46999998093E+01 0. -1.
</event>
<event>
 5   0  0.1231056E-04  0.1973943E+04  0.7818609E-02  0.8618901E-01
       -1   -1    0    0    0  501  0.00000000000E+00  0.00000000000E+00  0.30551268606E+03  0.30551268610E+03  0.50400001928E-02 0.  1.
        1   -1    0    0  501    0  0.00000000000E+00  0.00000000000E+00 -0.31884537456E+04  0.31884537456E+04  0.50400001928E-02 0. -1.
    10030    2    1    2    0    0  0.00000000000E+00  0.00000000000E+00 -0.28829410595E+04  0.34939664317E+04  0.19739433308E+04 0.  0.
        3    1    3    3  502    0  0.15845671364E+03 -0.52688331866E+03  0.88841809224E+01  0.55026675390E+03  0.10100000352E+00 0.  1.
       -3    1    3    3    0  502 -0.15845671364E+03  0.52688331866E+03 -0.28918252404E+04  0.29436996778E+04  0.10100000352E+00 0. -1.
</event>
<event>
 5   0  0.1231056E-04  0.1993270E+04  0.7818609E-02  0.8609774E-01
       -1   -1    0    0    0  501  0.00000000000E+00  0.00000000000E+00  0.18409410287E+04  0.18409410287E+04  0.50400001928E-02 0. -1.
        1   -1    0    0  501    0  0.00000000000E+00  0.00000000000E+00 -0.53955077334E+03  0.53955077336E+03  0.50400001928E-02 0.  1.
    10030    2    1    2    0    0  0.00000000000E+00  0.00000000000E+00  0.13013902553E+04  0.23804918021E+04  0.19932698319E+04 0.  0.
        3    1    3    3  502    0  0.11809305125E+03 -0.78424125103E+03  0.13715215223E+04  0.15843142381E+04  0.10100000352E+00 0. -1.
       -3    1    3    3    0  502 -0.11809305125E+03  0.78424125103E+03 -0.70131266977E+02  0.79617756398E+03  0.10100000352E+00 0.  1.
</event>
<event>
 5   0  0.1324930E-04  0.1958192E+04  0.7818609E-02  0.8626421E-01
       -1   -1    0    0    0  501  0.00000000000E+00  0.00000000000E+00  0.81792823598E+03  0.81792823599E+03  0.50400001928E-02 0.  1.
        1   -1    0    0  501    0  0.00000000000E+00  0.00000000000E+00 -0.11720208047E+04  0.11720208047E+04  0.50400001928E-02 0. -1.
    10030    2    1    2    0    0  0.00000000000E+00  0.00000000000E+00 -0.35409256876E+03  0.19899490407E+04  0.19581919307E+04 0.  0.
        5    1    3    3  502    0  0.45160885529E+03 -0.32821095135E+03  0.64031983230E+03  0.84953196785E+03  0.46999998093E+01 0.  1.
       -5    1    3    3    0  502 -0.45160885529E+03  0.32821095135E+03 -0.99441240106E+03  0.11404170729E+04  0.46999998093E+01 0. -1.
</event>
<event>
 5   0  0.1258546E-04  0.1876115E+04  0.7818609E-02  0.8666838E-01
       -1   -1    0    0    0  501  0.00000000000E+00  0.00000000000E+00  0.33651311407E+03  0.33651311411E+03  0.50400001928E-02 0.  1.
        1   -1    0    0  501    0  0.00000000000E+00  0.00000000000E+00 -0.26149101489E+04  0.26149101489E+04  0.50400001928E-02 0. -1.
    10030    2    1    2    0    0  0.00000000000E+00  0.00000000000E+00 -0.22783970349E+04  0.29514232630E+04  0.18761146631E+04 0.  0.
        4    1    3    3  502    0 -0.55486751755E+03 -0.73618541491E+03 -0.14121447674E+04  0.16864167291E+04  0.12699999809E+01 0. -1.
       -4    1    3    3    0  502  0.55486751755E+03  0.73618541491E+03 -0.86625226743E+03  0.12650065339E+04  0.12699999809E+01 0.  1.
</event>
<event>
 5   0  0.1324930E-04  0.1962657E+04  0.7818609E-02  0.8624281E-01
       -1   -1    0    0    0  501  0.00000000000E+00  0.00000000000E+00  0.75515243748E+03  0.75515243749E+03  0.50400001928E-02 0.  1.
        1   -1    0    0  501    0  0.00000000000E+00  0.00000000000E+00 -0.12752471791E+04  0.12752471791E+04  0.50400001928E-02 0. -1.
    10030    2    1    2    0    0  0.00000000000E+00  0.00000000000E+00 -0.52009474166E+03  0.20303996166E+04  0.19626573983E+04 0.  0.
        5    1    3    3  502    0  0.28745506967E+03 -0.58988053002E+03 -0.10148854391E+04  0.12085545090E+04  0.46999998093E+01 0. -1.
       -5    1    3    3    0  502 -0.28745506967E+03  0.58988053002E+03  0.49479069739E+03  0.82184510767E+03  0.46999998093E+01 0.  1.
</event>
<event>
 5   0  0.2540506E-04  0.1982913E+04  0.7818609E-02  0.8614651E-01
       -2   -1    0    0    0  501  0.00000000000E+00  0.00000000000E+00  0.46101832740E+03  0.46101832740E+03  0.25500000920E-02 0.  1.
        2   -1    0    0  501    0  0.00000000000E+00  0.00000000000E+00 -0.21322059412E+04  0.21322059412E+04  0.25500000920E-02 0. -1.
    10030    2    1    2    0    0  0.00000000000E+00  0.00000000000E+00 -0.16711876138E+04  0.25932242686E+04  0.19829130255E+04 0.  0.
        4    1    3    3  502    0  0.78454760360E+03 -0.53826242795E+03 -0.12002361644E+04  0.15316036847E+04  0.12699999809E+01 0. -1.
       -4    1    3    3    0  502 -0.78454760360E+03  0.53826242795E+03 -0.47095144943E+03  0.10616205840E+04  0.12699999809E+01 0.  1.
</event>
<event>
 5   0  0.1231056E-04  0.2015427E+04  0.7818609E-02  0.8599442E-01
        1   -1    0    0  501    0  0.00000000000E+00  0.00000000000E+00  0.20291601342E+04  0.20291601343E+04  0.50400001928E-02 0.  1.
       -1   -1    0    0    0  501  0.00000000000E+00  0.00000000000E+00 -0.50044667257E+03  0.50044667259E+03  0.50400001928E-02 0. -1.
    10030    2    1    2    0    0  0.00000000000E+00  0.00000000000E+00  0.15287134617E+04  0.25296068068E+04  0.20154269397E+04 0.  0.
        3    1    3    3  502    0  0.46955957062E+03 -0.25284582192E+03  0.18375185515E+04  0.19133456660E+04  0.10100000352E+00 0.  1.
       -3    1    3    3    0  502 -0.46955957062E+03  0.25284582192E+03 -0.30880508986E+03  0.61626114087E+03  0.10100000352E+00 0. -1.
</event>
<event>
 5   0  0.2488886E-04  0.1981163E+04  0.7818609E-02  0.8615478E-01
       -2   -1    0    0    0  501  0.00000000000E+00  0.00000000000E+00  0.80164352783E+03  0.80164352784E+03  0.25500000920E-02 0.  1.
        2   -1    0    0  501    0  0.00000000000E+00  0.00000000000E+00 -0.12240502029E+04  0.12240502029E+04  0.25500000920E-02 0. -1.
    10030    2    1    2    0    0  0.00000000000E+00  0.00000000000E+00 -0.42240667506E+03  0.20256937307E+04  0.19811632168E+04 0.  0.
        3    1    3    3  502    0  0.29079253275E+03  0.93360286728E+03 -0.37312089029E+03  0.10466106343E+04  0.10100000352E+00 0. -1.
       -3    1    3    3    0  502 -0.29079253275E+03 -0.93360286728E+03 -0.49285784769E+02  0.97908309641E+03  0.10100000352E+00 0.  1.
</event>
<event>
 5   0  0.2488886E-04  0.2122364E+04  0.7818609E-02  0.8551455E-01
        2   -1    0    0  501    0  0.00000000000E+00  0.00000000000E+00  0.12580972656E+04  0.12580972656E+04  0.25500000920E-02 0.  1.
       -2   -1    0    0    0  501  0.00000000000E+00  0.00000000000E+00 -0.89508782295E+03  0.89508782296E+03  0.25500000920E-02 0. -1.
    10030    2    1    2    0    0  0.00000000000E+00  0.00000000000E+00  0.36300944262E+03  0.21531850885E+04  0.21223642878E+04 0.  0.
        3    1    3    3  502    0  0.89894462580E+03  0.20331555891E+03 -0.35212693704E+03  0.98662659945E+03  0.10100000352E+00 0. -1.
       -3    1    3    3    0  502 -0.89894462580E+03 -0.20331555891E+03  0.71513637967E+03  0.11665584891E+04  0.10100000352E+00 0.  1.
</event>
<event>
 5   0  0.2596061E-04  0.2085908E+04  0.7818609E-02  0.8567476E-01
       -2   -1    0    0    0  501  0.00000000000E+00  0.00000000000E+00  0.54272829815E+03  0.54272829815E+03  0.25500000920E-02 0. -1.
        2   -1    0    0  501    0  0.00000000000E+00  0.00000000000E+00 -0.20042317035E+04  0.20042317035E+04  0.25500000920E-02 0.  1.
    10030    2    1    2    0    0  0.00000000000E+00  0.00000000000E+00 -0.14615034054E+04  0.25469600017E+04  0.20859082066E+04 0.  0.
        5    1    3    3  502    0  0.30640070362E+02  0.61703541596E+03  0.29524893205E+03  0.68473757041E+03  0.46999998093E+01 0. -1.
       -5    1    3    3    0  502 -0.30640070362E+02 -0.61703541596E+03 -0.17567523374E+04  0.18622224313E+04  0.46999998093E+01 0.  1.
</event>
<event>
 5   0  0.2596061E-04  0.2054209E+04  0.7818609E-02  0.8581687E-01
       -2   -1    0    0    0  501  0.00000000000E+00  0.00000000000E+00  0.64114284741E+03  0.64114284741E+03  0.25500000920E-02 0.  1.
        2   -1    0    0  501    0  0.00000000000E+00  0.00000000000E+00 -0.16454117200E+04  0.16454117200E+04  0.25500000920E-02 0. -1.
    10030    2    1    2    0    0  0.00000000000E+00  0.00000000000E+00 -0.10042688726E+04  0.22865545674E+04  0.20542092934E+04 0.  0.
        5    1    3    3  502    0 -0.70894397646E+03 -0.26560574465E+03  0.27047233663E+03  0.80394362255E+03  0.46999998093E+01 0.  1.
       -5    1    3    3    0  502  0.70894397646E+03  0.26560574465E+03 -0.12747412092E+04  0.14826109448E+04  0.46999998093E+01 0. -1.
</event>
<event>
 5   0  0.1324930E-04  0.1886456E+04  0.7818609E-02  0.8661628E-01
       -1   -1    0    0    0  501  0.00000000000E+00  0.00000000000E+00  0.21358737781E+04  0.21358737781E+04  0.50400001928E-02 0.  1.
        1   -1    0    0  501    0  0.00000000000E+00  0.00000000000E+00 -0.41654097567E+03  0.41654097570E+03  0.50400001928E-02 0. -1.
    10030    2    1    2    0    0  0.00000000000E+00  0.00000000000E+00  0.17193328024E+04  0.25524147538E+04  0.18864558807E+04 0.  0.
        5    1    3    3  502    0 -0.24596972669E+03  0.31797319797E+03  0.20141422120E+04  0.20538741445E+04  0.46999998093E+01 0.  1.
       -5    1    3    3    0  502  0.24596972669E+03 -0.31797319797E+03 -0.29480940965E+03  0.49854060927E+03  0.46999998093E+01 0. -1.
</event>
<event>
 5   0  0.1210633E-04  0.2008417E+04  0.7818609E-02  0.8602696E-01
        1   -1    0    0  501    0  0.00000000000E+00  0.00000000000E+00  0.15584588689E+04  0.15584588689E+04  0.50400001928E-02 0.  1.
       -1   -1    0    0    0  501  0.00000000000E+00  0.00000000000E+00 -0.64707145770E+03  0.64707145772E+03  0.50400001928E-02 0. -1.
    10030    2    1    2    0    0  0.00000000000E+00  0.00000000000E+00  0.91138741119E+03  0.22055303266E+04  0.20084165425E+04 0.  0.
        2    1    3    3  502    0  0.48187395743E+02  0.85164230038E+03  0.10376246083E+04  0.13432354450E+04  0.25500000920E-02 0.  1.
       -2    1    3    3    0  502 -0.48187395743E+02 -0.85164230038E+03 -0.12623719714E+03  0.86229488161E+03  0.25500000920E-02 0. -1.
</event>
<event>
 5   0  0.2596061E-04  0.1934936E+04  0.7818609E-02  0.8637659E-01
        2   -1    0    0  501    0  0.00000000000E+00  0.00000000000E+00  0.13508923176E+04  0.13508923176E+04  0.25500000920E-02 0. -1.
       -2   -1    0    0    0  501  0.00000000000E+00  0.00000000000E+00 -0.69287145770E+03  0.69287145771E+03  0.25500000920E-02 0.  1.
    10030    2    1    2    0    0  0.00000000000E+00  0.00000000000E+00  0.65802085992E+03  0.20437637753E+04  0.19349364117E+04 0.  0.
        5    1    3    3  502    0  0.11623802714E+03 -0.10322267347E+03  0.13376019853E+04  0.13466132928E+04  0.46999998093E+01 0. -1.
       -5    1    3    3    0  502 -0.11623802714E+03  0.10322267347E+03 -0.67958112540E+03  0.69715048251E+03  0.46999998093E+01 0.  1.
</event>
<event>
 5   0  0.2421737E-04  0.1952763E+04  0.7818609E-02  0.8629029E-01
        2   -1    0    0  501    0  0.00000000000E+00  0.00000000000E+00  0.11653233596E+04  0.11653233596E+04  0.25500000920E-02 0.  1.
       -2   -1    0    0    0  501  0.00000000000E+00  0.00000000000E+00 -0.81807443183E+03  0.81807443183E+03  0.25500000920E-02 0. -1.
    10030    2    1    2    0    0  0.00000000000E+00  0.00000000000E+00  0.34724892773E+03  0.19833977914E+04  0.19527634217E+04 0.  0.
        1    1    3    3  502    0  0.77942017609E+03  0.42206929001E+03  0.58953952288E+03  0.10645163904E+04  0.50400001928E-02 0.  1.
       -1    1    3    3    0  502 -0.77942017609E+03 -0.42206929001E+03 -0.24229059515E+03  0.91888140094E+03  0.50400001928E-02 0. -1.
</event>
<event>
 5   0  0.1210633E-04  0.1991802E+04  0.7818609E-02  0.8610463E-01
       -1   -1    0    0    0  501  0.00000000000E+00  0.00000000000E+00  0.93353247405E+03  0.93353247407E+03  0.50400001928E-02 0. -1.
        1   -1    0    0  501    0  0.00000000000E+00  0.00000000000E+00 -0.10624360814E+04  0.10624360814E+04  0.50400001928E-02 0.  1.
    10030    2    1    2    0    0  0.00000000000E+00  0.00000000000E+00 -0.12890360737E+03  0.19959685555E+04  0.19918017809E+04 0.  0.
        2    1    3    3  502    0 -0.34832421158E+03 -0.11115829193E+03  0.86384059609E+03  0.93803331375E+03  0.25500000920E-02 0. -1.
       -2    1    3    3    0  502  0.34832421158E+03  0.11115829193E+03 -0.99274420346E+03  0.10579352418E+04  0.25500000920E-02 0.  1.
</event>
<event>
 5   0  0.2421737E-04  0.1991699E+04  0.7818609E-02  0.8610512E-01
       -2   -1    0    0    0  501  0.00000000000E+00  0.00000000000E+00  0.49457938585E+03  0.49457938586E+03  0.25500000920E-02 0.  1.
        2   -1    0    0  501    0  0.00000000000E+00  0.00000000000E+00 -0.20051705775E+04  0.20051705775E+04  0.25500000920E-02 0. -1.
    10030    2    1    2    0    0  0.00000000000E+00  0.00000000000E+00 -0.15105911916E+04  0.24997499634E+04  0.19916988053E+04 0.  0.
        1    1    3    3  502    0 -0.33812057283E+03 -0.18547669842E+03 -0.19076440863E+04  0.19462356197E+04  0.50400001928E-02 0. -1.
       -1    1    3    3    0  502  0.33812057283E+03  0.18547669842E+03  0.39705289466E+03  0.55351434364E+03  0.50400001928E-02 0.  1.
</event>
<event>
 5   0  0.1258546E-04  0.2000953E+04  0.7818609E-02  0.8606175E-01
        1   -1    0    0  501    0  0.00000000000E+00  0.00000000000E+00  0.16405457523E+04  0.16405457523E+04  0.50400001928E-02 0.  1.
       -1   -1    0    0    0  501  0.00000000000E+00  0.00000000000E+00 -0.61013458889E+03  0.61013458891E+03  0.50400001928E-02 0. -1.
    10030    2    1    2    0    0  0.00000000000E+00  0.00000000000E+00  0.10304111634E+04  0.22506803412E+04  0.20009534809E+04 0.  0.
        4    1    3    3  502    0  0.23809162355E+02  0.67749196240E+03  0.13428273101E+04  0.15042436748E+04  0.12699999809E+01 0.  1.
       -4    1    3    3    0  502 -0.23809162355E+02 -0.67749196240E+03 -0.31241614676E+03  0.74643666643E+03  0.12699999809E+01 0. -1.
</event>
<event>
 5   0  0.2488886E-04  0.2025835E+04  0.7818609E-02  0.8594636E-01
        2   -1    0    0  501    0  0.00000000000E+00  0.00000000000E+00  0.93174418518E+03  0.93174418518E+03  0.25500000920E-02 0.  1.
       -2   -1    0    0    0  501  0.00000000000E+00  0.00000000000E+00 -0.11011622709E+04  0.11011622709E+04  0.25500000920E-02 0. -1.
    10030    2    1    2    0    0  0.00000000000E+00  0.00000000000E+00 -0.16941808568E+03  0.20329064561E+04  0.20258346851E+04 0.  0.
        3    1    3    3  502    0  0.33973163616E+03  0.78821985344E+03 -0.62444663011E+03  0.10614338067E+04  0.10100000352E+00 0. -1.
       -3    1    3    3    0  502 -0.33973163616E+03 -0.78821985344E+03  0.45502854443E+03  0.97147264934E+03  0.10100000352E+00 0.  1.
</event>
<event>
 5   0  0.1258546E-04  0.1961688E+04  0.7818609E-02  0.8624745E-01
       -1   -1    0    0    0  501  0.00000000000E+00  0.00000000000E+00  0.98595878521E+03  0.98595878523E+03  0.50400001928E-02 0.  1.
        1   -1    0    0  501    0  0.00000000000E+00  0.00000000000E+00 -0.97575554141E+03  0.97575554143E+03  0.50400001928E-02 0. -1.
    10030    2    1    2    0    0  0.00000000000E+00  0.00000000000E+00  0.10203243798E+02  0.19617143267E+04  0.19616877920E+04 0.  0.
        4    1    3    3  502    0 -0.76502194623E+03  0.40841416595E+02 -0.60738240582E+03  0.97767151913E+03  0.12699999809E+01 0.  1.
       -4    1    3    3    0  502  0.76502194623E+03 -0.40841416595E+02  0.61758564961E+03  0.98404280752E+03  0.12699999809E+01 0. -1.
</event>
<event>
 5   0  0.2488886E-04  0.1385078E+04  0.7818609E-02  0.8964691E-01
       -2   -1    0    0    0  501  0.00000000000E+00  0.00000000000E+00  0.38593644879E+03  0.38593644880E+03  0.25500000920E-02 0. -1.
        2   -1    0    0  501    0  0.00000000000E+00  0.00000000000E+00 -0.12427182143E+04  0.12427182143E+04  0.25500000920E-02 0.  1.
    10030    2    1    2    0    0  0.00000000000E+00  0.00000000000E+00 -0.85678176548E+03  0.16286546631E+04  0.13850779826E+04 0.  0.
        3    1    3    3  502    0  0.25739969406E+03 -0.47200360382E+03 -0.94170125810E+03  0.10843630731E+04  0.10100000352E+00 0.  1.
       -3    1    3    3    0  502 -0.25739969406E+03  0.47200360382E+03  0.84919492617E+02  0.54429159001E+03  0.10100000352E+00 0. -1.
</event>
<event>
 5   0  0.2540506E-04  0.1953826E+04  0.7818609E-02  0.8628518E-01
       -2   -1    0    0    0  501  0.00000000000E+00  0.00000000000E+00  0.70923145983E+03  0.70923145983E+03  0.25500000920E-02 0.  1.
        2   -1    0    0  501    0  0.00000000000E+00  0.00000000000E+00 -0.13456236542E+04  0.13456236542E+04  0.25500000920E-02 0. -1.
    10030    2    1    2    0    0  0.00000000000E+00  0.00000000000E+00 -0.63639219438E+03  0.20548551140E+04  0.19538256101E+04 0.  0.
        4    1    3    3  502    0  0.62022397270E+03 -0.71583459192E+03 -0.56986025618E+03  0.11053683837E+04  0.12699999809E+01 0.  1.
       -4    1    3    3    0  502 -0.62022397270E+03  0.71583459192E+03 -0.66531938195E+02  0.94948673030E+03  0.12699999809E+01 0. -1.
</event>
<event>
 5   0  0.2463085E-04  0.2015909E+04  0.7818609E-02  0.8599219E-01
       -2   -1    0    0    0  501  0.00000000000E+00  0.00000000000E+00  0.11665048481E+04  0.11665048481E+04  0.25500000920E-02 0. -1.
        2   -1    0    0  501    0  0.00000000000E+00  0.00000000000E+00 -0.87095420122E+03  0.87095420123E+03  0.25500000920E-02 0.  1.
    10030    2    1    2    0    0  0.00000000000E+00  0.00000000000E+00  0.29555064684E+03  0.20374590493E+04  0.20159090239E+04 0.  0.
        2    1    3    3  502    0  0.76097794431E+03 -0.36486837595E+03 -0.40925693398E+03  0.93792729010E+03  0.25500000920E-02 0.  1.
       -2    1    3    3    0  502 -0.76097794431E+03  0.36486837595E+03  0.70480758082E+03  0.10995317592E+04  0.25500000920E-02 0. -1.
</event>
<event>
 5   0  0.2463085E-04  0.1978983E+04  0.7818609E-02  0.8616510E-01
       -2   -1    0    0    0  501  0.00000000000E+00  0.00000000000E+00  0.42726025894E+03  0.42726025895E+03  0.25500000920E-02 0. -1.
        2   -1    0    0  501    0  0.00000000000E+00  0.00000000000E+00 -0.22915622244E+04  0.22915622244E+04  0.25500000920E-02 0.  1.
    10030    2    1    2    0    0  0.00000000000E+00  0.00000000000E+00 -0.18643019654E+04  0.27188224833E+04  0.19789830412E+04 0.  0.
        2    1    3    3  502    0  0.15887553573E+03 -0.95613131143E+03 -0.65853451677E+03  0.11717918887E+04  0.25500000920E-02 0.  1.
       -2    1    3    3    0  502 -0.15887553573E+03  0.95613131143E+03 -0.12057674487E+04  0.15470305947E+04  0.25500000920E-02 0. -1.
</event>
<event>
 5   0  0.1210633E-04  0.1983371E+04  0.7818609E-02  0.8614435E-01
        1   -1    0    0  501    0  0.00000000000E+00  0.00000000000E+00  0.13917188159E+04  0.13917188159E+04  0.50400001928E-02 0.  1.
       -1   -1    0    0    0  501  0.00000000000E+00  0.00000000000E+00 -0.70663744048E+03  0.70663744050E+03  0.50400001928E-02 0. -1.
    10030    2    1    2    0    0  0.00000000000E+00  0.00000000000E+00  0.68508137540E+03  0.20983562564E+04  0.19833714952E+04 0.  0.
        2    1    3    3  502    0 -0.18603693287E+03 -0.21446246318E+03 -0.66272247228E+03  0.72097500912E+03  0.25500000920E-02 0. -1.
       -2    1    3    3    0  502  0.18603693287E+03  0.21446246318E+03  0.13478038477E+04  0.13773812473E+04  0.25500000920E-02 0.  1.
</event>
<event>
 5   0  0.2463085E-04  0.2013122E+04  0.7818609E-02  0.8600510E-01
        2   -1    0    0  501    0  0.00000000000E+00  0.00000000000E+00  0.12719668069E+04  0.12719668070E+04  0.25500000920E-02 0.  1.
       -2   -1    0    0    0  501  0.00000000000E+00  0.00000000000E+00 -0.79653432034E+03  0.79653432034E+03  0.25500000920E-02 0. -1.
    10030    2    1    2    0    0  0.00000000000E+00  0.00000000000E+00  0.47543248661E+03  0.20685011273E+04  0.20131221682E+04 0.  0.
        2    1    3    3  502    0 -0.80359046720E+02  0.28838561661E+01  0.12686612961E+04  0.12712070553E+04  0.25500000920E-02 0.  1.
       -2    1    3    3    0  502  0.80359046720E+02 -0.28838561661E+01 -0.79322880953E+03  0.79729407203E+03  0.25500000920E-02 0. -1.
</event>
<event>
 5   0  0.2596061E-04  0.1968625E+04  0.7818609E-02  0.8621432E-01
        2   -1    0    0  501    0  0.00000000000E+00  0.00000000000E+00  0.15362119385E+04  0.15362119385E+04  0.25500000920E-02 0. -1.
       -2   -1    0    0    0  501  0.00000000000E+00  0.00000000000E+00 -0.63068815316E+03  0.63068815316E+03  0.25500000920E-02 0.  1.
    10030    2    1    2    0    0  0.00000000000E+00  0.00000000000E+00  0.90552378530E+03  0.21669000916E+04  0.19686245659E+04 0.  0.
        5    1    3    3  502    0 -0.78248158823E+03  0.58985932779E+03  0.35046547857E+03  0.10407014962E+04  0.46999998093E+01 0. -1.
       -5    1    3    3    0  502  0.78248158823E+03 -0.58985932779E+03  0.55505830673E+03  0.11261985954E+04  0.46999998093E+01 0.  1.
</event>
<event>
 5   0  0.2596061E-04  0.1977090E+04  0.7818609E-02  0.8617407E-01
        2   -1    0    0  501    0  0.00000000000E+00  0.00000000000E+00  0.20007913188E+04  0.20007913188E+04  0.25500000920E-02 0.  1.
       -2   -1    0    0    0  501  0.00000000000E+00  0.00000000000E+00 -0.48841722083E+03  0.48841722084E+03  0.25500000920E-02 0. -1.
    10030    2    1    2    0    0  0.00000000000E+00  0.00000000000E+00  0.15123740979E+04  0.24892085396E+04  0.19770897151E+04 0.  0.
        5    1    3    3  502    0 -0.65059148584E+03  0.69015438934E+03  0.11069485216E+04  0.14577172161E+04  0.46999998093E+01 0.  1.
       -5    1    3    3    0  502  0.65059148584E+03 -0.69015438934E+03  0.40542557631E+03  0.10314913235E+04  0.46999998093E+01 0. -1.
</event>
<event>
 5   0  0.2488886E-04  0.2090783E+04  0.7818609E-02  0.8565314E-01
        2   -1    0    0  501    0  0.00000000000E+00  0.00000000000E+00  0.17155951807E+04  0.17155951807E+04  0.25500000920E-02 0. -1.
       -2   -1    0    0    0  501  0.00000000000E+00  0.00000000000E+00 -0.63700544814E+03  0.63700544814E+03  0.25500000920E-02 0.  1.
    10030    2    1    2    0    0  0.00000000000E+00  0.00000000000E+00  0.10785897325E+04  0.23526006288E+04  0.20907830848E+04 0.  0.
        3    1    3    3  502    0  0.64012881247E+03 -0.28515497800E+03 -0.33358156773E+03  0.77611528175E+03  0.10100000352E+00 0.  1.
       -3    1    3    3    0  502 -0.64012881247E+03  0.28515497800E+03  0.14121713003E+04  0.15764853471E+04  0.10100000352E+00 0. -1.
</event>
<event>
 5   0  0.1324930E-04  0.1665404E+04  0.7818609E-02  0.8781345E-01
       -1   -1    0    0    0  501  0.00000000000E+00  0.00000000000E+00  0.60547055735E+03  0.60547055737E+03  0.50400001928E-02 0. -1.
        1   -1    0    0  501    0  0.00000000000E+00  0.00000000000E+00 -0.11452129703E+04  0.11452129703E+04  0.50400001928E-02 0.  1.
    10030    2    1    2    0    0  0.00000000000E+00  0.00000000000E+00 -0.53974241291E+03  0.17506835276E+04  0.16654041376E+04 0.  0.
        5    1    3    3  502    0 -0.67660019062E+03 -0.40122498797E+03 -0.55698979487E+03  0.96386152040E+03  0.46999998093E+01 0.  1.
       -5    1    3    3    0  502  0.67660019062E+03  0.40122498797E+03  0.17247381952E+02  0.78682200725E+03  0.46999998093E+01 0. -1.
</event>
<event>
 5   0  0.1207228E-04  0.1835439E+04  0.7818609E-02  0.8687677E-01
       -1   -1    0    0    0  501  0.00000000000E+00  0.00000000000E+00  0.18353595752E+04  0.18353595752E+04  0.50400001928E-02 0.  1.
        1   -1    0    0  501    0  0.00000000000E+00  0.00000000000E+00 -0.45887940127E+03  0.45887940130E+03  0.50400001928E-02 0. -1.
    10030    2    1    2    0    0  0.00000000000E+00  0.00000000000E+00  0.13764801739E+04  0.22942389765E+04  0.18354385885E+04 0.  0.
        1    1    3    3  502    0 -0.86119224989E+03 -0.23671463190E+03  0.42449158327E+03  0.98887765296E+03  0.50400001928E-02 0. -1.
       -1    1    3    3    0  502  0.86119224989E+03  0.23671463190E+03  0.95198859065E+03  0.13053613235E+04  0.50400001928E-02 0.  1.
</event>
<event>
 5   0  0.2488886E-04  0.1907280E+04  0.7818609E-02  0.8651241E-01
        2   -1    0    0  501    0  0.00000000000E+00  0.00000000000E+00  0.96814235536E+03  0.96814235537E+03  0.25500000920E-02 0. -1.
       -2   -1    0    0    0  501  0.00000000000E+00  0.00000000000E+00 -0.93935513663E+03  0.93935513664E+03  0.25500000920E-02 0.  1.
    10030    2    1    2    0    0  0.00000000000E+00  0.00000000000E+00  0.28787218730E+02  0.19074974920E+04  0.19072802568E+04 0.  0.
        3    1    3    3  502    0 -0.39513270156E+03  0.19009321013E+03 -0.83255832564E+03  0.94096687305E+03  0.10100000352E+00 0.  1.
       -3    1    3    3    0  502  0.39513270156E+03 -0.19009321013E+03  0.86134554437E+03  0.96653061896E+03  0.10100000352E+00 0. -1.
</event>
<event>
 5   0  0.9099125E-05  0.2084187E+04  0.7818609E-02  0.8568241E-01
       -4   -1    0    0    0  501  0.00000000000E+00  0.00000000000E+00  0.14153463620E+04  0.14153469318E+04  0.12699999809E+01 0. -1.
        4   -1    0    0  501    0  0.00000000000E+00  0.00000000000E+00 -0.76727272367E+03  0.76727377473E+03  0.12699999809E+01 0.  1.
    10030    2    1    2    0    0  0.00000000000E+00  0.00000000000E+00  0.64807363833E+03  0.21826207065E+04  0.20841865818E+04 0.  0.
        5    1    3    3  502    0  0.81389898710E+03 -0.61637318533E+03  0.54267675515E+03  0.11562299146E+04  0.46999998093E+01 0. -1.
       -5    1    3    3    0  502 -0.81389898710E+03  0.61637318533E+03  0.10539688318E+03  0.10263907919E+04  0.46999998093E+01 0.  1.
</event>
<event>
 5   0  0.2540506E-04  0.2012132E+04  0.7818609E-02  0.8600970E-01
       -2   -1    0    0    0  501  0.00000000000E+00  0.00000000000E+00  0.83091557140E+03  0.83091557141E+03  0.25500000920E-02 0. -1.
        2   -1    0    0  501    0  0.00000000000E+00  0.00000000000E+00 -0.12181363443E+04  0.12181363443E+04  0.25500000920E-02 0.  1.
    10030    2    1    2    0    0  0.00000000000E+00  0.00000000000E+00 -0.38722077291E+03  0.20490519157E+04  0.20121316623E+04 0.  0.
        4    1    3    3  502    0  0.34620830094E+03  0.78592924777E+03 -0.72726974497E+03  0.11253745443E+04  0.12699999809E+01 0.  1.
       -4    1    3    3    0  502 -0.34620830094E+03 -0.78592924777E+03  0.34004897206E+03  0.92367737140E+03  0.12699999809E+01 0. -1.
</event>
<event>
 5   0  0.1258546E-04  0.1985602E+04  0.7818609E-02  0.8613382E-01
        1   -1    0    0  501    0  0.00000000000E+00  0.00000000000E+00  0.90363523172E+03  0.90363523174E+03  0.50400001928E-02 0.  1.
       -1   -1    0    0    0  501  0.00000000000E+00  0.00000000000E+00 -0.10907647987E+04  0.10907647987E+04  0.50400001928E-02 0. -1.
    10030    2    1    2    0    0  0.00000000000E+00  0.00000000000E+00 -0.18712956693E+03  0.19944000304E+04  0.19856016737E+04 0.  0.
        4    1    3    3  502    0  0.95654660405E+03 -0.10415561757E+03  0.15210454234E+03  0.97414947677E+03  0.12699999809E+01 0.  1.
       -4    1    3    3    0  502 -0.95654660405E+03  0.10415561757E+03 -0.33923410927E+03  0.10202505536E+04  0.12699999809E+01 0. -1.
</event>
<event>
 5   0  0.2540506E-04  0.2021842E+04  0.7818609E-02  0.8596477E-01
        2   -1    0    0  501    0  0.00000000000E+00  0.00000000000E+00  0.12098626332E+04  0.12098626332E+04  0.25500000920E-02 0. -1.
       -2   -1    0    0    0  501  0.00000000000E+00  0.00000000000E+00 -0.84469176625E+03  0.84469176625E+03  0.25500000920E-02 0.  1.
    10030    2    1    2    0    0  0.00000000000E+00  0.00000000000E+00  0.36517086698E+03  0.20545543995E+04  0.20218417392E+04 0.  0.
        4    1    3    3  502    0 -0.30738409402E+03  0.37560005612E+03  0.10837248063E+04  0.11874432416E+04  0.12699999809E+01 0. -1.
       -4    1    3    3    0  502  0.30738409402E+03 -0.37560005612E+03 -0.71855393933E+03  0.86711115783E+03  0.12699999809E+01 0.  1.
</event>
<event>
 5   0  0.2421737E-04  0.1781011E+04  0.7818609E-02  0.8716463E-01
       -2   -1    0    0    0  501  0.00000000000E+00  0.00000000000E+00  0.62575140876E+03  0.62575140876E+03  0.25500000920E-02 0.  1.
        2   -1    0    0  501    0  0.00000000000E+00  0.00000000000E+00 -0.12672764526E+04  0.12672764526E+04  0.25500000920E-02 0. -1.
    10030    2    1    2    0    0  0.00000000000E+00  0.00000000000E+00 -0.64152504387E+03  0.18930278614E+04  0.17810109775E+04 0.  0.
        1    1    3    3  502    0  0.34347134656E+03 -0.21245028702E+03 -0.11643372710E+04  0.12323915656E+04  0.50400001928E-02 0. -1.
       -1    1    3    3    0  502 -0.34347134656E+03  0.21245028702E+03  0.52281222715E+03  0.66063629574E+03  0.50400001928E-02 0.  1.
</event>
<event>
 5   0  0.2463085E-04  0.1988781E+04  0.7818609E-02  0.8611884E-01
       -2   -1    0    0    0  501  0.00000000000E+00  0.00000000000E+00  0.12975451411E+04  0.12975451411E+04  0.25500000920E-02 0.  1.
        2   -1    0    0  501    0  0.00000000000E+00  0.00000000000E+00 -0.76206424277E+03  0.76206424277E+03  0.25500000920E-02 0. -1.
    10030    2    1    2    0    0  0.00000000000E+00  0.00000000000E+00  0.53548089832E+03  0.20596093839E+04  0.19887812905E+04 0.  0.
        2    1    3    3  502    0 -0.53088327268E+03 -0.50454230903E+03  0.96431124282E+03  0.12109071657E+04  0.25500000920E-02 0.  1.
       -2    1    3    3    0  502  0.53088327268E+03  0.50454230903E+03 -0.42883034450E+03  0.84870221820E+03  0.25500000920E-02 0. -1.
</event>
<event>
 5   0  0.1231056E-04  0.1993125E+04  0.7818609E-02  0.8609842E-01
        1   -1    0    0  501    0  0.00000000000E+00  0.00000000000E+00  0.96418948339E+03  0.96418948341E+03  0.50400001928E-02 0.  1.
       -1   -1    0    0    0  501  0.00000000000E+00  0.00000000000E+00 -0.10300228455E+04  0.10300228455E+04  0.50400001928E-02 0. -1.
    10030    2    1    2    0    0  0.00000000000E+00  0.00000000000E+00 -0.65833362104E+02  0.19942123289E+04  0.19931253802E+04 0.  0.
        3    1    3    3  502    0  0.31766051760E+02 -0.49387294172E+03  0.83255077779E+03  0.96853516839E+03  0.10100000352E+00 0.  1.
       -3    1    3    3    0  502 -0.31766051760E+02  0.49387294172E+03 -0.89838413990E+03  0.10256771605E+04  0.10100000352E+00 0. -1.
</event>
<event>
 5   0  0.1207228E-04  0.1960770E+04  0.7818609E-02  0.8625185E-01
       -1   -1    0    0    0  501  0.00000000000E+00  0.00000000000E+00  0.17133362084E+04  0.17133362084E+04  0.50400001928E-02 0.  1.
        1   -1    0    0  501    0  0.00000000000E+00  0.00000000000E+00 -0.56098448234E+03  0.56098448236E+03  0.50400001928E-02 0. -1.
    10030    2    1    2    0    0  0.00000000000E+00  0.00000000000E+00  0.11523517260E+04  0.22743206907E+04  0.19607702833E+04 0.  0.
        1    1    3    3  502    0 -0.64436325578E+03 -0.72319324611E+03  0.75186536954E+03  0.12261786210E+04  0.50400001928E-02 0.  1.
       -1    1    3    3    0  502  0.64436325578E+03  0.72319324611E+03  0.40048635647E+03  0.10481420697E+04  0.50400001928E-02 0. -1.
</event>
<event>
 5   0  0.1210633E-04  0.2048509E+04  0.7818609E-02  0.8584271E-01
        1   -1    0    0  501    0  0.00000000000E+00  0.00000000000E+00  0.12673424332E+04  0.12673424332E+04  0.50400001928E-02 0.  1.
       -1   -1    0    0    0  501  0.00000000000E+00  0.00000000000E+00 -0.82779334362E+03  0.82779334364E+03  0.50400001928E-02 0. -1.
    10030    2    1    2    0    0  0.00000000000E+00  0.00000000000E+00  0.43954908961E+03  0.20951357769E+04  0.20485093413E+04 0.  0.
        2    1    3    3  502    0  0.10226127949E+04  0.24021581817E+02  0.27373588836E+03  0.10588887106E+04  0.25500000920E-02 0. -1.
       -2    1    3    3    0  502 -0.10226127949E+04 -0.24021581817E+02  0.16581320124E+03  0.10362470663E+04  0.25500000920E-02 0.  1.
</event>
<event>
 5   0  0.2463085E-04  0.2018534E+04  0.7818609E-02  0.8598004E-01
       -2   -1    0    0    0  501  0.00000000000E+00  0.00000000000E+00  0.78781682199E+03  0.78781682200E+03  0.25500000920E-02 0.  1.
        2   -1    0    0  501    0  0.00000000000E+00  0.00000000000E+00 -0.12929650235E+04  0.12929650235E+04  0.25500000920E-02 0. -1.
    10030    2    1    2    0    0  0.00000000000E+00  0.00000000000E+00 -0.50514820146E+03  0.20807818454E+04  0.20185337210E+04 0.  0.
        2    1    3    3  502    0  0.76386845950E+02 -0.25880062043E+03  0.74994296999E+03  0.79701139867E+03  0.25500000920E-02 0.  1.
       -2    1    3    3    0  502 -0.76386845950E+02  0.25880062043E+03 -0.12550911714E+04  0.12837704468E+04  0.25500000920E-02 0. -1.
</event>
<event>
 5   0  0.2596061E-04  0.1860100E+04  0.7818609E-02  0.8674976E-01
        2   -1    0    0  501    0  0.00000000000E+00  0.00000000000E+00  0.90160119991E+03  0.90160119992E+03  0.25500000920E-02 0.  1.
       -2   -1    0    0    0  501  0.00000000000E+00  0.00000000000E+00 -0.95939596058E+03  0.95939596059E+03  0.25500000920E-02 0. -1.
    10030    2    1    2    0    0  0.00000000000E+00  0.00000000000E+00 -0.57794760669E+02  0.18609971605E+04  0.18600995127E+04 0.  0.
        5    1    3    3  502    0  0.85132963806E+03 -0.33169987284E+02 -0.40204929665E+03  0.94208711255E+03  0.46999998093E+01 0. -1.
       -5    1    3    3    0  502 -0.85132963806E+03  0.33169987284E+02  0.34425453599E+03  0.91891004795E+03  0.46999998093E+01 0.  1.
</event>
<event>
 5   0  0.1207228E-04  0.1933669E+04  0.7818609E-02  0.8638276E-01
       -1   -1    0    0    0  501  0.00000000000E+00  0.00000000000E+00  0.14915927510E+04  0.14915927510E+04  0.50400001928E-02 0.  1.
        1   -1    0    0  501    0  0.00000000000E+00  0.00000000000E+00 -0.62669163202E+03  0.62669163204E+03  0.50400001928E-02 0. -1.
    10030    2    1    2    0    0  0.00000000000E+00  0.00000000000E+00  0.86490111897E+03  0.21182843830E+04  0.19336687363E+04 0.  0.
        1    1    3    3  502    0 -0.14484098582E+03  0.64824741385E+03  0.12020671112E+04  0.13733786661E+04  0.50400001928E-02 0.  1.
       -1    1    3    3    0  502  0.14484098582E+03 -0.64824741385E+03 -0.33716599223E+03  0.74490571690E+03  0.50400001928E-02 0. -1.
</event>
<event>
 5   0  0.2421737E-04  0.1968914E+04  0.7818609E-02  0.8621294E-01
       -2   -1    0    0    0  501  0.00000000000E+00  0.00000000000E+00  0.10528964176E+04  0.10528964176E+04  0.25500000920E-02 0. -1.
        2   -1    0    0  501    0  0.00000000000E+00  0.00000000000E+00 -0.92046663030E+03  0.92046663031E+03  0.25500000920E-02 0.  1.
    10030    2    1    2    0    0  0.00000000000E+00  0.00000000000E+00  0.13242978731E+03  0.19733630479E+04  0.19689144396E+04 0.  0.
        1    1    3    3  502    0  0.84696450903E+03 -0.18074434130E+03 -0.40296523484E+03  0.95519546533E+03  0.50400001928E-02 0.  1.
       -1    1    3    3    0  502 -0.84696450903E+03  0.18074434130E+03  0.53539502215E+03  0.10181675826E+04  0.50400001928E-02 0. -1.
</event>
<event>
 5   0  0.1207228E-04  0.2045501E+04  0.7818609E-02  0.8585638E-01
       -1   -1    0    0    0  501  0.00000000000E+00  0.00000000000E+00  0.51466793991E+03  0.51466793993E+03  0.50400001928E-02 0.  1.
        1   -1    0    0  501    0  0.00000000000E+00  0.00000000000E+00 -0.20324137817E+04  0.20324137817E+04  0.50400001928E-02 0. -1.
    10030    2    1    2    0    0  0.00000000000E+00  0.00000000000E+00 -0.15177458418E+04  0.25470817217E+04  0.20455006371E+04 0.  0.
        1    1    3    3  502    0  0.68673298541E+03 -0.26817201426E+03  0.12382316976E+03  0.74756310762E+03  0.50400001928E-02 0.  1.
       -1    1    3    3    0  502 -0.68673298541E+03  0.26817201426E+03 -0.16415690116E+04  0.17995186141E+04  0.50400001928E-02 0. -1.
</event>
<event>
 5   0  0.2596061E-04  0.1855520E+04  0.7818609E-02  0.8677319E-01
       -2   -1    0    0    0  501  0.00000000000E+00  0.00000000000E+00  0.83069996622E+03  0.83069996623E+03  0.25500000920E-02 0.  1.
        2   -1    0    0  501    0  0.00000000000E+00  0.00000000000E+00 -0.10361610187E+04  0.10361610187E+04  0.25500000920E-02 0. -1.
    10030    2    1    2    0    0  0.00000000000E+00  0.00000000000E+00 -0.20546105243E+03  0.18668609849E+04  0.18555203294E+04 0.  0.
        5    1    3    3  502    0 -0.13224389831E+03 -0.50425092589E+03 -0.87485787806E+03  0.10184084847E+04  0.46999998093E+01 0. -1.
       -5    1    3    3    0  502  0.13224389831E+03  0.50425092589E+03  0.66939682564E+03  0.84845250018E+03  0.46999998093E+01 0.  1.
</event>
<event>
 5   0  0.2540506E-04  0.1994411E+04  0.7818609E-02  0.8609238E-01
       -2   -1    0    0    0  501  0.00000000000E+00  0.00000000000E+00  0.57271719297E+03  0.57271719298E+03  0.25500000920E-02 0.  1.
        2   -1    0    0  501    0  0.00000000000E+00  0.00000000000E+00 -0.17363179527E+04  0.17363179527E+04  0.25500000920E-02 0. -1.
    10030    2    1    2    0    0  0.00000000000E+00  0.00000000000E+00 -0.11636007597E+04  0.23090351457E+04  0.19944113357E+04 0.  0.
        4    1    3    3  502    0  0.11148862981E+03  0.92214841917E+03 -0.10018430696E+04  0.13661912642E+04  0.12699999809E+01 0. -1.
       -4    1    3    3    0  502 -0.11148862981E+03 -0.92214841917E+03 -0.16175769018E+03  0.94284388145E+03  0.12699999809E+01 0.  1.
</event>
<event>
 5   0  0.2596061E-04  0.1947640E+04  0.7818609E-02  0.8631499E-01
       -2   -1    0    0    0  501  0.00000000000E+00  0.00000000000E+00  0.88883946863E+03  0.88883946863E+03  0.25500000920E-02 0. -1.
        2   -1    0    0  501    0  0.00000000000E+00  0.00000000000E+00 -0.10669258151E+04  0.10669258151E+04  0.25500000920E-02 0.  1.
    10030    2    1    2    0    0  0.00000000000E+00  0.00000000000E+00 -0.17808634645E+03  0.19557652837E+04  0.19476403924E+04 0.  0.
        5    1    3    3  502    0  0.65558193982E+03 -0.64691765752E+03  0.22852529882E+03  0.94896577263E+03  0.46999998093E+01 0. -1.
       -5    1    3    3    0  502 -0.65558193982E+03  0.64691765752E+03 -0.40661164527E+03  0.10067995111E+04  0.46999998093E+01 0.  1.
</event>
<event>
 5   0  0.2596061E-04  0.1877179E+04  0.7818609E-02  0.8666300E-01
       -2   -1    0    0    0  501  0.00000000000E+00  0.00000000000E+00  0.66570703223E+03  0.66570703223E+03  0.25500000920E-02 0.  1.
        2   -1    0    0  501    0  0.00000000000E+00  0.00000000000E+00 -0.13233300152E+04  0.13233300152E+04  0.25500000920E-02 0. -1.
    10030    2    1    2    0    0  0.00000000000E+00  0.00000000000E+00 -0.65762298293E+03  0.19890370474E+04  0.18771788376E+04 0.  0.
        5    1    3    3  502    0  0.78932328069E+03 -0.50763618616E+03 -0.31374191854E+03  0.98953616426E+03  0.46999998093E+01 0.  1.
       -5    1    3    3    0  502 -0.78932328069E+03  0.50763618616E+03 -0.34388106440E+03  0.99950088313E+03  0.46999998093E+01 0. -1.
</event>
<event>
 5   0  0.2596061E-04  0.1918637E+04  0.7818609E-02  0.8645635E-01
       -2   -1    0    0    0  501  0.00000000000E+00  0.00000000000E+00  0.77794917362E+03  0.77794917362E+03  0.25500000920E-02 0.  1.
        2   -1    0    0  501    0  0.00000000000E+00  0.00000000000E+00 -0.11829718225E+04  0.11829718225E+04  0.25500000920E-02 0. -1.
    10030    2    1    2    0    0  0.00000000000E+00  0.00000000000E+00 -0.40502264885E+03  0.19609209961E+04  0.19186369659E+04 0.  0.
        5    1    3    3  502    0 -0.42663499163E+03  0.35705518336E+03  0.59622607354E+03  0.81548356256E+03  0.46999998093E+01 0.  1.
       -5    1    3    3    0  502  0.42663499163E+03 -0.35705518336E+03 -0.10012487224E+04  0.11454374335E+04  0.46999998093E+01 0. -1.
</event>
<event>
 5   0  0.2421737E-04  0.1979024E+04  0.7818609E-02  0.8616491E-01
       -2   -1    0    0    0  501  0.00000000000E+00  0.00000000000E+00  0.87256387637E+03  0.87256387637E+03  0.25500000920E-02 0.  1.
        2   -1    0    0  501    0  0.00000000000E+00  0.00000000000E+00 -0.11221346104E+04  0.11221346104E+04  0.25500000920E-02 0. -1.
    10030    2    1    2    0    0  0.00000000000E+00  0.00000000000E+00 -0.24957073406E+03  0.19946984868E+04  0.19790241287E+04 0.  0.
        1    1    3    3  502    0  0.22558813189E+03 -0.64123583363E+03  0.59997918621E+03  0.90666886099E+03  0.50400001928E-02 0.  1.
       -1    1    3    3    0  502 -0.22558813189E+03  0.64123583363E+03 -0.84954992027E+03  0.10880296258E+04  0.50400001928E-02 0. -1.
</event>
<event>
 5   0  0.1210633E-04  0.2171537E+04  0.7818609E-02  0.8530369E-01
       -1   -1    0    0    0  501  0.00000000000E+00  0.00000000000E+00  0.93670944694E+03  0.93670944695E+03  0.50400001928E-02 0. -1.
        1   -1    0    0  501    0  0.00000000000E+00  0.00000000000E+00 -0.12585479602E+04  0.12585479602E+04  0.50400001928E-02 0.  1.
    10030    2    1    2    0    0  0.00000000000E+00  0.00000000000E+00 -0.32183851326E+03  0.21952574072E+04  0.21715374865E+04 0.  0.
        2    1    3    3  502    0  0.43732971155E+03 -0.58699961267E+03 -0.97159382734E+03  0.12164786834E+04  0.25500000920E-02 0.  1.
       -2    1    3    3    0  502 -0.43732971155E+03  0.58699961267E+03  0.64975531408E+03  0.97877872375E+03  0.25500000920E-02 0. -1.
</event>
<event>
 5   0  0.2540506E-04  0.1990409E+04  0.7818609E-02  0.8611118E-01
       -2   -1    0    0    0  501  0.00000000000E+00  0.00000000000E+00  0.55451587833E+03  0.55451587834E+03  0.25500000920E-02 0. -1.
        2   -1    0    0  501    0  0.00000000000E+00  0.00000000000E+00 -0.17861203312E+04  0.17861203312E+04  0.25500000920E-02 0.  1.
    10030    2    1    2    0    0  0.00000000000E+00  0.00000000000E+00 -0.12316044529E+04  0.23406362095E+04  0.19904090879E+04 0.  0.
        4    1    3    3  502    0 -0.15869108354E+03  0.28479435084E+03  0.48993528029E+03  0.58849713172E+03  0.12699999809E+01 0. -1.
       -4    1    3    3    0  502  0.15869108354E+03 -0.28479435084E+03 -0.17215397332E+04  0.17521390778E+04  0.12699999809E+01 0.  1.
</event>
<event>
 5   0  0.1231056E-04  0.1994154E+04  0.7818609E-02  0.8609359E-01
       -1   -1    0    0    0  501  0.00000000000E+00  0.00000000000E+00  0.23639731629E+04  0.23639731630E+04  0.50400001928E-02 0.  1.
        1   -1    0    0  501    0  0.00000000000E+00  0.00000000000E+00 -0.42054713085E+03  0.42054713088E+03  0.50400001928E-02 0. -1.
    10030    2    1    2    0    0  0.00000000000E+00  0.00000000000E+00  0.19434260321E+04  0.27845202938E+04  0.19941535860E+04 0.  0.
        3    1    3    3  502    0 -0.58616872043E+03 -0.80112427389E+03  0.84096104544E+03  0.13010032134E+04  0.10100000352E+00 0. -1.
       -3    1    3    3    0  502  0.58616872043E+03  0.80112427389E+03  0.11024649867E+04  0.14835170805E+04  0.10100000352E+00 0.  1.
</event>
<event>
 5   0  0.2488886E-04  0.2020533E+04  0.7818609E-02  0.8597080E-01
       -2   -1    0    0    0  501  0.00000000000E+00  0.00000000000E+00  0.18799661002E+04  0.18799661002E+04  0.25500000920E-02 0. -1.
        2   -1    0    0  501    0  0.00000000000E+00  0.00000000000E+00 -0.54290276984E+03  0.54290276985E+03  0.25500000920E-02 0.  1.
    10030    2    1    2    0    0  0.00000000000E+00  0.00000000000E+00  0.13370633304E+04  0.24228688700E+04  0.20205333979E+04 0.  0.
        3    1    3    3  502    0  0.61050076208E+03 -0.48471836896E+03  0.14391265707E+04  0.16366882337E+04  0.10100000352E+00 0. -1.
       -3    1    3    3    0  502 -0.61050076208E+03  0.48471836896E+03 -0.10206324034E+03  0.78618063633E+03  0.10100000352E+00 0.  1.
</event>
<event>
 5   0  0.1258546E-04  0.1519486E+04  0.7818609E-02  0.8871597E-01
       -1   -1    0    0    0  501  0.00000000000E+00  0.00000000000E+00  0.96574534898E+03  0.96574534900E+03  0.50400001928E-02 0. -1.
        1   -1    0    0  501    0  0.00000000000E+00  0.00000000000E+00 -0.59768302393E+03  0.59768302395E+03  0.50400001928E-02 0.  1.
    10030    2    1    2    0    0  0.00000000000E+00  0.00000000000E+00  0.36806232505E+03  0.15634283729E+04  0.15194862297E+04 0.  0.
        4    1    3    3  502    0  0.18799749656E+03 -0.72607297678E+03  0.59353673249E+02  0.75236261055E+03  0.12699999809E+01 0.  1.
       -4    1    3    3    0  502 -0.18799749656E+03  0.72607297678E+03  0.30870865180E+03  0.81106576239E+03  0.12699999809E+01 0. -1.
</event>
<event>
 5   0  0.2421737E-04  0.2006999E+04  0.7818609E-02  0.8603355E-01
       -2   -1    0    0    0  501  0.00000000000E+00  0.00000000000E+00  0.14337139992E+04  0.14337139992E+04  0.25500000920E-02 0. -1.
        2   -1    0    0  501    0  0.00000000000E+00  0.00000000000E+00 -0.70237941699E+03  0.70237941699E+03  0.25500000920E-02 0.  1.
    10030    2    1    2    0    0  0.00000000000E+00  0.00000000000E+00  0.73133458217E+03  0.21360934162E+04  0.20069989565E+04 0.  0.
        1    1    3    3  502    0  0.51159712006E+03  0.85228478161E+03  0.51194961114E+03  0.11181294051E+04  0.50400001928E-02 0.  1.
       -1    1    3    3    0  502 -0.51159712006E+03 -0.85228478161E+03  0.21938497102E+03  0.10179640110E+04  0.50400001928E-02 0. -1.
</event>
<event>
 5   0  0.1324930E-04  0.1997029E+04  0.7818609E-02  0.8608011E-01
       -1   -1    0    0    0  501  0.00000000000E+00  0.00000000000E+00  0.84970495510E+03  0.84970495511E+03  0.50400001928E-02 0.  1.
        1   -1    0    0  501    0  0.00000000000E+00  0.00000000000E+00 -0.11733846704E+04  0.11733846704E+04  0.50400001928E-02 0. -1.
    10030    2    1    2    0    0  0.00000000000E+00  0.00000000000E+00 -0.32367971526E+03  0.20230896255E+04  0.19970285613E+04 0.  0.
        5    1    3    3  502    0  0.32397113629E+03 -0.81951233696E+03  0.31380937000E+03  0.93544437476E+03  0.46999998093E+01 0. -1.
       -5    1    3    3    0  502 -0.32397113629E+03  0.81951233696E+03 -0.63748908526E+03  0.10876452507E+04  0.46999998093E+01 0.  1.
</event>
<event>
 5   0  0.1258546E-04  0.2008954E+04  0.7818609E-02  0.8602446E-01
       -1   -1    0    0    0  501  0.00000000000E+00  0.00000000000E+00  0.15691528148E+04  0.15691528148E+04  0.50400001928E-02 0.  1.
        1   -1    0    0  501    0  0.00000000000E+00  0.00000000000E+00 -0.64300545216E+03  0.64300545218E+03  0.50400001928E-02 0. -1.
    10030    2    1    2    0    0  0.00000000000E+00  0.00000000000E+00  0.92614736260E+03  0.22121582670E+04  0.20089537727E+04 0.  0.
        4    1    3    3  502    0 -0.43220765122E+03  0.28183729959E+03  0.14120680395E+04  0.15033873347E+04  0.12699999809E+01 0.  1.
       -4    1    3    3    0  502  0.43220765122E+03 -0.28183729959E+03 -0.48592067689E+03  0.70877093221E+03  0.12699999809E+01 0. -1.
</event>
<event>
 5   0  0.2488886E-04  0.2047399E+04  0.7818609E-02  0.8584775E-01
       -2   -1    0    0    0  501  0.00000000000E+00  0.00000000000E+00  0.63932151578E+03  0.63932151579E+03  0.25500000920E-02 0.  1.
        2   -1    0    0  501    0  0.00000000000E+00  0.00000000000E+00 -0.16391756531E+04  0.16391756531E+04  0.25500000920E-02 0. -1.
    10030    2    1    2    0    0  0.00000000000E+00  0.00000000000E+00 -0.99985413737E+03  0.22784971689E+04  0.20473986062E+04 0.  0.
        3    1    3    3  502    0 -0.18864198126E+03 -0.44942070892E+03 -0.15017583676E+04  0.15788739581E+04  0.10100000352E+00 0. -1.
       -3    1    3    3    0  502  0.18864198126E+03  0.44942070892E+03  0.50190423020E+03  0.69962321087E+03  0.10100000352E+00 0.  1.
</event>
<event>
 5   0  0.1324930E-04  0.2009574E+04  0.7818609E-02  0.8602157E-01
       -1   -1    0    0    0  501  0.00000000000E+00  0.00000000000E+00  0.60140810025E+03  0.60140810027E+03  0.50400001928E-02 0.  1.
        1   -1    0    0  501    0  0.00000000000E+00  0.00000000000E+00 -0.16787223847E+04  0.16787223847E+04  0.50400001928E-02 0. -1.
    10030    2    1    2    0    0  0.00000000000E+00  0.00000000000E+00 -0.10773142845E+04  0.22801304850E+04  0.20095743234E+04 0.  0.
        5    1    3    3  502    0 -0.66123267636E+03 -0.24080243905E+03 -0.13524043481E+04  0.15245438917E+04  0.46999998093E+01 0. -1.
       -5    1    3    3    0  502  0.66123267636E+03  0.24080243905E+03  0.27509006360E+03  0.75558659334E+03  0.46999998093E+01 0.  1.
</event>
<event>
 5   0  0.1231056E-04  0.2000761E+04  0.7818609E-02  0.8606265E-01
       -1   -1    0    0    0  501  0.00000000000E+00  0.00000000000E+00  0.11688473352E+04  0.11688473352E+04  0.50400001928E-02 0.  1.
        1   -1    0    0  501    0  0.00000000000E+00  0.00000000000E+00 -0.85619459383E+03  0.85619459385E+03  0.50400001928E-02 0. -1.
    10030    2    1    2    0    0  0.00000000000E+00  0.00000000000E+00  0.31265274134E+03  0.20250419290E+04  0.20007606248E+04 0.  0.
        3    1    3    3  502    0  0.25813315411E+03  0.59894910697E+03  0.92407542215E+03  0.11310562117E+04  0.10100000352E+00 0.  1.
       -3    1    3    3    0  502 -0.25813315411E+03 -0.59894910697E+03 -0.61142268081E+03  0.89398571734E+03  0.10100000352E+00 0. -1.
</event>
<event>
 5   0  0.1210633E-04  0.2021538E+04  0.7818609E-02  0.8596617E-01
        1   -1    0    0  501    0  0.00000000000E+00  0.00000000000E+00  0.13700608585E+04  0.13700608585E+04  0.50400001928E-02 0.  1.
       -1   -1    0    0    0  501  0.00000000000E+00  0.00000000000E+00 -0.74569935690E+03  0.74569935692E+03  0.50400001928E-02 0. -1.
    10030    2    1    2    0    0  0.00000000000E+00  0.00000000000E+00  0.62436150159E+03  0.21157602154E+04  0.20215375348E+04 0.  0.
        2    1    3    3  502    0 -0.36377929773E+03 -0.90156399423E+03  0.60165953478E+03  0.11433053874E+04  0.25500000920E-02 0. -1.
       -2    1    3    3    0  502  0.36377929773E+03  0.90156399423E+03  0.22701966805E+02  0.97245482798E+03  0.25500000920E-02 0.  1.
</event>
<event>
 5   0  0.2463085E-04  0.2038708E+04  0.7818609E-02  0.8588734E-01
        2   -1    0    0  501    0  0.00000000000E+00  0.00000000000E+00  0.11598886975E+04  0.11598886976E+04  0.25500000920E-02 0.  1.
       -2   -1    0    0    0  501  0.00000000000E+00  0.00000000000E+00 -0.89584684789E+03  0.89584684790E+03  0.25500000920E-02 0. -1.
    10030    2    1    2    0    0  0.00000000000E+00  0.00000000000E+00  0.26404184966E+03  0.20557355454E+04  0.20387080552E+04 0.  0.
        2    1    3    3  502    0  0.50610968171E+03 -0.17094830246E+03 -0.74339613993E+03  0.91542785237E+03  0.25500000920E-02 0. -1.
       -2    1    3    3    0  502 -0.50610968171E+03  0.17094830246E+03  0.10074379896E+04  0.11403076931E+04  0.25500000920E-02 0.  1.
</event>
<event>
 5   0  0.1210633E-04  0.1688654E+04  0.7818609E-02  0.8767862E-01
       -1   -1    0    0    0  501  0.00000000000E+00  0.00000000000E+00  0.71114544087E+03  0.71114544089E+03  0.50400001928E-02 0. -1.
        1   -1    0    0  501    0  0.00000000000E+00  0.00000000000E+00 -0.10024509941E+04  0.10024509942E+04  0.50400001928E-02 0.  1.
    10030    2    1    2    0    0  0.00000000000E+00  0.00000000000E+00 -0.29130555327E+03  0.17135964350E+04  0.16886544397E+04 0.  0.
        2    1    3    3  502    0  0.11647116492E+03  0.83348660535E+03 -0.21464970248E+03  0.86852745974E+03  0.25500000920E-02 0.  1.
       -2    1    3    3    0  502 -0.11647116492E+03 -0.83348660535E+03 -0.76655850797E+02  0.84506897530E+03  0.25500000920E-02 0. -1.
</event>
<event>
 5   0  0.1210633E-04  0.2017650E+04  0.7818609E-02  0.8598413E-01
       -1   -1    0    0    0  501  0.00000000000E+00  0.00000000000E+00  0.35888300554E+03  0.35888300557E+03  0.50400001928E-02 0. -1.
        1   -1    0    0  501    0  0.00000000000E+00  0.00000000000E+00 -0.28358217448E+04  0.28358217448E+04  0.50400001928E-02 0.  1.
    10030    2    1    2    0    0  0.00000000000E+00  0.00000000000E+00 -0.24769387392E+04  0.31947047503E+04  0.20176503473E+04 0.  0.
        2    1    3    3  502    0  0.10501293756E+03  0.50629007712E+03  0.13311587556E+03  0.53392620799E+03  0.25500000920E-02 0. -1.
       -2    1    3    3    0  502 -0.10501293756E+03 -0.50629007712E+03 -0.26100546148E+04  0.26607785423E+04  0.25500000920E-02 0.  1.
</event>
<event>
 5   0  0.1231056E-04  0.1889681E+04  0.7818609E-02  0.8660010E-01
       -1   -1    0    0    0  501  0.00000000000E+00  0.00000000000E+00  0.62175977921E+03  0.62175977923E+03  0.50400001928E-02 0.  1.
        1   -1    0    0  501    0  0.00000000000E+00  0.00000000000E+00 -0.14358013719E+04  0.14358013719E+04  0.50400001928E-02 0. -1.
    10030    2    1    2    0    0  0.00000000000E+00  0.00000000000E+00 -0.81404159268E+03  0.20575611511E+04  0.18896809720E+04 0.  0.
        3    1    3    3  502    0  0.34731204639E+03  0.71355991217E+03 -0.96534240650E+03  0.12496717080E+04  0.10100000352E+00 0. -1.
       -3    1    3    3    0  502 -0.34731204639E+03 -0.71355991217E+03  0.15130081382E+03  0.80788944311E+03  0.10100000352E+00 0.  1.
</event>
<event>
 5   0  0.2421737E-04  0.1994897E+04  0.7818609E-02  0.8609010E-01
        2   -1    0    0  501    0  0.00000000000E+00  0.00000000000E+00  0.90678729781E+03  0.90678729782E+03  0.25500000920E-02 0.  1.
       -2   -1    0    0    0  501  0.00000000000E+00  0.00000000000E+00 -0.10971738279E+04  0.10971738279E+04  0.25500000920E-02 0. -1.
    10030    2    1    2    0    0  0.00000000000E+00  0.00000000000E+00 -0.19038653011E+03  0.20039611257E+04  0.19948967799E+04 0.  0.
        1    1    3    3  502    0 -0.72037337621E+03 -0.17624816980E+03 -0.76523380117E+03  0.10656378320E+04  0.50400001928E-02 0. -1.
       -1    1    3    3    0  502  0.72037337621E+03  0.17624816980E+03  0.57484727106E+03  0.93832329374E+03  0.50400001928E-02 0.  1.
</event>
<event>
 5   0  0.2540506E-04  0.1536989E+04  0.7818609E-02  0.8860221E-01
       -2   -1    0    0    0  501  0.00000000000E+00  0.00000000000E+00  0.30943839166E+03  0.30943839167E+03  0.25500000920E-02 0. -1.
        2   -1    0    0  501    0  0.00000000000E+00  0.00000000000E+00 -0.19085678610E+04  0.19085678610E+04  0.25500000920E-02 0.  1.
    10030    2    1    2    0    0  0.00000000000E+00  0.00000000000E+00 -0.15991294694E+04  0.22180062527E+04  0.15369894851E+04 0.  0.
        4    1    3    3  502    0  0.71868742153E+03  0.26878930395E+03 -0.86118389415E+03  0.11534290668E+04  0.12699999809E+01 0.  1.
       -4    1    3    3    0  502 -0.71868742153E+03 -0.26878930395E+03 -0.73794557523E+03  0.10645771859E+04  0.12699999809E+01 0. -1.
</event>
<event>
 5   0  0.1207228E-04  0.1947673E+04  0.7818609E-02  0.8631484E-01
       -1   -1    0    0    0  501  0.00000000000E+00  0.00000000000E+00  0.11503485610E+04  0.11503485610E+04  0.50400001928E-02 0.  1.
        1   -1    0    0  501    0  0.00000000000E+00  0.00000000000E+00 -0.82440859604E+03  0.82440859606E+03  0.50400001928E-02 0. -1.
    10030    2    1    2    0    0  0.00000000000E+00  0.00000000000E+00  0.32593996492E+03  0.19747571570E+04  0.19476727057E+04 0.  0.
        1    1    3    3  502    0 -0.81702425252E+03 -0.18954929028E+03  0.66472511846E+03  0.10701948635E+04  0.50400001928E-02 0. -1.
       -1    1    3    3    0  502  0.81702425252E+03  0.18954929028E+03 -0.33878515354E+03  0.90456229356E+03  0.50400001928E-02 0.  1.
</event>
<event>
 5   0  0.2421737E-04  0.1982251E+04  0.7818609E-02  0.8614964E-01
        2   -1    0    0  501    0  0.00000000000E+00  0.00000000000E+00  0.12160821707E+04  0.12160821707E+04  0.25500000920E-02 0. -1.
       -2   -1    0    0    0  501  0.00000000000E+00  0.00000000000E+00 -0.80778234162E+03  0.80778234162E+03  0.25500000920E-02 0.  1.
    10030    2    1    2    0    0  0.00000000000E+00  0.00000000000E+00  0.40829982910E+03  0.20238645123E+04  0.19822509462E+04 0.  0.
        1    1    3    3  502    0 -0.37796679389E+03 -0.27183584544E+03 -0.68919049437E+03  0.83170737745E+03  0.50400001928E-02 0.  1.
       -1    1    3    3    0  502  0.37796679389E+03  0.27183584544E+03  0.10974903235E+04  0.11921571349E+04  0.50400001928E-02 0. -1.
</event>
<event>
 5   0  0.2540506E-04  0.2031264E+04  0.7818609E-02  0.8592142E-01
        2   -1    0    0  501    0  0.00000000000E+00  0.00000000000E+00  0.24398850687E+04  0.24398850687E+04  0.25500000920E-02 0.  1.
       -2   -1    0    0    0  501  0.00000000000E+00  0.00000000000E+00 -0.42276936849E+03  0.42276936850E+03  0.25500000920E-02 0. -1.
    10030    2    1    2    0    0  0.00000000000E+00  0.00000000000E+00  0.20171157002E+04  0.28626544372E+04  0.20312643055E+04 0.  0.
        4    1    3    3  502    0 -0.46808328730E+03  0.48504473963E+03  0.20791938252E+04  0.21857307563E+04  0.12699999809E+01 0.  1.
       -4    1    3    3    0  502  0.46808328730E+03 -0.48504473963E+03 -0.62078124993E+02  0.67692368092E+03  0.12699999809E+01 0. -1.
</event>
<event>
 5   0  0.2596061E-04  0.1922634E+04  0.7818609E-02  0.8643671E-01
       -2   -1    0    0    0  501  0.00000000000E+00  0.00000000000E+00  0.17481567573E+04  0.17481567573E+04  0.25500000920E-02 0. -1.
        2   -1    0    0  501    0  0.00000000000E+00  0.00000000000E+00 -0.52863123464E+03  0.52863123465E+03  0.25500000920E-02 0.  1.
    10030    2    1    2    0    0  0.00000000000E+00  0.00000000000E+00  0.12195255226E+04  0.22767879919E+04  0.19226338861E+04 0.  0.
        5    1    3    3  502    0  0.82493631596E+03 -0.44623673373E+03  0.36006436964E+03  0.10046469968E+04  0.46999998093E+01 0.  1.
       -5    1    3    3    0  502 -0.82493631596E+03  0.44623673373E+03  0.85946115297E+03  0.12721409951E+04  0.46999998093E+01 0. -1.
</event>
<event>
 5   0  0.2421737E-04  0.2125687E+04  0.7818609E-02  0.8550012E-01
       -2   -1    0    0    0  501  0.00000000000E+00  0.00000000000E+00  0.57867079246E+03  0.57867079247E+03  0.25500000920E-02 0.  1.
        2   -1    0    0  501    0  0.00000000000E+00  0.00000000000E+00 -0.19521218342E+04  0.19521218342E+04  0.25500000920E-02 0. -1.
    10030    2    1    2    0    0  0.00000000000E+00  0.00000000000E+00 -0.13734510417E+04  0.25307926267E+04  0.21256866079E+04 0.  0.
        1    1    3    3  502    0 -0.76738065270E+03 -0.91849589793E+01 -0.15621664715E+04  0.17404946177E+04  0.50400001928E-02 0. -1.
       -1    1    3    3    0  502  0.76738065270E+03  0.91849589793E+01  0.18871542971E+03  0.79029800901E+03  0.50400001928E-02 0.  1.
</event>
<event>
 5   0  0.2596061E-04  0.2012875E+04  0.7818609E-02  0.8600625E-01
        2   -1    0    0  501    0  0.00000000000E+00  0.00000000000E+00  0.15626334149E+04  0.15626334149E+04  0.25500000920E-02 0.  1.
       -2   -1    0    0    0  501  0.00000000000E+00  0.00000000000E+00 -0.64821146562E+03  0.64821146563E+03  0.25500000920E-02 0. -1.
    10030    2    1    2    0    0  0.00000000000E+00  0.00000000000E+00  0.91442194926E+03  0.22108448805E+04  0.20128754518E+04 0.  0.
        5    1    3    3  502    0 -0.51155862070E+03 -0.84219726061E+03  0.23236696174E+03  0.10124252778E+04  0.46999998093E+01 0. -1.
       -5    1    3    3    0  502  0.51155862070E+03  0.84219726061E+03  0.68205498752E+03  0.11984196027E+04  0.46999998093E+01 0.  1.
</event>
<event>
 5   0  0.2421737E-04  0.1994118E+04  0.7818609E-02  0.8609376E-01
       -2   -1    0    0    0  501  0.00000000000E+00  0.00000000000E+00  0.46681271876E+03  0.46681271877E+03  0.25500000920E-02 0.  1.
        2   -1    0    0  501    0  0.00000000000E+00  0.00000000000E+00 -0.21296042902E+04  0.21296042902E+04  0.25500000920E-02 0. -1.
    10030    2    1    2    0    0  0.00000000000E+00  0.00000000000E+00 -0.16627915715E+04  0.25964170090E+04  0.19941177183E+04 0.  0.
        1    1    3    3  502    0  0.95947272828E+03 -0.15183837983E+03 -0.11239447965E+04  0.14855620874E+04  0.50400001928E-02 0. -1.
       -1    1    3    3    0  502 -0.95947272828E+03  0.15183837983E+03 -0.53884677495E+03  0.11108549216E+04  0.50400001928E-02 0.  1.
</event>
<event>
 5   0  0.1258546E-04  0.1941812E+04  0.7818609E-02  0.8634320E-01
        1   -1    0    0  501    0  0.00000000000E+00  0.00000000000E+00  0.10136995400E+04  0.10136995400E+04  0.50400001928E-02 0.  1.
       -1   -1    0    0    0  501  0.00000000000E+00  0.00000000000E+00 -0.92991857533E+03  0.92991857534E+03  0.50400001928E-02 0. -1.
    10030    2    1    2    0    0  0.00000000000E+00  0.00000000000E+00  0.83780964665E+02  0.19436181153E+04  0.19418115584E+04 0.  0.
        4    1    3    3  502    0 -0.79736382208E+03 -0.84403079210E+02  0.58988816887E+03  0.99543086612E+03  0.12699999809E+01 0.  1.
       -4    1    3    3    0  502  0.79736382208E+03  0.84403079210E+02 -0.50610720421E+03  0.94818724922E+03  0.12699999809E+01 0. -1.
</event>
<event>
 5   0  0.1231056E-04  0.2011982E+04  0.7818609E-02  0.8601039E-01
        1   -1    0    0  501    0  0.00000000000E+00  0.00000000000E+00  0.16096645336E+04  0.16096645336E+04  0.50400001928E-02 0.  1.
       -1   -1    0    0    0  501  0.00000000000E+00  0.00000000000E+00 -0.62871330456E+03  0.62871330458E+03  0.50400001928E-02 0. -1.
    10030    2    1    2    0    0  0.00000000000E+00  0.00000000000E+00  0.98095122907E+03  0.22383778382E+04  0.20119816184E+04 0.  0.
        3    1    3    3  502    0  0.78785266907E+03 -0.52860450321E+03  0.11834847797E+03  0.95610717046E+03  0.10100000352E+00 0.  1.
       -3    1    3    3    0  502 -0.78785266907E+03  0.52860450321E+03  0.86260275111E+03  0.12822706678E+04  0.10100000352E+00 0. -1.
</event>
<event>
 5   0  0.2421737E-04  0.2028094E+04  0.7818609E-02  0.8593597E-01
        2   -1    0    0  501    0  0.00000000000E+00  0.00000000000E+00  0.92420916753E+03  0.92420916754E+03  0.25500000920E-02 0.  1.
       -2   -1    0    0    0  501  0.00000000000E+00  0.00000000000E+00 -0.11126174464E+04  0.11126174464E+04  0.25500000920E-02 0. -1.
    10030    2    1    2    0    0  0.00000000000E+00  0.00000000000E+00 -0.18840827886E+03  0.20368266139E+04  0.20280939267E+04 0.  0.
        1    1    3    3  502    0 -0.27747062335E+03 -0.48631933539E+03 -0.94329993229E+03  0.10969554253E+04  0.50400001928E-02 0. -1.
       -1    1    3    3    0  502  0.27747062335E+03  0.48631933539E+03  0.75489165343E+03  0.93987118864E+03  0.50400001928E-02 0.  1.
</event>
<event>
 5   0  0.1210633E-04  0.2021342E+04  0.7818609E-02  0.8596707E-01
       -1   -1    0    0    0  501  0.00000000000E+00  0.00000000000E+00  0.11374746937E+04  0.11374746937E+04  0.50400001928E-02 0. -1.
        1   -1    0    0  501    0  0.00000000000E+00  0.00000000000E+00 -0.89800359585E+03  0.89800359586E+03  0.50400001928E-02 0.  1.
    10030    2    1    2    0    0  0.00000000000E+00  0.00000000000E+00  0.23947109781E+03  0.20354782895E+04  0.20213424896E+04 0.  0.
        2    1    3    3  502    0 -0.57071870476E+03 -0.19295352469E+03 -0.69742287159E+03  0.92160163003E+03  0.25500000920E-02 0.  1.
       -2    1    3    3    0  502  0.57071870476E+03  0.19295352469E+03  0.93689396940E+03  0.11138766595E+04  0.25500000920E-02 0. -1.
</event>
<event>
 5   0  0.2463085E-04  0.2105425E+04  0.7818609E-02  0.8558857E-01
       -2   -1    0    0    0  501  0.00000000000E+00  0.00000000000E+00  0.42408797555E+03  0.42408797556E+03  0.25500000920E-02 0.  1.
        2   -1    0    0  501    0  0.00000000000E+00  0.00000000000E+00 -0.26131452019E+04  0.26131452019E+04  0.25500000920E-02 0. -1.
    10030    2    1    2    0    0  0.00000000000E+00  0.00000000000E+00 -0.21890572263E+04  0.30372331774E+04  0.21054248583E+04 0.  0.
        2    1    3    3  502    0  0.36842571396E+03 -0.94311340585E+03 -0.15101380776E+04  0.18181631985E+04  0.25500000920E-02 0.  1.
       -2    1    3    3    0  502 -0.36842571396E+03  0.94311340585E+03 -0.67891914873E+03  0.12190699789E+04  0.25500000920E-02 0. -1.
</event>
<event>
 5   0  0.1258546E-04  0.2102449E+04  0.7818609E-02  0.8560165E-01
       -1   -1    0    0    0  501  0.00000000000E+00  0.00000000000E+00  0.15748850669E+04  0.15748850669E+04  0.50400001928E-02 0.  1.
        1   -1    0    0  501    0  0.00000000000E+00  0.00000000000E+00 -0.70168506986E+03  0.70168506988E+03  0.50400001928E-02 0. -1.
    10030    2    1    2    0    0  0.00000000000E+00  0.00000000000E+00  0.87319999704E+03  0.22765701368E+04  0.21024493699E+04 0.  0.
        4    1    3    3  502    0 -0.59986831438E+03  0.13391565636E+02 -0.49804850217E+03  0.77979180045E+03  0.12699999809E+01 0. -1.
       -4    1    3    3    0  502  0.59986831438E+03 -0.13391565636E+02  0.13712484992E+04  0.14967783363E+04  0.12699999809E+01 0.  1.
</event>
<event>
 5   0  0.2596061E-04  0.2006589E+04  0.7818609E-02  0.8603546E-01
       -2   -1    0    0    0  501  0.00000000000E+00  0.00000000000E+00  0.61838042422E+03  0.61838042422E+03  0.25500000920E-02 0.  1.
        2   -1    0    0  501    0  0.00000000000E+00  0.00000000000E+00 -0.16278007478E+04  0.16278007478E+04  0.25500000920E-02 0. -1.
    10030    2    1    2    0    0  0.00000000000E+00  0.00000000000E+00 -0.10094203236E+04  0.22461811720E+04  0.20065892624E+04 0.  0.
        5    1    3    3  502    0  0.53389912236E+03 -0.30445370680E+03  0.38296809470E+03  0.72417331074E+03  0.46999998093E+01 0.  1.
       -5    1    3    3    0  502 -0.53389912236E+03  0.30445370680E+03 -0.13923884183E+04  0.15220078613E+04  0.46999998093E+01 0. -1.
</event>
<event>
 5   0  0.1258546E-04  0.2004202E+04  0.7818609E-02  0.8604659E-01
        1   -1    0    0  501    0  0.00000000000E+00  0.00000000000E+00  0.17217849992E+04  0.17217849992E+04  0.50400001928E-02 0.  1.
       -1   -1    0    0    0  501  0.00000000000E+00  0.00000000000E+00 -0.58323557051E+03  0.58323557053E+03  0.50400001928E-02 0. -1.
    10030    2    1    2    0    0  0.00000000000E+00  0.00000000000E+00  0.11385494286E+04  0.23050205697E+04  0.20042018424E+04 0.  0.
        4    1    3    3  502    0  0.19972294906E+03 -0.89763386026E+03  0.10272502431E+04  0.13787242213E+04  0.12699999809E+01 0.  1.
       -4    1    3    3    0  502 -0.19972294906E+03  0.89763386026E+03  0.11129918552E+03  0.92629634840E+03  0.12699999809E+01 0. -1.
</event>
<event>
 5   0  0.2421737E-04  0.1882592E+04  0.7818609E-02  0.8663570E-01
       -2   -1    0    0    0  501  0.00000000000E+00  0.00000000000E+00  0.75911960401E+03  0.75911960401E+03  0.25500000920E-02 0.  1.
        2   -1    0    0  501    0  0.00000000000E+00  0.00000000000E+00 -0.11671920533E+04  0.11671920533E+04  0.25500000920E-02 0. -1.
    10030    2    1    2    0    0  0.00000000000E+00  0.00000000000E+00 -0.40807244930E+03  0.19263116573E+04  0.18825922228E+04 0.  0.
        1    1    3    3  502    0  0.43338069478E+03 -0.67057794990E+03 -0.71415651082E+03  0.10712203954E+04  0.50400001928E-02 0. -1.
       -1    1    3    3    0  502 -0.43338069478E+03  0.67057794990E+03  0.30608406152E+03  0.85509126194E+03  0.50400001928E-02 0.  1.
</event>
<event>
 5   0  0.1210633E-04  0.2001770E+04  0.7818609E-02  0.8605794E-01
        1   -1    0    0  501    0  0.00000000000E+00  0.00000000000E+00  0.11678011213E+04  0.11678011213E+04  0.50400001928E-02 0. -1.
       -1   -1    0    0    0  501  0.00000000000E+00  0.00000000000E+00 -0.85782637320E+03  0.85782637322E+03  0.50400001928E-02 0.  1.
    10030    2    1    2    0    0  0.00000000000E+00  0.00000000000E+00  0.30997474809E+03  0.20256274945E+04  0.20017698175E+04 0.  0.
        2    1    3    3  502    0 -0.58329954270E+03 -0.74853535197E+03 -0.16696659361E+03  0.96354624853E+03  0.25500000920E-02 0.  1.
       -2    1    3    3    0  502  0.58329954270E+03  0.74853535197E+03  0.47694134170E+03  0.10620812460E+04  0.25500000920E-02 0. -1.
</event>
<event>
 5   0  0.1210633E-04  0.1898985E+04  0.7818609E-02  0.8655362E-01
        1   -1    0    0  501    0  0.00000000000E+00  0.00000000000E+00  0.10385852716E+04  0.10385852716E+04  0.50400001928E-02 0.  1.
       -1   -1    0    0    0  501  0.00000000000E+00  0.00000000000E+00 -0.86804215948E+03  0.86804215949E+03  0.50400001928E-02 0. -1.
    10030    2    1    2    0    0  0.00000000000E+00  0.00000000000E+00  0.17054311211E+03  0.19066274311E+04  0.18989847835E+04 0.  0.
        2    1    3    3  502    0 -0.19429185619E+02 -0.35073515212E+03 -0.80040287071E+03  0.87409232672E+03  0.25500000920E-02 0. -1.
       -2    1    3    3    0  502  0.19429185619E+02  0.35073515212E+03  0.97094598282E+03  0.10325351044E+04  0.25500000920E-02 0.  1.
</event>
<event>
 5   0  0.1231056E-04  0.1984977E+04  0.7818609E-02  0.8613677E-01
        1   -1    0    0  501    0  0.00000000000E+00  0.00000000000E+00  0.98315709249E+03  0.98315709250E+03  0.50400001928E-02 0. -1.
       -1   -1    0    0    0  501  0.00000000000E+00  0.00000000000E+00 -0.10019083293E+04  0.10019083293E+04  0.50400001928E-02 0.  1.
    10030    2    1    2    0    0  0.00000000000E+00  0.00000000000E+00 -0.18751236799E+02  0.19850654218E+04  0.19849768563E+04 0.  0.
        3    1    3    3  502    0 -0.95914442577E+03 -0.20566239581E+03  0.14155566377E+03  0.99110699053E+03  0.10100000352E+00 0. -1.
       -3    1    3    3    0  502  0.95914442577E+03  0.20566239581E+03 -0.16030690057E+03  0.99395843127E+03  0.10100000352E+00 0.  1.
</event>
<event>
 5   0  0.1324930E-04  0.2010177E+04  0.7818609E-02  0.8601877E-01
       -1   -1    0    0    0  501  0.00000000000E+00  0.00000000000E+00  0.80411329861E+03  0.80411329863E+03  0.50400001928E-02 0. -1.
        1   -1    0    0  501    0  0.00000000000E+00  0.00000000000E+00 -0.12562946290E+04  0.12562946290E+04  0.50400001928E-02 0.  1.
    10030    2    1    2    0    0  0.00000000000E+00  0.00000000000E+00 -0.45218133034E+03  0.20604079276E+04  0.20101773237E+04 0.  0.
        5    1    3    3  502    0  0.11208832208E+03 -0.25368430309E+03 -0.12162852422E+04  0.12475140873E+04  0.46999998093E+01 0.  1.
       -5    1    3    3    0  502 -0.11208832208E+03  0.25368430309E+03  0.76410391183E+03  0.81289384033E+03  0.46999998093E+01 0. -1.
</event>
<event>
 5   0  0.1258546E-04  0.2020062E+04  0.7818609E-02  0.8597298E-01
        1   -1    0    0  501    0  0.00000000000E+00  0.00000000000E+00  0.14886726451E+04  0.14886726451E+04  0.50400001928E-02 0.  1.
       -1   -1    0    0    0  501  0.00000000000E+00  0.00000000000E+00 -0.68528306548E+03  0.68528306550E+03  0.50400001928E-02 0. -1.
    10030    2    1    2    0    0  0.00000000000E+00  0.00000000000E+00  0.80338957960E+03  0.21739557106E+04  0.20200615374E+04 0.  0.
        4    1    3    3  502    0  0.16687255360E+03 -0.95561283273E+03  0.98986505213E+02  0.97511141740E+03  0.12699999809E+01 0.  1.
       -4    1    3    3    0  502 -0.16687255360E+03  0.95561283273E+03  0.70440307439E+03  0.11988442932E+04  0.12699999809E+01 0. -1.
</event>
<event>
 5   0  0.2540506E-04  0.2003330E+04  0.7818609E-02  0.8605065E-01
        2   -1    0    0  501    0  0.00000000000E+00  0.00000000000E+00  0.92925057188E+03  0.92925057189E+03  0.25500000920E-02 0. -1.
       -2   -1    0    0    0  501  0.00000000000E+00  0.00000000000E+00 -0.10797227097E+04  0.10797227097E+04  0.25500000920E-02 0.  1.
    10030    2    1    2    0    0  0.00000000000E+00  0.00000000000E+00 -0.15047213785E+03  0.20089732816E+04  0.20033301730E+04 0.  0.
        4    1    3    3  502    0  0.45079972637E+03  0.13634448648E+03 -0.96176311244E+03  0.10708875336E+04  0.12699999809E+01 0.  1.
       -4    1    3    3    0  502 -0.45079972637E+03 -0.13634448648E+03  0.81129097459E+03  0.93808574802E+03  0.12699999809E+01 0. -1.
</event>
<event>
 5   0  0.2421737E-04  0.2033077E+04  0.7818609E-02  0.8591310E-01
       -2   -1    0    0    0  501  0.00000000000E+00  0.00000000000E+00  0.14868411166E+04  0.14868411166E+04  0.25500000920E-02 0.  1.
        2   -1    0    0  501    0  0.00000000000E+00  0.00000000000E+00 -0.69499738015E+03  0.69499738016E+03  0.25500000920E-02 0. -1.
    10030    2    1    2    0    0  0.00000000000E+00  0.00000000000E+00  0.79184373645E+03  0.21818384968E+04  0.20330771562E+04 0.  0.
        1    1    3    3  502    0 -0.64757284461E+03  0.40548961479E+03  0.11154891244E+04  0.13520681948E+04  0.50400001928E-02 0.  1.
       -1    1    3    3    0  502  0.64757284461E+03 -0.40548961479E+03 -0.32364538797E+03  0.82977030192E+03  0.50400001928E-02 0. -1.
</event>
<event>
 5   0  0.2596061E-04  0.1930907E+04  0.7818609E-02  0.8639623E-01
       -2   -1    0    0    0  501  0.00000000000E+00  0.00000000000E+00  0.59078721351E+03  0.59078721352E+03  0.25500000920E-02 0.  1.
        2   -1    0    0  501    0  0.00000000000E+00  0.00000000000E+00 -0.15777268955E+04  0.15777268955E+04  0.25500000920E-02 0. -1.
    10030    2    1    2    0    0  0.00000000000E+00  0.00000000000E+00 -0.98693968198E+03  0.21685141090E+04  0.19309074305E+04 0.  0.
        5    1    3    3  502    0 -0.18777646645E+03 -0.33105513314E+03  0.50296570561E+03  0.63075676259E+03  0.46999998093E+01 0.  1.
       -5    1    3    3    0  502  0.18777646645E+03  0.33105513314E+03 -0.14899053876E+04  0.15377573464E+04  0.46999998093E+01 0. -1.
</event>
<event>
 5   0  0.2463085E-04  0.2007656E+04  0.7818609E-02  0.8603049E-01
        2   -1    0    0  501    0  0.00000000000E+00  0.00000000000E+00  0.17519932539E+04  0.17519932539E+04  0.25500000920E-02 0.  1.
       -2   -1    0    0    0  501  0.00000000000E+00  0.00000000000E+00 -0.57515684507E+03  0.57515684508E+03  0.25500000920E-02 0. -1.
    10030    2    1    2    0    0  0.00000000000E+00  0.00000000000E+00  0.11768364089E+04  0.23271500990E+04  0.20076562579E+04 0.  0.
        2    1    3    3  502    0 -0.20790449844E+03 -0.96575153410E+03  0.38180989163E+03  0.10590935272E+04  0.25500000920E-02 0. -1.
       -2    1    3    3    0  502  0.20790449844E+03  0.96575153410E+03  0.79502651722E+03  0.12680565718E+04  0.25500000920E-02 0.  1.
</event>
<event>
 5   0  0.1210633E-04  0.1986068E+04  0.7818609E-02  0.8613162E-01
        1   -1    0    0  501    0  0.00000000000E+00  0.00000000000E+00  0.10725481660E+04  0.10725481660E+04  0.50400001928E-02 0. -1.
       -1   -1    0    0    0  501  0.00000000000E+00  0.00000000000E+00 -0.91941425447E+03  0.91941425448E+03  0.50400001928E-02 0.  1.
    10030    2    1    2    0    0  0.00000000000E+00  0.00000000000E+00  0.15313391153E+03  0.19919624205E+04  0.19860675441E+04 0.  0.
        2    1    3    3  502    0  0.81524231642E+03  0.46722285779E+03  0.39876621131E+03  0.10207505692E+04  0.25500000920E-02 0. -1.
       -2    1    3    3    0  502 -0.81524231642E+03 -0.46722285779E+03 -0.24563229978E+03  0.97121185126E+03  0.25500000920E-02 0.  1.
</event>
<event>
 5   0  0.1207228E-04  0.2511715E+04  0.7818609E-02  0.8398824E-01
       -1   -1    0    0    0  501  0.00000000000E+00  0.00000000000E+00  0.12147865560E+04  0.12147865560E+04  0.50400001928E-02 0. -1.
        1   -1    0    0  501    0  0.00000000000E+00  0.00000000000E+00 -0.12983174116E+04  0.12983174117E+04  0.50400001928E-02 0.  1.
    10030    2    1    2    0    0  0.00000000000E+00  0.00000000000E+00 -0.83530855680E+02  0.25131039676E+04  0.25117153796E+04 0.  0.
        1    1    3    3  502    0  0.10369016460E+04 -0.64624100910E+03  0.24888797772E+03  0.12468912105E+04  0.50400001928E-02 0. -1.
       -1    1    3    3    0  502 -0.10369016460E+04  0.64624100910E+03 -0.33241883340E+03  0.12662127571E+04  0.50400001928E-02 0.  1.
</event>
<event>
 5   0  0.2596061E-04  0.1999816E+04  0.7818609E-02  0.8606707E-01
       -2   -1    0    0    0  501  0.00000000000E+00  0.00000000000E+00  0.60938239266E+03  0.60938239266E+03  0.25500000920E-02 0.  1.
        2   -1    0    0  501    0  0.00000000000E+00  0.00000000000E+00 -0.16407038195E+04  0.16407038195E+04  0.25500000920E-02 0. -1.
    10030    2    1    2    0    0  0.00000000000E+00  0.00000000000E+00 -0.10313214269E+04  0.22500862122E+04  0.19998160107E+04 0.  0.
        5    1    3    3  502    0 -0.44641485864E+03 -0.39176792186E+03  0.38938361047E+03  0.71021828807E+03  0.46999998093E+01 0.  1.
       -5    1    3    3    0  502  0.44641485864E+03  0.39176792186E+03 -0.14207050373E+04  0.15398679241E+04  0.46999998093E+01 0. -1.
</event>
<event>
 5   0  0.2421737E-04  0.2018106E+04  0.7818609E-02  0.8598202E-01
       -2   -1    0    0    0  501  0.00000000000E+00  0.00000000000E+00  0.56032535811E+03  0.56032535811E+03  0.25500000920E-02 0.  1.
        2   -1    0    0  501    0  0.00000000000E+00  0.00000000000E+00 -0.18171375250E+04  0.18171375251E+04  0.25500000920E-02 0. -1.
    10030    2    1    2    0    0  0.00000000000E+00  0.00000000000E+00 -0.12568121669E+04  0.23774628832E+04  0.20181062752E+04 0.  0.
        1    1    3    3  502    0 -0.57418202284E+03  0.82960857870E+03 -0.60967352479E+03  0.11788287391E+04  0.50400001928E-02 0. -1.
       -1    1    3    3    0  502  0.57418202284E+03 -0.82960857870E+03 -0.64713864215E+03  0.11986341441E+04  0.50400001928E-02 0.  1.
</event>
<event>
 5   0  0.1324930E-04  0.2045273E+04  0.7818609E-02  0.8585742E-01
       -1   -1    0    0    0  501  0.00000000000E+00  0.00000000000E+00  0.41527204595E+03  0.41527204598E+03  0.50400001928E-02 0.  1.
        1   -1    0    0  501    0  0.00000000000E+00  0.00000000000E+00 -0.25183131667E+04  0.25183131667E+04  0.50400001928E-02 0. -1.
    10030    2    1    2    0    0  0.00000000000E+00  0.00000000000E+00 -0.21030411207E+04  0.29335852127E+04  0.20452726577E+04 0.  0.
        5    1    3    3  502    0 -0.69408200453E+03  0.50307808709E+03 -0.25173101631E+03  0.89343605551E+03  0.46999998093E+01 0.  1.
       -5    1    3    3    0  502  0.69408200453E+03 -0.50307808709E+03 -0.18513101044E+04  0.20401491571E+04  0.46999998093E+01 0. -1.
</event>
<event>
 5   0  0.1231056E-04  0.1997429E+04  0.7818609E-02  0.8607824E-01
       -1   -1    0    0    0  501  0.00000000000E+00  0.00000000000E+00  0.75593139732E+03  0.75593139734E+03  0.50400001928E-02 0.  1.
        1   -1    0    0  501    0  0.00000000000E+00  0.00000000000E+00 -0.13194723165E+04  0.13194723165E+04  0.50400001928E-02 0. -1.
    10030    2    1    2    0    0  0.00000000000E+00  0.00000000000E+00 -0.56354091917E+03  0.20754037138E+04  0.19974288993E+04 0.  0.
        3    1    3    3  502    0 -0.42762755490E+02 -0.96148850559E+03 -0.55890681958E+03  0.11129535672E+04  0.10100000352E+00 0.  1.
       -3    1    3    3    0  502  0.42762755490E+02  0.96148850559E+03 -0.46340995863E+01  0.96245014661E+03  0.10100000352E+00 0. -1.
</event>
<event>
 5   0  0.2596061E-04  0.2027987E+04  0.7818609E-02  0.8593646E-01
        2   -1    0    0  501    0  0.00000000000E+00  0.00000000000E+00  0.15556948912E+04  0.15556948912E+04  0.25500000920E-02 0.  1.
       -2   -1    0    0    0  501  0.00000000000E+00  0.00000000000E+00 -0.66091550677E+03  0.66091550678E+03  0.25500000920E-02 0. -1.
    10030    2    1    2    0    0  0.00000000000E+00  0.00000000000E+00  0.89477938448E+03  0.22166103980E+04  0.20279870586E+04 0.  0.
        5    1    3    3  502    0 -0.98647163392E+02 -0.62016646024E+03  0.13175679219E+04  0.14595701490E+04  0.46999998093E+01 0.  1.
       -5    1    3    3    0  502  0.98647163392E+02  0.62016646024E+03 -0.42278853738E+03  0.75704024899E+03  0.46999998093E+01 0. -1.
</event>
<event>
 5   0  0.1231056E-04  0.1991074E+04  0.7818609E-02  0.8610805E-01
       -1   -1    0    0    0  501  0.00000000000E+00  0.00000000000E+00  0.59798131719E+03  0.59798131721E+03  0.50400001928E-02 0.  1.
        1   -1    0    0  501    0  0.00000000000E+00  0.00000000000E+00 -0.16573996328E+04  0.16573996328E+04  0.50400001928E-02 0. -1.
    10030    2    1    2    0    0  0.00000000000E+00  0.00000000000E+00 -0.10594183156E+04  0.22553809500E+04  0.19910740976E+04 0.  0.
        3    1    3    3  502    0 -0.97454355463E+03  0.10734944181E+03 -0.33405222740E+03  0.10357846993E+04  0.10100000352E+00 0.  1.
       -3    1    3    3    0  502  0.97454355463E+03 -0.10734944181E+03 -0.72536608817E+03  0.12195962507E+04  0.10100000352E+00 0. -1.
</event>
<event>
 5   0  0.2488886E-04  0.2020342E+04  0.7818609E-02  0.8597169E-01
       -2   -1    0    0    0  501  0.00000000000E+00  0.00000000000E+00  0.10696568996E+04  0.10696568996E+04  0.25500000920E-02 0. -1.
        2   -1    0    0  501    0  0.00000000000E+00  0.00000000000E+00 -0.95399282343E+03  0.95399282343E+03  0.25500000920E-02 0.  1.
    10030    2    1    2    0    0  0.00000000000E+00  0.00000000000E+00  0.11566407615E+03  0.20236497230E+04  0.20203415610E+04 0.  0.
        3    1    3    3  502    0  0.38227376591E+03  0.59728338562E+03  0.77842946804E+03  0.10530114538E+04  0.10100000352E+00 0. -1.
       -3    1    3    3    0  502 -0.38227376591E+03 -0.59728338562E+03 -0.66276539189E+03  0.97063826925E+03  0.10100000352E+00 0.  1.
</event>
<event>
 5   0  0.1210633E-04  0.2035572E+04  0.7818609E-02  0.8590168E-01
        1   -1    0    0  501    0  0.00000000000E+00  0.00000000000E+00  0.14630148173E+04  0.14630148173E+04  0.50400001928E-02 0. -1.
       -1   -1    0    0    0  501  0.00000000000E+00  0.00000000000E+00 -0.70805014179E+03  0.70805014180E+03  0.50400001928E-02 0.  1.
    10030    2    1    2    0    0  0.00000000000E+00  0.00000000000E+00  0.75496467549E+03  0.21710649591E+04  0.20355715157E+04 0.  0.
        2    1    3    3  502    0  0.70425170512E+03  0.39408661977E+03  0.10389345918E+04  0.13155454436E+04  0.25500000920E-02 0. -1.
       -2    1    3    3    0  502 -0.70425170512E+03 -0.39408661977E+03 -0.28396991632E+03  0.85551951551E+03  0.25500000920E-02 0.  1.
</event>
<event>
 5   0  0.2421737E-04  0.2001780E+04  0.7818609E-02  0.8605789E-01
       -2   -1    0    0    0  501  0.00000000000E+00  0.00000000000E+00  0.12533829621E+04  0.12533829621E+04  0.25500000920E-02 0.  1.
        2   -1    0    0  501    0  0.00000000000E+00  0.00000000000E+00 -0.79926139656E+03  0.79926139657E+03  0.25500000920E-02 0. -1.
    10030    2    1    2    0    0  0.00000000000E+00  0.00000000000E+00  0.45412156558E+03  0.20526443587E+04  0.20017798248E+04 0.  0.
        1    1    3    3  502    0  0.93975628664E+03  0.30269317003E+03  0.58520166988E+02  0.98903470285E+03  0.50400001928E-02 0. -1.
       -1    1    3    3    0  502 -0.93975628664E+03 -0.30269317003E+03  0.39560139860E+03  0.10636096559E+04  0.50400001928E-02 0.  1.
</event>
<event>
 5   0  0.1210633E-04  0.2027082E+04  0.7818609E-02  0.8594063E-01
       -1   -1    0    0    0  501  0.00000000000E+00  0.00000000000E+00  0.48919463762E+03  0.48919463765E+03  0.50400001928E-02 0.  1.
        1   -1    0    0  501    0  0.00000000000E+00  0.00000000000E+00 -0.20999114494E+04  0.20999114494E+04  0.50400001928E-02 0. -1.
    10030    2    1    2    0    0  0.00000000000E+00  0.00000000000E+00 -0.16107168118E+04  0.25891060870E+04  0.20270820611E+04 0.  0.
        2    1    3    3  502    0 -0.57993512277E+03 -0.67200260597E+03 -0.18047627088E+03  0.90580568193E+03  0.25500000920E-02 0.  1.
       -2    1    3    3    0  502  0.57993512277E+03  0.67200260597E+03 -0.14302405409E+04  0.16833004051E+04  0.25500000920E-02 0. -1.
</event>
<event>
 5   0  0.2540506E-04  0.2036907E+04  0.7818609E-02  0.8589557E-01
        2   -1    0    0  501    0  0.00000000000E+00  0.00000000000E+00  0.19149572666E+04  0.19149572666E+04  0.25500000920E-02 0.  1.
       -2   -1    0    0    0  501  0.00000000000E+00  0.00000000000E+00 -0.54165586008E+03  0.54165586009E+03  0.25500000920E-02 0. -1.
    10030    2    1    2    0    0  0.00000000000E+00  0.00000000000E+00  0.13733014065E+04  0.24566131267E+04  0.20369072883E+04 0.  0.
        4    1    3    3  502    0  0.57543396333E+02 -0.91068335705E+03  0.12321680296E+04  0.15332628885E+04  0.12699999809E+01 0. -1.
       -4    1    3    3    0  502 -0.57543396333E+02  0.91068335705E+03  0.14113337688E+03  0.92335023812E+03  0.12699999809E+01 0.  1.
</event>
<event>
 5   0  0.1258546E-04  0.1702577E+04  0.7818609E-02  0.8759896E-01
       -1   -1    0    0    0  501  0.00000000000E+00  0.00000000000E+00  0.34344128348E+03  0.34344128351E+03  0.50400001928E-02 0. -1.
        1   -1    0    0  501    0  0.00000000000E+00  0.00000000000E+00 -0.21100903607E+04  0.21100903607E+04  0.50400001928E-02 0.  1.
    10030    2    1    2    0    0  0.00000000000E+00  0.00000000000E+00 -0.17666490772E+04  0.24535316442E+04  0.17025770370E+04 0.  0.
        4    1    3    3  502    0  0.67136774391E+03 -0.17953582263E+01 -0.12906180426E+03  0.68366397674E+03  0.12699999809E+01 0. -1.
       -4    1    3    3    0  502 -0.67136774391E+03  0.17953582263E+01 -0.16375872729E+04  0.17698676674E+04  0.12699999809E+01 0.  1.
</event>
<event>
 5   0  0.9099125E-05  0.1826822E+04  0.7818609E-02  0.8692165E-01
        4   -1    0    0  501    0  0.00000000000E+00  0.00000000000E+00  0.64683890381E+03  0.64684015056E+03  0.12699999809E+01 0. -1.
       -4   -1    0    0    0  501  0.00000000000E+00  0.00000000000E+00 -0.12898380701E+04  0.12898386953E+04  0.12699999809E+01 0.  1.
    10030    2    1    2    0    0  0.00000000000E+00  0.00000000000E+00 -0.64299916627E+03  0.19366788459E+04  0.18268215633E+04 0.  0.
        2    1    3    3  502    0 -0.60907849025E+03  0.68068457476E+03 -0.31795827783E+03  0.96716366973E+03  0.25500000920E-02 0.  1.
       -2    1    3    3    0  502  0.60907849025E+03 -0.68068457476E+03 -0.32504088844E+03  0.96951517614E+03  0.25500000920E-02 0. -1.
</event>
<event>
 5   0  0.1324930E-04  0.2004589E+04  0.7818609E-02  0.8604478E-01
       -1   -1    0    0    0  501  0.00000000000E+00  0.00000000000E+00  0.10247038033E+04  0.10247038033E+04  0.50400001928E-02 0.  1.
        1   -1    0    0  501    0  0.00000000000E+00  0.00000000000E+00 -0.98037570111E+03  0.98037570112E+03  0.50400001928E-02 0. -1.
    10030    2    1    2    0    0  0.00000000000E+00  0.00000000000E+00  0.44328102143E+02  0.20050795044E+04  0.20045894438E+04 0.  0.
        5    1    3    3  502    0 -0.22848441949E+03  0.97506728670E+03 -0.17986465009E+02  0.10016521085E+04  0.46999998093E+01 0. -1.
       -5    1    3    3    0  502  0.22848441949E+03 -0.97506728670E+03  0.62314567153E+02  0.10034273959E+04  0.46999998093E+01 0.  1.
</event>
<event>
 5   0  0.1210633E-04  0.1998200E+04  0.7818609E-02  0.8607463E-01
        1   -1    0    0  501    0  0.00000000000E+00  0.00000000000E+00  0.78771089691E+03  0.78771089693E+03  0.50400001928E-02 0. -1.
       -1   -1    0    0    0  501  0.00000000000E+00  0.00000000000E+00 -0.12672176043E+04  0.12672176043E+04  0.50400001928E-02 0.  1.
    10030    2    1    2    0    0  0.00000000000E+00  0.00000000000E+00 -0.47950670740E+03  0.20549285012E+04  0.19982003060E+04 0.  0.
        2    1    3    3  502    0 -0.95311007349E+03 -0.16440513462E+03 -0.49737112817E+03  0.10875779970E+04  0.25500000920E-02 0.  1.
       -2    1    3    3    0  502  0.95311007349E+03  0.16440513462E+03  0.17864420776E+02  0.96735050422E+03  0.25500000920E-02 0. -1.
</event>
<event>
 5   0  0.1231056E-04  0.1938634E+04  0.7818609E-02  0.8635861E-01
        1   -1    0    0  501    0  0.00000000000E+00  0.00000000000E+00  0.12274761618E+04  0.12274761618E+04  0.50400001928E-02 0.  1.
       -1   -1    0    0    0  501  0.00000000000E+00  0.00000000000E+00 -0.76545348413E+03  0.76545348415E+03  0.50400001928E-02 0. -1.
    10030    2    1    2    0    0  0.00000000000E+00  0.00000000000E+00  0.46202267769E+03  0.19929296460E+04  0.19386344728E+04 0.  0.
        3    1    3    3  502    0 -0.21055886344E+03  0.94014089540E+03  0.34065663280E+03  0.10218839904E+04  0.10100000352E+00 0. -1.
       -3    1    3    3    0  502  0.21055886344E+03 -0.94014089540E+03  0.12136604489E+03  0.97104565558E+03  0.10100000352E+00 0.  1.
</event>
<event>
 5   0  0.1324930E-04  0.2009808E+04  0.7818609E-02  0.8602049E-01
       -1   -1    0    0    0  501  0.00000000000E+00  0.00000000000E+00  0.55534172926E+03  0.55534172928E+03  0.50400001928E-02 0. -1.
        1   -1    0    0  501    0  0.00000000000E+00  0.00000000000E+00 -0.18183968631E+04  0.18183968631E+04  0.50400001928E-02 0.  1.
    10030    2    1    2    0    0  0.00000000000E+00  0.00000000000E+00 -0.12630551339E+04  0.23737385924E+04  0.20098076112E+04 0.  0.
        5    1    3    3  502    0  0.31432228865E+03  0.60872176886E+02  0.49347939661E+03  0.58825838535E+03  0.46999998093E+01 0. -1.
       -5    1    3    3    0  502 -0.31432228865E+03 -0.60872176886E+02 -0.17565345305E+04  0.17854802071E+04  0.46999998093E+01 0.  1.
</event>
<event>
 5   0  0.1324930E-04  0.1988370E+04  0.7818609E-02  0.8612078E-01
       -1   -1    0    0    0  501  0.00000000000E+00  0.00000000000E+00  0.68572823056E+03  0.68572823058E+03  0.50400001928E-02 0. -1.
        1   -1    0    0  501    0  0.00000000000E+00  0.00000000000E+00 -0.14413924437E+04  0.14413924437E+04  0.50400001928E-02 0.  1.
    10030    2    1    2    0    0  0.00000000000E+00  0.00000000000E+00 -0.75566421317E+03  0.21271206743E+04  0.19883696739E+04 0.  0.
        5    1    3    3  502    0 -0.95043100646E+02  0.19239768309E+03  0.66064473393E+03  0.69463919693E+03  0.46999998093E+01 0. -1.
       -5    1    3    3    0  502  0.95043100646E+02 -0.19239768309E+03 -0.14163089471E+04  0.14324814774E+04  0.46999998093E+01 0.  1.
</event>
<event>
 5   0  0.1324930E-04  0.2100102E+04  0.7818609E-02  0.8561199E-01
       -1   -1    0    0    0  501  0.00000000000E+00  0.00000000000E+00  0.98789445834E+03  0.98789445835E+03  0.50400001928E-02 0. -1.
        1   -1    0    0  501    0  0.00000000000E+00  0.00000000000E+00 -0.11161179051E+04  0.11161179051E+04  0.50400001928E-02 0.  1.
    10030    2    1    2    0    0  0.00000000000E+00  0.00000000000E+00 -0.12822344678E+03  0.21040123635E+04  0.21001016103E+04 0.  0.
        5    1    3    3  502    0  0.29146809451E+03 -0.23120117093E+02 -0.10745017273E+04  0.11135817177E+04  0.46999998093E+01 0.  1.
       -5    1    3    3    0  502 -0.29146809451E+03  0.23120117093E+02  0.94627828054E+03  0.99043064581E+03  0.46999998093E+01 0. -1.
</event>
<event>
 5   0  0.2540506E-04  0.1948793E+04  0.7818609E-02  0.8630943E-01
        2   -1    0    0  501    0  0.00000000000E+00  0.00000000000E+00  0.16673530841E+04  0.16673530841E+04  0.25500000920E-02 0.  1.
       -2   -1    0    0    0  501  0.00000000000E+00  0.00000000000E+00 -0.56943467108E+03  0.56943467109E+03  0.25500000920E-02 0. -1.
    10030    2    1    2    0    0  0.00000000000E+00  0.00000000000E+00  0.10979184131E+04  0.22367877552E+04  0.19487931189E+04 0.  0.
        4    1    3    3  502    0 -0.86021798961E+02 -0.47983435862E+02  0.16616231732E+04  0.16645405800E+04  0.12699999809E+01 0.  1.
       -4    1    3    3    0  502  0.86021798961E+02  0.47983435862E+02 -0.56370476013E+03  0.57224717519E+03  0.12699999809E+01 0. -1.
</event>
<event>
 5   0  0.1258546E-04  0.1347008E+04  0.7818609E-02  0.8993096E-01
        1   -1    0    0  501    0  0.00000000000E+00  0.00000000000E+00  0.12557731779E+04  0.12557731779E+04  0.50400001928E-02 0.  1.
       -1   -1    0    0    0  501  0.00000000000E+00  0.00000000000E+00 -0.36121798376E+03  0.36121798380E+03  0.50400001928E-02 0. -1.
    10030    2    1    2    0    0  0.00000000000E+00  0.00000000000E+00  0.89455519412E+03  0.16169911617E+04  0.13470083228E+04 0.  0.
        4    1    3    3  502    0 -0.22530971274E+03  0.13283007012E+03 -0.29776199067E+03  0.39632323951E+03  0.12699999809E+01 0. -1.
       -4    1    3    3    0  502  0.22530971274E+03 -0.13283007012E+03  0.11923171848E+04  0.12206679222E+04  0.12699999809E+01 0.  1.
</event>
<event>
 5   0  0.2488886E-04  0.1852190E+04  0.7818609E-02  0.8679027E-01
        2   -1    0    0  501    0  0.00000000000E+00  0.00000000000E+00  0.13604531777E+04  0.13604531777E+04  0.25500000920E-02 0.  1.
       -2   -1    0    0    0  501  0.00000000000E+00  0.00000000000E+00 -0.63041638842E+03  0.63041638843E+03  0.25500000920E-02 0. -1.
    10030    2    1    2    0    0  0.00000000000E+00  0.00000000000E+00  0.73003678930E+03  0.19908695662E+04  0.18521900323E+04 0.  0.
        3    1    3    3  502    0 -0.47125473541E+03  0.79378070179E+03  0.28542592984E+03  0.96624882914E+03  0.10100000352E+00 0. -1.
       -3    1    3    3    0  502  0.47125473541E+03 -0.79378070179E+03  0.44461085946E+03  0.10246207370E+04  0.10100000352E+00 0.  1.
</event>
<event>
 5   0  0.2421737E-04  0.1979484E+04  0.7818609E-02  0.8616273E-01
        2   -1    0    0  501    0  0.00000000000E+00  0.00000000000E+00  0.12688859661E+04  0.12688859661E+04  0.25500000920E-02 0. -1.
       -2   -1    0    0    0  501  0.00000000000E+00  0.00000000000E+00 -0.77200734055E+03  0.77200734056E+03  0.25500000920E-02 0.  1.
    10030    2    1    2    0    0  0.00000000000E+00  0.00000000000E+00  0.49687862558E+03  0.20408933067E+04  0.19794840542E+04 0.  0.
        1    1    3    3  502    0 -0.23646670834E+02 -0.65670204650E+02 -0.76946671047E+03  0.77262588577E+03  0.50400001928E-02 0.  1.
       -1    1    3    3    0  502  0.23646670834E+02  0.65670204650E+02  0.12663453360E+04  0.12682674209E+04  0.50400001928E-02 0. -1.
</event>
<event>
 5   0  0.1258546E-04  0.1997317E+04  0.7818609E-02  0.8607876E-01
       -1   -1    0    0    0  501  0.00000000000E+00  0.00000000000E+00  0.77565469409E+03  0.77565469411E+03  0.50400001928E-02 0. -1.
        1   -1    0    0  501    0  0.00000000000E+00  0.00000000000E+00 -0.12857765025E+04  0.12857765025E+04  0.50400001928E-02 0.  1.
    10030    2    1    2    0    0  0.00000000000E+00  0.00000000000E+00 -0.51012180837E+03  0.20614311966E+04  0.19973167798E+04 0.  0.
        4    1    3    3  502    0  0.16897512694E+03 -0.96085844144E+03 -0.47525274023E+03  0.10852042748E+04  0.12699999809E+01 0.  1.
       -4    1    3    3    0  502 -0.16897512694E+03  0.96085844144E+03 -0.34869068136E+02  0.97622692179E+03  0.12699999809E+01 0. -1.
</event>
<event>
 5   0  0.2421737E-04  0.1979197E+04  0.7818609E-02  0.8616409E-01
        2   -1    0    0  501    0  0.00000000000E+00  0.00000000000E+00  0.23389144224E+04  0.23389144224E+04  0.25500000920E-02 0. -1.
       -2   -1    0    0    0  501  0.00000000000E+00  0.00000000000E+00 -0.41870054991E+03  0.41870054991E+03  0.25500000920E-02 0.  1.
    10030    2    1    2    0    0  0.00000000000E+00  0.00000000000E+00  0.19202138725E+04  0.27576149724E+04  0.19791965591E+04 0.  0.
        1    1    3    3  502    0  0.45707967471E+03 -0.27798706234E+03 -0.19985721522E+03  0.57108803381E+03  0.50400001928E-02 0.  1.
       -1    1    3    3    0  502 -0.45707967471E+03  0.27798706234E+03  0.21200710878E+04  0.21865269386E+04  0.50400001928E-02 0. -1.
</event>
<event>
 5   0  0.2421737E-04  0.2172438E+04  0.7818609E-02  0.8529988E-01
        2   -1    0    0  501    0  0.00000000000E+00  0.00000000000E+00  0.14429525483E+04  0.14429525483E+04  0.25500000920E-02 0.  1.
       -2   -1    0    0    0  501  0.00000000000E+00  0.00000000000E+00 -0.81767858780E+03  0.81767858780E+03  0.25500000920E-02 0. -1.
    10030    2    1    2    0    0  0.00000000000E+00  0.00000000000E+00  0.62527396049E+03  0.22606311361E+04  0.21724377109E+04 0.  0.
        1    1    3    3  502    0 -0.48931050913E+03  0.49094041797E+03 -0.55763034643E+03  0.88960602045E+03  0.50400001928E-02 0. -1.
       -1    1    3    3    0  502  0.48931050913E+03 -0.49094041797E+03  0.11829043069E+04  0.13710251156E+04  0.50400001928E-02 0.  1.
</event>
<event>
 5   0  0.1210633E-04  0.1979050E+04  0.7818609E-02  0.8616479E-01
        1   -1    0    0  501    0  0.00000000000E+00  0.00000000000E+00  0.98950384821E+03  0.98950384822E+03  0.50400001928E-02 0. -1.
       -1   -1    0    0    0  501  0.00000000000E+00  0.00000000000E+00 -0.98954606131E+03  0.98954606132E+03  0.50400001928E-02 0.  1.
    10030    2    1    2    0    0  0.00000000000E+00  0.00000000000E+00 -0.42213106110E-01  0.19790499095E+04  0.19790499091E+04 0.  0.
        2    1    3    3  502    0  0.70767534953E+03  0.57542715598E+03  0.38369600742E+03  0.98951677009E+03  0.25500000920E-02 0. -1.
       -2    1    3    3    0  502 -0.70767534953E+03 -0.57542715598E+03 -0.38373822053E+03  0.98953313945E+03  0.25500000920E-02 0.  1.
</event>
<event>
 5   0  0.2421737E-04  0.2056019E+04  0.7818609E-02  0.8580869E-01
        2   -1    0    0  501    0  0.00000000000E+00  0.00000000000E+00  0.13785018741E+04  0.13785018741E+04  0.25500000920E-02 0. -1.
       -2   -1    0    0    0  501  0.00000000000E+00  0.00000000000E+00 -0.76663157083E+03  0.76663157083E+03  0.25500000920E-02 0.  1.
    10030    2    1    2    0    0  0.00000000000E+00  0.00000000000E+00  0.61187030332E+03  0.21451334450E+04  0.20560185380E+04 0.  0.
        1    1    3    3  502    0  0.94107411176E+00  0.46508181798E+03 -0.65059006628E+03  0.79973084060E+03  0.50400001928E-02 0.  1.
       -1    1    3    3    0  502 -0.94107411176E+00 -0.46508181798E+03  0.12624603696E+04  0.13454026044E+04  0.50400001928E-02 0. -1.
</event>
<event>
 5   0  0.1258546E-04  0.2013251E+04  0.7818609E-02  0.8600450E-01
        1   -1    0    0  501    0  0.00000000000E+00  0.00000000000E+00  0.21458898683E+04  0.21458898683E+04  0.50400001928E-02 0.  1.
       -1   -1    0    0    0  501  0.00000000000E+00  0.00000000000E+00 -0.47220251463E+03  0.47220251466E+03  0.50400001928E-02 0. -1.
    10030    2    1    2    0    0  0.00000000000E+00  0.00000000000E+00  0.16736873536E+04  0.26180923829E+04  0.20132506967E+04 0.  0.
        4    1    3    3  502    0  0.86479420825E+03  0.64832300746E+02  0.17219686199E+03  0.88415248799E+03  0.12699999809E+01 0. -1.
       -4    1    3    3    0  502 -0.86479420825E+03 -0.64832300746E+02  0.15014904917E+04  0.17339398949E+04  0.12699999809E+01 0.  1.
</event>
<event>
 5   0  0.9099125E-05  0.1784156E+04  0.7818609E-02  0.8714771E-01
       -4   -1    0    0    0  501  0.00000000000E+00  0.00000000000E+00  0.81089156993E+03  0.81089256445E+03  0.12699999809E+01 0. -1.
        4   -1    0    0  501    0  0.00000000000E+00  0.00000000000E+00 -0.98139115699E+03  0.98139197874E+03  0.12699999809E+01 0.  1.
    10030    2    1    2    0    0  0.00000000000E+00  0.00000000000E+00 -0.17049958707E+03  0.17922845432E+04  0.17841563201E+04 0.  0.
        5    1    3    3  502    0  0.85757460127E+03 -0.22684508412E+03 -0.17995796087E+03  0.90515183622E+03  0.46999998093E+01 0.  1.
       -5    1    3    3    0  502 -0.85757460127E+03  0.22684508412E+03  0.94583738032E+01  0.88713270696E+03  0.46999998093E+01 0. -1.
</event>
<event>
 5   0  0.1258546E-04  0.1933793E+04  0.7818609E-02  0.8638216E-01
       -1   -1    0    0    0  501  0.00000000000E+00  0.00000000000E+00  0.18630590499E+04  0.18630590499E+04  0.50400001928E-02 0. -1.
        1   -1    0    0  501    0  0.00000000000E+00  0.00000000000E+00 -0.50180312433E+03  0.50180312436E+03  0.50400001928E-02 0.  1.
    10030    2    1    2    0    0  0.00000000000E+00  0.00000000000E+00  0.13612559255E+04  0.23648621742E+04  0.19337930107E+04 0.  0.
        4    1    3    3  502    0  0.93213400678E+03 -0.11737352038E+03  0.40112623172E+03  0.10215450145E+04  0.12699999809E+01 0.  1.
       -4    1    3    3    0  502 -0.93213400678E+03  0.11737352038E+03  0.96012969382E+03  0.13433171598E+04  0.12699999809E+01 0. -1.
</event>
<event>
 5   0  0.2421737E-04  0.2078449E+04  0.7818609E-02  0.8570797E-01
        2   -1    0    0  501    0  0.00000000000E+00  0.00000000000E+00  0.13874489975E+04  0.13874489975E+04  0.25500000920E-02 0. -1.
       -2   -1    0    0    0  501  0.00000000000E+00  0.00000000000E+00 -0.77839785804E+03  0.77839785804E+03  0.25500000920E-02 0.  1.
    10030    2    1    2    0    0  0.00000000000E+00  0.00000000000E+00  0.60905113943E+03  0.21658468555E+04  0.20784487752E+04 0.  0.
        1    1    3    3  502    0  0.83933598310E+03 -0.61073942371E+03  0.35662588089E+03  0.10975743962E+04  0.50400001928E-02 0. -1.
       -1    1    3    3    0  502 -0.83933598310E+03  0.61073942371E+03  0.25242525853E+03  0.10682724593E+04  0.50400001928E-02 0.  1.
</event>
<event>
 5   0  0.1207228E-04  0.1870203E+04  0.7818609E-02  0.8669832E-01
        1   -1    0    0  501    0  0.00000000000E+00  0.00000000000E+00  0.71234883204E+03  0.71234883206E+03  0.50400001928E-02 0.  1.
       -1   -1    0    0    0  501  0.00000000000E+00  0.00000000000E+00 -0.12275098076E+04  0.12275098076E+04  0.50400001928E-02 0. -1.
    10030    2    1    2    0    0  0.00000000000E+00  0.00000000000E+00 -0.51516097558E+03  0.19398586397E+04  0.18702033877E+04 0.  0.
        1    1    3    3  502    0 -0.11225863609E+03  0.25616863990E+03 -0.11831090435E+04  0.12157184634E+04  0.50400001928E-02 0. -1.
       -1    1    3    3    0  502  0.11225863609E+03 -0.25616863990E+03  0.66794806792E+03  0.72414017628E+03  0.50400001928E-02 0.  1.
</event>
<event>
 5   0  0.1210633E-04  0.2003118E+04  0.7818609E-02  0.8605164E-01
        1   -1    0    0  501    0  0.00000000000E+00  0.00000000000E+00  0.15118468314E+04  0.15118468314E+04  0.50400001928E-02 0. -1.
       -1   -1    0    0    0  501  0.00000000000E+00  0.00000000000E+00 -0.66350685231E+03  0.66350685233E+03  0.50400001928E-02 0.  1.
    10030    2    1    2    0    0  0.00000000000E+00  0.00000000000E+00  0.84833997908E+03  0.21753536837E+04  0.20031183014E+04 0.  0.
        2    1    3    3  502    0 -0.64479517894E+03 -0.60744849852E+03  0.93164658542E+03  0.12855815265E+04  0.25500000920E-02 0. -1.
       -2    1    3    3    0  502  0.64479517894E+03  0.60744849852E+03 -0.83306606337E+02  0.88977215724E+03  0.25500000920E-02 0.  1.
</event>
<event>
 5   0  0.2463085E-04  0.1989671E+04  0.7818609E-02  0.8611465E-01
       -2   -1    0    0    0  501  0.00000000000E+00  0.00000000000E+00  0.11726028679E+04  0.11726028679E+04  0.25500000920E-02 0.  1.
        2   -1    0    0  501    0  0.00000000000E+00  0.00000000000E+00 -0.84401743185E+03  0.84401743185E+03  0.25500000920E-02 0. -1.
    10030    2    1    2    0    0  0.00000000000E+00  0.00000000000E+00  0.32858543607E+03  0.20166202998E+04  0.19896705870E+04 0.  0.
        2    1    3    3  502    0 -0.61885685916E+03 -0.23819529348E+03 -0.58735613982E+03  0.88583748225E+03  0.25500000920E-02 0. -1.
       -2    1    3    3    0  502  0.61885685916E+03  0.23819529348E+03  0.91594157589E+03  0.11307828175E+04  0.25500000920E-02 0.  1.
</event>
<event>
 5   0  0.2463085E-04  0.2001870E+04  0.7818609E-02  0.8605747E-01
       -2   -1    0    0    0  501  0.00000000000E+00  0.00000000000E+00  0.60503485247E+03  0.60503485247E+03  0.25500000920E-02 0.  1.
        2   -1    0    0  501    0  0.00000000000E+00  0.00000000000E+00 -0.16558897539E+04  0.16558897539E+04  0.25500000920E-02 0. -1.
    10030    2    1    2    0    0  0.00000000000E+00  0.00000000000E+00 -0.10508549014E+04  0.22609246064E+04  0.20018701386E+04 0.  0.
        2    1    3    3  502    0  0.66942422212E+03  0.40671191706E+03  0.17837266025E+03  0.80334312630E+03  0.25500000920E-02 0.  1.
       -2    1    3    3    0  502 -0.66942422212E+03 -0.40671191706E+03 -0.12292275617E+04  0.14575814801E+04  0.25500000920E-02 0. -1.
</event>
<event>
 5   0  0.2596061E-04  0.1977615E+04  0.7818609E-02  0.8617159E-01
       -2   -1    0    0    0  501  0.00000000000E+00  0.00000000000E+00  0.10207664414E+04  0.10207664414E+04  0.25500000920E-02 0. -1.
        2   -1    0    0  501    0  0.00000000000E+00  0.00000000000E+00 -0.95784890478E+03  0.95784890478E+03  0.25500000920E-02 0.  1.
    10030    2    1    2    0    0  0.00000000000E+00  0.00000000000E+00  0.62917536602E+02  0.19786153462E+04  0.19776147430E+04 0.  0.
        5    1    3    3  502    0  0.40982557232E+03 -0.85120738142E+03  0.32350870788E+03  0.99859450228E+03  0.46999998093E+01 0. -1.
       -5    1    3    3    0  502 -0.40982557232E+03  0.85120738142E+03 -0.26059117128E+03  0.98002084389E+03  0.46999998093E+01 0.  1.
</event>
<event>
 5   0  0.2421737E-04  0.1997293E+04  0.7818609E-02  0.8607887E-01
        2   -1    0    0  501    0  0.00000000000E+00  0.00000000000E+00  0.13007907740E+04  0.13007907740E+04  0.25500000920E-02 0.  1.
       -2   -1    0    0    0  501  0.00000000000E+00  0.00000000000E+00 -0.76668388959E+03  0.76668388960E+03  0.25500000920E-02 0. -1.
    10030    2    1    2    0    0  0.00000000000E+00  0.00000000000E+00  0.53410688440E+03  0.20674746636E+04  0.19972934989E+04 0.  0.
        1    1    3    3  502    0 -0.67085914557E+03  0.29715040539E+03  0.96831271426E+03  0.12148991190E+04  0.50400001928E-02 0. -1.
       -1    1    3    3    0  502  0.67085914557E+03 -0.29715040539E+03 -0.43420582986E+03  0.85257554464E+03  0.50400001928E-02 0.  1.
</event>
<event>
 5   0  0.1231056E-04  0.2005235E+04  0.7818609E-02  0.8604177E-01
        1   -1    0    0  501    0  0.00000000000E+00  0.00000000000E+00  0.16654135976E+04  0.16654135976E+04  0.50400001928E-02 0.  1.
       -1   -1    0    0    0  501  0.00000000000E+00  0.00000000000E+00 -0.60359862596E+03  0.60359862598E+03  0.50400001928E-02 0. -1.
    10030    2    1    2    0    0  0.00000000000E+00  0.00000000000E+00  0.10618149717E+04  0.22690122236E+04  0.20052345092E+04 0.  0.
        3    1    3    3  502    0  0.24744675242E+03  0.89277584303E+03  0.97121719768E+02  0.93151019309E+03  0.10100000352E+00 0. -1.
       -3    1    3    3    0  502 -0.24744675242E+03 -0.89277584303E+03  0.96469325189E+03  0.13375020305E+04  0.10100000352E+00 0.  1.
</event>
<event>
 5   0  0.2540506E-04  0.1888542E+04  0.7818609E-02  0.8660581E-01
       -2   -1    0    0    0  501  0.00000000000E+00  0.00000000000E+00  0.43951051649E+03  0.43951051650E+03  0.25500000920E-02 0. -1.
        2   -1    0    0  501    0  0.00000000000E+00  0.00000000000E+00 -0.20287289511E+04  0.20287289511E+04  0.25500000920E-02 0.  1.
    10030    2    1    2    0    0  0.00000000000E+00  0.00000000000E+00 -0.15892184347E+04  0.24682394676E+04  0.18885419870E+04 0.  0.
        4    1    3    3  502    0 -0.87160667433E+03  0.24475732164E+03 -0.44381470580E+03  0.10082546540E+04  0.12699999809E+01 0.  1.
       -4    1    3    3    0  502  0.87160667433E+03 -0.24475732164E+03 -0.11454037289E+04  0.14599848137E+04  0.12699999809E+01 0. -1.
</event>
<event>
 5   0  0.2596061E-04  0.1990807E+04  0.7818609E-02  0.8610931E-01
        2   -1    0    0  501    0  0.00000000000E+00  0.00000000000E+00  0.20183357108E+04  0.20183357108E+04  0.25500000920E-02 0.  1.
       -2   -1    0    0    0  501  0.00000000000E+00  0.00000000000E+00 -0.49091353381E+03  0.49091353382E+03  0.25500000920E-02 0. -1.
    10030    2    1    2    0    0  0.00000000000E+00  0.00000000000E+00  0.15274221770E+04  0.25092492446E+04  0.19908071893E+04 0.  0.
        5    1    3    3  502    0 -0.76245782708E+03  0.51257866625E+03  0.12465143678E+04  0.15485150907E+04  0.46999998093E+01 0.  1.
       -5    1    3    3    0  502  0.76245782708E+03 -0.51257866625E+03  0.28090780921E+03  0.96073415388E+03  0.46999998093E+01 0. -1.
</event>
<event>
 5   0  0.2421737E-04  0.2006529E+04  0.7818609E-02  0.8603574E-01
       -2   -1    0    0    0  501  0.00000000000E+00  0.00000000000E+00  0.69915402476E+03  0.69915402477E+03  0.25500000920E-02 0.  1.
        2   -1    0    0  501    0  0.00000000000E+00  0.00000000000E+00 -0.14396542491E+04  0.14396542491E+04  0.25500000920E-02 0. -1.
    10030    2    1    2    0    0  0.00000000000E+00  0.00000000000E+00 -0.74050022430E+03  0.21388082738E+04  0.20065294042E+04 0.  0.
        1    1    3    3  502    0  0.16844382085E+03 -0.21191829644E+03  0.65948860698E+03  0.71288702324E+03  0.50400001928E-02 0.  1.
       -1    1    3    3    0  502 -0.16844382085E+03  0.21191829644E+03 -0.13999888313E+04  0.14259212506E+04  0.50400001928E-02 0. -1.
</event>
<event>
 5   0  0.1207228E-04  0.1982557E+04  0.7818609E-02  0.8614820E-01
        1   -1    0    0  501    0  0.00000000000E+00  0.00000000000E+00  0.18772114882E+04  0.18772114882E+04  0.50400001928E-02 0.  1.
       -1   -1    0    0    0  501  0.00000000000E+00  0.00000000000E+00 -0.52345351707E+03  0.52345351710E+03  0.50400001928E-02 0. -1.
    10030    2    1    2    0    0  0.00000000000E+00  0.00000000000E+00  0.13537579711E+04  0.24006650053E+04  0.19825568903E+04 0.  0.
        1    1    3    3  502    0  0.89009108217E+03 -0.16342287111E+03  0.11667505161E+04  0.14765757468E+04  0.50400001928E-02 0.  1.
       -1    1    3    3    0  502 -0.89009108217E+03  0.16342287111E+03  0.18700745506E+03  0.92408925847E+03  0.50400001928E-02 0. -1.
</event>
<event>
 5   0  0.9099125E-05  0.1986846E+04  0.7818609E-02  0.8612795E-01
       -4   -1    0    0    0  501  0.00000000000E+00  0.00000000000E+00  0.49171301551E+03  0.49171465559E+03  0.12699999809E+01 0.  1.
        4   -1    0    0  501    0  0.00000000000E+00  0.00000000000E+00 -0.20070376034E+04  0.20070380052E+04  0.12699999809E+01 0. -1.
    10030    2    1    2    0    0  0.00000000000E+00  0.00000000000E+00 -0.15153245879E+04  0.24987526608E+04  0.19868458051E+04 0.  0.
        4    1    3    3  502    0  0.89249715541E+03  0.25223639421E+02 -0.20989912931E+03  0.91719499660E+03  0.12699999809E+01 0.  1.
       -4    1    3    3    0  502 -0.89249715541E+03 -0.25223639421E+02 -0.13054254586E+04  0.15815576642E+04  0.12699999809E+01 0. -1.
</event>
<event>
 5   0  0.1210633E-04  0.2006196E+04  0.7818609E-02  0.8603729E-01
       -1   -1    0    0    0  501  0.00000000000E+00  0.00000000000E+00  0.82842421743E+03  0.82842421744E+03  0.50400001928E-02 0.  1.
        1   -1    0    0  501    0  0.00000000000E+00  0.00000000000E+00 -0.12146018337E+04  0.12146018337E+04  0.50400001928E-02 0. -1.
    10030    2    1    2    0    0  0.00000000000E+00  0.00000000000E+00 -0.38617761625E+03  0.20430260511E+04  0.20061959761E+04 0.  0.
        2    1    3    3  502    0 -0.19858616722E+03  0.10549881757E+03 -0.11886031165E+04  0.12096874947E+04  0.25500000920E-02 0. -1.
       -2    1    3    3    0  502  0.19858616722E+03 -0.10549881757E+03  0.80242550020E+03  0.83333855647E+03  0.25500000920E-02 0.  1.
</event>
<event>
 5   0  0.2463085E-04  0.1980412E+04  0.7818609E-02  0.8615834E-01
       -2   -1    0    0    0  501  0.00000000000E+00  0.00000000000E+00  0.83000871492E+03  0.83000871492E+03  0.25500000920E-02 0.  1.
        2   -1    0    0  501    0  0.00000000000E+00  0.00000000000E+00 -0.11813225895E+04  0.11813225895E+04  0.25500000920E-02 0. -1.
    10030    2    1    2    0    0  0.00000000000E+00  0.00000000000E+00 -0.35131387460E+03  0.20113313044E+04  0.19804121232E+04 0.  0.
        2    1    3    3  502    0 -0.80986413819E+03 -0.38790307478E+03  0.24818253994E+03  0.93163474114E+03  0.25500000920E-02 0.  1.
       -2    1    3    3    0  502  0.80986413819E+03  0.38790307478E+03 -0.59949641453E+03  0.10796965633E+04  0.25500000920E-02 0. -1.
</event>
<event>
 5   0  0.2540506E-04  0.1987348E+04  0.7818609E-02  0.8612559E-01
       -2   -1    0    0    0  501  0.00000000000E+00  0.00000000000E+00  0.71945532895E+03  0.71945532895E+03  0.25500000920E-02 0. -1.
        2   -1    0    0  501    0  0.00000000000E+00  0.00000000000E+00 -0.13724105722E+04  0.13724105722E+04  0.25500000920E-02 0.  1.
    10030    2    1    2    0    0  0.00000000000E+00  0.00000000000E+00 -0.65295524323E+03  0.20918659011E+04  0.19873480819E+04 0.  0.
        4    1    3    3  502    0 -0.41775301340E+02  0.74366830410E+03  0.36583546021E+03  0.82983427211E+03  0.12699999809E+01 0. -1.
       -4    1    3    3    0  502  0.41775301340E+02 -0.74366830410E+03 -0.10187907034E+04  0.12620316290E+04  0.12699999809E+01 0.  1.
</event>
<event>
 5   0  0.2596061E-04  0.1944624E+04  0.7818609E-02  0.8632957E-01
       -2   -1    0    0    0  501  0.00000000000E+00  0.00000000000E+00  0.83416167980E+03  0.83416167980E+03  0.25500000920E-02 0. -1.
        2   -1    0    0  501    0  0.00000000000E+00  0.00000000000E+00 -0.11333427497E+04  0.11333427497E+04  0.25500000920E-02 0.  1.
    10030    2    1    2    0    0  0.00000000000E+00  0.00000000000E+00 -0.29918106985E+03  0.19675044295E+04  0.19446244798E+04 0.  0.
        5    1    3    3  502    0  0.59507406567E+03 -0.12845345585E+03 -0.91663680743E+03  0.11003901857E+04  0.46999998093E+01 0.  1.
       -5    1    3    3    0  502 -0.59507406567E+03  0.12845345585E+03  0.61745573757E+03  0.86711424381E+03  0.46999998093E+01 0. -1.
</event>
<event>
 5   0  0.1258546E-04  0.1870029E+04  0.7818609E-02  0.8669920E-01
       -1   -1    0    0    0  501  0.00000000000E+00  0.00000000000E+00  0.95691613213E+03  0.95691613215E+03  0.50400001928E-02 0. -1.
        1   -1    0    0  501    0  0.00000000000E+00  0.00000000000E+00 -0.91361410299E+03  0.91361410300E+03  0.50400001928E-02 0.  1.
    10030    2    1    2    0    0  0.00000000000E+00  0.00000000000E+00  0.43302029148E+02  0.18705302351E+04  0.18700289556E+04 0.  0.
        4    1    3    3  502    0  0.90820161956E+03  0.21378801739E+03 -0.39315817406E+02  0.93385375972E+03  0.12699999809E+01 0.  1.
       -4    1    3    3    0  502 -0.90820161956E+03 -0.21378801739E+03  0.82617846554E+02  0.93667647543E+03  0.12699999809E+01 0. -1.
</event>
<event>
 5   0  0.1258546E-04  0.2002997E+04  0.7818609E-02  0.8605221E-01
       -1   -1    0    0    0  501  0.00000000000E+00  0.00000000000E+00  0.71113043097E+03  0.71113043099E+03  0.50400001928E-02 0.  1.
        1   -1    0    0  501    0  0.00000000000E+00  0.00000000000E+00 -0.14104298098E+04  0.14104298098E+04  0.50400001928E-02 0. -1.
    10030    2    1    2    0    0  0.00000000000E+00  0.00000000000E+00 -0.69929937881E+03  0.21215602408E+04  0.20029973125E+04 0.  0.
        4    1    3    3  502    0  0.73312063232E+03  0.62259898400E+03 -0.54018025705E+02  0.96333530840E+03  0.12699999809E+01 0.  1.
       -4    1    3    3    0  502 -0.73312063232E+03 -0.62259898400E+03 -0.64528135311E+03  0.11582249324E+04  0.12699999809E+01 0. -1.
</event>
<event>
 5   0  0.2463085E-04  0.2024446E+04  0.7818609E-02  0.8595276E-01
       -2   -1    0    0    0  501  0.00000000000E+00  0.00000000000E+00  0.10867695673E+04  0.10867695673E+04  0.25500000920E-02 0.  1.
        2   -1    0    0  501    0  0.00000000000E+00  0.00000000000E+00 -0.94279005217E+03  0.94279005217E+03  0.25500000920E-02 0. -1.
    10030    2    1    2    0    0  0.00000000000E+00  0.00000000000E+00  0.14397951514E+03  0.20295596195E+04  0.20244461337E+04 0.  0.
        2    1    3    3  502    0 -0.46072315459E+03 -0.61865417154E+03 -0.58510207687E+03  0.96816488756E+03  0.25500000920E-02 0. -1.
       -2    1    3    3    0  502  0.46072315459E+03  0.61865417154E+03  0.72908159201E+03  0.10613947319E+04  0.25500000920E-02 0.  1.
</event>
<event>
 5   0  0.2421737E-04  0.2020641E+04  0.7818609E-02  0.8597031E-01
        2   -1    0    0  501    0  0.00000000000E+00  0.00000000000E+00  0.12161275359E+04  0.12161275359E+04  0.25500000920E-02 0.  1.
       -2   -1    0    0    0  501  0.00000000000E+00  0.00000000000E+00 -0.83934263935E+03  0.83934263936E+03  0.25500000920E-02 0. -1.
    10030    2    1    2    0    0  0.00000000000E+00  0.00000000000E+00  0.37678489650E+03  0.20554701752E+04  0.20206411812E+04 0.  0.
        1    1    3    3  502    0 -0.92105861960E+03 -0.21698576084E+03 -0.17170915848E+03  0.96172544745E+03  0.50400001928E-02 0. -1.
       -1    1    3    3    0  502  0.92105861960E+03  0.21698576084E+03  0.54849405498E+03  0.10937447278E+04  0.50400001928E-02 0.  1.
</event>
<event>
 5   0  0.2421737E-04  0.1951906E+04  0.7818609E-02  0.8629442E-01
       -2   -1    0    0    0  501  0.00000000000E+00  0.00000000000E+00  0.11270726704E+04  0.11270726704E+04  0.25500000920E-02 0. -1.
        2   -1    0    0  501    0  0.00000000000E+00  0.00000000000E+00 -0.84509600882E+03  0.84509600883E+03  0.25500000920E-02 0.  1.
    10030    2    1    2    0    0  0.00000000000E+00  0.00000000000E+00  0.28197666154E+03  0.19721686792E+04  0.19519063660E+04 0.  0.
        1    1    3    3  502    0  0.51983505357E+03 -0.80169652208E+03  0.34189618857E+03  0.10148097360E+04  0.50400001928E-02 0. -1.
       -1    1    3    3    0  502 -0.51983505357E+03  0.80169652208E+03 -0.59919527025E+02  0.95735894323E+03  0.50400001928E-02 0.  1.
</event>
<event>
 5   0  0.1210633E-04  0.2023763E+04  0.7818609E-02  0.8595591E-01
        1   -1    0    0  501    0  0.00000000000E+00  0.00000000000E+00  0.81671989466E+03  0.81671989467E+03  0.50400001928E-02 0. -1.
       -1   -1    0    0    0  501  0.00000000000E+00  0.00000000000E+00 -0.12536785102E+04  0.12536785102E+04  0.50400001928E-02 0.  1.
    10030    2    1    2    0    0  0.00000000000E+00  0.00000000000E+00 -0.43695861557E+03  0.20703984049E+04  0.20237630107E+04 0.  0.
        2    1    3    3  502    0 -0.91867370774E+03  0.13538641225E+03  0.19279619800E+03  0.94839930192E+03  0.25500000920E-02 0. -1.
       -2    1    3    3    0  502  0.91867370774E+03 -0.13538641225E+03 -0.62975481357E+03  0.11219991030E+04  0.25500000920E-02 0.  1.
</event>
<event>
 5   0  0.2596061E-04  0.2038943E+04  0.7818609E-02  0.8588627E-01
        2   -1    0    0  501    0  0.00000000000E+00  0.00000000000E+00  0.82683862228E+03  0.82683862229E+03  0.25500000920E-02 0.  1.
       -2   -1    0    0    0  501  0.00000000000E+00  0.00000000000E+00 -0.12569824521E+04  0.12569824521E+04  0.25500000920E-02 0. -1.
    10030    2    1    2    0    0  0.00000000000E+00  0.00000000000E+00 -0.43014382980E+03  0.20838210744E+04  0.20389425092E+04 0.  0.
        5    1    3    3  502    0  0.85898234844E+03 -0.54858255906E+03 -0.19208121939E+03  0.10371647815E+04  0.46999998093E+01 0. -1.
       -5    1    3    3    0  502 -0.85898234844E+03  0.54858255906E+03 -0.23806261040E+03  0.10466562929E+04  0.46999998093E+01 0.  1.
</event>
<event>
 5   0  0.1258546E-04  0.2008889E+04  0.7818609E-02  0.8602476E-01
        1   -1    0    0  501    0  0.00000000000E+00  0.00000000000E+00  0.11856814013E+04  0.11856814013E+04  0.50400001928E-02 0. -1.
       -1   -1    0    0    0  501  0.00000000000E+00  0.00000000000E+00 -0.85091035146E+03  0.85091035148E+03  0.50400001928E-02 0.  1.
    10030    2    1    2    0    0  0.00000000000E+00  0.00000000000E+00  0.33477104985E+03  0.20365917528E+04  0.20088888251E+04 0.  0.
        4    1    3    3  502    0 -0.50963960710E+03  0.77003577457E+03 -0.23331091113E+03  0.95243016405E+03  0.12699999809E+01 0.  1.
       -4    1    3    3    0  502  0.50963960710E+03 -0.77003577457E+03  0.56808196098E+03  0.10841615888E+04  0.12699999809E+01 0. -1.
</event>
<event>
 5   0  0.1207228E-04  0.2022912E+04  0.7818609E-02  0.8595983E-01
       -1   -1    0    0    0  501  0.00000000000E+00  0.00000000000E+00  0.77774534753E+03  0.77774534755E+03  0.50400001928E-02 0.  1.
        1   -1    0    0  501    0  0.00000000000E+00  0.00000000000E+00 -0.13153959496E+04  0.13153959497E+04  0.50400001928E-02 0. -1.
    10030    2    1    2    0    0  0.00000000000E+00  0.00000000000E+00 -0.53765060211E+03  0.20931412972E+04  0.20229118419E+04 0.  0.
        1    1    3    3  502    0  0.31066693764E+03 -0.59883589848E+03 -0.10485961016E+04  0.12468649340E+04  0.50400001928E-02 0. -1.
       -1    1    3    3    0  502 -0.31066693764E+03  0.59883589848E+03  0.51094549946E+03  0.84627636318E+03  0.50400001928E-02 0.  1.
</event>
<event>
 5   0  0.1207228E-04  0.1994497E+04  0.7818609E-02  0.8609198E-01
        1   -1    0    0  501    0  0.00000000000E+00  0.00000000000E+00  0.17185779491E+04  0.17185779491E+04  0.50400001928E-02 0.  1.
       -1   -1    0    0    0  501  0.00000000000E+00  0.00000000000E+00 -0.57867868307E+03  0.57867868309E+03  0.50400001928E-02 0. -1.
    10030    2    1    2    0    0  0.00000000000E+00  0.00000000000E+00  0.11398992660E+04  0.22972566322E+04  0.19944968532E+04 0.  0.
        1    1    3    3  502    0 -0.45117688000E+03 -0.30682370183E+03  0.15314095519E+04  0.16257049477E+04  0.50400001928E-02 0.  1.
       -1    1    3    3    0  502  0.45117688000E+03  0.30682370183E+03 -0.39151028589E+03  0.67155168456E+03  0.50400001928E-02 0. -1.
</event>
<event>
 5   0  0.1210633E-04  0.1980518E+04  0.7818609E-02  0.8615784E-01
       -1   -1    0    0    0  501  0.00000000000E+00  0.00000000000E+00  0.13395513195E+04  0.13395513195E+04  0.50400001928E-02 0.  1.
        1   -1    0    0  501    0  0.00000000000E+00  0.00000000000E+00 -0.73204559559E+03  0.73204559561E+03  0.50400001928E-02 0. -1.
    10030    2    1    2    0    0  0.00000000000E+00  0.00000000000E+00  0.60750572388E+03  0.20715969151E+04  0.19805177540E+04 0.  0.
        2    1    3    3  502    0  0.94360650289E+03  0.27605578102E+03  0.42757153379E+03  0.10721088765E+04  0.25500000920E-02 0.  1.
       -2    1    3    3    0  502 -0.94360650289E+03 -0.27605578102E+03  0.17993419008E+03  0.99948803859E+03  0.25500000920E-02 0. -1.
</event>
<event>
 5   0  0.1207228E-04  0.1999968E+04  0.7818609E-02  0.8606636E-01
       -1   -1    0    0    0  501  0.00000000000E+00  0.00000000000E+00  0.11358870896E+04  0.11358870896E+04  0.50400001928E-02 0. -1.
        1   -1    0    0  501    0  0.00000000000E+00  0.00000000000E+00 -0.88034095837E+03  0.88034095838E+03  0.50400001928E-02 0.  1.
    10030    2    1    2    0    0  0.00000000000E+00  0.00000000000E+00  0.25554613120E+03  0.20162280480E+04  0.19999679288E+04 0.  0.
        1    1    3    3  502    0  0.83917851824E+03 -0.40364720320E+03 -0.23962957620E+03  0.96154770238E+03  0.50400001928E-02 0.  1.
       -1    1    3    3    0  502 -0.83917851824E+03  0.40364720320E+03  0.49517570740E+03  0.10546803456E+04  0.50400001928E-02 0. -1.
</event>
<event>
 5   0  0.2421737E-04  0.2118206E+04  0.7818609E-02  0.8553266E-01
       -2   -1    0    0    0  501  0.00000000000E+00  0.00000000000E+00  0.43394350487E+03  0.43394350488E+03  0.25500000920E-02 0.  1.
        2   -1    0    0  501    0  0.00000000000E+00  0.00000000000E+00 -0.25848956329E+04  0.25848956329E+04  0.25500000920E-02 0. -1.
    10030    2    1    2    0    0  0.00000000000E+00  0.00000000000E+00 -0.21509521280E+04  0.30188391378E+04  0.21182055336E+04 0.  0.
        1    1    3    3  502    0 -0.97606820558E+02 -0.77232185774E+03 -0.52026487862E+02  0.78020183211E+03  0.50400001928E-02 0.  1.
       -1    1    3    3    0  502  0.97606820558E+02  0.77232185774E+03 -0.20989256402E+04  0.22386373057E+04  0.50400001928E-02 0. -1.
</event>
<event>
 5   0  0.1231056E-04  0.1997492E+04  0.7818609E-02  0.8607794E-01
       -1   -1    0    0    0  501  0.00000000000E+00  0.00000000000E+00  0.14923127636E+04  0.14923127636E+04  0.50400001928E-02 0.  1.
        1   -1    0    0  501    0  0.00000000000E+00  0.00000000000E+00 -0.66842145397E+03  0.66842145399E+03  0.50400001928E-02 0. -1.
    10030    2    1    2    0    0  0.00000000000E+00  0.00000000000E+00  0.82389130964E+03  0.21607342176E+04  0.19974922951E+04 0.  0.
        3    1    3    3  502    0  0.33362320239E+03 -0.50914923289E+02  0.14287640030E+04  0.14680815226E+04  0.10100000352E+00 0.  1.
       -3    1    3    3    0  502 -0.33362320239E+03  0.50914923289E+02 -0.60487269332E+03  0.69265269502E+03  0.10100000352E+00 0. -1.
</event>
<event>
 5   0  0.2540506E-04  0.1977294E+04  0.7818609E-02  0.8617311E-01
        2   -1    0    0  501    0  0.00000000000E+00  0.00000000000E+00  0.12849758239E+04  0.12849758239E+04  0.25500000920E-02 0. -1.
       -2   -1    0    0    0  501  0.00000000000E+00  0.00000000000E+00 -0.76065467840E+03  0.76065467841E+03  0.25500000920E-02 0.  1.
    10030    2    1    2    0    0  0.00000000000E+00  0.00000000000E+00  0.52432114545E+03  0.20456305023E+04  0.19772939812E+04 0.  0.
        4    1    3    3  502    0  0.63370426306E+03 -0.43464913895E+02  0.10459390663E+04  0.12237076592E+04  0.12699999809E+01 0. -1.
       -4    1    3    3    0  502 -0.63370426306E+03  0.43464913895E+02 -0.52161792085E+03  0.82192284310E+03  0.12699999809E+01 0.  1.
</event>
<event>
 5   0  0.2488886E-04  0.1993407E+04  0.7818609E-02  0.8609709E-01
        2   -1    0    0  501    0  0.00000000000E+00  0.00000000000E+00  0.98297667949E+03  0.98297667950E+03  0.25500000920E-02 0. -1.
       -2   -1    0    0    0  501  0.00000000000E+00  0.00000000000E+00 -0.10106222212E+04  0.10106222213E+04  0.25500000920E-02 0.  1.
    10030    2    1    2    0    0  0.00000000000E+00  0.00000000000E+00 -0.27645541754E+02  0.19935989007E+04  0.19934072090E+04 0.  0.
        3    1    3    3  502    0  0.75804149406E+03  0.57262624999E+02  0.63084153528E+03  0.98785979156E+03  0.10100000352E+00 0. -1.
       -3    1    3    3    0  502 -0.75804149406E+03 -0.57262624999E+02 -0.65848707703E+03  0.10057391092E+04  0.10100000352E+00 0.  1.
</event>
<event>
 5   0  0.2463085E-04  0.2008124E+04  0.7818609E-02  0.8602832E-01
       -2   -1    0    0    0  501  0.00000000000E+00  0.00000000000E+00  0.46154923574E+03  0.46154923575E+03  0.25500000920E-02 0.  1.
        2   -1    0    0  501    0  0.00000000000E+00  0.00000000000E+00 -0.21842543225E+04  0.21842543225E+04  0.25500000920E-02 0. -1.
    10030    2    1    2    0    0  0.00000000000E+00  0.00000000000E+00 -0.17227050868E+04  0.26458035583E+04  0.20081244117E+04 0.  0.
        2    1    3    3  502    0 -0.19478138739E+03 -0.98306034396E+03 -0.94250209744E+03  0.13757389405E+04  0.25500000920E-02 0. -1.
       -2    1    3    3    0  502  0.19478138739E+03  0.98306034396E+03 -0.78020298935E+03  0.12700646178E+04  0.25500000920E-02 0.  1.
</event>
<event>
 5   0  0.1324930E-04  0.1993968E+04  0.7818609E-02  0.8609446E-01
        1   -1    0    0  501    0  0.00000000000E+00  0.00000000000E+00  0.62950969617E+03  0.62950969619E+03  0.50400001928E-02 0.  1.
       -1   -1    0    0    0  501  0.00000000000E+00  0.00000000000E+00 -0.15789696352E+04  0.15789696352E+04  0.50400001928E-02 0. -1.
    10030    2    1    2    0    0  0.00000000000E+00  0.00000000000E+00 -0.94945993904E+03  0.22084793314E+04  0.19939675979E+04 0.  0.
        5    1    3    3  502    0 -0.91140904176E+03  0.11341996659E+03 -0.90429994344E+03  0.12889185420E+04  0.46999998093E+01 0.  1.
       -5    1    3    3    0  502  0.91140904176E+03 -0.11341996659E+03 -0.45159995597E+02  0.91956078941E+03  0.46999998093E+01 0. -1.
</event>
<event>
 5   0  0.1207228E-04  0.1979659E+04  0.7818609E-02  0.8616190E-01
        1   -1    0    0  501    0  0.00000000000E+00  0.00000000000E+00  0.87457203649E+03  0.87457203651E+03  0.50400001928E-02 0. -1.
       -1   -1    0    0    0  501  0.00000000000E+00  0.00000000000E+00 -0.11202761277E+04  0.11202761277E+04  0.50400001928E-02 0.  1.
    10030    2    1    2    0    0  0.00000000000E+00  0.00000000000E+00 -0.24570409118E+03  0.19948481642E+04  0.19796587326E+04 0.  0.
        1    1    3    3  502    0 -0.12019406454E+02  0.81640057316E+03 -0.68670578810E+03  0.10668735639E+04  0.50400001928E-02 0.  1.
       -1    1    3    3    0  502  0.12019406454E+02 -0.81640057316E+03  0.44100169692E+03  0.92797460025E+03  0.50400001928E-02 0. -1.
</event>
<event>
 5   0  0.2540506E-04  0.2002709E+04  0.7818609E-02  0.8605355E-01
        2   -1    0    0  501    0  0.00000000000E+00  0.00000000000E+00  0.10563370813E+04  0.10563370813E+04  0.25500000920E-02 0.  1.
       -2   -1    0    0    0  501  0.00000000000E+00  0.00000000000E+00 -0.94923336964E+03  0.94923336964E+03  0.25500000920E-02 0. -1.
    10030    2    1    2    0    0  0.00000000000E+00  0.00000000000E+00  0.10710371165E+03  0.20055704509E+04  0.20027085731E+04 0.  0.
        4    1    3    3  502    0  0.90593682056E+03 -0.27558600506E+03  0.37965445285E+03  0.10202001203E+04  0.12699999809E+01 0.  1.
       -4    1    3    3    0  502 -0.90593682056E+03  0.27558600506E+03 -0.27255074120E+03  0.98537033061E+03  0.12699999809E+01 0. -1.
</event>
<event>
 5   0  0.2540506E-04  0.1995291E+04  0.7818609E-02  0.8608826E-01
        2   -1    0    0  501    0  0.00000000000E+00  0.00000000000E+00  0.13312346894E+04  0.13312346894E+04  0.25500000920E-02 0.  1.
       -2   -1    0    0    0  501  0.00000000000E+00  0.00000000000E+00 -0.74764888761E+03  0.74764888761E+03  0.25500000920E-02 0. -1.
    10030    2    1    2    0    0  0.00000000000E+00  0.00000000000E+00  0.58358580177E+03  0.20788835770E+04  0.19952905900E+04 0.  0.
        4    1    3    3  502    0  0.25894177536E+03 -0.94212438421E+03  0.81739699079E+02  0.98047549161E+03  0.12699999809E+01 0.  1.
       -4    1    3    3    0  502 -0.25894177536E+03  0.94212438421E+03  0.50184610270E+03  0.10984080854E+04  0.12699999809E+01 0. -1.
</event>
<event>
 5   0  0.2596061E-04  0.1366908E+04  0.7818609E-02  0.8978127E-01
        2   -1    0    0  501    0  0.00000000000E+00  0.00000000000E+00  0.11475023107E+04  0.11475023107E+04  0.25500000920E-02 0. -1.
       -2   -1    0    0    0  501  0.00000000000E+00  0.00000000000E+00 -0.40706621797E+03  0.40706621798E+03  0.25500000920E-02 0.  1.
    10030    2    1    2    0    0  0.00000000000E+00  0.00000000000E+00  0.74043609272E+03  0.15545685287E+04  0.13669080814E+04 0.  0.
        5    1    3    3  502    0  0.24328237343E+03 -0.63688400511E+03  0.42452027505E+03  0.80314824479E+03  0.46999998093E+01 0. -1.
       -5    1    3    3    0  502 -0.24328237343E+03  0.63688400511E+03  0.31591581766E+03  0.75142028388E+03  0.46999998093E+01 0.  1.
</event>
<event>
 5   0  0.2488886E-04  0.2105819E+04  0.7818609E-02  0.8558684E-01
       -2   -1    0    0    0  501  0.00000000000E+00  0.00000000000E+00  0.29786623193E+04  0.29786623193E+04  0.25500000920E-02 0. -1.
        2   -1    0    0  501    0  0.00000000000E+00  0.00000000000E+00 -0.37218683941E+03  0.37218683941E+03  0.25500000920E-02 0.  1.
    10030    2    1    2    0    0  0.00000000000E+00  0.00000000000E+00  0.26064754799E+04  0.33508491587E+04  0.21058194740E+04 0.  0.
        3    1    3    3  502    0 -0.33940549725E+03  0.99628735739E+03  0.13491996974E+04  0.17111763275E+04  0.10100000352E+00 0.  1.
       -3    1    3    3    0  502  0.33940549725E+03 -0.99628735739E+03  0.12572757825E+04  0.16396728313E+04  0.10100000352E+00 0. -1.
</event>
<event>
 5   0  0.2540506E-04  0.2007330E+04  0.7818609E-02  0.8603201E-01
       -2   -1    0    0    0  501  0.00000000000E+00  0.00000000000E+00  0.86484593161E+03  0.86484593162E+03  0.25500000920E-02 0. -1.
        2   -1    0    0  501    0  0.00000000000E+00  0.00000000000E+00 -0.11647662636E+04  0.11647662636E+04  0.25500000920E-02 0.  1.
    10030    2    1    2    0    0  0.00000000000E+00  0.00000000000E+00 -0.29992033203E+03  0.20296121953E+04  0.20073299324E+04 0.  0.
        4    1    3    3  502    0  0.27299802014E+03 -0.42439855868E+03  0.72725306471E+03  0.88517833720E+03  0.12699999809E+01 0. -1.
       -4    1    3    3    0  502 -0.27299802014E+03  0.42439855868E+03 -0.10271733967E+04  0.11444338581E+04  0.12699999809E+01 0.  1.
</event>
<event>
 5   0  0.1324930E-04  0.1900437E+04  0.7818609E-02  0.8654639E-01
       -1   -1    0    0    0  501  0.00000000000E+00  0.00000000000E+00  0.15133250559E+04  0.15133250559E+04  0.50400001928E-02 0.  1.
        1   -1    0    0  501    0  0.00000000000E+00  0.00000000000E+00 -0.59664306134E+03  0.59664306136E+03  0.50400001928E-02 0. -1.
    10030    2    1    2    0    0  0.00000000000E+00  0.00000000000E+00  0.91668199451E+03  0.21099681172E+04  0.19004366805E+04 0.  0.
        5    1    3    3  502    0  0.69846303765E+03 -0.47855483838E+03  0.93720369962E+03  0.12630273999E+04  0.46999998093E+01 0.  1.
       -5    1    3    3    0  502 -0.69846303765E+03  0.47855483838E+03 -0.20521705101E+02  0.84694071734E+03  0.46999998093E+01 0. -1.
</event>
<event>
 5   0  0.1210633E-04  0.1957245E+04  0.7818609E-02  0.8626875E-01
       -1   -1    0    0    0  501  0.00000000000E+00  0.00000000000E+00  0.72882209861E+03  0.72882209863E+03  0.50400001928E-02 0. -1.
        1   -1    0    0  501    0  0.00000000000E+00  0.00000000000E+00 -0.13140404785E+04  0.13140404786E+04  0.50400001928E-02 0.  1.
    10030    2    1    2    0    0  0.00000000000E+00  0.00000000000E+00 -0.58521837993E+03  0.20428625772E+04  0.19572447361E+04 0.  0.
        2    1    3    3  502    0  0.55744291257E+03 -0.43724749715E+03  0.41203306107E+03  0.81957258249E+03  0.25500000920E-02 0. -1.
       -2    1    3    3    0  502 -0.55744291257E+03  0.43724749715E+03 -0.99725144101E+03  0.12232899947E+04  0.25500000920E-02 0.  1.
</event>
<event>
 5   0  0.2540506E-04  0.1988447E+04  0.7818609E-02  0.8612041E-01
       -2   -1    0    0    0  501  0.00000000000E+00  0.00000000000E+00  0.13316187646E+04  0.13316187646E+04  0.25500000920E-02 0. -1.
        2   -1    0    0  501    0  0.00000000000E+00  0.00000000000E+00 -0.74231459656E+03  0.74231459657E+03  0.25500000920E-02 0.  1.
    10030    2    1    2    0    0  0.00000000000E+00  0.00000000000E+00  0.58930416805E+03  0.20739333612E+04  0.19884466762E+04 0.  0.
        4    1    3    3  502    0 -0.48003045513E+03  0.83489803326E+03  0.55224035102E+03  0.11101598903E+04  0.12699999809E+01 0.  1.
       -4    1    3    3    0  502  0.48003045513E+03 -0.83489803326E+03  0.37063817036E+02  0.96377347091E+03  0.12699999809E+01 0. -1.
</event>
<event>
 5   0  0.2488886E-04  0.1993014E+04  0.7818609E-02  0.8609894E-01
        2   -1    0    0  501    0  0.00000000000E+00  0.00000000000E+00  0.85015196892E+03  0.85015196893E+03  0.25500000920E-02 0.  1.
       -2   -1    0    0    0  501  0.00000000000E+00  0.00000000000E+00 -0.11680573407E+04  0.11680573407E+04  0.25500000920E-02 0. -1.
    10030    2    1    2    0    0  0.00000000000E+00  0.00000000000E+00 -0.31790537177E+03  0.20182093096E+04  0.19930140471E+04 0.  0.
        3    1    3    3  502    0  0.66542722455E+03 -0.28192990560E+03  0.53583203655E+03  0.89966318388E+03  0.10100000352E+00 0.  1.
       -3    1    3    3    0  502 -0.66542722455E+03  0.28192990560E+03 -0.85373740832E+03  0.11185461257E+04  0.10100000352E+00 0. -1.
</event>
<event>
 5   0  0.9099125E-05  0.1993847E+04  0.7818609E-02  0.8609503E-01
       -3   -1    0    0    0  501  0.00000000000E+00  0.00000000000E+00  0.83165088654E+03  0.83165089267E+03  0.10100000352E+00 0. -1.
        3   -1    0    0  501    0  0.00000000000E+00  0.00000000000E+00 -0.11950402405E+04  0.11950402447E+04  0.10100000352E+00 0.  1.
    10030    2    1    2    0    0  0.00000000000E+00  0.00000000000E+00 -0.36338935392E+03  0.20266911374E+04  0.19938468206E+04 0.  0.
        1    1    3    3  502    0  0.17143029996E+03  0.65934282130E+03  0.55812368306E+03  0.88069481057E+03  0.50400001928E-02 0. -1.
       -1    1    3    3    0  502 -0.17143029996E+03 -0.65934282130E+03 -0.92151303698E+03  0.11459963268E+04  0.50400001928E-02 0.  1.
</event>
<event>
 5   0  0.2463085E-04  0.2032110E+04  0.7818609E-02  0.8591754E-01
       -2   -1    0    0    0  501  0.00000000000E+00  0.00000000000E+00  0.32809060454E+04  0.32809060454E+04  0.25500000920E-02 0.  1.
        2   -1    0    0  501    0  0.00000000000E+00  0.00000000000E+00 -0.31465943420E+03  0.31465943421E+03  0.25500000920E-02 0. -1.
    10030    2    1    2    0    0  0.00000000000E+00  0.00000000000E+00  0.29662466112E+04  0.35955654796E+04  0.20321102725E+04 0.  0.
        2    1    3    3  502    0  0.19783635232E+03 -0.63587275810E+03  0.12531413826E+03  0.67762601784E+03  0.25500000920E-02 0. -1.
       -2    1    3    3    0  502 -0.19783635232E+03  0.63587275810E+03  0.28409324729E+04  0.29179394618E+04  0.25500000920E-02 0.  1.
</event>
<event>
 5   0  0.2540506E-04  0.1935814E+04  0.7818609E-02  0.8637232E-01
        2   -1    0    0  501    0  0.00000000000E+00  0.00000000000E+00  0.92098031656E+03  0.92098031656E+03  0.25500000920E-02 0.  1.
       -2   -1    0    0    0  501  0.00000000000E+00  0.00000000000E+00 -0.10172250998E+04  0.10172250998E+04  0.25500000920E-02 0. -1.
    10030    2    1    2    0    0  0.00000000000E+00  0.00000000000E+00 -0.96244783198E+02  0.19382054163E+04  0.19358143448E+04 0.  0.
        4    1    3    3  502    0  0.29071969445E+03 -0.17561947721E+03  0.85935385844E+03  0.92404047987E+03  0.12699999809E+01 0.  1.
       -4    1    3    3    0  502 -0.29071969445E+03  0.17561947721E+03 -0.95559864164E+03  0.10141649364E+04  0.12699999809E+01 0. -1.
</event>
<event>
 5   0  0.1207228E-04  0.1991212E+04  0.7818609E-02  0.8610740E-01
        1   -1    0    0  501    0  0.00000000000E+00  0.00000000000E+00  0.17149059226E+04  0.17149059226E+04  0.50400001928E-02 0.  1.
       -1   -1    0    0    0  501  0.00000000000E+00  0.00000000000E+00 -0.57800903071E+03  0.57800903074E+03  0.50400001928E-02 0. -1.
    10030    2    1    2    0    0  0.00000000000E+00  0.00000000000E+00  0.11368968918E+04  0.22929149533E+04  0.19912118020E+04 0.  0.
        1    1    3    3  502    0 -0.61258413420E+03 -0.74767529453E+03  0.84325714672E+03  0.12827159791E+04  0.50400001928E-02 0. -1.
       -1    1    3    3    0  502  0.61258413420E+03  0.74767529453E+03  0.29363974512E+03  0.10101989742E+04  0.50400001928E-02 0.  1.
</event>
<event>
 5   0  0.2463085E-04  0.1899434E+04  0.7818609E-02  0.8655138E-01
        2   -1    0    0  501    0  0.00000000000E+00  0.00000000000E+00  0.10686215048E+04  0.10686215048E+04  0.25500000920E-02 0.  1.
       -2   -1    0    0    0  501  0.00000000000E+00  0.00000000000E+00 -0.84404267900E+03  0.84404267901E+03  0.25500000920E-02 0. -1.
    10030    2    1    2    0    0  0.00000000000E+00  0.00000000000E+00  0.22457882575E+03  0.19126641838E+04  0.18994337659E+04 0.  0.
        2    1    3    3  502    0  0.85180257774E+03  0.15373285972E+03  0.50585801086E+03  0.10025436403E+04  0.25500000920E-02 0.  1.
       -2    1    3    3    0  502 -0.85180257774E+03 -0.15373285972E+03 -0.28127918511E+03  0.91012054344E+03  0.25500000920E-02 0. -1.
</event>
<event>
 5   0  0.1324930E-04  0.1909739E+04  0.7818609E-02  0.8650024E-01
       -1   -1    0    0    0  501  0.00000000000E+00  0.00000000000E+00  0.12472247092E+04  0.12472247092E+04  0.50400001928E-02 0.  1.
        1   -1    0    0  501    0  0.00000000000E+00  0.00000000000E+00 -0.73104359922E+03  0.73104359923E+03  0.50400001928E-02 0. -1.
    10030    2    1    2    0    0  0.00000000000E+00  0.00000000000E+00  0.51618110994E+03  0.19782683084E+04  0.19097388727E+04 0.  0.
        5    1    3    3  502    0  0.80697770905E+03 -0.50439141630E+03  0.33919325335E+03  0.10102959353E+04  0.46999998093E+01 0. -1.
       -5    1    3    3    0  502 -0.80697770905E+03  0.50439141630E+03  0.17698785658E+03  0.96797237311E+03  0.46999998093E+01 0.  1.
</event>
<event>
 5   0  0.1231056E-04  0.2124618E+04  0.7818609E-02  0.8550476E-01
        1   -1    0    0  501    0  0.00000000000E+00  0.00000000000E+00  0.99148272985E+03  0.99148272986E+03  0.50400001928E-02 0.  1.
       -1   -1    0    0    0  501  0.00000000000E+00  0.00000000000E+00 -0.11381943549E+04  0.11381943550E+04  0.50400001928E-02 0. -1.
    10030    2    1    2    0    0  0.00000000000E+00  0.00000000000E+00 -0.14671162509E+03  0.21296770848E+04  0.21246176561E+04 0.  0.
        3    1    3    3  502    0 -0.83988980738E+03 -0.44175860818E+03 -0.55191756330E+03  0.10978062504E+04  0.10100000352E+00 0. -1.
       -3    1    3    3    0  502  0.83988980738E+03  0.44175860818E+03  0.40520593821E+03  0.10318708345E+04  0.10100000352E+00 0.  1.
</event>
<event>
 5   0  0.2596061E-04  0.1957478E+04  0.7818609E-02  0.8626763E-01
        2   -1    0    0  501    0  0.00000000000E+00  0.00000000000E+00  0.92589477413E+03  0.92589477414E+03  0.25500000920E-02 0. -1.
       -2   -1    0    0    0  501  0.00000000000E+00  0.00000000000E+00 -0.10345997451E+04  0.10345997451E+04  0.25500000920E-02 0.  1.
    10030    2    1    2    0    0  0.00000000000E+00  0.00000000000E+00 -0.10870497098E+03  0.19604945192E+04  0.19574784773E+04 0.  0.
        5    1    3    3  502    0 -0.33649378442E+03  0.84612562419E+03  0.30502034345E+03  0.96032085200E+03  0.46999998093E+01 0. -1.
       -5    1    3    3    0  502  0.33649378442E+03 -0.84612562419E+03 -0.41372531442E+03  0.10001736672E+04  0.46999998093E+01 0.  1.
</event>
<event>
 5   0  0.1324930E-04  0.1979892E+04  0.7818609E-02  0.8616080E-01
        1   -1    0    0  501    0  0.00000000000E+00  0.00000000000E+00  0.80874546795E+03  0.80874546796E+03  0.50400001928E-02 0. -1.
       -1   -1    0    0    0  501  0.00000000000E+00  0.00000000000E+00 -0.12117446572E+04  0.12117446572E+04  0.50400001928E-02 0.  1.
    10030    2    1    2    0    0  0.00000000000E+00  0.00000000000E+00 -0.40299918922E+03  0.20204901251E+04  0.19798919161E+04 0.  0.
        5    1    3    3  502    0 -0.91274280502E+02  0.77267897446E+02  0.80133550696E+03  0.81022343028E+03  0.46999998093E+01 0. -1.
       -5    1    3    3    0  502  0.91274280502E+02 -0.77267897446E+02 -0.12043346962E+04  0.12102666949E+04  0.46999998093E+01 0.  1.
</event>
<event>
 5   0  0.2488886E-04  0.1917507E+04  0.7818609E-02  0.8646191E-01
        2   -1    0    0  501    0  0.00000000000E+00  0.00000000000E+00  0.12781255751E+04  0.12781255751E+04  0.25500000920E-02 0.  1.
       -2   -1    0    0    0  501  0.00000000000E+00  0.00000000000E+00 -0.71918452919E+03  0.71918452920E+03  0.25500000920E-02 0. -1.
    10030    2    1    2    0    0  0.00000000000E+00  0.00000000000E+00  0.55894104594E+03  0.19973101043E+04  0.19175068605E+04 0.  0.
        3    1    3    3  502    0 -0.26900610785E+03 -0.18078114011E+03 -0.66039126538E+03  0.73563764196E+03  0.10100000352E+00 0. -1.
       -3    1    3    3    0  502  0.26900610785E+03  0.18078114011E+03  0.12193323113E+04  0.12616724624E+04  0.10100000352E+00 0.  1.
</event>
<event>
 5   0  0.1207228E-04  0.1719722E+04  0.7818609E-02  0.8750196E-01
       -1   -1    0    0    0  501  0.00000000000E+00  0.00000000000E+00  0.41218330145E+03  0.41218330148E+03  0.50400001928E-02 0. -1.
        1   -1    0    0  501    0  0.00000000000E+00  0.00000000000E+00 -0.17937666842E+04  0.17937666842E+04  0.50400001928E-02 0.  1.
    10030    2    1    2    0    0  0.00000000000E+00  0.00000000000E+00 -0.13815833827E+04  0.22059499857E+04  0.17197216914E+04 0.  0.
        1    1    3    3  502    0 -0.58896916243E+03  0.43831655066E+03 -0.12649572697E+04  0.14625740894E+04  0.50400001928E-02 0.  1.
       -1    1    3    3    0  502  0.58896916243E+03 -0.43831655066E+03 -0.11662611305E+03  0.74337589627E+03  0.50400001928E-02 0. -1.
</event>
<event>
 5   0  0.1231056E-04  0.1889103E+04  0.7818609E-02  0.8660299E-01
        1   -1    0    0  501    0  0.00000000000E+00  0.00000000000E+00  0.17252849777E+04  0.17252849777E+04  0.50400001928E-02 0. -1.
       -1   -1    0    0    0  501  0.00000000000E+00  0.00000000000E+00 -0.51711904767E+03  0.51711904769E+03  0.50400001928E-02 0.  1.
    10030    2    1    2    0    0  0.00000000000E+00  0.00000000000E+00  0.12081659300E+04  0.22424040254E+04  0.18891031996E+04 0.  0.
        3    1    3    3  502    0  0.37263181888E+03  0.26113084634E+03 -0.37844725374E+03  0.59183285260E+03  0.10100000352E+00 0.  1.
       -3    1    3    3    0  502 -0.37263181888E+03 -0.26113084634E+03  0.15866131838E+04  0.16505711728E+04  0.10100000352E+00 0. -1.
</event>
<event>
 5   0  0.2488886E-04  0.1553105E+04  0.7818609E-02  0.8849887E-01
        2   -1    0    0  501    0  0.00000000000E+00  0.00000000000E+00  0.10899052424E+04  0.10899052424E+04  0.25500000920E-02 0. -1.
       -2   -1    0    0    0  501  0.00000000000E+00  0.00000000000E+00 -0.55328991107E+03  0.55328991108E+03  0.25500000920E-02 0.  1.
    10030    2    1    2    0    0  0.00000000000E+00  0.00000000000E+00  0.53661533132E+03  0.16431951535E+04  0.15531047288E+04 0.  0.
        3    1    3    3  502    0  0.44821812330E+03  0.58641714287E+03  0.12959531668E+02  0.73820898882E+03  0.10100000352E+00 0.  1.
       -3    1    3    3    0  502 -0.44821812330E+03 -0.58641714287E+03  0.52365579965E+03  0.90498616465E+03  0.10100000352E+00 0. -1.
</event>
<event>
 5   0  0.2596061E-04  0.2001214E+04  0.7818609E-02  0.8606053E-01
        2   -1    0    0  501    0  0.00000000000E+00  0.00000000000E+00  0.17050538111E+04  0.17050538111E+04  0.25500000920E-02 0.  1.
       -2   -1    0    0    0  501  0.00000000000E+00  0.00000000000E+00 -0.58720417713E+03  0.58720417714E+03  0.25500000920E-02 0. -1.
    10030    2    1    2    0    0  0.00000000000E+00  0.00000000000E+00  0.11178496339E+04  0.22922579882E+04  0.20012143514E+04 0.  0.
        5    1    3    3  502    0  0.26989013650E+03  0.96199768174E+03  0.49710955067E+03  0.11159839698E+04  0.46999998093E+01 0. -1.
       -5    1    3    3    0  502 -0.26989013650E+03 -0.96199768174E+03  0.62074008326E+03  0.11762740184E+04  0.46999998093E+01 0.  1.
</event>
<event>
 5   0  0.2596061E-04  0.2014451E+04  0.7818609E-02  0.8599894E-01
        2   -1    0    0  501    0  0.00000000000E+00  0.00000000000E+00  0.16637660531E+04  0.16637660532E+04  0.25500000920E-02 0.  1.
       -2   -1    0    0    0  501  0.00000000000E+00  0.00000000000E+00 -0.60976303269E+03  0.60976303269E+03  0.25500000920E-02 0. -1.
    10030    2    1    2    0    0  0.00000000000E+00  0.00000000000E+00  0.10540030205E+04  0.22735290858E+04  0.20144508277E+04 0.  0.
        5    1    3    3  502    0 -0.25141550507E+03  0.84169386151E+03  0.10831470064E+04  0.13945923563E+04  0.46999998093E+01 0.  1.
       -5    1    3    3    0  502  0.25141550507E+03 -0.84169386151E+03 -0.29143985936E+02  0.87893672958E+03  0.46999998093E+01 0. -1.
</event>
<event>
 5   0  0.1258546E-04  0.2004722E+04  0.7818609E-02  0.8604416E-01
       -1   -1    0    0    0  501  0.00000000000E+00  0.00000000000E+00  0.10601791882E+04  0.10601791882E+04  0.50400001928E-02 0.  1.
        1   -1    0    0  501    0  0.00000000000E+00  0.00000000000E+00 -0.94769573689E+03  0.94769573690E+03  0.50400001928E-02 0. -1.
    10030    2    1    2    0    0  0.00000000000E+00  0.00000000000E+00  0.11248345133E+03  0.20078749251E+04  0.20047217234E+04 0.  0.
        4    1    3    3  502    0  0.82853540269E+02  0.29542210414E+03 -0.89950589229E+03  0.95039538715E+03  0.12699999809E+01 0. -1.
       -4    1    3    3    0  502 -0.82853540269E+02 -0.29542210414E+03  0.10119893436E+04  0.10574795380E+04  0.12699999809E+01 0.  1.
</event>
<event>
 5   0  0.9099125E-05  0.2071352E+04  0.7818609E-02  0.8573969E-01
       -3   -1    0    0    0  501  0.00000000000E+00  0.00000000000E+00  0.11280386528E+04  0.11280386573E+04  0.10100000352E+00 0. -1.
        3   -1    0    0  501    0  0.00000000000E+00  0.00000000000E+00 -0.95087571749E+03  0.95087572285E+03  0.10100000352E+00 0.  1.
    10030    2    1    2    0    0  0.00000000000E+00  0.00000000000E+00  0.17716293527E+03  0.20789143801E+04  0.20713518036E+04 0.  0.
        2    1    3    3  502    0  0.99158699363E+03 -0.15011739387E+03 -0.17090566191E+03  0.10173439650E+04  0.25500000920E-02 0.  1.
       -2    1    3    3    0  502 -0.99158699363E+03  0.15011739387E+03  0.34806859718E+03  0.10615704151E+04  0.25500000920E-02 0. -1.
</event>
<event>
 5   0  0.1258546E-04  0.2001026E+04  0.7818609E-02  0.8606141E-01
        1   -1    0    0  501    0  0.00000000000E+00  0.00000000000E+00  0.95420646213E+03  0.95420646214E+03  0.50400001928E-02 0.  1.
       -1   -1    0    0    0  501  0.00000000000E+00  0.00000000000E+00 -0.10490663106E+04  0.10490663107E+04  0.50400001928E-02 0. -1.
    10030    2    1    2    0    0  0.00000000000E+00  0.00000000000E+00 -0.94859848517E+02  0.20032727728E+04  0.20010255899E+04 0.  0.
        4    1    3    3  502    0  0.92807967769E+03  0.36634631839E+03 -0.12155851597E+03  0.10051465559E+04  0.12699999809E+01 0.  1.
       -4    1    3    3    0  502 -0.92807967769E+03 -0.36634631839E+03  0.26698667449E+02  0.99812621691E+03  0.12699999809E+01 0. -1.
</event>
<event>
 5   0  0.1231056E-04  0.1999203E+04  0.7818609E-02  0.8606994E-01
        1   -1    0    0  501    0  0.00000000000E+00  0.00000000000E+00  0.75015506529E+03  0.75015506531E+03  0.50400001928E-02 0.  1.
       -1   -1    0    0    0  501  0.00000000000E+00  0.00000000000E+00 -0.13319950861E+04  0.13319950861E+04  0.50400001928E-02 0. -1.
    10030    2    1    2    0    0  0.00000000000E+00  0.00000000000E+00 -0.58184002079E+03  0.20821501514E+04  0.19992027019E+04 0.  0.
        3    1    3    3  502    0 -0.11610985130E+03 -0.83757736691E+03  0.26428858129E+03  0.88592652491E+03  0.10100000352E+00 0. -1.
       -3    1    3    3    0  502  0.11610985130E+03  0.83757736691E+03 -0.84612860208E+03  0.11962236265E+04  0.10100000352E+00 0.  1.
</event>
<event>
 5   0  0.1258546E-04  0.1491479E+04  0.7818609E-02  0.8890139E-01
       -1   -1    0    0    0  501  0.00000000000E+00  0.00000000000E+00  0.32245915948E+03  0.32245915952E+03  0.50400001928E-02 0. -1.
        1   -1    0    0  501    0  0.00000000000E+00  0.00000000000E+00 -0.17246446561E+04  0.17246446561E+04  0.50400001928E-02 0.  1.
    10030    2    1    2    0    0  0.00000000000E+00  0.00000000000E+00 -0.14021854966E+04  0.20471038156E+04  0.14914790863E+04 0.  0.
        4    1    3    3  502    0 -0.51510199660E+02  0.31167414685E+03 -0.16282706172E+04  0.16586322348E+04  0.12699999809E+01 0.  1.
       -4    1    3    3    0  502  0.51510199660E+02 -0.31167414685E+03  0.22608512058E+03  0.38847158085E+03  0.12699999809E+01 0. -1.
</event>
<event>
 5   0  0.2488886E-04  0.1813842E+04  0.7818609E-02  0.8698973E-01
        2   -1    0    0  501    0  0.00000000000E+00  0.00000000000E+00  0.23715761678E+04  0.23715761678E+04  0.25500000920E-02 0. -1.
       -2   -1    0    0    0  501  0.00000000000E+00  0.00000000000E+00 -0.34681828683E+03  0.34681828684E+03  0.25500000920E-02 0.  1.
    10030    2    1    2    0    0  0.00000000000E+00  0.00000000000E+00  0.20247578810E+04  0.27183944547E+04  0.18138423125E+04 0.  0.
        3    1    3    3  502    0 -0.70935498684E+02  0.43590471684E+03  0.21995311002E+04  0.22434308187E+04  0.10100000352E+00 0. -1.
       -3    1    3    3    0  502  0.70935498684E+02 -0.43590471684E+03 -0.17477321924E+03  0.47496363598E+03  0.10100000352E+00 0.  1.
</event>
<event>
 5   0  0.2596061E-04  0.1790431E+04  0.7818609E-02  0.8711405E-01
       -2   -1    0    0    0  501  0.00000000000E+00  0.00000000000E+00  0.45613919046E+03  0.45613919047E+03  0.25500000920E-02 0. -1.
        2   -1    0    0  501    0  0.00000000000E+00  0.00000000000E+00 -0.17569438134E+04  0.17569438134E+04  0.25500000920E-02 0.  1.
    10030    2    1    2    0    0  0.00000000000E+00  0.00000000000E+00 -0.13008046230E+04  0.22130830039E+04  0.17904311534E+04 0.  0.
        5    1    3    3  502    0  0.48637078381E+03 -0.40963660289E+03 -0.14292487216E+04  0.15643313856E+04  0.46999998093E+01 0.  1.
       -5    1    3    3    0  502 -0.48637078381E+03  0.40963660289E+03  0.12844409863E+03  0.64875161830E+03  0.46999998093E+01 0. -1.
</event>
<event>
 5   0  0.2596061E-04  0.1813191E+04  0.7818609E-02  0.8699316E-01
       -2   -1    0    0    0  501  0.00000000000E+00  0.00000000000E+00  0.51585401571E+03  0.51585401572E+03  0.25500000920E-02 0. -1.
        2   -1    0    0  501    0  0.00000000000E+00  0.00000000000E+00 -0.15933104896E+04  0.15933104896E+04  0.25500000920E-02 0.  1.
    10030    2    1    2    0    0  0.00000000000E+00  0.00000000000E+00 -0.10774564739E+04  0.21091645053E+04  0.18131912357E+04 0.  0.
        5    1    3    3  502    0 -0.65088667587E+02  0.12474262670E+03  0.50306153758E+03  0.52238899122E+03  0.46999998093E+01 0. -1.
       -5    1    3    3    0  502  0.65088667587E+02 -0.12474262670E+03 -0.15805180115E+04  0.15867755141E+04  0.46999998093E+01 0.  1.
</event>
<event>
 5   0  0.1207228E-04  0.1978165E+04  0.7818609E-02  0.8616898E-01
        1   -1    0    0  501    0  0.00000000000E+00  0.00000000000E+00  0.11775860181E+04  0.11775860182E+04  0.50400001928E-02 0. -1.
       -1   -1    0    0    0  501  0.00000000000E+00  0.00000000000E+00 -0.83075358118E+03  0.83075358120E+03  0.50400001928E-02 0.  1.
    10030    2    1    2    0    0  0.00000000000E+00  0.00000000000E+00  0.34683243697E+03  0.20083395994E+04  0.19781646056E+04 0.  0.
        1    1    3    3  502    0 -0.72759418892E+03  0.60196347744E+03  0.47206397416E+03  0.10557451054E+04  0.50400001928E-02 0. -1.
       -1    1    3    3    0  502  0.72759418892E+03 -0.60196347744E+03 -0.12523153720E+03  0.95259449392E+03  0.50400001928E-02 0.  1.
</event>
<event>
 5   0  0.2421737E-04  0.2017195E+04  0.7818609E-02  0.8598624E-01
        2   -1    0    0  501    0  0.00000000000E+00  0.00000000000E+00  0.15159416820E+04  0.15159416820E+04  0.25500000920E-02 0. -1.
       -2   -1    0    0    0  501  0.00000000000E+00  0.00000000000E+00 -0.67104720777E+03  0.67104720778E+03  0.25500000920E-02 0.  1.
    10030    2    1    2    0    0  0.00000000000E+00  0.00000000000E+00  0.84489447425E+03  0.21869888898E+04  0.20171945200E+04 0.  0.
        1    1    3    3  502    0 -0.85745900584E+03 -0.20769050655E+03  0.95235986883E+03  0.12982143941E+04  0.50400001928E-02 0. -1.
       -1    1    3    3    0  502  0.85745900584E+03  0.20769050655E+03 -0.10746539457E+03  0.88877449573E+03  0.50400001928E-02 0.  1.
</event>
<event>
 5   0  0.2421737E-04  0.1984874E+04  0.7818609E-02  0.8613725E-01
        2   -1    0    0  501    0  0.00000000000E+00  0.00000000000E+00  0.11395908514E+04  0.11395908514E+04  0.25500000920E-02 0. -1.
       -2   -1    0    0    0  501  0.00000000000E+00  0.00000000000E+00 -0.86428471846E+03  0.86428471846E+03  0.25500000920E-02 0.  1.
    10030    2    1    2    0    0  0.00000000000E+00  0.00000000000E+00  0.27530613293E+03  0.20038755699E+04  0.19848737573E+04 0.  0.
        1    1    3    3  502    0  0.41888873462E+03  0.79219427874E+03 -0.29291712149E+03  0.94278310727E+03  0.50400001928E-02 0.  1.
       -1    1    3    3    0  502 -0.41888873462E+03 -0.79219427874E+03  0.56822325442E+03  0.10610924626E+04  0.50400001928E-02 0. -1.
</event>
<event>
 5   0  0.1231056E-04  0.2058399E+04  0.7818609E-02  0.8579794E-01
        1   -1    0    0  501    0  0.00000000000E+00  0.00000000000E+00  0.11983050126E+04  0.11983050126E+04  0.50400001928E-02 0. -1.
       -1   -1    0    0    0  501  0.00000000000E+00  0.00000000000E+00 -0.88395790076E+03  0.88395790078E+03  0.50400001928E-02 0.  1.
    10030    2    1    2    0    0  0.00000000000E+00  0.00000000000E+00  0.31434711180E+03  0.20822629134E+04  0.20583985847E+04 0.  0.
        3    1    3    3  502    0 -0.40138810488E+03  0.46117137380E+02  0.11147269407E+04  0.11856877175E+04  0.10100000352E+00 0. -1.
       -3    1    3    3    0  502  0.40138810488E+03 -0.46117137380E+02 -0.80037982886E+03  0.89657519581E+03  0.10100000352E+00 0.  1.
</event>
<event>
 5   0  0.2540506E-04  0.2187641E+04  0.7818609E-02  0.8523590E-01
       -2   -1    0    0    0  501  0.00000000000E+00  0.00000000000E+00  0.48501203942E+03  0.48501203942E+03  0.25500000920E-02 0. -1.
        2   -1    0    0  501    0  0.00000000000E+00  0.00000000000E+00 -0.24668317766E+04  0.24668317766E+04  0.25500000920E-02 0.  1.
    10030    2    1    2    0    0  0.00000000000E+00  0.00000000000E+00 -0.19818197372E+04  0.29518438160E+04  0.21876408397E+04 0.  0.
        4    1    3    3  502    0 -0.22119852648E+03  0.70982632094E+03  0.91633685122E+02  0.74911984299E+03  0.12699999809E+01 0. -1.
       -4    1    3    3    0  502  0.22119852648E+03 -0.70982632094E+03 -0.20734534223E+04  0.22027239730E+04  0.12699999809E+01 0.  1.
</event>
<event>
 5   0  0.1210633E-04  0.1956127E+04  0.7818609E-02  0.8627412E-01
       -1   -1    0    0    0  501  0.00000000000E+00  0.00000000000E+00  0.65433262228E+03  0.65433262230E+03  0.50400001928E-02 0. -1.
        1   -1    0    0  501    0  0.00000000000E+00  0.00000000000E+00 -0.14619605130E+04  0.14619605130E+04  0.50400001928E-02 0.  1.
    10030    2    1    2    0    0  0.00000000000E+00  0.00000000000E+00 -0.80762789074E+03  0.21162931353E+04  0.19561272517E+04 0.  0.
        2    1    3    3  502    0  0.88478546309E+03  0.38606143242E+03 -0.23371547298E+03  0.99323293723E+03  0.25500000920E-02 0.  1.
       -2    1    3    3    0  502 -0.88478546309E+03 -0.38606143242E+03 -0.57391241776E+03  0.11230601981E+04  0.25500000920E-02 0. -1.
</event>
<event>
 5   0  0.2463085E-04  0.2021080E+04  0.7818609E-02  0.8596828E-01
       -2   -1    0    0    0  501  0.00000000000E+00  0.00000000000E+00  0.13282841499E+04  0.13282841499E+04  0.25500000920E-02 0. -1.
        2   -1    0    0  501    0  0.00000000000E+00  0.00000000000E+00 -0.76880437652E+03  0.76880437652E+03  0.25500000920E-02 0.  1.
    10030    2    1    2    0    0  0.00000000000E+00  0.00000000000E+00  0.55947977336E+03  0.20970885264E+04  0.20210795805E+04 0.  0.
        2    1    3    3  502    0  0.37792531804E+03 -0.87109378207E+03  0.63851641470E+03  0.11442618298E+04  0.25500000920E-02 0. -1.
       -2    1    3    3    0  502 -0.37792531804E+03  0.87109378207E+03 -0.79036641341E+02  0.95282669666E+03  0.25500000920E-02 0.  1.
</event>
<event>
 5   0  0.1207228E-04  0.1996759E+04  0.7818609E-02  0.8608138E-01
        1   -1    0    0  501    0  0.00000000000E+00  0.00000000000E+00  0.94910804957E+03  0.94910804958E+03  0.50400001928E-02 0. -1.
       -1   -1    0    0    0  501  0.00000000000E+00  0.00000000000E+00 -0.10502083138E+04  0.10502083138E+04  0.50400001928E-02 0.  1.
    10030    2    1    2    0    0  0.00000000000E+00  0.00000000000E+00 -0.10110026419E+03  0.19993163634E+04  0.19967585376E+04 0.  0.
        1    1    3    3  502    0  0.61206895961E+03  0.14227804027E+03  0.72625919339E+03  0.96037694061E+03  0.50400001928E-02 0. -1.
       -1    1    3    3    0  502 -0.61206895961E+03 -0.14227804027E+03 -0.82735945758E+03  0.10389394227E+04  0.50400001928E-02 0.  1.
</event>
<event>
 5   0  0.2463085E-04  0.1959262E+04  0.7818609E-02  0.8625908E-01
       -2   -1    0    0    0  501  0.00000000000E+00  0.00000000000E+00  0.72657470508E+03  0.72657470508E+03  0.25500000920E-02 0. -1.
        2   -1    0    0  501    0  0.00000000000E+00  0.00000000000E+00 -0.13208230652E+04  0.13208230652E+04  0.25500000920E-02 0.  1.
    10030    2    1    2    0    0  0.00000000000E+00  0.00000000000E+00 -0.59424836017E+03  0.20473977703E+04  0.19592617274E+04 0.  0.
        2    1    3    3  502    0  0.10892301722E+03  0.23230475424E+03  0.69084032484E+03  0.73694645461E+03  0.25500000920E-02 0. -1.
       -2    1    3    3    0  502 -0.10892301722E+03 -0.23230475424E+03 -0.12850886850E+04  0.13104513157E+04  0.25500000920E-02 0.  1.
</event>
<event>
 5   0  0.2596061E-04  0.1991351E+04  0.7818609E-02  0.8610675E-01
        2   -1    0    0  501    0  0.00000000000E+00  0.00000000000E+00  0.55927505242E+03  0.55927505242E+03  0.25500000920E-02 0.  1.
       -2   -1    0    0    0  501  0.00000000000E+00  0.00000000000E+00 -0.17725977128E+04  0.17725977128E+04  0.25500000920E-02 0. -1.
    10030    2    1    2    0    0  0.00000000000E+00  0.00000000000E+00 -0.12133226604E+04  0.23318727652E+04  0.19913509773E+04 0.  0.
        5    1    3    3  502    0 -0.89871237712E+03  0.28047446658E+03 -0.22721794659E+03  0.96850397441E+03  0.46999998093E+01 0.  1.
       -5    1    3    3    0  502  0.89871237712E+03 -0.28047446658E+03 -0.98610471379E+03  0.13633687908E+04  0.46999998093E+01 0. -1.
</event>
<event>
 5   0  0.2596061E-04  0.1999899E+04  0.7818609E-02  0.8606668E-01
        2   -1    0    0  501    0  0.00000000000E+00  0.00000000000E+00  0.15752807266E+04  0.15752807267E+04  0.25500000920E-02 0. -1.
       -2   -1    0    0    0  501  0.00000000000E+00  0.00000000000E+00 -0.63474337237E+03  0.63474337238E+03  0.25500000920E-02 0.  1.
    10030    2    1    2    0    0  0.00000000000E+00  0.00000000000E+00  0.94053735428E+03  0.22100240990E+04  0.19998989983E+04 0.  0.
        5    1    3    3  502    0 -0.38061318378E+02 -0.20785982035E+03 -0.60977477401E+03  0.64536945534E+03  0.46999998093E+01 0.  1.
       -5    1    3    3    0  502  0.38061318378E+02  0.20785982035E+03  0.15503121283E+04  0.15646546437E+04  0.46999998093E+01 0. -1.
</event>
<event>
 5   0  0.2596061E-04  0.2101532E+04  0.7818609E-02  0.8560569E-01
       -2   -1    0    0    0  501  0.00000000000E+00  0.00000000000E+00  0.39039478964E+03  0.39039478964E+03  0.25500000920E-02 0.  1.
        2   -1    0    0  501    0  0.00000000000E+00  0.00000000000E+00 -0.28281865585E+04  0.28281865585E+04  0.25500000920E-02 0. -1.
    10030    2    1    2    0    0  0.00000000000E+00  0.00000000000E+00 -0.24377917689E+04  0.32185813482E+04  0.21015321045E+04 0.  0.
        5    1    3    3  502    0  0.53865559289E+03 -0.84619868751E+03 -0.73972894645E+03  0.12463639399E+04  0.46999998093E+01 0. -1.
       -5    1    3    3    0  502 -0.53865559289E+03  0.84619868751E+03 -0.16980628224E+04  0.19722174083E+04  0.46999998093E+01 0.  1.
</event>
<event>
 5   0  0.1207228E-04  0.1252696E+04  0.7818609E-02  0.9067942E-01
        1   -1    0    0  501    0  0.00000000000E+00  0.00000000000E+00  0.53136284212E+03  0.53136284215E+03  0.50400001928E-02 0.  1.
       -1   -1    0    0    0  501  0.00000000000E+00  0.00000000000E+00 -0.73831231196E+03  0.73831231197E+03  0.50400001928E-02 0. -1.
    10030    2    1    2    0    0  0.00000000000E+00  0.00000000000E+00 -0.20694946983E+03  0.12696751541E+04  0.12526958585E+04 0.  0.
        1    1    3    3  502    0 -0.22007889627E+03  0.10691157969E+03  0.48092248015E+03  0.53958432001E+03  0.50400001928E-02 0.  1.
       -1    1    3    3    0  502  0.22007889627E+03 -0.10691157969E+03 -0.68787194999E+03  0.73009083412E+03  0.50400001928E-02 0. -1.
</event>
<event>
 5   0  0.1231056E-04  0.1900509E+04  0.7818609E-02  0.8654603E-01
       -1   -1    0    0    0  501  0.00000000000E+00  0.00000000000E+00  0.10133966034E+04  0.10133966034E+04  0.50400001928E-02 0. -1.
        1   -1    0    0  501    0  0.00000000000E+00  0.00000000000E+00 -0.89104628515E+03  0.89104628516E+03  0.50400001928E-02 0.  1.
    10030    2    1    2    0    0  0.00000000000E+00  0.00000000000E+00  0.12235031821E+03  0.19044428885E+04  0.19005086465E+04 0.  0.
        3    1    3    3  502    0 -0.77491301986E+03  0.43752474609E+03 -0.27277915622E+03  0.93076665715E+03  0.10100000352E+00 0. -1.
       -3    1    3    3    0  502  0.77491301986E+03 -0.43752474609E+03  0.39512947442E+03  0.97367623138E+03  0.10100000352E+00 0.  1.
</event>
<event>
 5   0  0.1231056E-04  0.1945649E+04  0.7818609E-02  0.8632462E-01
       -1   -1    0    0    0  501  0.00000000000E+00  0.00000000000E+00  0.45121639051E+03  0.45121639053E+03  0.50400001928E-02 0.  1.
        1   -1    0    0  501    0  0.00000000000E+00  0.00000000000E+00 -0.20974132304E+04  0.20974132304E+04  0.50400001928E-02 0. -1.
    10030    2    1    2    0    0  0.00000000000E+00  0.00000000000E+00 -0.16461968399E+04  0.25486296210E+04  0.19456487116E+04 0.  0.
        3    1    3    3  502    0  0.29068305226E+03  0.90093027049E+03 -0.11166335027E+04  0.14639133781E+04  0.10100000352E+00 0. -1.
       -3    1    3    3    0  502 -0.29068305226E+03 -0.90093027049E+03 -0.52956333726E+03  0.10847162429E+04  0.10100000352E+00 0.  1.
</event>
<event>
 5   0  0.2421737E-04  0.1982989E+04  0.7818609E-02  0.8614615E-01
       -2   -1    0    0    0  501  0.00000000000E+00  0.00000000000E+00  0.88180069268E+03  0.88180069268E+03  0.25500000920E-02 0.  1.
        2   -1    0    0  501    0  0.00000000000E+00  0.00000000000E+00 -0.11148341355E+04  0.11148341355E+04  0.25500000920E-02 0. -1.
    10030    2    1    2    0    0  0.00000000000E+00  0.00000000000E+00 -0.23303344280E+03  0.19966348282E+04  0.19829891708E+04 0.  0.
        1    1    3    3  502    0 -0.21650678921E+03  0.12274981676E+03 -0.10828704449E+04  0.11111035540E+04  0.50400001928E-02 0. -1.
       -1    1    3    3    0  502  0.21650678921E+03 -0.12274981676E+03  0.84983700211E+03  0.88553127414E+03  0.50400001928E-02 0.  1.
</event>
<event>
 5   0  0.1324930E-04  0.1981450E+04  0.7818609E-02  0.8615343E-01
        1   -1    0    0  501    0  0.00000000000E+00  0.00000000000E+00  0.17285170819E+04  0.17285170819E+04  0.50400001928E-02 0. -1.
       -1   -1    0    0    0  501  0.00000000000E+00  0.00000000000E+00 -0.56784883090E+03  0.56784883092E+03  0.50400001928E-02 0.  1.
    10030    2    1    2    0    0  0.00000000000E+00  0.00000000000E+00  0.11606682510E+04  0.22963659129E+04  0.19814503821E+04 0.  0.
        5    1    3    3  502    0 -0.23062786289E+03 -0.68594518298E+02  0.16941272423E+04  0.17111351853E+04  0.46999998093E+01 0. -1.
       -5    1    3    3    0  502  0.23062786289E+03  0.68594518298E+02 -0.53345899131E+03  0.58523072757E+03  0.46999998093E+01 0.  1.
</event>
<event>
 5   0  0.2421737E-04  0.2011799E+04  0.7818609E-02  0.8601124E-01
        2   -1    0    0  501    0  0.00000000000E+00  0.00000000000E+00  0.13783233884E+04  0.13783233884E+04  0.25500000920E-02 0.  1.
       -2   -1    0    0    0  501  0.00000000000E+00  0.00000000000E+00 -0.73410496287E+03  0.73410496288E+03  0.25500000920E-02 0. -1.
    10030    2    1    2    0    0  0.00000000000E+00  0.00000000000E+00  0.64421842555E+03  0.21124283513E+04  0.20117992344E+04 0.  0.
        1    1    3    3  502    0  0.57536285788E+03 -0.73380643390E+03  0.71823208436E+03  0.11770181085E+04  0.50400001928E-02 0.  1.
       -1    1    3    3    0  502 -0.57536285788E+03  0.73380643390E+03 -0.74013658803E+02  0.93541024282E+03  0.50400001928E-02 0. -1.
</event>
<event>
 5   0  0.2488886E-04  0.1935699E+04  0.7818609E-02  0.8637288E-01
       -2   -1    0    0    0  501  0.00000000000E+00  0.00000000000E+00  0.78425053780E+03  0.78425053780E+03  0.25500000920E-02 0. -1.
        2   -1    0    0  501    0  0.00000000000E+00  0.00000000000E+00 -0.11944306853E+04  0.11944306853E+04  0.25500000920E-02 0.  1.
    10030    2    1    2    0    0  0.00000000000E+00  0.00000000000E+00 -0.41018014751E+03  0.19786812231E+04  0.19356992611E+04 0.  0.
        3    1    3    3  502    0 -0.48828440565E+03 -0.83003990431E+03 -0.10627403239E+03  0.96885606966E+03  0.10100000352E+00 0. -1.
       -3    1    3    3    0  502  0.48828440565E+03  0.83003990431E+03 -0.30390611512E+03  0.10098251535E+04  0.10100000352E+00 0.  1.
</event>
<event>
 5   0  0.2463085E-04  0.2008320E+04  0.7818609E-02  0.8602741E-01
        2   -1    0    0  501    0  0.00000000000E+00  0.00000000000E+00  0.87584624907E+03  0.87584624907E+03  0.25500000920E-02 0. -1.
       -2   -1    0    0    0  501  0.00000000000E+00  0.00000000000E+00 -0.11512723462E+04  0.11512723462E+04  0.25500000920E-02 0.  1.
    10030    2    1    2    0    0  0.00000000000E+00  0.00000000000E+00 -0.27542609714E+03  0.20271185953E+04  0.20083202594E+04 0.  0.
        2    1    3    3  502    0  0.12854236741E+03  0.13498480259E+03 -0.11336572962E+04  0.11488789764E+04  0.25500000920E-02 0.  1.
       -2    1    3    3    0  502 -0.12854236741E+03 -0.13498480259E+03  0.85823119906E+03  0.87823961889E+03  0.25500000920E-02 0. -1.
</event>
<event>
 5   0  0.1210633E-04  0.1766490E+04  0.7818609E-02  0.8724326E-01
        1   -1    0    0  501    0  0.00000000000E+00  0.00000000000E+00  0.98336599484E+03  0.98336599486E+03  0.50400001928E-02 0.  1.
       -1   -1    0    0    0  501  0.00000000000E+00  0.00000000000E+00 -0.79331769027E+03  0.79331769029E+03  0.50400001928E-02 0. -1.
    10030    2    1    2    0    0  0.00000000000E+00  0.00000000000E+00  0.19004830457E+03  0.17766836851E+04  0.17664898978E+04 0.  0.
        2    1    3    3  502    0 -0.37260652583E+03 -0.28575723107E+03  0.84742450895E+03  0.96882460568E+03  0.25500000920E-02 0.  1.
       -2    1    3    3    0  502  0.37260652583E+03  0.28575723107E+03 -0.65737620438E+03  0.80785907947E+03  0.25500000920E-02 0. -1.
</event>
<event>
 5   0  0.2596061E-04  0.2005176E+04  0.7818609E-02  0.8604205E-01
        2   -1    0    0  501    0  0.00000000000E+00  0.00000000000E+00  0.17302279777E+04  0.17302279777E+04  0.25500000920E-02 0.  1.
       -2   -1    0    0    0  501  0.00000000000E+00  0.00000000000E+00 -0.58095371246E+03  0.58095371247E+03  0.25500000920E-02 0. -1.
    10030    2    1    2    0    0  0.00000000000E+00  0.00000000000E+00  0.11492742653E+04  0.23111816902E+04  0.20051756702E+04 0.  0.
        5    1    3    3  502    0  0.82681587663E+02  0.62352706472E+03 -0.32523761742E+03  0.70811287459E+03  0.46999998093E+01 0. -1.
       -5    1    3    3    0  502 -0.82681587663E+02 -0.62352706472E+03  0.14745118827E+04  0.16030688156E+04  0.46999998093E+01 0.  1.
</event>
<event>
 5   0  0.9099125E-05  0.1993344E+04  0.7818609E-02  0.8609739E-01
       -3   -1    0    0    0  501  0.00000000000E+00  0.00000000000E+00  0.10285647301E+04  0.10285647350E+04  0.10100000352E+00 0.  1.
        3   -1    0    0  501    0  0.00000000000E+00  0.00000000000E+00 -0.96576774303E+03  0.96576774831E+03  0.10100000352E+00 0. -1.
    10030    2    1    2    0    0  0.00000000000E+00  0.00000000000E+00  0.62796987034E+02  0.19943324833E+04  0.19933435711E+04 0.  0.
        3    1    3    3  502    0 -0.11136508266E+02 -0.43549635416E+03  0.92826585090E+03  0.10254065518E+04  0.10100000352E+00 0.  1.
       -3    1    3    3    0  502  0.11136508266E+02  0.43549635416E+03 -0.86546886387E+03  0.96892593155E+03  0.10100000352E+00 0. -1.
</event>
<event>
 5   0  0.2596061E-04  0.2009913E+04  0.7818609E-02  0.8602000E-01
       -2   -1    0    0    0  501  0.00000000000E+00  0.00000000000E+00  0.77486408430E+03  0.77486408431E+03  0.25500000920E-02 0.  1.
        2   -1    0    0  501    0  0.00000000000E+00  0.00000000000E+00 -0.13033744725E+04  0.13033744725E+04  0.25500000920E-02 0. -1.
    10030    2    1    2    0    0  0.00000000000E+00  0.00000000000E+00 -0.52851038820E+03  0.20782385568E+04  0.20099134978E+04 0.  0.
        5    1    3    3  502    0 -0.77911840090E+03 -0.21872501717E+03  0.35186111466E+03  0.88243665482E+03  0.46999998093E+01 0.  1.
       -5    1    3    3    0  502  0.77911840090E+03  0.21872501717E+03 -0.88037150286E+03  0.11958019020E+04  0.46999998093E+01 0. -1.
</event>
<event>
 5   0  0.2421737E-04  0.2019521E+04  0.7818609E-02  0.8597548E-01
        2   -1    0    0  501    0  0.00000000000E+00  0.00000000000E+00  0.24454184375E+04  0.24454184375E+04  0.25500000920E-02 0.  1.
       -2   -1    0    0    0  501  0.00000000000E+00  0.00000000000E+00 -0.41694946953E+03  0.41694946954E+03  0.25500000920E-02 0. -1.
    10030    2    1    2    0    0  0.00000000000E+00  0.00000000000E+00  0.20284689679E+04  0.28623679070E+04  0.20195206563E+04 0.  0.
        1    1    3    3  502    0  0.49497933190E+03  0.63378934142E+02 -0.22996525106E+03  0.54945922963E+03  0.50400001928E-02 0. -1.
       -1    1    3    3    0  502 -0.49497933190E+03 -0.63378934142E+02  0.22584342190E+04  0.23129086774E+04  0.50400001928E-02 0.  1.
</event>
<event>
 5   0  0.2540506E-04  0.1995983E+04  0.7818609E-02  0.8608501E-01
        2   -1    0    0  501    0  0.00000000000E+00  0.00000000000E+00  0.17930860034E+04  0.17930860034E+04  0.25500000920E-02 0. -1.
       -2   -1    0    0    0  501  0.00000000000E+00  0.00000000000E+00 -0.55545948123E+03  0.55545948124E+03  0.25500000920E-02 0.  1.
    10030    2    1    2    0    0  0.00000000000E+00  0.00000000000E+00  0.12376265222E+04  0.23485454846E+04  0.19959825864E+04 0.  0.
        4    1    3    3  502    0 -0.74196964427E+03 -0.60004254603E+03  0.96269514391E+03  0.13554901560E+04  0.12699999809E+01 0. -1.
       -4    1    3    3    0  502  0.74196964427E+03  0.60004254603E+03  0.27493137826E+03  0.99305532863E+03  0.12699999809E+01 0.  1.
</event>
<event>
 5   0  0.1210633E-04  0.1949233E+04  0.7818609E-02  0.8630731E-01
        1   -1    0    0  501    0  0.00000000000E+00  0.00000000000E+00  0.16391200273E+04  0.16391200273E+04  0.50400001928E-02 0.  1.
       -1   -1    0    0    0  501  0.00000000000E+00  0.00000000000E+00 -0.57950462522E+03  0.57950462524E+03  0.50400001928E-02 0. -1.
    10030    2    1    2    0    0  0.00000000000E+00  0.00000000000E+00  0.10596154021E+04  0.22186246526E+04  0.19492333233E+04 0.  0.
        2    1    3    3  502    0 -0.47041344123E+03  0.44144780313E+03  0.13613297372E+04  0.15064473512E+04  0.25500000920E-02 0.  1.
       -2    1    3    3    0  502  0.47041344123E+03 -0.44144780313E+03 -0.30171433510E+03  0.71217730137E+03  0.25500000920E-02 0. -1.
</event>
<event>
 5   0  0.1210633E-04  0.1999191E+04  0.7818609E-02  0.8606999E-01
        1   -1    0    0  501    0  0.00000000000E+00  0.00000000000E+00  0.83225694513E+03  0.83225694515E+03  0.50400001928E-02 0. -1.
       -1   -1    0    0    0  501  0.00000000000E+00  0.00000000000E+00 -0.12005807197E+04  0.12005807197E+04  0.50400001928E-02 0.  1.
    10030    2    1    2    0    0  0.00000000000E+00  0.00000000000E+00 -0.36832377453E+03  0.20328376648E+04  0.19991914787E+04 0.  0.
        2    1    3    3  502    0 -0.48081646618E+03 -0.11703276725E+03  0.69896556105E+03  0.85640761224E+03  0.25500000920E-02 0. -1.
       -2    1    3    3    0  502  0.48081646618E+03  0.11703276725E+03 -0.10672893356E+04  0.11764300526E+04  0.25500000920E-02 0.  1.
</event>
<event>
 5   0  0.2596061E-04  0.1989248E+04  0.7818609E-02  0.8611664E-01
        2   -1    0    0  501    0  0.00000000000E+00  0.00000000000E+00  0.74448582646E+03  0.74448582646E+03  0.25500000920E-02 0. -1.
       -2   -1    0    0    0  501  0.00000000000E+00  0.00000000000E+00 -0.13288055924E+04  0.13288055924E+04  0.25500000920E-02 0.  1.
    10030    2    1    2    0    0  0.00000000000E+00  0.00000000000E+00 -0.58431976591E+03  0.20732914188E+04  0.19892480284E+04 0.  0.
        5    1    3    3  502    0  0.87225681134E+03  0.46852113890E+03 -0.19377448051E+03  0.10089175595E+04  0.46999998093E+01 0.  1.
       -5    1    3    3    0  502 -0.87225681134E+03 -0.46852113890E+03 -0.39054528540E+03  0.10643738594E+04  0.46999998093E+01 0. -1.
</event>
<event>
 5   0  0.2488886E-04  0.1977394E+04  0.7818609E-02  0.8617263E-01
        2   -1    0    0  501    0  0.00000000000E+00  0.00000000000E+00  0.19903853393E+04  0.19903853393E+04  0.25500000920E-02 0.  1.
       -2   -1    0    0    0  501  0.00000000000E+00  0.00000000000E+00 -0.49112194894E+03  0.49112194895E+03  0.25500000920E-02 0. -1.
    10030    2    1    2    0    0  0.00000000000E+00  0.00000000000E+00  0.14992633904E+04  0.24815072883E+04  0.19773941711E+04 0.  0.
        3    1    3    3  502    0 -0.97359198531E+03 -0.63553162963E+02  0.54883548731E+03  0.11194376985E+04  0.10100000352E+00 0. -1.
       -3    1    3    3    0  502  0.97359198531E+03  0.63553162963E+02  0.95042790310E+03  0.13620695898E+04  0.10100000352E+00 0.  1.
</event>
<event>
 5   0  0.1210633E-04  0.1943835E+04  0.7818609E-02  0.8633339E-01
       -1   -1    0    0    0  501  0.00000000000E+00  0.00000000000E+00  0.12543759748E+04  0.12543759748E+04  0.50400001928E-02 0.  1.
        1   -1    0    0  501    0  0.00000000000E+00  0.00000000000E+00 -0.75306247366E+03  0.75306247367E+03  0.50400001928E-02 0. -1.
    10030    2    1    2    0    0  0.00000000000E+00  0.00000000000E+00  0.50131350114E+03  0.20074384485E+04  0.19438348433E+04 0.  0.
        2    1    3    3  502    0 -0.68371701813E+03  0.57734801285E+03  0.64230684291E+03  0.11015252014E+04  0.25500000920E-02 0.  1.
       -2    1    3    3    0  502  0.68371701813E+03 -0.57734801285E+03 -0.14099334178E+03  0.90591324709E+03  0.25500000920E-02 0. -1.
</event>
<event>
 5   0  0.2463085E-04  0.1950632E+04  0.7818609E-02  0.8630056E-01
       -2   -1    0    0    0  501  0.00000000000E+00  0.00000000000E+00  0.96445786298E+03  0.96445786298E+03  0.25500000920E-02 0. -1.
        2   -1    0    0  501    0  0.00000000000E+00  0.00000000000E+00 -0.98629679403E+03  0.98629679403E+03  0.25500000920E-02 0.  1.
    10030    2    1    2    0    0  0.00000000000E+00  0.00000000000E+00 -0.21838931046E+02  0.19507546570E+04  0.19506324085E+04 0.  0.
        2    1    3    3  502    0 -0.23003377447E+02  0.16330229924E+03  0.95041332161E+03  0.96461509330E+03  0.25500000920E-02 0. -1.
       -2    1    3    3    0  502  0.23003377447E+02 -0.16330229924E+03 -0.97225225266E+03  0.98613956371E+03  0.25500000920E-02 0.  1.
</event>
<event>
 5   0  0.1210633E-04  0.1973605E+04  0.7818609E-02  0.8619062E-01
        1   -1    0    0  501    0  0.00000000000E+00  0.00000000000E+00  0.10880769577E+04  0.10880769577E+04  0.50400001928E-02 0.  1.
       -1   -1    0    0    0  501  0.00000000000E+00  0.00000000000E+00 -0.89495425564E+03  0.89495425565E+03  0.50400001928E-02 0. -1.
    10030    2    1    2    0    0  0.00000000000E+00  0.00000000000E+00  0.19312270203E+03  0.19830312133E+04  0.19736049288E+04 0.  0.
        2    1    3    3  502    0 -0.65567836725E+02 -0.96869085114E+03 -0.80684121095E+02  0.97425409093E+03  0.25500000920E-02 0.  1.
       -2    1    3    3    0  502  0.65567836725E+02  0.96869085114E+03  0.27380682312E+03  0.10087771224E+04  0.25500000920E-02 0. -1.
</event>
<event>
 5   0  0.1231056E-04  0.1922253E+04  0.7818609E-02  0.8643858E-01
       -1   -1    0    0    0  501  0.00000000000E+00  0.00000000000E+00  0.91234632171E+03  0.91234632172E+03  0.50400001928E-02 0. -1.
        1   -1    0    0  501    0  0.00000000000E+00  0.00000000000E+00 -0.10125144404E+04  0.10125144404E+04  0.50400001928E-02 0.  1.
    10030    2    1    2    0    0  0.00000000000E+00  0.00000000000E+00 -0.10016811865E+03  0.19248607621E+04  0.19222526633E+04 0.  0.
        3    1    3    3  502    0  0.49728673725E+03  0.82226088301E+03 -0.68997682166E+02  0.96341462991E+03  0.10100000352E+00 0.  1.
       -3    1    3    3    0  502 -0.49728673725E+03 -0.82226088301E+03 -0.31170436485E+02  0.96144613218E+03  0.10100000352E+00 0. -1.
</event>
<event>
 5   0  0.2421737E-04  0.2044874E+04  0.7818609E-02  0.8585923E-01
       -2   -1    0    0    0  501  0.00000000000E+00  0.00000000000E+00  0.83727376653E+03  0.83727376653E+03  0.25500000920E-02 0.  1.
        2   -1    0    0  501    0  0.00000000000E+00  0.00000000000E+00 -0.12485487554E+04  0.12485487554E+04  0.25500000920E-02 0. -1.
    10030    2    1    2    0    0  0.00000000000E+00  0.00000000000E+00 -0.41127498890E+03  0.20858225220E+04  0.20448737068E+04 0.  0.
        1    1    3    3  502    0  0.20433014276E+02 -0.41166554016E+03  0.74877634470E+03  0.85472337013E+03  0.50400001928E-02 0.  1.
       -1    1    3    3    0  502 -0.20433014276E+02  0.41166554016E+03 -0.11600513336E+04  0.12310991518E+04  0.50400001928E-02 0. -1.
</event>
<event>
 5   0  0.1210633E-04  0.1939268E+04  0.7818609E-02  0.8635553E-01
       -1   -1    0    0    0  501  0.00000000000E+00  0.00000000000E+00  0.11784714363E+04  0.11784714363E+04  0.50400001928E-02 0.  1.
        1   -1    0    0  501    0  0.00000000000E+00  0.00000000000E+00 -0.79780463143E+03  0.79780463144E+03  0.50400001928E-02 0. -1.
    10030    2    1    2    0    0  0.00000000000E+00  0.00000000000E+00  0.38066680489E+03  0.19762760678E+04  0.19392678721E+04 0.  0.
        2    1    3    3  502    0  0.57856335898E+03 -0.64957765034E+03  0.62688112956E+03  0.10722250859E+04  0.25500000920E-02 0.  1.
       -2    1    3    3    0  502 -0.57856335898E+03  0.64957765034E+03 -0.24621432467E+03  0.90405098189E+03  0.25500000920E-02 0. -1.
</event>
<event>
 5   0  0.2421737E-04  0.2046337E+04  0.7818609E-02  0.8585258E-01
        2   -1    0    0  501    0  0.00000000000E+00  0.00000000000E+00  0.11743197128E+04  0.11743197128E+04  0.25500000920E-02 0.  1.
       -2   -1    0    0    0  501  0.00000000000E+00  0.00000000000E+00 -0.89147222065E+03  0.89147222065E+03  0.25500000920E-02 0. -1.
    10030    2    1    2    0    0  0.00000000000E+00  0.00000000000E+00  0.28284749213E+03  0.20657919334E+04  0.20463366313E+04 0.  0.
        1    1    3    3  502    0  0.17668051341E+03 -0.99201699467E+03  0.32076318138E+03  0.10574510580E+04  0.50400001928E-02 0.  1.
       -1    1    3    3    0  502 -0.17668051341E+03  0.99201699467E+03 -0.37915689252E+02  0.10083408754E+04  0.50400001928E-02 0. -1.
</event>
<event>
 5   0  0.2488886E-04  0.1977814E+04  0.7818609E-02  0.8617064E-01
        2   -1    0    0  501    0  0.00000000000E+00  0.00000000000E+00  0.13296358905E+04  0.13296358905E+04  0.25500000920E-02 0. -1.
       -2   -1    0    0    0  501  0.00000000000E+00  0.00000000000E+00 -0.73549265135E+03  0.73549265136E+03  0.25500000920E-02 0.  1.
    10030    2    1    2    0    0  0.00000000000E+00  0.00000000000E+00  0.59414323913E+03  0.20651285418E+04  0.19778143760E+04 0.  0.
        3    1    3    3  502    0 -0.68564380889E+03  0.40358625456E+03  0.91032288088E+03  0.12089983686E+04  0.10100000352E+00 0. -1.
       -3    1    3    3    0  502  0.68564380889E+03 -0.40358625456E+03 -0.31617964175E+03  0.85613017328E+03  0.10100000352E+00 0.  1.
</event>
<event>
 5   0  0.1207228E-04  0.1979987E+04  0.7818609E-02  0.8616035E-01
        1   -1    0    0  501    0  0.00000000000E+00  0.00000000000E+00  0.73985276577E+03  0.73985276579E+03  0.50400001928E-02 0.  1.
       -1   -1    0    0    0  501  0.00000000000E+00  0.00000000000E+00 -0.13247056131E+04  0.13247056131E+04  0.50400001928E-02 0. -1.
    10030    2    1    2    0    0  0.00000000000E+00  0.00000000000E+00 -0.58485284730E+03  0.20645583789E+04  0.19799869815E+04 0.  0.
        1    1    3    3  502    0 -0.14926297913E+03  0.25190765788E+03 -0.12785211561E+04  0.13116223739E+04  0.50400001928E-02 0. -1.
       -1    1    3    3    0  502  0.14926297913E+03 -0.25190765788E+03  0.69366830877E+03  0.75293600502E+03  0.50400001928E-02 0.  1.
</event>
<event>
 5   0  0.1207228E-04  0.2107243E+04  0.7818609E-02  0.8558059E-01
       -1   -1    0    0    0  501  0.00000000000E+00  0.00000000000E+00  0.10291946627E+04  0.10291946627E+04  0.50400001928E-02 0. -1.
        1   -1    0    0  501    0  0.00000000000E+00  0.00000000000E+00 -0.10786280414E+04  0.10786280414E+04  0.50400001928E-02 0.  1.
    10030    2    1    2    0    0  0.00000000000E+00  0.00000000000E+00 -0.49433378672E+02  0.21078227041E+04  0.21072429601E+04 0.  0.
        1    1    3    3  502    0 -0.99563559383E+02 -0.17918496453E+02 -0.10737588864E+04  0.10785138483E+04  0.50400001928E-02 0.  1.
       -1    1    3    3    0  502  0.99563559383E+02  0.17918496453E+02  0.10243255077E+04  0.10293088558E+04  0.50400001928E-02 0. -1.
</event>
<event>
 5   0  0.2421737E-04  0.1861234E+04  0.7818609E-02  0.8674397E-01
        2   -1    0    0  501    0  0.00000000000E+00  0.00000000000E+00  0.19759640789E+04  0.19759640789E+04  0.25500000920E-02 0. -1.
       -2   -1    0    0    0  501  0.00000000000E+00  0.00000000000E+00 -0.43829130945E+03  0.43829130945E+03  0.25500000920E-02 0.  1.
    10030    2    1    2    0    0  0.00000000000E+00  0.00000000000E+00  0.15376727695E+04  0.24142553884E+04  0.18612338742E+04 0.  0.
        1    1    3    3  502    0 -0.43153976978E+03 -0.71505335009E+03  0.13013221577E+04  0.15462752745E+04  0.50400001928E-02 0. -1.
       -1    1    3    3    0  502  0.43153976978E+03  0.71505335009E+03  0.23635061176E+03  0.86798011387E+03  0.50400001928E-02 0.  1.
</event>
<event>
 5   0  0.1210633E-04  0.1969298E+04  0.7818609E-02  0.8621111E-01
       -1   -1    0    0    0  501  0.00000000000E+00  0.00000000000E+00  0.10608957793E+04  0.10608957793E+04  0.50400001928E-02 0. -1.
        1   -1    0    0  501    0  0.00000000000E+00  0.00000000000E+00 -0.91388162918E+03  0.91388162920E+03  0.50400001928E-02 0.  1.
    10030    2    1    2    0    0  0.00000000000E+00  0.00000000000E+00  0.14701415011E+03  0.19747774085E+04  0.19692975024E+04 0.  0.
        2    1    3    3  502    0  0.69494294633E+03  0.28042507255E+03 -0.56697928604E+03  0.93970709840E+03  0.25500000920E-02 0.  1.
       -2    1    3    3    0  502 -0.69494294633E+03 -0.28042507255E+03  0.71399343615E+03  0.10350703101E+04  0.25500000920E-02 0. -1.
</event>
<event>
 5   0  0.1207228E-04  0.1978409E+04  0.7818609E-02  0.8616782E-01
       -1   -1    0    0    0  501  0.00000000000E+00  0.00000000000E+00  0.10591162871E+04  0.10591162871E+04  0.50400001928E-02 0.  1.
        1   -1    0    0  501    0  0.00000000000E+00  0.00000000000E+00 -0.92390726491E+03  0.92390726492E+03  0.50400001928E-02 0. -1.
    10030    2    1    2    0    0  0.00000000000E+00  0.00000000000E+00  0.13520902215E+03  0.19830235520E+04  0.19784086858E+04 0.  0.
        1    1    3    3  502    0 -0.55153923511E+03  0.98788085145E+02  0.88471809524E+03  0.10472252488E+04  0.50400001928E-02 0.  1.
       -1    1    3    3    0  502  0.55153923511E+03 -0.98788085145E+02 -0.74950907309E+03  0.93579830321E+03  0.50400001928E-02 0. -1.
</event>
<event>
 5   0  0.2488886E-04  0.1932278E+04  0.7818609E-02  0.8638954E-01
        2   -1    0    0  501    0  0.00000000000E+00  0.00000000000E+00  0.17565122656E+04  0.17565122656E+04  0.25500000920E-02 0.  1.
       -2   -1    0    0    0  501  0.00000000000E+00  0.00000000000E+00 -0.53140820310E+03  0.53140820311E+03  0.25500000920E-02 0. -1.
    10030    2    1    2    0    0  0.00000000000E+00  0.00000000000E+00  0.12251040625E+04  0.22879204687E+04  0.19322784756E+04 0.  0.
        3    1    3    3  502    0 -0.63011261673E+03 -0.38841220244E+03 -0.12262873945E+03  0.75029578615E+03  0.10100000352E+00 0. -1.
       -3    1    3    3    0  502  0.63011261673E+03  0.38841220244E+03  0.13477328019E+04  0.15376246825E+04  0.10100000352E+00 0.  1.
</event>
<event>
 5   0  0.1258546E-04  0.1933031E+04  0.7818609E-02  0.8638587E-01
        1   -1    0    0  501    0  0.00000000000E+00  0.00000000000E+00  0.12072096296E+04  0.12072096296E+04  0.50400001928E-02 0.  1.
       -1   -1    0    0    0  501  0.00000000000E+00  0.00000000000E+00 -0.77381121105E+03  0.77381121106E+03  0.50400001928E-02 0. -1.
    10030    2    1    2    0    0  0.00000000000E+00  0.00000000000E+00  0.43339841857E+03  0.19810208407E+04  0.19330311384E+04 0.  0.
        4    1    3    3  502    0 -0.61778151992E+03 -0.26369095629E+03 -0.49550983927E+03  0.83469667574E+03  0.12699999809E+01 0. -1.
       -4    1    3    3    0  502  0.61778151992E+03  0.26369095629E+03  0.92890825783E+03  0.11463241650E+04  0.12699999809E+01 0.  1.
</event>
<event>
 5   0  0.1258546E-04  0.1983328E+04  0.7818609E-02  0.8614455E-01
       -1   -1    0    0    0  501  0.00000000000E+00  0.00000000000E+00  0.63718772327E+03  0.63718772329E+03  0.50400001928E-02 0.  1.
        1   -1    0    0  501    0  0.00000000000E+00  0.00000000000E+00 -0.15433407611E+04  0.15433407611E+04  0.50400001928E-02 0. -1.
    10030    2    1    2    0    0  0.00000000000E+00  0.00000000000E+00 -0.90615303782E+03  0.21805284844E+04  0.19833282994E+04 0.  0.
        4    1    3    3  502    0  0.30162890575E+03  0.10909468379E+03  0.57858069195E+03  0.66154280044E+03  0.12699999809E+01 0.  1.
       -4    1    3    3    0  502 -0.30162890575E+03 -0.10909468379E+03 -0.14847337298E+04  0.15189856839E+04  0.12699999809E+01 0. -1.
</event>
<event>
 5   0  0.1258546E-04  0.1938693E+04  0.7818609E-02  0.8635832E-01
       -1   -1    0    0    0  501  0.00000000000E+00  0.00000000000E+00  0.75187518602E+03  0.75187518603E+03  0.50400001928E-02 0.  1.
        1   -1    0    0  501    0  0.00000000000E+00  0.00000000000E+00 -0.12497192187E+04  0.12497192188E+04  0.50400001928E-02 0. -1.
    10030    2    1    2    0    0  0.00000000000E+00  0.00000000000E+00 -0.49784403272E+03  0.20015944048E+04  0.19386932404E+04 0.  0.
        4    1    3    3  502    0  0.52282415403E+03 -0.18643272003E+03 -0.10693937661E+04  0.12048679990E+04  0.12699999809E+01 0. -1.
       -4    1    3    3    0  502 -0.52282415403E+03  0.18643272003E+03  0.57154973335E+03  0.79672640581E+03  0.12699999809E+01 0.  1.
</event>
<event>
 5   0  0.2463085E-04  0.1914693E+04  0.7818609E-02  0.8647577E-01
        2   -1    0    0  501    0  0.00000000000E+00  0.00000000000E+00  0.17364192982E+04  0.17364192982E+04  0.25500000920E-02 0.  1.
       -2   -1    0    0    0  501  0.00000000000E+00  0.00000000000E+00 -0.52781730522E+03  0.52781730522E+03  0.25500000920E-02 0. -1.
    10030    2    1    2    0    0  0.00000000000E+00  0.00000000000E+00  0.12086019930E+04  0.22642366034E+04  0.19146928262E+04 0.  0.
        2    1    3    3  502    0  0.34098827824E+02 -0.16355119590E+03 -0.51044509042E+03  0.53709022900E+03  0.25500000920E-02 0. -1.
       -2    1    3    3    0  502 -0.34098827824E+02  0.16355119590E+03  0.17190470834E+04  0.17271463744E+04  0.25500000920E-02 0.  1.
</event>
<event>
 5   0  0.2540506E-04  0.2124163E+04  0.7818609E-02  0.8550673E-01
       -2   -1    0    0    0  501  0.00000000000E+00  0.00000000000E+00  0.92857869802E+03  0.92857869802E+03  0.25500000920E-02 0.  1.
        2   -1    0    0  501    0  0.00000000000E+00  0.00000000000E+00 -0.12147786217E+04  0.12147786217E+04  0.25500000920E-02 0. -1.
    10030    2    1    2    0    0  0.00000000000E+00  0.00000000000E+00 -0.28619992370E+03  0.21433573197E+04  0.21241634127E+04 0.  0.
        4    1    3    3  502    0 -0.28036696988E+03  0.79078595589E+03  0.51398925441E+03  0.98393832753E+03  0.12699999809E+01 0.  1.
       -4    1    3    3    0  502  0.28036696988E+03 -0.79078595589E+03 -0.80018917811E+03  0.11594189922E+04  0.12699999809E+01 0. -1.
</event>
<event>
 5   0  0.2488886E-04  0.2041748E+04  0.7818609E-02  0.8587347E-01
        2   -1    0    0  501    0  0.00000000000E+00  0.00000000000E+00  0.20525232992E+04  0.20525232992E+04  0.25500000920E-02 0. -1.
       -2   -1    0    0    0  501  0.00000000000E+00  0.00000000000E+00 -0.50775711147E+03  0.50775711148E+03  0.25500000920E-02 0.  1.
    10030    2    1    2    0    0  0.00000000000E+00  0.00000000000E+00  0.15447661878E+04  0.25602804107E+04  0.20417475864E+04 0.  0.
        3    1    3    3  502    0  0.44958337488E+02 -0.43927603253E+03  0.19265751978E+04  0.19765314791E+04  0.10100000352E+00 0. -1.
       -3    1    3    3    0  502 -0.44958337488E+02  0.43927603253E+03 -0.38180901001E+03  0.58374893164E+03  0.10100000352E+00 0.  1.
</event>
<event>
 5   0  0.1231056E-04  0.1981005E+04  0.7818609E-02  0.8615553E-01
        1   -1    0    0  501    0  0.00000000000E+00  0.00000000000E+00  0.96953513674E+03  0.96953513675E+03  0.50400001928E-02 0. -1.
       -1   -1    0    0    0  501  0.00000000000E+00  0.00000000000E+00 -0.10119237901E+04  0.10119237901E+04  0.50400001928E-02 0.  1.
    10030    2    1    2    0    0  0.00000000000E+00  0.00000000000E+00 -0.42388653373E+02  0.19814589269E+04  0.19810054722E+04 0.  0.
        3    1    3    3  502    0  0.65034699473E+03 -0.37735386298E+03 -0.66612754888E+03  0.10045262929E+04  0.10100000352E+00 0.  1.
       -3    1    3    3    0  502 -0.65034699473E+03  0.37735386298E+03  0.62373889551E+03  0.97693263402E+03  0.10100000352E+00 0. -1.
</event>
<event>
 5   0  0.2488886E-04  0.2248424E+04  0.7818609E-02  0.8498539E-01
       -2   -1    0    0    0  501  0.00000000000E+00  0.00000000000E+00  0.11756165058E+04  0.11756165058E+04  0.25500000920E-02 0. -1.
        2   -1    0    0  501    0  0.00000000000E+00  0.00000000000E+00 -0.10750553240E+04  0.10750553240E+04  0.25500000920E-02 0.  1.
    10030    2    1    2    0    0  0.00000000000E+00  0.00000000000E+00  0.10056118175E+03  0.22506718298E+04  0.22484241446E+04 0.  0.
        3    1    3    3  502    0  0.52433891229E+02 -0.27454743635E+03 -0.10397189621E+04  0.10766341709E+04  0.10100000352E+00 0.  1.
       -3    1    3    3    0  502 -0.52433891229E+02  0.27454743635E+03  0.11402801438E+04  0.11740376588E+04  0.10100000352E+00 0. -1.
</event>
<event>
 5   0  0.2463085E-04  0.1997821E+04  0.7818609E-02  0.8607640E-01
       -2   -1    0    0    0  501  0.00000000000E+00  0.00000000000E+00  0.49266439903E+03  0.49266439904E+03  0.25500000920E-02 0. -1.
        2   -1    0    0  501    0  0.00000000000E+00  0.00000000000E+00 -0.20253586216E+04  0.20253586216E+04  0.25500000920E-02 0.  1.
    10030    2    1    2    0    0  0.00000000000E+00  0.00000000000E+00 -0.15326942225E+04  0.25180230206E+04  0.19978209010E+04 0.  0.
        2    1    3    3  502    0  0.51750841391E+03 -0.66199280361E+03 -0.85537874267E+02  0.84461006295E+03  0.25500000920E-02 0. -1.
       -2    1    3    3    0  502 -0.51750841391E+03  0.66199280361E+03 -0.14471563483E+04  0.16734129576E+04  0.25500000920E-02 0.  1.
</event>
<event>
 5   0  0.1231056E-04  0.2030040E+04  0.7818609E-02  0.8592703E-01
        1   -1    0    0  501    0  0.00000000000E+00  0.00000000000E+00  0.11684435555E+04  0.11684435555E+04  0.50400001928E-02 0.  1.
       -1   -1    0    0    0  501  0.00000000000E+00  0.00000000000E+00 -0.88174228973E+03  0.88174228974E+03  0.50400001928E-02 0. -1.
    10030    2    1    2    0    0  0.00000000000E+00  0.00000000000E+00  0.28670126581E+03  0.20501858453E+04  0.20300404884E+04 0.  0.
        3    1    3    3  502    0 -0.17627216958E+03 -0.84202763788E+03 -0.40068207630E+03  0.94901451896E+03  0.10100000352E+00 0. -1.
       -3    1    3    3    0  502  0.17627216958E+03  0.84202763788E+03  0.68738334211E+03  0.11011713263E+04  0.10100000352E+00 0.  1.
</event>
<event>
 5   0  0.2596061E-04  0.2044346E+04  0.7818609E-02  0.8586164E-01
       -2   -1    0    0    0  501  0.00000000000E+00  0.00000000000E+00  0.17706660314E+04  0.17706660314E+04  0.25500000920E-02 0. -1.
        2   -1    0    0  501    0  0.00000000000E+00  0.00000000000E+00 -0.59008183804E+03  0.59008183805E+03  0.25500000920E-02 0.  1.
    10030    2    1    2    0    0  0.00000000000E+00  0.00000000000E+00  0.11805841934E+04  0.23607478694E+04  0.20443462196E+04 0.  0.
        5    1    3    3  502    0  0.76893717928E+03  0.63971494232E+03  0.83338726877E+03  0.13019431719E+04  0.46999998093E+01 0.  1.
       -5    1    3    3    0  502 -0.76893717928E+03 -0.63971494232E+03  0.34719692458E+03  0.10588046975E+04  0.46999998093E+01 0. -1.
</event>
<event>
 5   0  0.9099125E-05  0.1812248E+04  0.7818609E-02  0.8699813E-01
       -3   -1    0    0    0  501  0.00000000000E+00  0.00000000000E+00  0.11032926724E+04  0.11032926771E+04  0.10100000352E+00 0. -1.
        3   -1    0    0  501    0  0.00000000000E+00  0.00000000000E+00 -0.74419157637E+03  0.74419158322E+03  0.10100000352E+00 0.  1.
    10030    2    1    2    0    0  0.00000000000E+00  0.00000000000E+00  0.35910109606E+03  0.18474842603E+04  0.18122484639E+04 0.  0.
        4    1    3    3  502    0 -0.24998109720E+03  0.68552953377E+03 -0.36812692615E+03  0.81728840520E+03  0.12699999809E+01 0.  1.
       -4    1    3    3    0  502  0.24998109720E+03 -0.68552953377E+03  0.72722802221E+03  0.10301958551E+04  0.12699999809E+01 0. -1.
</event>
<event>
 5   0  0.2596061E-04  0.1717094E+04  0.7818609E-02  0.8751675E-01
       -2   -1    0    0    0  501  0.00000000000E+00  0.00000000000E+00  0.10638263432E+04  0.10638263432E+04  0.25500000920E-02 0.  1.
        2   -1    0    0  501    0  0.00000000000E+00  0.00000000000E+00 -0.69287900820E+03  0.69287900821E+03  0.25500000920E-02 0. -1.
    10030    2    1    2    0    0  0.00000000000E+00  0.00000000000E+00  0.37094733503E+03  0.17567053514E+04  0.17170939888E+04 0.  0.
        5    1    3    3  502    0 -0.14553021709E+03 -0.65206667615E+03  0.73708792453E+03  0.99483199221E+03  0.46999998093E+01 0.  1.
       -5    1    3    3    0  502  0.14553021709E+03  0.65206667615E+03 -0.36614058951E+03  0.76187335923E+03  0.46999998093E+01 0. -1.
</event>
<event>
 5   0  0.2421737E-04  0.1841160E+04  0.7818609E-02  0.8684712E-01
        2   -1    0    0  501    0  0.00000000000E+00  0.00000000000E+00  0.98401041619E+03  0.98401041620E+03  0.25500000920E-02 0. -1.
       -2   -1    0    0    0  501  0.00000000000E+00  0.00000000000E+00 -0.86123834805E+03  0.86123834806E+03  0.25500000920E-02 0.  1.
    10030    2    1    2    0    0  0.00000000000E+00  0.00000000000E+00  0.12277206814E+03  0.18452487643E+04  0.18411599662E+04 0.  0.
        1    1    3    3  502    0 -0.71959933053E+03  0.50054173514E+03  0.34326190514E+03  0.94137875515E+03  0.50400001928E-02 0. -1.
       -1    1    3    3    0  502  0.71959933053E+03 -0.50054173514E+03 -0.22048983700E+03  0.90387000910E+03  0.50400001928E-02 0.  1.
</event>
<event>
 5   0  0.2540506E-04  0.1931942E+04  0.7818609E-02  0.8639118E-01
       -2   -1    0    0    0  501  0.00000000000E+00  0.00000000000E+00  0.71441308264E+03  0.71441308265E+03  0.25500000920E-02 0.  1.
        2   -1    0    0  501    0  0.00000000000E+00  0.00000000000E+00 -0.13061064827E+04  0.13061064827E+04  0.25500000920E-02 0. -1.
    10030    2    1    2    0    0  0.00000000000E+00  0.00000000000E+00 -0.59169340008E+03  0.20205195654E+04  0.19319415712E+04 0.  0.
        4    1    3    3  502    0 -0.87899224311E+03  0.65284503663E+02 -0.70920001569E+03  0.11313070781E+04  0.12699999809E+01 0.  1.
       -4    1    3    3    0  502  0.87899224311E+03 -0.65284503663E+02  0.11750661561E+03  0.88921248725E+03  0.12699999809E+01 0. -1.
</event>
<event>
 5   0  0.1231056E-04  0.1936458E+04  0.7818609E-02  0.8636919E-01
        1   -1    0    0  501    0  0.00000000000E+00  0.00000000000E+00  0.10735575424E+04  0.10735575424E+04  0.50400001928E-02 0.  1.
       -1   -1    0    0    0  501  0.00000000000E+00  0.00000000000E+00 -0.87323432365E+03  0.87323432366E+03  0.50400001928E-02 0. -1.
    10030    2    1    2    0    0  0.00000000000E+00  0.00000000000E+00  0.20032321874E+03  0.19467918661E+04  0.19364578947E+04 0.  0.
        3    1    3    3  502    0 -0.71143382071E+03 -0.36254594677E+03 -0.45038259577E+03  0.91674540497E+03  0.10100000352E+00 0.  1.
       -3    1    3    3    0  502  0.71143382071E+03  0.36254594677E+03  0.65070581450E+03  0.10300464611E+04  0.10100000352E+00 0. -1.
</event>
<event>
 5   0  0.1258546E-04  0.2028958E+04  0.7818609E-02  0.8593200E-01
       -1   -1    0    0    0  501  0.00000000000E+00  0.00000000000E+00  0.49077312920E+03  0.49077312923E+03  0.50400001928E-02 0.  1.
        1   -1    0    0  501    0  0.00000000000E+00  0.00000000000E+00 -0.20970326281E+04  0.20970326281E+04  0.50400001928E-02 0. -1.
    10030    2    1    2    0    0  0.00000000000E+00  0.00000000000E+00 -0.16062594989E+04  0.25878057574E+04  0.20289576289E+04 0.  0.
        4    1    3    3  502    0 -0.51697414866E+03 -0.86181333372E+03 -0.97977262494E+03  0.14035456893E+04  0.12699999809E+01 0.  1.
       -4    1    3    3    0  502  0.51697414866E+03  0.86181333372E+03 -0.62648687400E+03  0.11842600680E+04  0.12699999809E+01 0. -1.
</event>
<event>
 5   0  0.2421737E-04  0.2000814E+04  0.7818609E-02  0.8606240E-01
        2   -1    0    0  501    0  0.00000000000E+00  0.00000000000E+00  0.14987588571E+04  0.14987588571E+04  0.25500000920E-02 0. -1.
       -2   -1    0    0    0  501  0.00000000000E+00  0.00000000000E+00 -0.66776182854E+03  0.66776182854E+03  0.25500000920E-02 0.  1.
    10030    2    1    2    0    0  0.00000000000E+00  0.00000000000E+00  0.83099702854E+03  0.21665206856E+04  0.20008137894E+04 0.  0.
        1    1    3    3  502    0 -0.10545680635E+02  0.11683974074E+03  0.14912848225E+04  0.14958920945E+04  0.50400001928E-02 0. -1.
       -1    1    3    3    0  502  0.10545680635E+02 -0.11683974074E+03 -0.66028779397E+03  0.67062859116E+03  0.50400001928E-02 0.  1.
</event>
<event>
 5   0  0.1207228E-04  0.1813102E+04  0.7818609E-02  0.8699363E-01
       -1   -1    0    0    0  501  0.00000000000E+00  0.00000000000E+00  0.40931318176E+03  0.40931318179E+03  0.50400001928E-02 0. -1.
        1   -1    0    0  501    0  0.00000000000E+00  0.00000000000E+00 -0.20078388005E+04  0.20078388005E+04  0.50400001928E-02 0.  1.
    10030    2    1    2    0    0  0.00000000000E+00  0.00000000000E+00 -0.15985256187E+04  0.24171519823E+04  0.18131021901E+04 0.  0.
        1    1    3    3  502    0  0.22273068899E+03  0.89697764240E+02  0.36614943666E+03  0.43785849166E+03  0.50400001928E-02 0. -1.
       -1    1    3    3    0  502 -0.22273068899E+03 -0.89697764240E+02 -0.19646750554E+04  0.19792934906E+04  0.50400001928E-02 0.  1.
</event>
<event>
 5   0  0.2540506E-04  0.1988357E+04  0.7818609E-02  0.8612084E-01
        2   -1    0    0  501    0  0.00000000000E+00  0.00000000000E+00  0.90565864406E+03  0.90565864407E+03  0.25500000920E-02 0.  1.
       -2   -1    0    0    0  501  0.00000000000E+00  0.00000000000E+00 -0.10913500401E+04  0.10913500401E+04  0.25500000920E-02 0. -1.
    10030    2    1    2    0    0  0.00000000000E+00  0.00000000000E+00 -0.18569139601E+03  0.19970086841E+04  0.19883567059E+04 0.  0.
        4    1    3    3  502    0  0.22658201888E+03 -0.74336705258E+02  0.87650871686E+03  0.90836914339E+03  0.12699999809E+01 0.  1.
       -4    1    3    3    0  502 -0.22658201888E+03  0.74336705258E+02 -0.10622001129E+04  0.10886395408E+04  0.12699999809E+01 0. -1.
</event>
<event>
 5   0  0.2488886E-04  0.1993831E+04  0.7818609E-02  0.8609510E-01
        2   -1    0    0  501    0  0.00000000000E+00  0.00000000000E+00  0.15591865058E+04  0.15591865058E+04  0.25500000920E-02 0.  1.
       -2   -1    0    0    0  501  0.00000000000E+00  0.00000000000E+00 -0.63740941890E+03  0.63740941891E+03  0.25500000920E-02 0. -1.
    10030    2    1    2    0    0  0.00000000000E+00  0.00000000000E+00  0.92177708689E+03  0.21965959247E+04  0.19938306494E+04 0.  0.
        3    1    3    3  502    0 -0.70491902286E+03 -0.16885504164E+03  0.12149007372E+04  0.14147108063E+04  0.10100000352E+00 0.  1.
       -3    1    3    3    0  502  0.70491902286E+03  0.16885504164E+03 -0.29312365031E+03  0.78188511845E+03  0.10100000352E+00 0. -1.
</event>
<event>
 5   0  0.2596061E-04  0.1957153E+04  0.7818609E-02  0.8626919E-01
        2   -1    0    0  501    0  0.00000000000E+00  0.00000000000E+00  0.10535334933E+04  0.10535334933E+04  0.25500000920E-02 0.  1.
       -2   -1    0    0    0  501  0.00000000000E+00  0.00000000000E+00 -0.90895227929E+03  0.90895227930E+03  0.25500000920E-02 0. -1.
    10030    2    1    2    0    0  0.00000000000E+00  0.00000000000E+00  0.14458121401E+03  0.19624857726E+04  0.19571526972E+04 0.  0.
        5    1    3    3  502    0  0.92248101904E+03  0.32369026809E+03  0.29243918248E+02  0.97807152954E+03  0.46999998093E+01 0. -1.
       -5    1    3    3    0  502 -0.92248101904E+03 -0.32369026809E+03  0.11533729576E+03  0.98441424306E+03  0.46999998093E+01 0.  1.
</event>
<event>
 5   0  0.1258546E-04  0.1886406E+04  0.7818609E-02  0.8661653E-01
        1   -1    0    0  501    0  0.00000000000E+00  0.00000000000E+00  0.12149152014E+04  0.12149152014E+04  0.50400001928E-02 0.  1.
       -1   -1    0    0    0  501  0.00000000000E+00  0.00000000000E+00 -0.73225869243E+03  0.73225869245E+03  0.50400001928E-02 0. -1.
    10030    2    1    2    0    0  0.00000000000E+00  0.00000000000E+00  0.48265650895E+03  0.19471738938E+04  0.18864063367E+04 0.  0.
        4    1    3    3  502    0  0.16085862507E+03  0.57768907493E+02 -0.71613959521E+03  0.73625422013E+03  0.12699999809E+01 0. -1.
       -4    1    3    3    0  502 -0.16085862507E+03 -0.57768907493E+02  0.11987961042E+04  0.12109196737E+04  0.12699999809E+01 0.  1.
</event>
<event>
 5   0  0.1258546E-04  0.1963974E+04  0.7818609E-02  0.8623652E-01
        1   -1    0    0  501    0  0.00000000000E+00  0.00000000000E+00  0.17803136328E+04  0.17803136328E+04  0.50400001928E-02 0.  1.
       -1   -1    0    0    0  501  0.00000000000E+00  0.00000000000E+00 -0.54164534160E+03  0.54164534162E+03  0.50400001928E-02 0. -1.
    10030    2    1    2    0    0  0.00000000000E+00  0.00000000000E+00  0.12386682912E+04  0.23219589744E+04  0.19639741198E+04 0.  0.
        4    1    3    3  502    0 -0.26612091813E+03 -0.40375337903E+03  0.16297890894E+04  0.17000150655E+04  0.12699999809E+01 0.  1.
       -4    1    3    3    0  502  0.26612091813E+03  0.40375337903E+03 -0.39112079820E+03  0.62194390891E+03  0.12699999809E+01 0. -1.
</event>
<event>
 5   0  0.1207228E-04  0.1996999E+04  0.7818609E-02  0.8608025E-01
       -1   -1    0    0    0  501  0.00000000000E+00  0.00000000000E+00  0.63653191721E+03  0.63653191723E+03  0.50400001928E-02 0. -1.
        1   -1    0    0  501    0  0.00000000000E+00  0.00000000000E+00 -0.15663016080E+04  0.15663016080E+04  0.50400001928E-02 0.  1.
    10030    2    1    2    0    0  0.00000000000E+00  0.00000000000E+00 -0.92976969082E+03  0.22028335253E+04  0.19969987136E+04 0.  0.
        1    1    3    3  502    0  0.11603590582E+03  0.51859715475E+02 -0.15573423982E+04  0.15625201140E+04  0.50400001928E-02 0.  1.
       -1    1    3    3    0  502 -0.11603590582E+03 -0.51859715475E+02  0.62757270738E+03  0.64031341123E+03  0.50400001928E-02 0. -1.
</event>
<event>
 5   0  0.2596061E-04  0.2039604E+04  0.7818609E-02  0.8588325E-01
       -2   -1    0    0    0  501  0.00000000000E+00  0.00000000000E+00  0.84476242727E+03  0.84476242727E+03  0.25500000920E-02 0.  1.
        2   -1    0    0  501    0  0.00000000000E+00  0.00000000000E+00 -0.12311104824E+04  0.12311104824E+04  0.25500000920E-02 0. -1.
    10030    2    1    2    0    0  0.00000000000E+00  0.00000000000E+00 -0.38634805512E+03  0.20758729097E+04  0.20396037648E+04 0.  0.
        5    1    3    3  502    0 -0.82249041765E+03 -0.55629341634E+03  0.43383086596E+02  0.99390997298E+03  0.46999998093E+01 0.  1.
       -5    1    3    3    0  502  0.82249041765E+03  0.55629341634E+03 -0.42973114171E+03  0.10819629367E+04  0.46999998093E+01 0. -1.
</event>
<event>
 5   0  0.2540506E-04  0.2269855E+04  0.7818609E-02  0.8489903E-01
        2   -1    0    0  501    0  0.00000000000E+00  0.00000000000E+00  0.13828564990E+04  0.13828564990E+04  0.25500000920E-02 0.  1.
       -2   -1    0    0    0  501  0.00000000000E+00  0.00000000000E+00 -0.93144913362E+03  0.93144913362E+03  0.25500000920E-02 0. -1.
    10030    2    1    2    0    0  0.00000000000E+00  0.00000000000E+00  0.45140736538E+03  0.23143056326E+04  0.22698550508E+04 0.  0.
        4    1    3    3  502    0  0.65171429413E+03  0.72028267891E+03  0.82415653774E+03  0.12738815762E+04  0.12699999809E+01 0.  1.
       -4    1    3    3    0  502 -0.65171429413E+03 -0.72028267891E+03 -0.37274917236E+03  0.10404240564E+04  0.12699999809E+01 0. -1.
</event>
<event>
 5   0  0.2421737E-04  0.1971132E+04  0.7818609E-02  0.8620238E-01
       -2   -1    0    0    0  501  0.00000000000E+00  0.00000000000E+00  0.42865250378E+03  0.42865250379E+03  0.25500000920E-02 0.  1.
        2   -1    0    0  501    0  0.00000000000E+00  0.00000000000E+00 -0.22660309836E+04  0.22660309836E+04  0.25500000920E-02 0. -1.
    10030    2    1    2    0    0  0.00000000000E+00  0.00000000000E+00 -0.18373784798E+04  0.26946834873E+04  0.19711315073E+04 0.  0.
        1    1    3    3  502    0 -0.24984221612E+03 -0.77237373212E+03 -0.16827328674E+04  0.18683073136E+04  0.50400001928E-02 0. -1.
       -1    1    3    3    0  502  0.24984221612E+03  0.77237373212E+03 -0.15464561234E+03  0.82637617370E+03  0.50400001928E-02 0.  1.
</event>
<event>
 5   0  0.2421737E-04  0.1977645E+04  0.7818609E-02  0.8617144E-01
        2   -1    0    0  501    0  0.00000000000E+00  0.00000000000E+00  0.85084043189E+03  0.85084043189E+03  0.25500000920E-02 0.  1.
       -2   -1    0    0    0  501  0.00000000000E+00  0.00000000000E+00 -0.11491811492E+04  0.11491811492E+04  0.25500000920E-02 0. -1.
    10030    2    1    2    0    0  0.00000000000E+00  0.00000000000E+00 -0.29834071731E+03  0.20000215811E+04  0.19776448471E+04 0.  0.
        1    1    3    3  502    0 -0.40928388519E+03  0.45616381185E+03 -0.93394745727E+03  0.11170750086E+04  0.50400001928E-02 0. -1.
       -1    1    3    3    0  502  0.40928388519E+03 -0.45616381185E+03  0.63560673996E+03  0.88294657247E+03  0.50400001928E-02 0.  1.
</event>
<event>
 5   0  0.1210633E-04  0.2041530E+04  0.7818609E-02  0.8587447E-01
        1   -1    0    0  501    0  0.00000000000E+00  0.00000000000E+00  0.13245594537E+04  0.13245594537E+04  0.50400001928E-02 0. -1.
       -1   -1    0    0    0  501  0.00000000000E+00  0.00000000000E+00 -0.78664724394E+03  0.78664724395E+03  0.50400001928E-02 0.  1.
    10030    2    1    2    0    0  0.00000000000E+00  0.00000000000E+00  0.53791220973E+03  0.21112066976E+04  0.20415298613E+04 0.  0.
        2    1    3    3  502    0 -0.18905892121E+03 -0.95724895818E+03  0.57900916572E+03  0.11346014532E+04  0.25500000920E-02 0. -1.
       -2    1    3    3    0  502  0.18905892121E+03  0.95724895818E+03 -0.41096955999E+02  0.97660524442E+03  0.25500000920E-02 0.  1.
</event>
<event>
 5   0  0.1324930E-04  0.1987558E+04  0.7818609E-02  0.8612460E-01
        1   -1    0    0  501    0  0.00000000000E+00  0.00000000000E+00  0.10695988443E+04  0.10695988443E+04  0.50400001928E-02 0. -1.
       -1   -1    0    0    0  501  0.00000000000E+00  0.00000000000E+00 -0.92333370499E+03  0.92333370501E+03  0.50400001928E-02 0.  1.
    10030    2    1    2    0    0  0.00000000000E+00  0.00000000000E+00  0.14626513930E+03  0.19929325493E+04  0.19875579627E+04 0.  0.
        5    1    3    3  502    0 -0.31042903198E+03  0.56640698539E+03 -0.68415238127E+03  0.94088768075E+03  0.46999998093E+01 0.  1.
       -5    1    3    3    0  502  0.31042903198E+03 -0.56640698539E+03  0.83041752057E+03  0.10520448686E+04  0.46999998093E+01 0. -1.
</event>
<event>
 5   0  0.2596061E-04  0.2007966E+04  0.7818609E-02  0.8602906E-01
       -2   -1    0    0    0  501  0.00000000000E+00  0.00000000000E+00  0.68672067449E+03  0.68672067449E+03  0.25500000920E-02 0.  1.
        2   -1    0    0  501    0  0.00000000000E+00  0.00000000000E+00 -0.14678186559E+04  0.14678186559E+04  0.25500000920E-02 0. -1.
    10030    2    1    2    0    0  0.00000000000E+00  0.00000000000E+00 -0.78109798141E+03  0.21545393304E+04  0.20079655549E+04 0.  0.
        5    1    3    3  502    0 -0.42256765940E+03  0.65182261772E+03  0.29189949091E+03  0.82985755074E+03  0.46999998093E+01 0.  1.
       -5    1    3    3    0  502  0.42256765940E+03 -0.65182261772E+03 -0.10729974723E+04  0.13246817796E+04  0.46999998093E+01 0. -1.
</event>
<event>
 5   0  0.1258546E-04  0.1992007E+04  0.7818609E-02  0.8610367E-01
       -1   -1    0    0    0  501  0.00000000000E+00  0.00000000000E+00  0.76730710168E+03  0.76730710170E+03  0.50400001928E-02 0.  1.
        1   -1    0    0  501    0  0.00000000000E+00  0.00000000000E+00 -0.12928628285E+04  0.12928628285E+04  0.50400001928E-02 0. -1.
    10030    2    1    2    0    0  0.00000000000E+00  0.00000000000E+00 -0.52555572683E+03  0.20601699302E+04  0.19920068573E+04 0.  0.
        4    1    3    3  502    0 -0.52702742199E+03  0.41808908708E+03  0.49683757475E+03  0.83630471531E+03  0.12699999809E+01 0.  1.
       -4    1    3    3    0  502  0.52702742199E+03 -0.41808908708E+03 -0.10223933016E+04  0.12238652149E+04  0.12699999809E+01 0. -1.
</event>
<event>
 5   0  0.2463085E-04  0.2021237E+04  0.7818609E-02  0.8596755E-01
        2   -1    0    0  501    0  0.00000000000E+00  0.00000000000E+00  0.12993278887E+04  0.12993278887E+04  0.25500000920E-02 0. -1.
       -2   -1    0    0    0  501  0.00000000000E+00  0.00000000000E+00 -0.78606039829E+03  0.78606039830E+03  0.25500000920E-02 0.  1.
    10030    2    1    2    0    0  0.00000000000E+00  0.00000000000E+00  0.51326749045E+03  0.20853882870E+04  0.20212374405E+04 0.  0.
        2    1    3    3  502    0  0.54622468549E+02  0.86786837429E+02  0.12939463405E+04  0.12980033518E+04  0.25500000920E-02 0. -1.
       -2    1    3    3    0  502 -0.54622468549E+02 -0.86786837429E+02 -0.78067885008E+03  0.78738493520E+03  0.25500000920E-02 0.  1.
</event>
<event>
 5   0  0.1207228E-04  0.1958374E+04  0.7818609E-02  0.8626333E-01
       -1   -1    0    0    0  501  0.00000000000E+00  0.00000000000E+00  0.11991521644E+04  0.11991521644E+04  0.50400001928E-02 0. -1.
        1   -1    0    0  501    0  0.00000000000E+00  0.00000000000E+00 -0.79957117721E+03  0.79957117723E+03  0.50400001928E-02 0.  1.
    10030    2    1    2    0    0  0.00000000000E+00  0.00000000000E+00  0.39958098723E+03  0.19987233417E+04  0.19583743338E+04 0.  0.
        1    1    3    3  502    0 -0.52667364071E+03  0.73719631898E+03  0.57887830330E+03  0.10751481882E+04  0.50400001928E-02 0. -1.
       -1    1    3    3    0  502  0.52667364071E+03 -0.73719631898E+03 -0.17929731607E+03  0.92357515347E+03  0.50400001928E-02 0.  1.
</event>
<event>
 5   0  0.2488886E-04  0.1914053E+04  0.7818609E-02  0.8647893E-01
       -2   -1    0    0    0  501  0.00000000000E+00  0.00000000000E+00  0.62006133626E+03  0.62006133626E+03  0.25500000920E-02 0. -1.
        2   -1    0    0  501    0  0.00000000000E+00  0.00000000000E+00 -0.14771117968E+04  0.14771117968E+04  0.25500000920E-02 0.  1.
    10030    2    1    2    0    0  0.00000000000E+00  0.00000000000E+00 -0.85705046054E+03  0.20971731331E+04  0.19140532015E+04 0.  0.
        3    1    3    3  502    0  0.70306459059E+03  0.59244843975E+03 -0.13738796377E+03  0.92960767805E+03  0.10100000352E+00 0. -1.
       -3    1    3    3    0  502 -0.70306459059E+03 -0.59244843975E+03 -0.71966249677E+03  0.11675654550E+04  0.10100000352E+00 0.  1.
</event>
<event>
 5   0  0.2596061E-04  0.1602012E+04  0.7818609E-02  0.8819313E-01
       -2   -1    0    0    0  501  0.00000000000E+00  0.00000000000E+00  0.67890035353E+03  0.67890035354E+03  0.25500000920E-02 0. -1.
        2   -1    0    0  501    0  0.00000000000E+00  0.00000000000E+00 -0.94507340307E+03  0.94507340308E+03  0.25500000920E-02 0.  1.
    10030    2    1    2    0    0  0.00000000000E+00  0.00000000000E+00 -0.26617304954E+03  0.16239737566E+04  0.16020120692E+04 0.  0.
        5    1    3    3  502    0 -0.44460715623E+03  0.21538343380E+03 -0.77222412906E+03  0.91674300784E+03  0.46999998093E+01 0.  1.
       -5    1    3    3    0  502  0.44460715623E+03 -0.21538343380E+03  0.50605107952E+03  0.70723074877E+03  0.46999998093E+01 0. -1.
</event>
<event>
 5   0  0.1207228E-04  0.1834325E+04  0.7818609E-02  0.8688256E-01
       -1   -1    0    0    0  501  0.00000000000E+00  0.00000000000E+00  0.90043204708E+03  0.90043204710E+03  0.50400001928E-02 0.  1.
        1   -1    0    0  501    0  0.00000000000E+00  0.00000000000E+00 -0.93420421065E+03  0.93420421066E+03  0.50400001928E-02 0. -1.
    10030    2    1    2    0    0  0.00000000000E+00  0.00000000000E+00 -0.33772163565E+02  0.18346362578E+04  0.18343253908E+04 0.  0.
        1    1    3    3  502    0  0.76324734221E+03 -0.44952374256E+03 -0.25476942448E+03  0.92169710870E+03  0.50400001928E-02 0. -1.
       -1    1    3    3    0  502 -0.76324734221E+03  0.44952374256E+03  0.22099726091E+03  0.91293914905E+03  0.50400001928E-02 0.  1.
</event>
<event>
 5   0  0.1258546E-04  0.1980406E+04  0.7818609E-02  0.8615837E-01
       -1   -1    0    0    0  501  0.00000000000E+00  0.00000000000E+00  0.35578743095E+03  0.35578743099E+03  0.50400001928E-02 0. -1.
        1   -1    0    0  501    0  0.00000000000E+00  0.00000000000E+00 -0.27558645512E+04  0.27558645512E+04  0.50400001928E-02 0.  1.
    10030    2    1    2    0    0  0.00000000000E+00  0.00000000000E+00 -0.24000771202E+04  0.31116519822E+04  0.19804059874E+04 0.  0.
        4    1    3    3  502    0  0.74694925547E+03  0.35385149581E+03 -0.20568304524E+04  0.22166860838E+04  0.12699999809E+01 0.  1.
       -4    1    3    3    0  502 -0.74694925547E+03 -0.35385149581E+03 -0.34324666781E+03  0.89496589834E+03  0.12699999809E+01 0. -1.
</event>
<event>
 5   0  0.9099125E-05  0.2005787E+04  0.7818609E-02  0.8603920E-01
        3   -1    0    0  501    0  0.00000000000E+00  0.00000000000E+00  0.98135036948E+03  0.98135037467E+03  0.10100000352E+00 0.  1.
       -3   -1    0    0    0  501  0.00000000000E+00  0.00000000000E+00 -0.10249094802E+04  0.10249094852E+04  0.10100000352E+00 0. -1.
    10030    2    1    2    0    0  0.00000000000E+00  0.00000000000E+00 -0.43559110698E+02  0.20062598598E+04  0.20057869351E+04 0.  0.
        2    1    3    3  502    0  0.37279649185E+03 -0.30705090920E+02 -0.95252315099E+03  0.10233378622E+04  0.25500000920E-02 0. -1.
       -2    1    3    3    0  502 -0.37279649185E+03  0.30705090920E+02  0.90896404029E+03  0.98292199767E+03  0.25500000920E-02 0.  1.
</event>
<event>
 5   0  0.1324930E-04  0.2075201E+04  0.7818609E-02  0.8572247E-01
        1   -1    0    0  501    0  0.00000000000E+00  0.00000000000E+00  0.60413848882E+03  0.60413848884E+03  0.50400001928E-02 0.  1.
       -1   -1    0    0    0  501  0.00000000000E+00  0.00000000000E+00 -0.17820657603E+04  0.17820657603E+04  0.50400001928E-02 0. -1.
    10030    2    1    2    0    0  0.00000000000E+00  0.00000000000E+00 -0.11779272715E+04  0.23862042492E+04  0.20752007281E+04 0.  0.
        5    1    3    3  502    0 -0.72952648828E+03  0.49453486648E+03 -0.12185813382E+04  0.15039069782E+04  0.46999998093E+01 0. -1.
       -5    1    3    3    0  502  0.72952648828E+03 -0.49453486648E+03  0.40654066668E+02  0.88229727099E+03  0.46999998093E+01 0.  1.
</event>
<event>
 5   0  0.2596061E-04  0.2006475E+04  0.7818609E-02  0.8603599E-01
       -2   -1    0    0    0  501  0.00000000000E+00  0.00000000000E+00  0.53692689088E+03  0.53692689089E+03  0.25500000920E-02 0. -1.
        2   -1    0    0  501    0  0.00000000000E+00  0.00000000000E+00 -0.18745294183E+04  0.18745294183E+04  0.25500000920E-02 0.  1.
    10030    2    1    2    0    0  0.00000000000E+00  0.00000000000E+00 -0.13376025274E+04  0.24114563092E+04  0.20064747718E+04 0.  0.
        5    1    3    3  502    0 -0.49898678665E+03  0.82240325747E+03 -0.10111208102E+04  0.13956082237E+04  0.46999998093E+01 0. -1.
       -5    1    3    3    0  502  0.49898678665E+03 -0.82240325747E+03 -0.32648171719E+03  0.10158480855E+04  0.46999998093E+01 0.  1.
</event>
<event>
 5   0  0.2596061E-04  0.1995611E+04  0.7818609E-02  0.8608676E-01
        2   -1    0    0  501    0  0.00000000000E+00  0.00000000000E+00  0.79486207759E+03  0.79486207759E+03  0.25500000920E-02 0.  1.
       -2   -1    0    0    0  501  0.00000000000E+00  0.00000000000E+00 -0.12525636878E+04  0.12525636878E+04  0.25500000920E-02 0. -1.
    10030    2    1    2    0    0  0.00000000000E+00  0.00000000000E+00 -0.45770161019E+03  0.20474257654E+04  0.19956105584E+04 0.  0.
        5    1    3    3  502    0 -0.44837350146E+03  0.83689668109E+03  0.85968955030E+02  0.95333498984E+03  0.46999998093E+01 0.  1.
       -5    1    3    3    0  502  0.44837350146E+03 -0.83689668109E+03 -0.54367056522E+03  0.10940907755E+04  0.46999998093E+01 0. -1.
</event>
<event>
 5   0  0.2488886E-04  0.2113415E+04  0.7818609E-02  0.8555357E-01
       -2   -1    0    0    0  501  0.00000000000E+00  0.00000000000E+00  0.80540187791E+03  0.80540187792E+03  0.25500000920E-02 0. -1.
        2   -1    0    0  501    0  0.00000000000E+00  0.00000000000E+00 -0.13864263153E+04  0.13864263153E+04  0.25500000920E-02 0.  1.
    10030    2    1    2    0    0  0.00000000000E+00  0.00000000000E+00 -0.58102443741E+03  0.21918281932E+04  0.21134146379E+04 0.  0.
        3    1    3    3  502    0 -0.13329155547E+03  0.59609854704E+02  0.79488923363E+03  0.80818863979E+03  0.10100000352E+00 0. -1.
       -3    1    3    3    0  502  0.13329155547E+03 -0.59609854704E+02 -0.13759136710E+04  0.13836395535E+04  0.10100000352E+00 0.  1.
</event>
<event>
 5   0  0.2596061E-04  0.1988925E+04  0.7818609E-02  0.8611816E-01
        2   -1    0    0  501    0  0.00000000000E+00  0.00000000000E+00  0.10296802272E+04  0.10296802272E+04  0.25500000920E-02 0. -1.
       -2   -1    0    0    0  501  0.00000000000E+00  0.00000000000E+00 -0.96044922608E+03  0.96044922609E+03  0.25500000920E-02 0.  1.
    10030    2    1    2    0    0  0.00000000000E+00  0.00000000000E+00  0.69231001141E+02  0.19901294533E+04  0.19889249130E+04 0.  0.
        5    1    3    3  502    0 -0.30884801866E+02 -0.32035606423E+03 -0.90688559518E+03  0.96231255401E+03  0.46999998093E+01 0.  1.
       -5    1    3    3    0  502  0.30884801866E+02  0.32035606423E+03  0.97611659632E+03  0.10278168993E+04  0.46999998093E+01 0. -1.
</event>
<event>
 5   0  0.1210633E-04  0.2004210E+04  0.7818609E-02  0.8604655E-01
        1   -1    0    0  501    0  0.00000000000E+00  0.00000000000E+00  0.11639812426E+04  0.11639812426E+04  0.50400001928E-02 0.  1.
       -1   -1    0    0    0  501  0.00000000000E+00  0.00000000000E+00 -0.86274096257E+03  0.86274096258E+03  0.50400001928E-02 0. -1.
    10030    2    1    2    0    0  0.00000000000E+00  0.00000000000E+00  0.30124028002E+03  0.20267222052E+04  0.20042098669E+04 0.  0.
        2    1    3    3  502    0  0.16832428632E+03  0.60553217080E+03 -0.63866742832E+03  0.89604595822E+03  0.25500000920E-02 0. -1.
       -2    1    3    3    0  502 -0.16832428632E+03 -0.60553217080E+03  0.93990770834E+03  0.11306762470E+04  0.25500000920E-02 0.  1.
</event>
<event>
 5   0  0.2488886E-04  0.1382384E+04  0.7818609E-02  0.8966669E-01
        2   -1    0    0  501    0  0.00000000000E+00  0.00000000000E+00  0.21571486401E+04  0.21571486401E+04  0.25500000920E-02 0.  1.
       -2   -1    0    0    0  501  0.00000000000E+00  0.00000000000E+00 -0.22147127117E+03  0.22147127118E+03  0.25500000920E-02 0. -1.
    10030    2    1    2    0    0  0.00000000000E+00  0.00000000000E+00  0.19356773690E+04  0.23786199113E+04  0.13823841021E+04 0.  0.
        3    1    3    3  502    0  0.41787552367E+03  0.34859380743E+03  0.23456716352E+03  0.59258700649E+03  0.10100000352E+00 0. -1.
       -3    1    3    3    0  502 -0.41787552367E+03 -0.34859380743E+03  0.17011102055E+04  0.17860329048E+04  0.10100000352E+00 0.  1.
</event>
<event>
 5   0  0.2463085E-04  0.1982304E+04  0.7818609E-02  0.8614939E-01
       -2   -1    0    0    0  501  0.00000000000E+00  0.00000000000E+00  0.76287413281E+03  0.76287413282E+03  0.25500000920E-02 0. -1.
        2   -1    0    0  501    0  0.00000000000E+00  0.00000000000E+00 -0.12877388164E+04  0.12877388164E+04  0.25500000920E-02 0.  1.
    10030    2    1    2    0    0  0.00000000000E+00  0.00000000000E+00 -0.52486468363E+03  0.20506129493E+04  0.19823043489E+04 0.  0.
        2    1    3    3  502    0  0.59810876355E+03 -0.71035665591E+02  0.55184046861E+03  0.81688925909E+03  0.25500000920E-02 0. -1.
       -2    1    3    3    0  502 -0.59810876355E+03  0.71035665591E+02 -0.10767051522E+04  0.12337236902E+04  0.25500000920E-02 0.  1.
</event>
<event>
 5   0  0.2488886E-04  0.1912818E+04  0.7818609E-02  0.8648502E-01
        2   -1    0    0  501    0  0.00000000000E+00  0.00000000000E+00  0.83135013703E+03  0.83135013703E+03  0.25500000920E-02 0.  1.
       -2   -1    0    0    0  501  0.00000000000E+00  0.00000000000E+00 -0.11002799334E+04  0.11002799334E+04  0.25500000920E-02 0. -1.
    10030    2    1    2    0    0  0.00000000000E+00  0.00000000000E+00 -0.26892979636E+03  0.19316300704E+04  0.19128176844E+04 0.  0.
        3    1    3    3  502    0  0.25198538664E+03  0.32055202535E+03  0.73918391204E+03  0.84418191290E+03  0.10100000352E+00 0.  1.
       -3    1    3    3    0  502 -0.25198538664E+03 -0.32055202535E+03 -0.10081137084E+04  0.10874481575E+04  0.10100000352E+00 0. -1.
</event>
<event>
 5   0  0.1210633E-04  0.2009795E+04  0.7818609E-02  0.8602055E-01
       -1   -1    0    0    0  501  0.00000000000E+00  0.00000000000E+00  0.10599255192E+04  0.10599255192E+04  0.50400001928E-02 0. -1.
        1   -1    0    0  501    0  0.00000000000E+00  0.00000000000E+00 -0.95272678402E+03  0.95272678403E+03  0.50400001928E-02 0.  1.
    10030    2    1    2    0    0  0.00000000000E+00  0.00000000000E+00  0.10719873515E+03  0.20126523032E+04  0.20097954435E+04 0.  0.
        2    1    3    3  502    0  0.70553113246E+03 -0.58404865709E+03 -0.36042806359E+03  0.98427404809E+03  0.25500000920E-02 0.  1.
       -2    1    3    3    0  502 -0.70553113246E+03  0.58404865709E+03  0.46762679874E+03  0.10283782551E+04  0.25500000920E-02 0. -1.
</event>
<event>
 5   0  0.2463085E-04  0.1985669E+04  0.7818609E-02  0.8613351E-01
       -2   -1    0    0    0  501  0.00000000000E+00  0.00000000000E+00  0.91580464205E+03  0.91580464206E+03  0.25500000920E-02 0.  1.
        2   -1    0    0  501    0  0.00000000000E+00  0.00000000000E+00 -0.10763429968E+04  0.10763429968E+04  0.25500000920E-02 0. -1.
    10030    2    1    2    0    0  0.00000000000E+00  0.00000000000E+00 -0.16053835477E+03  0.19921476389E+04  0.19856685654E+04 0.  0.
        2    1    3    3  502    0  0.32511279447E+03  0.77903495975E+03  0.44405076247E+03  0.95382119776E+03  0.25500000920E-02 0.  1.
       -2    1    3    3    0  502 -0.32511279447E+03 -0.77903495975E+03 -0.60458911724E+03  0.10383264411E+04  0.25500000920E-02 0. -1.
</event>
<event>
 5   0  0.1258546E-04  0.1952209E+04  0.7818609E-02  0.8629296E-01
        1   -1    0    0  501    0  0.00000000000E+00  0.00000000000E+00  0.13336588457E+04  0.13336588457E+04  0.50400001928E-02 0.  1.
       -1   -1    0    0    0  501  0.00000000000E+00  0.00000000000E+00 -0.71441074806E+03  0.71441074808E+03  0.50400001928E-02 0. -1.
    10030    2    1    2    0    0  0.00000000000E+00  0.00000000000E+00  0.61924809763E+03  0.20480695938E+04  0.19522092241E+04 0.  0.
        4    1    3    3  502    0  0.15093393615E+03  0.80879987442E+03  0.86061848852E+03  0.11906318010E+04  0.12699999809E+01 0.  1.
       -4    1    3    3    0  502 -0.15093393615E+03 -0.80879987442E+03 -0.24137039089E+03  0.85743779275E+03  0.12699999809E+01 0. -1.
</event>
<event>
 5   0  0.1258546E-04  0.1968989E+04  0.7818609E-02  0.8621258E-01
        1   -1    0    0  501    0  0.00000000000E+00  0.00000000000E+00  0.88516116387E+03  0.88516116388E+03  0.50400001928E-02 0. -1.
       -1   -1    0    0    0  501  0.00000000000E+00  0.00000000000E+00 -0.10949749116E+04  0.10949749116E+04  0.50400001928E-02 0.  1.
    10030    2    1    2    0    0  0.00000000000E+00  0.00000000000E+00 -0.20981374770E+03  0.19801360755E+04  0.19689888442E+04 0.  0.
        4    1    3    3  502    0  0.78903024250E+03  0.27648275950E+03 -0.62767305364E+03  0.10454599538E+04  0.12699999809E+01 0.  1.
       -4    1    3    3    0  502 -0.78903024250E+03 -0.27648275950E+03  0.41785930594E+03  0.93467612163E+03  0.12699999809E+01 0. -1.
</event>
<event>
 5   0  0.2540506E-04  0.1236225E+04  0.7818609E-02  0.9081726E-01
        2   -1    0    0  501    0  0.00000000000E+00  0.00000000000E+00  0.98984565037E+03  0.98984565038E+03  0.25500000920E-02 0. -1.
       -2   -1    0    0    0  501  0.00000000000E+00  0.00000000000E+00 -0.38598268632E+03  0.38598268633E+03  0.25500000920E-02 0.  1.
    10030    2    1    2    0    0  0.00000000000E+00  0.00000000000E+00  0.60386296406E+03  0.13758283367E+04  0.12362253568E+04 0.  0.
        4    1    3    3  502    0  0.82890279023E+02  0.28229351252E+03  0.90691878473E+03  0.95344833136E+03  0.12699999809E+01 0. -1.
       -4    1    3    3    0  502 -0.82890279023E+02 -0.28229351252E+03 -0.30305582068E+03  0.42238000535E+03  0.12699999809E+01 0.  1.
</event>
<event>
 5   0  0.1231056E-04  0.1982666E+04  0.7818609E-02  0.8614768E-01
        1   -1    0    0  501    0  0.00000000000E+00  0.00000000000E+00  0.10149009207E+04  0.10149009207E+04  0.50400001928E-02 0.  1.
       -1   -1    0    0    0  501  0.00000000000E+00  0.00000000000E+00 -0.96831260613E+03  0.96831260615E+03  0.50400001928E-02 0. -1.
    10030    2    1    2    0    0  0.00000000000E+00  0.00000000000E+00  0.46588314591E+02  0.19832135269E+04  0.19826662407E+04 0.  0.
        3    1    3    3  502    0  0.58596875764E+03 -0.15342549056E+02  0.82298126455E+03  0.10103924736E+04  0.10100000352E+00 0.  1.
       -3    1    3    3    0  502 -0.58596875764E+03  0.15342549056E+02 -0.77639294996E+03  0.97282105327E+03  0.10100000352E+00 0. -1.
</event>
<event>
 5   0  0.9099125E-05  0.2000457E+04  0.7818609E-02  0.8606407E-01
        4   -1    0    0  501    0  0.00000000000E+00  0.00000000000E+00  0.10411686497E+04  0.10411694242E+04  0.12699999809E+01 0. -1.
       -4   -1    0    0    0  501  0.00000000000E+00  0.00000000000E+00 -0.96089663125E+03  0.96089747051E+03  0.12699999809E+01 0.  1.
    10030    2    1    2    0    0  0.00000000000E+00  0.00000000000E+00  0.80272018410E+02  0.20020668947E+04  0.20004570113E+04 0.  0.
        4    1    3    3  502    0  0.36366458032E+03  0.53248713685E+03 -0.72511059965E+03  0.97035121090E+03  0.12699999809E+01 0.  1.
       -4    1    3    3    0  502 -0.36366458032E+03 -0.53248713685E+03  0.80538261806E+03  0.10317156838E+04  0.12699999809E+01 0. -1.
</event>
<event>
 5   0  0.2421737E-04  0.1999494E+04  0.7818609E-02  0.8606857E-01
        2   -1    0    0  501    0  0.00000000000E+00  0.00000000000E+00  0.19523261263E+04  0.19523261263E+04  0.25500000920E-02 0.  1.
       -2   -1    0    0    0  501  0.00000000000E+00  0.00000000000E+00 -0.51195041232E+03  0.51195041233E+03  0.25500000920E-02 0. -1.
    10030    2    1    2    0    0  0.00000000000E+00  0.00000000000E+00  0.14403757140E+04  0.24642765386E+04  0.19994941014E+04 0.  0.
        1    1    3    3  502    0 -0.35518718779E+03 -0.77366336566E+03  0.74142749981E+02  0.85452331106E+03  0.50400001928E-02 0. -1.
       -1    1    3    3    0  502  0.35518718779E+03  0.77366336566E+03  0.13662329640E+04  0.16097532276E+04  0.50400001928E-02 0.  1.
</event>
<event>
 5   0  0.2488886E-04  0.1769514E+04  0.7818609E-02  0.8722682E-01
       -2   -1    0    0    0  501  0.00000000000E+00  0.00000000000E+00  0.30113072280E+03  0.30113072281E+03  0.25500000920E-02 0.  1.
        2   -1    0    0  501    0  0.00000000000E+00  0.00000000000E+00 -0.25995184853E+04  0.25995184853E+04  0.25500000920E-02 0. -1.
    10030    2    1    2    0    0  0.00000000000E+00  0.00000000000E+00 -0.22983877625E+04  0.29006492081E+04  0.17695139224E+04 0.  0.
        3    1    3    3  502    0 -0.11139020790E+03  0.74714637491E+03 -0.19042380390E+04  0.20485990343E+04  0.10100000352E+00 0. -1.
       -3    1    3    3    0  502  0.11139020790E+03 -0.74714637491E+03 -0.39414972350E+03  0.85205017381E+03  0.10100000352E+00 0.  1.
</event>
<event>
 5   0  0.2463085E-04  0.1941177E+04  0.7818609E-02  0.8634627E-01
       -2   -1    0    0    0  501  0.00000000000E+00  0.00000000000E+00  0.80016762196E+03  0.80016762197E+03  0.25500000920E-02 0.  1.
        2   -1    0    0  501    0  0.00000000000E+00  0.00000000000E+00 -0.11773055521E+04  0.11773055521E+04  0.25500000920E-02 0. -1.
    10030    2    1    2    0    0  0.00000000000E+00  0.00000000000E+00 -0.37713793016E+03  0.19774731741E+04  0.19411767400E+04 0.  0.
        2    1    3    3  502    0 -0.30392040685E+02 -0.59673697861E+03  0.59060067865E+03  0.84013561965E+03  0.25500000920E-02 0.  1.
       -2    1    3    3    0  502  0.30392040685E+02  0.59673697861E+03 -0.96773860881E+03  0.11373375544E+04  0.25500000920E-02 0. -1.
</event>
<event>
 5   0  0.1207228E-04  0.1922189E+04  0.7818609E-02  0.8643890E-01
        1   -1    0    0  501    0  0.00000000000E+00  0.00000000000E+00  0.17061747401E+04  0.17061747401E+04  0.50400001928E-02 0. -1.
       -1   -1    0    0    0  501  0.00000000000E+00  0.00000000000E+00 -0.54138798150E+03  0.54138798153E+03  0.50400001928E-02 0.  1.
    10030    2    1    2    0    0  0.00000000000E+00  0.00000000000E+00  0.11647867586E+04  0.22475627216E+04  0.19221888551E+04 0.  0.
        1    1    3    3  502    0  0.22623957198E+03 -0.17496364409E+03 -0.49047769438E+03  0.56777195193E+03  0.50400001928E-02 0.  1.
       -1    1    3    3    0  502 -0.22623957198E+03  0.17496364409E+03  0.16552644529E+04  0.16797907697E+04  0.50400001928E-02 0. -1.
</event>
<event>
 5   0  0.2540506E-04  0.2012341E+04  0.7818609E-02  0.8600872E-01
        2   -1    0    0  501    0  0.00000000000E+00  0.00000000000E+00  0.96757771747E+03  0.96757771747E+03  0.25500000920E-02 0. -1.
       -2   -1    0    0    0  501  0.00000000000E+00  0.00000000000E+00 -0.10463030818E+04  0.10463030818E+04  0.25500000920E-02 0.  1.
    10030    2    1    2    0    0  0.00000000000E+00  0.00000000000E+00 -0.78725364350E+02  0.20138807993E+04  0.20123414697E+04 0.  0.
        4    1    3    3  502    0  0.24532401429E+03 -0.64023724046E+03 -0.77632964214E+03  0.10357494495E+04  0.12699999809E+01 0.  1.
       -4    1    3    3    0  502 -0.24532401429E+03  0.64023724046E+03  0.69760427779E+03  0.97813134975E+03  0.12699999809E+01 0. -1.
</event>
<event>
 5   0  0.1231056E-04  0.1806255E+04  0.7818609E-02  0.8702980E-01
        1   -1    0    0  501    0  0.00000000000E+00  0.00000000000E+00  0.15708362411E+04  0.15708362411E+04  0.50400001928E-02 0. -1.
       -1   -1    0    0    0  501  0.00000000000E+00  0.00000000000E+00 -0.51923912437E+03  0.51923912440E+03  0.50400001928E-02 0.  1.
    10030    2    1    2    0    0  0.00000000000E+00  0.00000000000E+00  0.10515971167E+04  0.20900753655E+04  0.18062553910E+04 0.  0.
        3    1    3    3  502    0 -0.83278585866E+03  0.33707755284E+03  0.63239332172E+03  0.10986695984E+04  0.10100000352E+00 0. -1.
       -3    1    3    3    0  502  0.83278585866E+03 -0.33707755284E+03  0.41920379502E+03  0.99140576706E+03  0.10100000352E+00 0.  1.
</event>
<event>
 5   0  0.2488886E-04  0.1924988E+04  0.7818609E-02  0.8642517E-01
       -2   -1    0    0    0  501  0.00000000000E+00  0.00000000000E+00  0.55517940377E+03  0.55517940378E+03  0.25500000920E-02 0.  1.
        2   -1    0    0  501    0  0.00000000000E+00  0.00000000000E+00 -0.16686395886E+04  0.16686395886E+04  0.25500000920E-02 0. -1.
    10030    2    1    2    0    0  0.00000000000E+00  0.00000000000E+00 -0.11134601848E+04  0.22238189923E+04  0.19249876175E+04 0.  0.
        3    1    3    3  502    0  0.38546070251E+02  0.75866974244E+03  0.12606227224E+03  0.77003719671E+03  0.10100000352E+00 0.  1.
       -3    1    3    3    0  502 -0.38546070251E+02 -0.75866974244E+03 -0.12395224570E+04  0.14537817956E+04  0.10100000352E+00 0. -1.
</event>
<event>
 5   0  0.2488886E-04  0.2066637E+04  0.7818609E-02  0.8576084E-01
        2   -1    0    0  501    0  0.00000000000E+00  0.00000000000E+00  0.66825546082E+03  0.66825546082E+03  0.25500000920E-02 0. -1.
       -2   -1    0    0    0  501  0.00000000000E+00  0.00000000000E+00 -0.15978133252E+04  0.15978133252E+04  0.25500000920E-02 0.  1.
    10030    2    1    2    0    0  0.00000000000E+00  0.00000000000E+00 -0.92955786435E+03  0.22660687860E+04  0.20666373459E+04 0.  0.
        3    1    3    3  502    0 -0.53213994087E+03  0.70853164610E+03 -0.10476361837E+04  0.13721266682E+04  0.10100000352E+00 0.  1.
       -3    1    3    3    0  502  0.53213994087E+03 -0.70853164610E+03  0.11807831931E+03  0.89394211775E+03  0.10100000352E+00 0. -1.
</event>
<event>
 5   0  0.1258546E-04  0.2032885E+04  0.7818609E-02  0.8591398E-01
        1   -1    0    0  501    0  0.00000000000E+00  0.00000000000E+00  0.80936237332E+03  0.80936237334E+03  0.50400001928E-02 0. -1.
       -1   -1    0    0    0  501  0.00000000000E+00  0.00000000000E+00 -0.12765058034E+04  0.12765058034E+04  0.50400001928E-02 0.  1.
    10030    2    1    2    0    0  0.00000000000E+00  0.00000000000E+00 -0.46714343007E+03  0.20858681767E+04  0.20328854042E+04 0.  0.
        4    1    3    3  502    0  0.91046219786E+03 -0.72021711339E+02  0.22417838281E+03  0.94041804579E+03  0.12699999809E+01 0. -1.
       -4    1    3    3    0  502 -0.91046219786E+03  0.72021711339E+02 -0.69132181288E+03  0.11454501309E+04  0.12699999809E+01 0.  1.
</event>
<event>
 5   0  0.1207228E-04  0.1935265E+04  0.7818609E-02  0.8637499E-01
       -1   -1    0    0    0  501  0.00000000000E+00  0.00000000000E+00  0.65375838803E+03  0.65375838805E+03  0.50400001928E-02 0.  1.
        1   -1    0    0  501    0  0.00000000000E+00  0.00000000000E+00 -0.14322003935E+04  0.14322003935E+04  0.50400001928E-02 0. -1.
    10030    2    1    2    0    0  0.00000000000E+00  0.00000000000E+00 -0.77844200545E+03  0.20859587815E+04  0.19352653778E+04 0.  0.
        1    1    3    3  502    0 -0.49513744809E+03  0.75385345364E+03 -0.11418379391E+02  0.90199030010E+03  0.50400001928E-02 0.  1.
       -1    1    3    3    0  502  0.49513744809E+03 -0.75385345364E+03 -0.76702362606E+03  0.11839684814E+04  0.50400001928E-02 0. -1.
</event>
<event>
 5   0  0.2421737E-04  0.1934688E+04  0.7818609E-02  0.8637780E-01
       -2   -1    0    0    0  501  0.00000000000E+00  0.00000000000E+00  0.13781427881E+04  0.13781427881E+04  0.25500000920E-02 0. -1.
        2   -1    0    0  501    0  0.00000000000E+00  0.00000000000E+00 -0.67899668693E+03  0.67899668694E+03  0.25500000920E-02 0.  1.
    10030    2    1    2    0    0  0.00000000000E+00  0.00000000000E+00  0.69914610120E+03  0.20571394751E+04  0.19346879720E+04 0.  0.
        1    1    3    3  502    0 -0.93371194494E+03  0.46077360972E+02  0.61393178167E+03  0.11184155542E+04  0.50400001928E-02 0. -1.
       -1    1    3    3    0  502  0.93371194494E+03 -0.46077360972E+02  0.85214319523E+02  0.93872392086E+03  0.50400001928E-02 0.  1.
</event>
<event>
 5   0  0.1258546E-04  0.1947359E+04  0.7818609E-02  0.8631635E-01
       -1   -1    0    0    0  501  0.00000000000E+00  0.00000000000E+00  0.54790184472E+03  0.54790184474E+03  0.50400001928E-02 0. -1.
        1   -1    0    0  501    0  0.00000000000E+00  0.00000000000E+00 -0.17303315619E+04  0.17303315619E+04  0.50400001928E-02 0.  1.
    10030    2    1    2    0    0  0.00000000000E+00  0.00000000000E+00 -0.11824297172E+04  0.22782334067E+04  0.19473590884E+04 0.  0.
        4    1    3    3  502    0 -0.52583202590E+03  0.55968581659E+03  0.10907400495E+03  0.77565861319E+03  0.12699999809E+01 0.  1.
       -4    1    3    3    0  502  0.52583202590E+03 -0.55968581659E+03 -0.12915037222E+04  0.15025747935E+04  0.12699999809E+01 0. -1.
</event>
<event>
 5   0  0.2596061E-04  0.1997651E+04  0.7818609E-02  0.8607720E-01
       -2   -1    0    0    0  501  0.00000000000E+00  0.00000000000E+00  0.53710311380E+03  0.53710311381E+03  0.25500000920E-02 0. -1.
        2   -1    0    0  501    0  0.00000000000E+00  0.00000000000E+00 -0.18574694959E+04  0.18574694959E+04  0.25500000920E-02 0.  1.
    10030    2    1    2    0    0  0.00000000000E+00  0.00000000000E+00 -0.13203663821E+04  0.23945726097E+04  0.19976512709E+04 0.  0.
        5    1    3    3  502    0 -0.18848554720E+03  0.93874980120E+03 -0.31933950978E+03  0.10093452349E+04  0.46999998093E+01 0. -1.
       -5    1    3    3    0  502  0.18848554720E+03 -0.93874980120E+03 -0.10010268723E+04  0.13852273748E+04  0.46999998093E+01 0.  1.
</event>
<event>
 5   0  0.1210633E-04  0.2063092E+04  0.7818609E-02  0.8577678E-01
        1   -1    0    0  501    0  0.00000000000E+00  0.00000000000E+00  0.80665398849E+03  0.80665398850E+03  0.50400001928E-02 0.  1.
       -1   -1    0    0    0  501  0.00000000000E+00  0.00000000000E+00 -0.13191366682E+04  0.13191366682E+04  0.50400001928E-02 0. -1.
    10030    2    1    2    0    0  0.00000000000E+00  0.00000000000E+00 -0.51248267968E+03  0.21257906567E+04  0.20630917137E+04 0.  0.
        2    1    3    3  502    0 -0.79097645987E+03  0.10499679251E+03  0.41740003473E+03  0.90049479482E+03  0.25500000920E-02 0.  1.
       -2    1    3    3    0  502  0.79097645987E+03 -0.10499679251E+03 -0.92988271441E+03  0.12252958619E+04  0.25500000920E-02 0. -1.
</event>
<event>
 5   0  0.1324930E-04  0.2017771E+04  0.7818609E-02  0.8598357E-01
       -1   -1    0    0    0  501  0.00000000000E+00  0.00000000000E+00  0.11392278173E+04  0.11392278173E+04  0.50400001928E-02 0.  1.
        1   -1    0    0  501    0  0.00000000000E+00  0.00000000000E+00 -0.89345646168E+03  0.89345646170E+03  0.50400001928E-02 0. -1.
    10030    2    1    2    0    0  0.00000000000E+00  0.00000000000E+00  0.24577135559E+03  0.20326842790E+04  0.20177714982E+04 0.  0.
        5    1    3    3  502    0  0.25722772533E+03 -0.54671854331E+03  0.93679322711E+03  0.11147515008E+04  0.46999998093E+01 0.  1.
       -5    1    3    3    0  502 -0.25722772533E+03  0.54671854331E+03 -0.69102187152E+03  0.91793277814E+03  0.46999998093E+01 0. -1.
</event>
<event>
 5   0  0.1207228E-04  0.2012030E+04  0.7818609E-02  0.8601017E-01
       -1   -1    0    0    0  501  0.00000000000E+00  0.00000000000E+00  0.68722294873E+03  0.68722294875E+03  0.50400001928E-02 0.  1.
        1   -1    0    0  501    0  0.00000000000E+00  0.00000000000E+00 -0.14726890484E+04  0.14726890484E+04  0.50400001928E-02 0. -1.
    10030    2    1    2    0    0  0.00000000000E+00  0.00000000000E+00 -0.78546609963E+03  0.21599119971E+04  0.20120295330E+04 0.  0.
        1    1    3    3  502    0  0.35060077717E+03  0.82308585578E+03 -0.88662955812E+03  0.12595646884E+04  0.50400001928E-02 0. -1.
       -1    1    3    3    0  502 -0.35060077717E+03 -0.82308585578E+03  0.10116345850E+03  0.90034730871E+03  0.50400001928E-02 0.  1.
</event>
<event>
 5   0  0.2596061E-04  0.2057839E+04  0.7818609E-02  0.8580047E-01
        2   -1    0    0  501    0  0.00000000000E+00  0.00000000000E+00  0.59986041259E+03  0.59986041259E+03  0.25500000920E-02 0.  1.
       -2   -1    0    0    0  501  0.00000000000E+00  0.00000000000E+00 -0.17648688527E+04  0.17648688527E+04  0.25500000920E-02 0. -1.
    10030    2    1    2    0    0  0.00000000000E+00  0.00000000000E+00 -0.11650084401E+04  0.23647292653E+04  0.20578386313E+04 0.  0.
        5    1    3    3  502    0  0.50794497054E+03 -0.55517372827E+03 -0.13888865410E+04  0.15796372607E+04  0.46999998093E+01 0. -1.
       -5    1    3    3    0  502 -0.50794497054E+03  0.55517372827E+03  0.22387810086E+03  0.78509200460E+03  0.46999998093E+01 0.  1.
</event>
<event>
 5   0  0.1210633E-04  0.1933208E+04  0.7818609E-02  0.8638501E-01
       -1   -1    0    0    0  501  0.00000000000E+00  0.00000000000E+00  0.15371208768E+04  0.15371208768E+04  0.50400001928E-02 0. -1.
        1   -1    0    0  501    0  0.00000000000E+00  0.00000000000E+00 -0.60783979774E+03  0.60783979776E+03  0.50400001928E-02 0.  1.
    10030    2    1    2    0    0  0.00000000000E+00  0.00000000000E+00  0.92928107904E+03  0.21449606745E+04  0.19332079483E+04 0.  0.
        2    1    3    3  502    0 -0.25363352467E+03 -0.50891885870E+03  0.13319209667E+04  0.14482202288E+04  0.25500000920E-02 0. -1.
       -2    1    3    3    0  502  0.25363352467E+03  0.50891885870E+03 -0.40263988767E+03  0.69674044574E+03  0.25500000920E-02 0.  1.
</event>
<event>
 5   0  0.1231056E-04  0.2021288E+04  0.7818609E-02  0.8596732E-01
        1   -1    0    0  501    0  0.00000000000E+00  0.00000000000E+00  0.15565815990E+04  0.15565815990E+04  0.50400001928E-02 0. -1.
       -1   -1    0    0    0  501  0.00000000000E+00  0.00000000000E+00 -0.65618250189E+03  0.65618250191E+03  0.50400001928E-02 0.  1.
    10030    2    1    2    0    0  0.00000000000E+00  0.00000000000E+00  0.90039909713E+03  0.22127641009E+04  0.20212883100E+04 0.  0.
        3    1    3    3  502    0 -0.85999064718E+03 -0.50862518623E+03  0.61664922859E+03  0.11741123348E+04  0.10100000352E+00 0. -1.
       -3    1    3    3    0  502  0.85999064718E+03  0.50862518623E+03  0.28374986853E+03  0.10386517662E+04  0.10100000352E+00 0.  1.
</event>
<event>
 5   0  0.2488886E-04  0.2034024E+04  0.7818609E-02  0.8590876E-01
       -2   -1    0    0    0  501  0.00000000000E+00  0.00000000000E+00  0.16511978987E+04  0.16511978987E+04  0.25500000920E-02 0. -1.
        2   -1    0    0  501    0  0.00000000000E+00  0.00000000000E+00 -0.62640198758E+03  0.62640198758E+03  0.25500000920E-02 0.  1.
    10030    2    1    2    0    0  0.00000000000E+00  0.00000000000E+00  0.10247959111E+04  0.22775998863E+04  0.20340242335E+04 0.  0.
        3    1    3    3  502    0 -0.65459197360E+03 -0.40715940800E+03  0.12551937911E+04  0.14730176166E+04  0.10100000352E+00 0. -1.
       -3    1    3    3    0  502  0.65459197360E+03  0.40715940800E+03 -0.23039787995E+03  0.80458226970E+03  0.10100000352E+00 0.  1.
</event>
<event>
 5   0  0.2596061E-04  0.1999101E+04  0.7818609E-02  0.8607041E-01
       -2   -1    0    0    0  501  0.00000000000E+00  0.00000000000E+00  0.83263804073E+03  0.83263804074E+03  0.25500000920E-02 0.  1.
        2   -1    0    0  501    0  0.00000000000E+00  0.00000000000E+00 -0.11999228879E+04  0.11999228879E+04  0.25500000920E-02 0. -1.
    10030    2    1    2    0    0  0.00000000000E+00  0.00000000000E+00 -0.36728484721E+03  0.20325609287E+04  0.19991012405E+04 0.  0.
        5    1    3    3  502    0 -0.91686211279E+03 -0.37453271766E+03 -0.32068889774E+03  0.10410448355E+04  0.46999998093E+01 0. -1.
       -5    1    3    3    0  502  0.91686211279E+03  0.37453271766E+03 -0.46595949469E+02  0.99151609315E+03  0.46999998093E+01 0.  1.
</event>
<event>
 5   0  0.2421737E-04  0.1966844E+04  0.7818609E-02  0.8622281E-01
        2   -1    0    0  501    0  0.00000000000E+00  0.00000000000E+00  0.19339179245E+04  0.19339179245E+04  0.25500000920E-02 0.  1.
       -2   -1    0    0    0  501  0.00000000000E+00  0.00000000000E+00 -0.50008274955E+03  0.50008274955E+03  0.25500000920E-02 0. -1.
    10030    2    1    2    0    0  0.00000000000E+00  0.00000000000E+00  0.14338351750E+04  0.24340006741E+04  0.19668441658E+04 0.  0.
        1    1    3    3  502    0  0.21441415556E+03 -0.95128203516E+03  0.55936840264E+03  0.11241903533E+04  0.50400001928E-02 0.  1.
       -1    1    3    3    0  502 -0.21441415556E+03  0.95128203516E+03  0.87446677234E+03  0.13098103208E+04  0.50400001928E-02 0. -1.
</event>
<event>
 5   0  0.1258546E-04  0.1491883E+04  0.7818609E-02  0.8889868E-01
       -1   -1    0    0    0  501  0.00000000000E+00  0.00000000000E+00  0.58634156953E+03  0.58634156955E+03  0.50400001928E-02 0. -1.
        1   -1    0    0  501    0  0.00000000000E+00  0.00000000000E+00 -0.94898427027E+03  0.94898427028E+03  0.50400001928E-02 0.  1.
    10030    2    1    2    0    0  0.00000000000E+00  0.00000000000E+00 -0.36264270074E+03  0.15353258398E+04  0.14918832749E+04 0.  0.
        4    1    3    3  502    0  0.49012774074E+03  0.30920403793E+03 -0.66467335151E+03  0.88183026508E+03  0.12699999809E+01 0.  1.
       -4    1    3    3    0  502 -0.49012774074E+03 -0.30920403793E+03  0.30203065077E+03  0.65349557475E+03  0.12699999809E+01 0. -1.
</event>
<event>
 5   0  0.1231056E-04  0.1985907E+04  0.7818609E-02  0.8613238E-01
        1   -1    0    0  501    0  0.00000000000E+00  0.00000000000E+00  0.91232022775E+03  0.91232022777E+03  0.50400001928E-02 0.  1.
       -1   -1    0    0    0  501  0.00000000000E+00  0.00000000000E+00 -0.10807131607E+04  0.10807131607E+04  0.50400001928E-02 0. -1.
    10030    2    1    2    0    0  0.00000000000E+00  0.00000000000E+00 -0.16839293295E+03  0.19930333885E+04  0.19859068225E+04 0.  0.
        3    1    3    3  502    0 -0.44227167200E+03 -0.44256689051E+03 -0.85799305025E+03  0.10618953663E+04  0.10100000352E+00 0. -1.
       -3    1    3    3    0  502  0.44227167200E+03  0.44256689051E+03  0.68960011730E+03  0.93113802221E+03  0.10100000352E+00 0.  1.
</event>
<event>
 5   0  0.1207228E-04  0.1990557E+04  0.7818609E-02  0.8611048E-01
       -1   -1    0    0    0  501  0.00000000000E+00  0.00000000000E+00  0.62190797480E+03  0.62190797482E+03  0.50400001928E-02 0. -1.
        1   -1    0    0  501    0  0.00000000000E+00  0.00000000000E+00 -0.15928073911E+04  0.15928073911E+04  0.50400001928E-02 0.  1.
    10030    2    1    2    0    0  0.00000000000E+00  0.00000000000E+00 -0.97089941626E+03  0.22147153659E+04  0.19905573278E+04 0.  0.
        1    1    3    3  502    0 -0.39093338064E+03  0.16983296626E+03 -0.14861237942E+04  0.15460388340E+04  0.50400001928E-02 0.  1.
       -1    1    3    3    0  502  0.39093338064E+03 -0.16983296626E+03  0.51522437799E+03  0.66867653184E+03  0.50400001928E-02 0. -1.
</event>
<event>
 5   0  0.2463085E-04  0.2012125E+04  0.7818609E-02  0.8600973E-01
        2   -1    0    0  501    0  0.00000000000E+00  0.00000000000E+00  0.10604990902E+04  0.10604990902E+04  0.25500000920E-02 0. -1.
       -2   -1    0    0    0  501  0.00000000000E+00  0.00000000000E+00 -0.95441996011E+03  0.95441996012E+03  0.25500000920E-02 0.  1.
    10030    2    1    2    0    0  0.00000000000E+00  0.00000000000E+00  0.10607913009E+03  0.20149190503E+04  0.20121247470E+04 0.  0.
        2    1    3    3  502    0  0.47406268990E+03 -0.41485041429E+03 -0.73247646296E+03  0.96610458492E+03  0.25500000920E-02 0.  1.
       -2    1    3    3    0  502 -0.47406268990E+03  0.41485041429E+03  0.83855559305E+03  0.10488144654E+04  0.25500000920E-02 0. -1.
</event>
<event>
 5   0  0.1207228E-04  0.1843994E+04  0.7818609E-02  0.8683247E-01
       -1   -1    0    0    0  501  0.00000000000E+00  0.00000000000E+00  0.42144807503E+03  0.42144807506E+03  0.50400001928E-02 0. -1.
        1   -1    0    0  501    0  0.00000000000E+00  0.00000000000E+00 -0.20170428531E+04  0.20170428531E+04  0.50400001928E-02 0.  1.
    10030    2    1    2    0    0  0.00000000000E+00  0.00000000000E+00 -0.15955947781E+04  0.24384909282E+04  0.18439943902E+04 0.  0.
        1    1    3    3  502    0 -0.28710301551E+02 -0.44143566158E+03 -0.18675406965E+04  0.19192180642E+04  0.50400001928E-02 0.  1.
       -1    1    3    3    0  502  0.28710301551E+02  0.44143566158E+03  0.27194591842E+03  0.51927286401E+03  0.50400001928E-02 0. -1.
</event>
<event>
 5   0  0.9099125E-05  0.1994004E+04  0.7818609E-02  0.8609429E-01
        4   -1    0    0  501    0  0.00000000000E+00  0.00000000000E+00  0.59766943392E+03  0.59767078324E+03  0.12699999809E+01 0.  1.
       -4   -1    0    0    0  501  0.00000000000E+00  0.00000000000E+00 -0.16631443775E+04  0.16631448624E+04  0.12699999809E+01 0. -1.
    10030    2    1    2    0    0  0.00000000000E+00  0.00000000000E+00 -0.10654749436E+04  0.22608156456E+04  0.19940036430E+04 0.  0.
        2    1    3    3  502    0  0.89357433741E+03  0.12335587205E+03 -0.51275275271E+02  0.90350479883E+03  0.25500000920E-02 0.  1.
       -2    1    3    3    0  502 -0.89357433741E+03 -0.12335587205E+03 -0.10141996683E+04  0.13573108468E+04  0.25500000920E-02 0. -1.
</event>
<event>
 5   0  0.1258546E-04  0.1977324E+04  0.7818609E-02  0.8617297E-01
       -1   -1    0    0    0  501  0.00000000000E+00  0.00000000000E+00  0.33847520513E+03  0.33847520517E+03  0.50400001928E-02 0.  1.
        1   -1    0    0  501    0  0.00000000000E+00  0.00000000000E+00 -0.28878105806E+04  0.28878105806E+04  0.50400001928E-02 0. -1.
    10030    2    1    2    0    0  0.00000000000E+00  0.00000000000E+00 -0.25493353755E+04  0.32262857858E+04  0.19773237254E+04 0.  0.
        4    1    3    3  502    0 -0.61253530656E+02  0.15305823850E+03  0.31588840178E+03  0.35632276755E+03  0.12699999809E+01 0.  1.
       -4    1    3    3    0  502  0.61253530656E+02 -0.15305823850E+03 -0.28652237773E+04  0.28699630183E+04  0.12699999809E+01 0. -1.
</event>
<event>
 5   0  0.2421737E-04  0.2040491E+04  0.7818609E-02  0.8587921E-01
        2   -1    0    0  501    0  0.00000000000E+00  0.00000000000E+00  0.17224049374E+04  0.17224049374E+04  0.25500000920E-02 0.  1.
       -2   -1    0    0    0  501  0.00000000000E+00  0.00000000000E+00 -0.60432965531E+03  0.60432965531E+03  0.25500000920E-02 0. -1.
    10030    2    1    2    0    0  0.00000000000E+00  0.00000000000E+00  0.11180752821E+04  0.23267345927E+04  0.20404905117E+04 0.  0.
        1    1    3    3  502    0  0.20783021549E+03  0.93040449009E+03  0.97340812994E+03  0.13624864407E+04  0.50400001928E-02 0.  1.
       -1    1    3    3    0  502 -0.20783021549E+03 -0.93040449009E+03  0.14466715212E+03  0.96424815197E+03  0.50400001928E-02 0. -1.
</event>
<event>
 5   0  0.2488886E-04  0.1974824E+04  0.7818609E-02  0.8618482E-01
        2   -1    0    0  501    0  0.00000000000E+00  0.00000000000E+00  0.68890700271E+03  0.68890700272E+03  0.25500000920E-02 0.  1.
       -2   -1    0    0    0  501  0.00000000000E+00  0.00000000000E+00 -0.14152602243E+04  0.14152602243E+04  0.25500000920E-02 0. -1.
    10030    2    1    2    0    0  0.00000000000E+00  0.00000000000E+00 -0.72635322161E+03  0.21041672270E+04  0.19748242243E+04 0.  0.
        3    1    3    3  502    0 -0.90431851579E+03  0.70446134966E+02 -0.77889489311E+03  0.11955885164E+04  0.10100000352E+00 0. -1.
       -3    1    3    3    0  502  0.90431851579E+03 -0.70446134966E+02  0.52541671499E+02  0.90857871061E+03  0.10100000352E+00 0.  1.
</event>
<event>
 5   0  0.1210633E-04  0.1835329E+04  0.7818609E-02  0.8687734E-01
       -1   -1    0    0    0  501  0.00000000000E+00  0.00000000000E+00  0.13708297164E+04  0.13708297164E+04  0.50400001928E-02 0. -1.
        1   -1    0    0  501    0  0.00000000000E+00  0.00000000000E+00 -0.61430569315E+03  0.61430569317E+03  0.50400001928E-02 0.  1.
    10030    2    1    2    0    0  0.00000000000E+00  0.00000000000E+00  0.75652402328E+03  0.19851354096E+04  0.18353293973E+04 0.  0.
        2    1    3    3  502    0  0.34712841661E+03 -0.84726583399E+03  0.44450620257E+03  0.10178129962E+04  0.25500000920E-02 0. -1.
       -2    1    3    3    0  502 -0.34712841661E+03  0.84726583399E+03  0.31201782071E+03  0.96732241342E+03  0.25500000920E-02 0.  1.
</event>
<event>
 5   0  0.1324930E-04  0.1798544E+04  0.7818609E-02  0.8707074E-01
        1   -1    0    0  501    0  0.00000000000E+00  0.00000000000E+00  0.48818600380E+03  0.48818600382E+03  0.50400001928E-02 0.  1.
       -1   -1    0    0    0  501  0.00000000000E+00  0.00000000000E+00 -0.16565201587E+04  0.16565201587E+04  0.50400001928E-02 0. -1.
    10030    2    1    2    0    0  0.00000000000E+00  0.00000000000E+00 -0.11683341549E+04  0.21447061625E+04  0.17985438071E+04 0.  0.
        5    1    3    3  502    0  0.41668582583E+03 -0.43523854355E+03 -0.13801859528E+04  0.15059863949E+04  0.46999998093E+01 0. -1.
       -5    1    3    3    0  502 -0.41668582583E+03  0.43523854355E+03  0.21185179795E+03  0.63871976761E+03  0.46999998093E+01 0.  1.
</event>
<event>
 5   0  0.2596061E-04  0.1990077E+04  0.7818609E-02  0.8611274E-01
       -2   -1    0    0    0  501  0.00000000000E+00  0.00000000000E+00  0.96724291405E+03  0.96724291405E+03  0.25500000920E-02 0.  1.
        2   -1    0    0  501    0  0.00000000000E+00  0.00000000000E+00 -0.10236325812E+04  0.10236325812E+04  0.25500000920E-02 0. -1.
    10030    2    1    2    0    0  0.00000000000E+00  0.00000000000E+00 -0.56389667162E+02  0.19908754953E+04  0.19900767430E+04 0.  0.
        5    1    3    3  502    0 -0.13092757999E+03  0.56709860538E+03  0.77918324817E+03  0.97256952639E+03  0.46999998093E+01 0.  1.
       -5    1    3    3    0  502  0.13092757999E+03 -0.56709860538E+03 -0.83557291533E+03  0.10183059689E+04  0.46999998093E+01 0. -1.
</event>
<event>
 5   0  0.2421737E-04  0.1918256E+04  0.7818609E-02  0.8645822E-01
        2   -1    0    0  501    0  0.00000000000E+00  0.00000000000E+00  0.12526975612E+04  0.12526975612E+04  0.25500000920E-02 0.  1.
       -2   -1    0    0    0  501  0.00000000000E+00  0.00000000000E+00 -0.73435670441E+03  0.73435670441E+03  0.25500000920E-02 0. -1.
    10030    2    1    2    0    0  0.00000000000E+00  0.00000000000E+00  0.51834085682E+03  0.19870542656E+04  0.19182563465E+04 0.  0.
        1    1    3    3  502    0 -0.84652298149E+03 -0.17168966769E+03 -0.17273471269E+03  0.88086081828E+03  0.50400001928E-02 0. -1.
       -1    1    3    3    0  502  0.84652298149E+03  0.17168966769E+03  0.69107556952E+03  0.11061934474E+04  0.50400001928E-02 0.  1.
</event>
<event>
 5   0  0.9099125E-05  0.1790005E+04  0.7818609E-02  0.8711633E-01
        3   -1    0    0  501    0  0.00000000000E+00  0.00000000000E+00  0.68609893450E+03  0.68609894193E+03  0.10100000352E+00 0.  1.
       -3   -1    0    0    0  501  0.00000000000E+00  0.00000000000E+00 -0.11675124321E+04  0.11675124365E+04  0.10100000352E+00 0. -1.
    10030    2    1    2    0    0  0.00000000000E+00  0.00000000000E+00 -0.48141349758E+03  0.18536113784E+04  0.17900045213E+04 0.  0.
        2    1    3    3  502    0 -0.27307081958E+03  0.75866457152E+03  0.16154133603E+03  0.82233521622E+03  0.25500000920E-02 0.  1.
       -2    1    3    3    0  502  0.27307081958E+03 -0.75866457152E+03 -0.64295483361E+03  0.10312761622E+04  0.25500000920E-02 0. -1.
</event>
<event>
 5   0  0.1258546E-04  0.1996294E+04  0.7818609E-02  0.8608355E-01
       -1   -1    0    0    0  501  0.00000000000E+00  0.00000000000E+00  0.10320013923E+04  0.10320013923E+04  0.50400001928E-02 0.  1.
        1   -1    0    0  501    0  0.00000000000E+00  0.00000000000E+00 -0.96540333607E+03  0.96540333608E+03  0.50400001928E-02 0. -1.
    10030    2    1    2    0    0  0.00000000000E+00  0.00000000000E+00  0.66598056249E+02  0.19974047284E+04  0.19962941537E+04 0.  0.
        4    1    3    3  502    0  0.45386834858E+02 -0.11158498221E+03 -0.95810274432E+03  0.96564675456E+03  0.12699999809E+01 0. -1.
       -4    1    3    3    0  502 -0.45386834858E+02  0.11158498221E+03  0.10247008006E+04  0.10317579739E+04  0.12699999809E+01 0.  1.
</event>
<event>
 5   0  0.2540506E-04  0.2011963E+04  0.7818609E-02  0.8601048E-01
        2   -1    0    0  501    0  0.00000000000E+00  0.00000000000E+00  0.13487739146E+04  0.13487739146E+04  0.25500000920E-02 0. -1.
       -2   -1    0    0    0  501  0.00000000000E+00  0.00000000000E+00 -0.75031014792E+03  0.75031014792E+03  0.25500000920E-02 0.  1.
    10030    2    1    2    0    0  0.00000000000E+00  0.00000000000E+00  0.59846376664E+03  0.20990840625E+04  0.20119629771E+04 0.  0.
        4    1    3    3  502    0 -0.30489208718E+03 -0.57936941741E+03 -0.49762721061E+03  0.82235184702E+03  0.12699999809E+01 0.  1.
       -4    1    3    3    0  502  0.30489208718E+03  0.57936941741E+03  0.10960909773E+04  0.12767322155E+04  0.12699999809E+01 0. -1.
</event>
<event>
 5   0  0.2421737E-04  0.2022443E+04  0.7818609E-02  0.8596199E-01
       -2   -1    0    0    0  501  0.00000000000E+00  0.00000000000E+00  0.96700873936E+03  0.96700873937E+03  0.25500000920E-02 0. -1.
        2   -1    0    0  501    0  0.00000000000E+00  0.00000000000E+00 -0.10574559826E+04  0.10574559826E+04  0.25500000920E-02 0.  1.
    10030    2    1    2    0    0  0.00000000000E+00  0.00000000000E+00 -0.90447243239E+02  0.20244647220E+04  0.20224432518E+04 0.  0.
        1    1    3    3  502    0  0.85734909557E+03  0.25204541078E+03 -0.51897758070E+03  0.10333983211E+04  0.50400001928E-02 0.  1.
       -1    1    3    3    0  502 -0.85734909557E+03 -0.25204541078E+03  0.42853033746E+03  0.99106640086E+03  0.50400001928E-02 0. -1.
</event>
<event>
 5   0  0.2596061E-04  0.2011738E+04  0.7818609E-02  0.8601152E-01
        2   -1    0    0  501    0  0.00000000000E+00  0.00000000000E+00  0.15036475773E+04  0.15036475773E+04  0.25500000920E-02 0.  1.
       -2   -1    0    0    0  501  0.00000000000E+00  0.00000000000E+00 -0.67287873621E+03  0.67287873621E+03  0.25500000920E-02 0. -1.
    10030    2    1    2    0    0  0.00000000000E+00  0.00000000000E+00  0.83076884105E+03  0.21765263135E+04  0.20117380361E+04 0.  0.
        5    1    3    3  502    0 -0.27836947271E+02 -0.69005277206E+03 -0.37582104239E+03  0.78626412213E+03  0.46999998093E+01 0. -1.
       -5    1    3    3    0  502  0.27836947271E+02  0.69005277206E+03  0.12065898834E+04  0.13902621913E+04  0.46999998093E+01 0.  1.
</event>
<event>
 5   0  0.2596061E-04  0.2002977E+04  0.7818609E-02  0.8605230E-01
       -2   -1    0    0    0  501  0.00000000000E+00  0.00000000000E+00  0.11048714183E+04  0.11048714183E+04  0.25500000920E-02 0. -1.
        2   -1    0    0  501    0  0.00000000000E+00  0.00000000000E+00 -0.90777874624E+03  0.90777874624E+03  0.25500000920E-02 0.  1.
    10030    2    1    2    0    0  0.00000000000E+00  0.00000000000E+00  0.19709267203E+03  0.20126501645E+04  0.20029765758E+04 0.  0.
        5    1    3    3  502    0 -0.48716426613E+03  0.72446107921E+03  0.59161349361E+03  0.10546096402E+04  0.46999998093E+01 0. -1.
       -5    1    3    3    0  502  0.48716426613E+03 -0.72446107921E+03 -0.39452082157E+03  0.95804052427E+03  0.46999998093E+01 0.  1.
</event>
<event>
 5   0  0.2596061E-04  0.1638199E+04  0.7818609E-02  0.8797419E-01
       -2   -1    0    0    0  501  0.00000000000E+00  0.00000000000E+00  0.56718060470E+03  0.56718060471E+03  0.25500000920E-02 0.  1.
        2   -1    0    0  501    0  0.00000000000E+00  0.00000000000E+00 -0.11829106996E+04  0.11829106996E+04  0.25500000920E-02 0. -1.
    10030    2    1    2    0    0  0.00000000000E+00  0.00000000000E+00 -0.61573009488E+03  0.17500913043E+04  0.16381990183E+04 0.  0.
        5    1    3    3  502    0  0.34869792264E+03  0.68828636188E+03 -0.14181929533E+02  0.77171988074E+03  0.46999998093E+01 0.  1.
       -5    1    3    3    0  502 -0.34869792264E+03 -0.68828636188E+03 -0.60154816534E+03  0.97837142356E+03  0.46999998093E+01 0. -1.
</event>
<event>
 5   0  0.1324930E-04  0.2003791E+04  0.7818609E-02  0.8604850E-01
        1   -1    0    0  501    0  0.00000000000E+00  0.00000000000E+00  0.11444909196E+04  0.11444909196E+04  0.50400001928E-02 0. -1.
       -1   -1    0    0    0  501  0.00000000000E+00  0.00000000000E+00 -0.87706673133E+03  0.87706673135E+03  0.50400001928E-02 0.  1.
    10030    2    1    2    0    0  0.00000000000E+00  0.00000000000E+00  0.26742418825E+03  0.20215576509E+04  0.20037913164E+04 0.  0.
        5    1    3    3  502    0 -0.10200693960E+00 -0.92234349968E+03 -0.26097942646E+03  0.95856658237E+03  0.46999998093E+01 0.  1.
       -5    1    3    3    0  502  0.10200693960E+00  0.92234349968E+03  0.52840361470E+03  0.10629910686E+04  0.46999998093E+01 0. -1.
</event>
<event>
 5   0  0.2421737E-04  0.1793087E+04  0.7818609E-02  0.8709984E-01
        2   -1    0    0  501    0  0.00000000000E+00  0.00000000000E+00  0.13234461079E+04  0.13234461079E+04  0.25500000920E-02 0.  1.
       -2   -1    0    0    0  501  0.00000000000E+00  0.00000000000E+00 -0.60734663458E+03  0.60734663458E+03  0.25500000920E-02 0. -1.
    10030    2    1    2    0    0  0.00000000000E+00  0.00000000000E+00  0.71609947329E+03  0.19307927425E+04  0.17930873260E+04 0.  0.
        1    1    3    3  502    0 -0.26799317764E+03 -0.24803813906E+03 -0.52364151731E+03  0.63839149459E+03  0.50400001928E-02 0. -1.
       -1    1    3    3    0  502  0.26799317764E+03  0.24803813906E+03  0.12397409906E+04  0.12924012479E+04  0.50400001928E-02 0.  1.
</event>
<event>
 5   0  0.1210633E-04  0.2504590E+04  0.7818609E-02  0.8401352E-01
       -1   -1    0    0    0  501  0.00000000000E+00  0.00000000000E+00  0.15819207184E+04  0.15819207184E+04  0.50400001928E-02 0. -1.
        1   -1    0    0  501    0  0.00000000000E+00  0.00000000000E+00 -0.99135361702E+03  0.99135361704E+03  0.50400001928E-02 0.  1.
    10030    2    1    2    0    0  0.00000000000E+00  0.00000000000E+00  0.59056710136E+03  0.25732743354E+04  0.25045900471E+04 0.  0.
        2    1    3    3  502    0  0.63768281979E+03 -0.58990405668E+03 -0.63145953020E+03  0.10739493997E+04  0.25500000920E-02 0.  1.
       -2    1    3    3    0  502 -0.63768281979E+03  0.58990405668E+03  0.12220266316E+04  0.14993249358E+04  0.25500000920E-02 0. -1.
</event>
<event>
 5   0  0.1210633E-04  0.2115642E+04  0.7818609E-02  0.8554384E-01
       -1   -1    0    0    0  501  0.00000000000E+00  0.00000000000E+00  0.12748351660E+04  0.12748351661E+04  0.50400001928E-02 0.  1.
        1   -1    0    0  501    0  0.00000000000E+00  0.00000000000E+00 -0.87774903287E+03  0.87774903289E+03  0.50400001928E-02 0. -1.
    10030    2    1    2    0    0  0.00000000000E+00  0.00000000000E+00  0.39708613317E+03  0.21525841989E+04  0.21156420624E+04 0.  0.
        2    1    3    3  502    0  0.95109996207E+03  0.35677611620E+03 -0.10174598306E+03  0.10208979283E+04  0.25500000920E-02 0. -1.
       -2    1    3    3    0  502 -0.95109996207E+03 -0.35677611620E+03  0.49883211623E+03  0.11316862706E+04  0.25500000920E-02 0.  1.
</event>
<event>
 5   0  0.1231056E-04  0.1959326E+04  0.7818609E-02  0.8625877E-01
        1   -1    0    0  501    0  0.00000000000E+00  0.00000000000E+00  0.14192771706E+04  0.14192771706E+04  0.50400001928E-02 0.  1.
       -1   -1    0    0    0  501  0.00000000000E+00  0.00000000000E+00 -0.67621718768E+03  0.67621718769E+03  0.50400001928E-02 0. -1.
    10030    2    1    2    0    0  0.00000000000E+00  0.00000000000E+00  0.74305998295E+03  0.20954943583E+04  0.19593260238E+04 0.  0.
        3    1    3    3  502    0 -0.82197639544E+03 -0.45935897831E+03  0.82401976723E+02  0.94522270476E+03  0.10100000352E+00 0. -1.
       -3    1    3    3    0  502  0.82197639544E+03  0.45935897831E+03  0.66065800623E+03  0.11502716536E+04  0.10100000352E+00 0.  1.
</event>
<event>
 5   0  0.2421737E-04  0.2026192E+04  0.7818609E-02  0.8594472E-01
        2   -1    0    0  501    0  0.00000000000E+00  0.00000000000E+00  0.13768227025E+04  0.13768227025E+04  0.25500000920E-02 0. -1.
       -2   -1    0    0    0  501  0.00000000000E+00  0.00000000000E+00 -0.74545824558E+03  0.74545824559E+03  0.25500000920E-02 0.  1.
    10030    2    1    2    0    0  0.00000000000E+00  0.00000000000E+00  0.63136445690E+03  0.21222809481E+04  0.20261923268E+04 0.  0.
        1    1    3    3  502    0  0.28076690077E+03  0.81652257769E+03  0.87074210258E+03  0.12262670923E+04  0.50400001928E-02 0. -1.
       -1    1    3    3    0  502 -0.28076690077E+03 -0.81652257769E+03 -0.23937764569E+03  0.89601385576E+03  0.50400001928E-02 0.  1.
</event>
<event>
 5   0  0.1258546E-04  0.2007905E+04  0.7818609E-02  0.8602933E-01
       -1   -1    0    0    0  501  0.00000000000E+00  0.00000000000E+00  0.79468563855E+03  0.79468563856E+03  0.50400001928E-02 0.  1.
        1   -1    0    0  501    0  0.00000000000E+00  0.00000000000E+00 -0.12683268314E+04  0.12683268314E+04  0.50400001928E-02 0. -1.
    10030    2    1    2    0    0  0.00000000000E+00  0.00000000000E+00 -0.47364119289E+03  0.20630124700E+04  0.20079054937E+04 0.  0.
        4    1    3    3  502    0  0.43586616319E+02 -0.53654303673E+03  0.63386935302E+03  0.83160699431E+03  0.12699999809E+01 0.  1.
       -4    1    3    3    0  502 -0.43586616319E+02  0.53654303673E+03 -0.11075105459E+04  0.12314054757E+04  0.12699999809E+01 0. -1.
</event>
<event>
 5   0  0.1258546E-04  0.1981304E+04  0.7818609E-02  0.8615412E-01
       -1   -1    0    0    0  501  0.00000000000E+00  0.00000000000E+00  0.19199990742E+04  0.19199990742E+04  0.50400001928E-02 0. -1.
        1   -1    0    0  501    0  0.00000000000E+00  0.00000000000E+00 -0.51114171323E+03  0.51114171326E+03  0.50400001928E-02 0.  1.
    10030    2    1    2    0    0  0.00000000000E+00  0.00000000000E+00  0.14088573609E+04  0.24311407874E+04  0.19813042333E+04 0.  0.
        4    1    3    3  502    0  0.17650086835E+03 -0.68412846205E+03 -0.14764099502E+03  0.72179206523E+03  0.12699999809E+01 0. -1.
       -4    1    3    3    0  502 -0.17650086835E+03  0.68412846205E+03  0.15564983559E+04  0.17093487222E+04  0.12699999809E+01 0.  1.
</event>
<event>
 5   0  0.1324930E-04  0.1972269E+04  0.7818609E-02  0.8619697E-01
       -1   -1    0    0    0  501  0.00000000000E+00  0.00000000000E+00  0.62967876398E+03  0.62967876400E+03  0.50400001928E-02 0. -1.
        1   -1    0    0  501    0  0.00000000000E+00  0.00000000000E+00 -0.15443767971E+04  0.15443767971E+04  0.50400001928E-02 0.  1.
    10030    2    1    2    0    0  0.00000000000E+00  0.00000000000E+00 -0.91469803313E+03  0.21740555611E+04  0.19722690210E+04 0.  0.
        5    1    3    3  502    0 -0.64770820385E+03  0.57888492193E+03 -0.97179397969E+03  0.13034720170E+04  0.46999998093E+01 0.  1.
       -5    1    3    3    0  502  0.64770820385E+03 -0.57888492193E+03  0.57095946558E+02  0.87058354411E+03  0.46999998093E+01 0. -1.
</event>
<event>
 5   0  0.2463085E-04  0.1926620E+04  0.7818609E-02  0.8641718E-01
       -2   -1    0    0    0  501  0.00000000000E+00  0.00000000000E+00  0.12570783285E+04  0.12570783285E+04  0.25500000920E-02 0.  1.
        2   -1    0    0  501    0  0.00000000000E+00  0.00000000000E+00 -0.73819269609E+03  0.73819269610E+03  0.25500000920E-02 0. -1.
    10030    2    1    2    0    0  0.00000000000E+00  0.00000000000E+00  0.51888563238E+03  0.19952710246E+04  0.19266198800E+04 0.  0.
        2    1    3    3  502    0  0.32584449316E+03  0.37468105563E+03 -0.59544411906E+03  0.77531556550E+03  0.25500000920E-02 0. -1.
       -2    1    3    3    0  502 -0.32584449316E+03 -0.37468105563E+03  0.11143297514E+04  0.12199554591E+04  0.25500000920E-02 0.  1.
</event>
<event>
 5   0  0.2540506E-04  0.1893716E+04  0.7818609E-02  0.8657990E-01
        2   -1    0    0  501    0  0.00000000000E+00  0.00000000000E+00  0.10743632218E+04  0.10743632218E+04  0.25500000920E-02 0. -1.
       -2   -1    0    0    0  501  0.00000000000E+00  0.00000000000E+00 -0.83448541323E+03  0.83448541324E+03  0.25500000920E-02 0.  1.
    10030    2    1    2    0    0  0.00000000000E+00  0.00000000000E+00  0.23987780854E+03  0.19088486350E+04  0.18937163854E+04 0.  0.
        4    1    3    3  502    0 -0.64875752029E+03  0.11482088015E+03 -0.56554571233E+03  0.86828205112E+03  0.12699999809E+01 0.  1.
       -4    1    3    3    0  502  0.64875752029E+03 -0.11482088015E+03  0.80542352087E+03  0.10405665839E+04  0.12699999809E+01 0. -1.
</event>
<event>
 5   0  0.2596061E-04  0.1968771E+04  0.7818609E-02  0.8621362E-01
       -2   -1    0    0    0  501  0.00000000000E+00  0.00000000000E+00  0.12039828340E+04  0.12039828340E+04  0.25500000920E-02 0.  1.
        2   -1    0    0  501    0  0.00000000000E+00  0.00000000000E+00 -0.80484096134E+03  0.80484096135E+03  0.25500000920E-02 0. -1.
    10030    2    1    2    0    0  0.00000000000E+00  0.00000000000E+00  0.39914187268E+03  0.20088237954E+04  0.19687708872E+04 0.  0.
        5    1    3    3  502    0 -0.52633935330E+02  0.58619152365E+03  0.10046746757E+04  0.11643814356E+04  0.46999998093E+01 0. -1.
       -5    1    3    3    0  502  0.52633935330E+02 -0.58619152365E+03 -0.60553280300E+03  0.84444235981E+03  0.46999998093E+01 0.  1.
</event>
<event>
 5   0  0.2488886E-04  0.1984037E+04  0.7818609E-02  0.8614121E-01
        2   -1    0    0  501    0  0.00000000000E+00  0.00000000000E+00  0.63188097177E+03  0.63188097177E+03  0.25500000920E-02 0. -1.
       -2   -1    0    0    0  501  0.00000000000E+00  0.00000000000E+00 -0.15574144658E+04  0.15574144658E+04  0.25500000920E-02 0.  1.
    10030    2    1    2    0    0  0.00000000000E+00  0.00000000000E+00 -0.92553349401E+03  0.21892954376E+04  0.19840368606E+04 0.  0.
        3    1    3    3  502    0  0.39475891737E+03  0.59573246523E+03 -0.12219636760E+04  0.14156012887E+04  0.10100000352E+00 0.  1.
       -3    1    3    3    0  502 -0.39475891737E+03 -0.59573246523E+03  0.29643018198E+03  0.77369414884E+03  0.10100000352E+00 0. -1.
</event>
<event>
 5   0  0.2596061E-04  0.1943578E+04  0.7818609E-02  0.8633464E-01
        2   -1    0    0  501    0  0.00000000000E+00  0.00000000000E+00  0.13656058398E+04  0.13656058398E+04  0.25500000920E-02 0.  1.
       -2   -1    0    0    0  501  0.00000000000E+00  0.00000000000E+00 -0.69154169392E+03  0.69154169392E+03  0.25500000920E-02 0. -1.
    10030    2    1    2    0    0  0.00000000000E+00  0.00000000000E+00  0.67406414589E+03  0.20571475337E+04  0.19435775011E+04 0.  0.
        5    1    3    3  502    0 -0.24269392051E+03  0.67132136055E+03  0.10349392187E+04  0.12572565309E+04  0.46999998093E+01 0.  1.
       -5    1    3    3    0  502  0.24269392051E+03 -0.67132136055E+03 -0.36087507281E+03  0.79989100279E+03  0.46999998093E+01 0. -1.
</event>
<event>
 5   0  0.2463085E-04  0.1976966E+04  0.7818609E-02  0.8617466E-01
        2   -1    0    0  501    0  0.00000000000E+00  0.00000000000E+00  0.10184142047E+04  0.10184142047E+04  0.25500000920E-02 0. -1.
       -2   -1    0    0    0  501  0.00000000000E+00  0.00000000000E+00 -0.95943158610E+03  0.95943158610E+03  0.25500000920E-02 0.  1.
    10030    2    1    2    0    0  0.00000000000E+00  0.00000000000E+00  0.58982618625E+02  0.19778457908E+04  0.19769661158E+04 0.  0.
        2    1    3    3  502    0  0.73173148502E+02  0.94938709544E+03 -0.23597292809E+03  0.98100631468E+03  0.25500000920E-02 0. -1.
       -2    1    3    3    0  502 -0.73173148502E+02 -0.94938709544E+03  0.29495554671E+03  0.99683947614E+03  0.25500000920E-02 0.  1.
</event>
<event>
 5   0  0.1207228E-04  0.1410570E+04  0.7818609E-02  0.8946203E-01
        1   -1    0    0  501    0  0.00000000000E+00  0.00000000000E+00  0.53733998059E+03  0.53733998061E+03  0.50400001928E-02 0. -1.
       -1   -1    0    0    0  501  0.00000000000E+00  0.00000000000E+00 -0.92572072832E+03  0.92572072833E+03  0.50400001928E-02 0.  1.
    10030    2    1    2    0    0  0.00000000000E+00  0.00000000000E+00 -0.38838074773E+03  0.14630607089E+04  0.14105697547E+04 0.  0.
        1    1    3    3  502    0  0.65720179742E+03  0.20082921540E+03 -0.35877801136E+03  0.77522141208E+03  0.50400001928E-02 0.  1.
       -1    1    3    3    0  502 -0.65720179742E+03 -0.20082921540E+03 -0.29602736376E+02  0.68783929686E+03  0.50400001928E-02 0. -1.
</event>
<event>
 5   0  0.1258546E-04  0.2006684E+04  0.7818609E-02  0.8603502E-01
       -1   -1    0    0    0  501  0.00000000000E+00  0.00000000000E+00  0.10936993643E+04  0.10936993643E+04  0.50400001928E-02 0.  1.
        1   -1    0    0  501    0  0.00000000000E+00  0.00000000000E+00 -0.92044993803E+03  0.92044993804E+03  0.50400001928E-02 0. -1.
    10030    2    1    2    0    0  0.00000000000E+00  0.00000000000E+00  0.17324942630E+03  0.20141493024E+04  0.20066843420E+04 0.  0.
        4    1    3    3  502    0 -0.81932153553E+03 -0.57498419087E+03  0.17090012594E+02  0.10010935420E+04  0.12699999809E+01 0. -1.
       -4    1    3    3    0  502  0.81932153553E+03  0.57498419087E+03  0.15615941370E+03  0.10130557604E+04  0.12699999809E+01 0.  1.
</event>
<event>
 5   0  0.2540506E-04  0.2046879E+04  0.7818609E-02  0.8585012E-01
       -2   -1    0    0    0  501  0.00000000000E+00  0.00000000000E+00  0.59504210161E+03  0.59504210162E+03  0.25500000920E-02 0.  1.
        2   -1    0    0  501    0  0.00000000000E+00  0.00000000000E+00 -0.17602588121E+04  0.17602588121E+04  0.25500000920E-02 0. -1.
    10030    2    1    2    0    0  0.00000000000E+00  0.00000000000E+00 -0.11652167105E+04  0.23553009137E+04  0.20468786998E+04 0.  0.
        4    1    3    3  502    0 -0.38649219957E+03 -0.83867125650E+03 -0.74898203286E+02  0.92647560710E+03  0.12699999809E+01 0.  1.
       -4    1    3    3    0  502  0.38649219957E+03  0.83867125650E+03 -0.10903185072E+04  0.14288253066E+04  0.12699999809E+01 0. -1.
</event>
<event>
 5   0  0.2540506E-04  0.2022154E+04  0.7818609E-02  0.8596332E-01
        2   -1    0    0  501    0  0.00000000000E+00  0.00000000000E+00  0.12998957302E+04  0.12998957302E+04  0.25500000920E-02 0.  1.
       -2   -1    0    0    0  501  0.00000000000E+00  0.00000000000E+00 -0.78642993528E+03  0.78642993528E+03  0.25500000920E-02 0. -1.
    10030    2    1    2    0    0  0.00000000000E+00  0.00000000000E+00  0.51346579494E+03  0.20863256655E+04  0.20221542127E+04 0.  0.
        4    1    3    3  502    0  0.41254135261E+03 -0.61109973896E+02  0.12070214325E+04  0.12770384286E+04  0.12699999809E+01 0.  1.
       -4    1    3    3    0  502 -0.41254135261E+03  0.61109973896E+02 -0.69355563760E+03  0.80928723694E+03  0.12699999809E+01 0. -1.
</event>
<event>
 5   0  0.1210633E-04  0.2007918E+04  0.7818609E-02  0.8602928E-01
        1   -1    0    0  501    0  0.00000000000E+00  0.00000000000E+00  0.92667549697E+03  0.92667549698E+03  0.50400001928E-02 0. -1.
       -1   -1    0    0    0  501  0.00000000000E+00  0.00000000000E+00 -0.10876879888E+04  0.10876879888E+04  0.50400001928E-02 0.  1.
    10030    2    1    2    0    0  0.00000000000E+00  0.00000000000E+00 -0.16101249183E+03  0.20143634858E+04  0.20079181334E+04 0.  0.
        2    1    3    3  502    0  0.10180590324E+03  0.23310019754E+03 -0.10548259479E+04  0.10850612538E+04  0.25500000920E-02 0.  1.
       -2    1    3    3    0  502 -0.10180590324E+03 -0.23310019754E+03  0.89381345612E+03  0.92930223199E+03  0.25500000920E-02 0. -1.
</event>
<event>
 5   0  0.1210633E-04  0.1992382E+04  0.7818609E-02  0.8610191E-01
       -1   -1    0    0    0  501  0.00000000000E+00  0.00000000000E+00  0.10722991714E+04  0.10722991714E+04  0.50400001928E-02 0. -1.
        1   -1    0    0  501    0  0.00000000000E+00  0.00000000000E+00 -0.92548477992E+03  0.92548477993E+03  0.50400001928E-02 0.  1.
    10030    2    1    2    0    0  0.00000000000E+00  0.00000000000E+00  0.14681439144E+03  0.19977839513E+04  0.19923820544E+04 0.  0.
        2    1    3    3  502    0  0.19297329675E+03 -0.44877938783E+03  0.94395170697E+03  0.10628670930E+04  0.25500000920E-02 0. -1.
       -2    1    3    3    0  502 -0.19297329675E+03  0.44877938783E+03 -0.79713731553E+03  0.93491685834E+03  0.25500000920E-02 0.  1.
</event>
<event>
 5   0  0.2463085E-04  0.1989809E+04  0.7818609E-02  0.8611400E-01
       -2   -1    0    0    0  501  0.00000000000E+00  0.00000000000E+00  0.10635190488E+04  0.10635190488E+04  0.25500000920E-02 0. -1.
        2   -1    0    0  501    0  0.00000000000E+00  0.00000000000E+00 -0.93071627977E+03  0.93071627977E+03  0.25500000920E-02 0.  1.
    10030    2    1    2    0    0  0.00000000000E+00  0.00000000000E+00  0.13280276902E+03  0.19942353286E+04  0.19898085260E+04 0.  0.
        2    1    3    3  502    0  0.31626837354E+03  0.94228104084E+03  0.11026229942E+03  0.10000385086E+04  0.25500000920E-02 0.  1.
       -2    1    3    3    0  502 -0.31626837354E+03 -0.94228104084E+03  0.22540469600E+02  0.99419681995E+03  0.25500000920E-02 0. -1.
</event>
<event>
 5   0  0.2488886E-04  0.1973025E+04  0.7818609E-02  0.8619337E-01
        2   -1    0    0  501    0  0.00000000000E+00  0.00000000000E+00  0.15842953414E+04  0.15842953414E+04  0.25500000920E-02 0.  1.
       -2   -1    0    0    0  501  0.00000000000E+00  0.00000000000E+00 -0.61428405598E+03  0.61428405599E+03  0.25500000920E-02 0. -1.
    10030    2    1    2    0    0  0.00000000000E+00  0.00000000000E+00  0.97001128539E+03  0.21985793974E+04  0.19730254617E+04 0.  0.
        3    1    3    3  502    0 -0.48367093734E+03 -0.32013512232E+03 -0.40420631017E+03  0.70697017162E+03  0.10100000352E+00 0. -1.
       -3    1    3    3    0  502  0.48367093734E+03  0.32013512232E+03  0.13742175956E+04  0.14916092257E+04  0.10100000352E+00 0.  1.
</event>
<event>
 5   0  0.2463085E-04  0.1979766E+04  0.7818609E-02  0.8616140E-01
        2   -1    0    0  501    0  0.00000000000E+00  0.00000000000E+00  0.10944581139E+04  0.10944581139E+04  0.25500000920E-02 0. -1.
       -2   -1    0    0    0  501  0.00000000000E+00  0.00000000000E+00 -0.89529963140E+03  0.89529963140E+03  0.25500000920E-02 0.  1.
    10030    2    1    2    0    0  0.00000000000E+00  0.00000000000E+00  0.19915848249E+03  0.19897577453E+04  0.19797655881E+04 0.  0.
        2    1    3    3  502    0  0.24974852220E+03  0.91231867961E+03  0.39288817463E+03  0.10242366989E+04  0.25500000920E-02 0. -1.
       -2    1    3    3    0  502 -0.24974852220E+03 -0.91231867961E+03 -0.19372969214E+03  0.96552104644E+03  0.25500000920E-02 0.  1.
</event>
<event>
 5   0  0.2421737E-04  0.1681659E+04  0.7818609E-02  0.8771895E-01
       -2   -1    0    0    0  501  0.00000000000E+00  0.00000000000E+00  0.56007803594E+03  0.56007803595E+03  0.25500000920E-02 0.  1.
        2   -1    0    0  501    0  0.00000000000E+00  0.00000000000E+00 -0.12623138847E+04  0.12623138847E+04  0.25500000920E-02 0. -1.
    10030    2    1    2    0    0  0.00000000000E+00  0.00000000000E+00 -0.70223584873E+03  0.18223919206E+04  0.16816590395E+04 0.  0.
        1    1    3    3  502    0 -0.70021493076E+02 -0.13429714014E+03  0.54517407676E+03  0.56582108952E+03  0.50400001928E-02 0.  1.
       -1    1    3    3    0  502  0.70021493076E+02  0.13429714014E+03 -0.12474099255E+04  0.12565708311E+04  0.50400001928E-02 0. -1.
</event>
<event>
 5   0  0.1231056E-04  0.2011948E+04  0.7818609E-02  0.8601055E-01
       -1   -1    0    0    0  501  0.00000000000E+00  0.00000000000E+00  0.12370350121E+04  0.12370350121E+04  0.50400001928E-02 0.  1.
        1   -1    0    0  501    0  0.00000000000E+00  0.00000000000E+00 -0.81807162067E+03  0.81807162068E+03  0.50400001928E-02 0. -1.
    10030    2    1    2    0    0  0.00000000000E+00  0.00000000000E+00  0.41896339143E+03  0.20551066328E+04  0.20119475512E+04 0.  0.
        3    1    3    3  502    0  0.65684755676E+03  0.16788782839E+03  0.96862571336E+03  0.11823158709E+04  0.10100000352E+00 0.  1.
       -3    1    3    3    0  502 -0.65684755676E+03 -0.16788782839E+03 -0.54966232192E+03  0.87279076192E+03  0.10100000352E+00 0. -1.
</event>
<event>
 5   0  0.2596061E-04  0.2001263E+04  0.7818609E-02  0.8606030E-01
        2   -1    0    0  501    0  0.00000000000E+00  0.00000000000E+00  0.94090474781E+03  0.94090474781E+03  0.25500000920E-02 0.  1.
       -2   -1    0    0    0  501  0.00000000000E+00  0.00000000000E+00 -0.10641496334E+04  0.10641496334E+04  0.25500000920E-02 0. -1.
    10030    2    1    2    0    0  0.00000000000E+00  0.00000000000E+00 -0.12324488562E+03  0.20050543812E+04  0.20012630437E+04 0.  0.
        5    1    3    3  502    0  0.16340146158E+03  0.64660742038E+02  0.92531242208E+03  0.94186316292E+03  0.46999998093E+01 0.  1.
       -5    1    3    3    0  502 -0.16340146158E+03 -0.64660742038E+02 -0.10485573077E+04  0.10631912183E+04  0.46999998093E+01 0. -1.
</event>
<event>
 5   0  0.2540506E-04  0.1902998E+04  0.7818609E-02  0.8653365E-01
        2   -1    0    0  501    0  0.00000000000E+00  0.00000000000E+00  0.17056668635E+04  0.17056668635E+04  0.25500000920E-02 0.  1.
       -2   -1    0    0    0  501  0.00000000000E+00  0.00000000000E+00 -0.53078978243E+03  0.53078978243E+03  0.25500000920E-02 0. -1.
    10030    2    1    2    0    0  0.00000000000E+00  0.00000000000E+00  0.11748770811E+04  0.22364566459E+04  0.19029982064E+04 0.  0.
        4    1    3    3  502    0  0.49032741435E+02  0.36661182635E+03 -0.44284196192E+03  0.57699138389E+03  0.12699999809E+01 0. -1.
       -4    1    3    3    0  502 -0.49032741435E+02 -0.36661182635E+03  0.16177190430E+04  0.16594652620E+04  0.12699999809E+01 0.  1.
</event>
<event>
 5   0  0.2463085E-04  0.1973118E+04  0.7818609E-02  0.8619293E-01
        2   -1    0    0  501    0  0.00000000000E+00  0.00000000000E+00  0.10341763432E+04  0.10341763432E+04  0.25500000920E-02 0.  1.
       -2   -1    0    0    0  501  0.00000000000E+00  0.00000000000E+00 -0.94113421647E+03  0.94113421647E+03  0.25500000920E-02 0. -1.
    10030    2    1    2    0    0  0.00000000000E+00  0.00000000000E+00  0.93042126736E+02  0.19753105597E+04  0.19731180831E+04 0.  0.
        2    1    3    3  502    0 -0.47112613878E+02 -0.91433434822E+03  0.41445065856E+03  0.10049856950E+04  0.25500000920E-02 0.  1.
       -2    1    3    3    0  502  0.47112613878E+02  0.91433434822E+03 -0.32140853183E+03  0.97032486470E+03  0.25500000920E-02 0. -1.
</event>
<event>
 5   0  0.1231056E-04  0.2000405E+04  0.7818609E-02  0.8606431E-01
        1   -1    0    0  501    0  0.00000000000E+00  0.00000000000E+00  0.94211999672E+03  0.94211999673E+03  0.50400001928E-02 0.  1.
       -1   -1    0    0    0  501  0.00000000000E+00  0.00000000000E+00 -0.10618661972E+04  0.10618661972E+04  0.50400001928E-02 0. -1.
    10030    2    1    2    0    0  0.00000000000E+00  0.00000000000E+00 -0.11974620049E+03  0.20039861939E+04  0.20004053372E+04 0.  0.
        3    1    3    3  502    0  0.85733890920E+03  0.94151613016E+02  0.44750250124E+03  0.97167537289E+03  0.10100000352E+00 0.  1.
       -3    1    3    3    0  502 -0.85733890920E+03 -0.94151613016E+02 -0.56724870173E+03  0.10323108211E+04  0.10100000352E+00 0. -1.
</event>
<event>
 5   0  0.1324930E-04  0.2283292E+04  0.7818609E-02  0.8484538E-01
       -1   -1    0    0    0  501  0.00000000000E+00  0.00000000000E+00  0.27339598210E+04  0.27339598210E+04  0.50400001928E-02 0. -1.
        1   -1    0    0  501    0  0.00000000000E+00  0.00000000000E+00 -0.47672795477E+03  0.47672795479E+03  0.50400001928E-02 0.  1.
    10030    2    1    2    0    0  0.00000000000E+00  0.00000000000E+00  0.22572318662E+04  0.32106877758E+04  0.22832915486E+04 0.  0.
        5    1    3    3  502    0 -0.65144668344E+03  0.41959411215E+03  0.23075260417E+04  0.24341611540E+04  0.46999998093E+01 0. -1.
       -5    1    3    3    0  502  0.65144668344E+03 -0.41959411215E+03 -0.50294175475E+02  0.77652662183E+03  0.46999998093E+01 0.  1.
</event>
<event>
 5   0  0.2421737E-04  0.1628525E+04  0.7818609E-02  0.8803213E-01
       -2   -1    0    0    0  501  0.00000000000E+00  0.00000000000E+00  0.41782270850E+03  0.41782270851E+03  0.25500000920E-02 0. -1.
        2   -1    0    0  501    0  0.00000000000E+00  0.00000000000E+00 -0.15868534673E+04  0.15868534673E+04  0.25500000920E-02 0.  1.
    10030    2    1    2    0    0  0.00000000000E+00  0.00000000000E+00 -0.11690307588E+04  0.20046761758E+04  0.16285249936E+04 0.  0.
        1    1    3    3  502    0 -0.38623296567E+03 -0.25566480400E+02 -0.14663568706E+04  0.15165856457E+04  0.50400001928E-02 0.  1.
       -1    1    3    3    0  502  0.38623296567E+03  0.25566480400E+02  0.29732611189E+03  0.48809053005E+03  0.50400001928E-02 0. -1.
</event>
<event>
 5   0  0.2596061E-04  0.1965154E+04  0.7818609E-02  0.8623088E-01
        2   -1    0    0  501    0  0.00000000000E+00  0.00000000000E+00  0.96383947933E+03  0.96383947934E+03  0.25500000920E-02 0. -1.
       -2   -1    0    0    0  501  0.00000000000E+00  0.00000000000E+00 -0.10016792348E+04  0.10016792348E+04  0.25500000920E-02 0.  1.
    10030    2    1    2    0    0  0.00000000000E+00  0.00000000000E+00 -0.37839755495E+02  0.19655187142E+04  0.19651544389E+04 0.  0.
        5    1    3    3  502    0 -0.14082365711E+03 -0.73534314545E+03  0.61749600301E+03  0.97050721156E+03  0.46999998093E+01 0. -1.
       -5    1    3    3    0  502  0.14082365711E+03  0.73534314545E+03 -0.65533575850E+03  0.99501150261E+03  0.46999998093E+01 0.  1.
</event>
<event>
 5   0  0.2596061E-04  0.1967542E+04  0.7818609E-02  0.8621948E-01
       -2   -1    0    0    0  501  0.00000000000E+00  0.00000000000E+00  0.10442405471E+04  0.10442405471E+04  0.25500000920E-02 0.  1.
        2   -1    0    0  501    0  0.00000000000E+00  0.00000000000E+00 -0.92680342897E+03  0.92680342898E+03  0.25500000920E-02 0. -1.
    10030    2    1    2    0    0  0.00000000000E+00  0.00000000000E+00  0.11743711812E+03  0.19710439761E+04  0.19675423449E+04 0.  0.
        5    1    3    3  502    0  0.67914421527E+02 -0.83359303765E+03  0.57761134442E+03  0.10164382304E+04  0.46999998093E+01 0.  1.
       -5    1    3    3    0  502 -0.67914421527E+02  0.83359303765E+03 -0.46017422630E+03  0.95460574565E+03  0.46999998093E+01 0. -1.
</event>
<event>
 5   0  0.1258546E-04  0.1980099E+04  0.7818609E-02  0.8615982E-01
       -1   -1    0    0    0  501  0.00000000000E+00  0.00000000000E+00  0.88348318125E+03  0.88348318126E+03  0.50400001928E-02 0.  1.
        1   -1    0    0  501    0  0.00000000000E+00  0.00000000000E+00 -0.11094694876E+04  0.11094694877E+04  0.50400001928E-02 0. -1.
    10030    2    1    2    0    0  0.00000000000E+00  0.00000000000E+00 -0.22598630639E+03  0.19929526689E+04  0.19800986162E+04 0.  0.
        4    1    3    3  502    0  0.73782323954E+02 -0.90856350440E+02  0.87649475098E+03  0.88427561831E+03  0.12699999809E+01 0.  1.
       -4    1    3    3    0  502 -0.73782323954E+02  0.90856350440E+02 -0.11024810574E+04  0.11086770506E+04  0.12699999809E+01 0. -1.
</event>
<event>
 5   0  0.1258546E-04  0.1947440E+04  0.7818609E-02  0.8631596E-01
        1   -1    0    0  501    0  0.00000000000E+00  0.00000000000E+00  0.13089820532E+04  0.13089820532E+04  0.50400001928E-02 0.  1.
       -1   -1    0    0    0  501  0.00000000000E+00  0.00000000000E+00 -0.72432690503E+03  0.72432690505E+03  0.50400001928E-02 0. -1.
    10030    2    1    2    0    0  0.00000000000E+00  0.00000000000E+00  0.58465514813E+03  0.20333089582E+04  0.19474402885E+04 0.  0.
        4    1    3    3  502    0 -0.87859334086E+03  0.18095802763E+03  0.68778565936E+03  0.11303640088E+04  0.12699999809E+01 0.  1.
       -4    1    3    3    0  502  0.87859334086E+03 -0.18095802763E+03 -0.10313051124E+03  0.90294494938E+03  0.12699999809E+01 0. -1.
</event>
<event>
 5   0  0.1210633E-04  0.2067442E+04  0.7818609E-02  0.8575723E-01
       -1   -1    0    0    0  501  0.00000000000E+00  0.00000000000E+00  0.62300600477E+03  0.62300600479E+03  0.50400001928E-02 0.  1.
        1   -1    0    0  501    0  0.00000000000E+00  0.00000000000E+00 -0.17151987342E+04  0.17151987342E+04  0.50400001928E-02 0. -1.
    10030    2    1    2    0    0  0.00000000000E+00  0.00000000000E+00 -0.10921927295E+04  0.23382047390E+04  0.20674420048E+04 0.  0.
        2    1    3    3  502    0  0.61448502960E+03 -0.44289837422E+03  0.24947008657E+03  0.79748739525E+03  0.25500000920E-02 0.  1.
       -2    1    3    3    0  502 -0.61448502960E+03  0.44289837422E+03 -0.13416628160E+04  0.15407173438E+04  0.25500000920E-02 0. -1.
</event>
<event>
 5   0  0.2421737E-04  0.1985515E+04  0.7818609E-02  0.8613423E-01
       -2   -1    0    0    0  501  0.00000000000E+00  0.00000000000E+00  0.58638007618E+03  0.58638007618E+03  0.25500000920E-02 0.  1.
        2   -1    0    0  501    0  0.00000000000E+00  0.00000000000E+00 -0.16807653111E+04  0.16807653111E+04  0.25500000920E-02 0. -1.
    10030    2    1    2    0    0  0.00000000000E+00  0.00000000000E+00 -0.10943852349E+04  0.22671453873E+04  0.19855148362E+04 0.  0.
        1    1    3    3  502    0  0.53335766845E+03  0.61840552862E+03 -0.11917741236E+04  0.14447218978E+04  0.50400001928E-02 0. -1.
       -1    1    3    3    0  502 -0.53335766845E+03 -0.61840552862E+03  0.97388888699E+02  0.82242348944E+03  0.50400001928E-02 0.  1.
</event>
<event>
 5   0  0.2596061E-04  0.1919126E+04  0.7818609E-02  0.8645394E-01
       -2   -1    0    0    0  501  0.00000000000E+00  0.00000000000E+00  0.12334044841E+04  0.12334044841E+04  0.25500000920E-02 0. -1.
        2   -1    0    0  501    0  0.00000000000E+00  0.00000000000E+00 -0.74651981012E+03  0.74651981013E+03  0.25500000920E-02 0.  1.
    10030    2    1    2    0    0  0.00000000000E+00  0.00000000000E+00  0.48688467399E+03  0.19799242942E+04  0.19191257190E+04 0.  0.
        5    1    3    3  502    0 -0.56181342899E+02 -0.24430896131E+03 -0.71212737101E+03  0.75497728073E+03  0.46999998093E+01 0.  1.
       -5    1    3    3    0  502  0.56181342899E+02  0.24430896131E+03  0.11990120450E+04  0.12249470135E+04  0.46999998093E+01 0. -1.
</event>
<event>
 5   0  0.2488886E-04  0.2005712E+04  0.7818609E-02  0.8603955E-01
        2   -1    0    0  501    0  0.00000000000E+00  0.00000000000E+00  0.15385198633E+04  0.15385198633E+04  0.25500000920E-02 0. -1.
       -2   -1    0    0    0  501  0.00000000000E+00  0.00000000000E+00 -0.65369355917E+03  0.65369355917E+03  0.25500000920E-02 0.  1.
    10030    2    1    2    0    0  0.00000000000E+00  0.00000000000E+00  0.88482630410E+03  0.21922134224E+04  0.20057123675E+04 0.  0.
        3    1    3    3  502    0  0.59101352892E+03  0.31722896769E+02 -0.44244384841E+03  0.73895866105E+03  0.10100000352E+00 0.  1.
       -3    1    3    3    0  502 -0.59101352892E+03 -0.31722896769E+02  0.13272701525E+04  0.14532547614E+04  0.10100000352E+00 0. -1.
</event>
<event>
 5   0  0.1258546E-04  0.2002987E+04  0.7818609E-02  0.8605225E-01
       -1   -1    0    0    0  501  0.00000000000E+00  0.00000000000E+00  0.11029814132E+04  0.11029814132E+04  0.50400001928E-02 0.  1.
        1   -1    0    0  501    0  0.00000000000E+00  0.00000000000E+00 -0.90934387589E+03  0.90934387591E+03  0.50400001928E-02 0. -1.
    10030    2    1    2    0    0  0.00000000000E+00  0.00000000000E+00  0.19363753730E+03  0.20123252891E+04  0.20029871626E+04 0.  0.
        4    1    3    3  502    0 -0.92457611083E+03  0.32101837323E+03  0.31016226015E+03  0.10266917849E+04  0.12699999809E+01 0.  1.
       -4    1    3    3    0  502  0.92457611083E+03 -0.32101837323E+03 -0.11652472285E+03  0.98563350420E+03  0.12699999809E+01 0. -1.
</event>
<event>
 5   0  0.2421737E-04  0.2047267E+04  0.7818609E-02  0.8584835E-01
       -2   -1    0    0    0  501  0.00000000000E+00  0.00000000000E+00  0.63576001709E+03  0.63576001709E+03  0.25500000920E-02 0. -1.
        2   -1    0    0  501    0  0.00000000000E+00  0.00000000000E+00 -0.16481457965E+04  0.16481457965E+04  0.25500000920E-02 0.  1.
    10030    2    1    2    0    0  0.00000000000E+00  0.00000000000E+00 -0.10123857794E+04  0.22839058136E+04  0.20472666654E+04 0.  0.
        1    1    3    3  502    0 -0.82331066418E+03  0.45978992823E+03 -0.61945172845E+02  0.94503144515E+03  0.50400001928E-02 0. -1.
       -1    1    3    3    0  502  0.82331066418E+03 -0.45978992823E+03 -0.95044060659E+03  0.13388743685E+04  0.50400001928E-02 0.  1.
</event>
<event>
 5   0  0.1258546E-04  0.2006057E+04  0.7818609E-02  0.8603794E-01
       -1   -1    0    0    0  501  0.00000000000E+00  0.00000000000E+00  0.99470226231E+03  0.99470226233E+03  0.50400001928E-02 0. -1.
        1   -1    0    0  501    0  0.00000000000E+00  0.00000000000E+00 -0.10114248059E+04  0.10114248060E+04  0.50400001928E-02 0.  1.
    10030    2    1    2    0    0  0.00000000000E+00  0.00000000000E+00 -0.16722543630E+02  0.20061270683E+04  0.20060573697E+04 0.  0.
        4    1    3    3  502    0  0.93942783449E+03 -0.27527450212E+03  0.21019659496E+03  0.10012416937E+04  0.12699999809E+01 0. -1.
       -4    1    3    3    0  502 -0.93942783449E+03  0.27527450212E+03 -0.22691913859E+03  0.10048853746E+04  0.12699999809E+01 0.  1.
</event>
<event>
 5   0  0.2488886E-04  0.2025939E+04  0.7818609E-02  0.8594589E-01
       -2   -1    0    0    0  501  0.00000000000E+00  0.00000000000E+00  0.89465520668E+03  0.89465520669E+03  0.25500000920E-02 0.  1.
        2   -1    0    0  501    0  0.00000000000E+00  0.00000000000E+00 -0.11469298745E+04  0.11469298745E+04  0.25500000920E-02 0. -1.
    10030    2    1    2    0    0  0.00000000000E+00  0.00000000000E+00 -0.25227466777E+03  0.20415850811E+04  0.20259385814E+04 0.  0.
        3    1    3    3  502    0  0.15631331022E+02 -0.86657245966E+03  0.40223505726E+03  0.95550259960E+03  0.10100000352E+00 0.  1.
       -3    1    3    3    0  502 -0.15631331022E+02  0.86657245966E+03 -0.65450972503E+03  0.10860824815E+04  0.10100000352E+00 0. -1.
</event>
<event>
 5   0  0.2540506E-04  0.1944368E+04  0.7818609E-02  0.8633082E-01
       -2   -1    0    0    0  501  0.00000000000E+00  0.00000000000E+00  0.60880477366E+03  0.60880477366E+03  0.25500000920E-02 0.  1.
        2   -1    0    0  501    0  0.00000000000E+00  0.00000000000E+00 -0.15524540514E+04  0.15524540514E+04  0.25500000920E-02 0. -1.
    10030    2    1    2    0    0  0.00000000000E+00  0.00000000000E+00 -0.94364927774E+03  0.21612588251E+04  0.19443676992E+04 0.  0.
        4    1    3    3  502    0  0.82827277761E+03 -0.49496830249E+03 -0.33978686410E+03  0.10229790518E+04  0.12699999809E+01 0.  1.
       -4    1    3    3    0  502 -0.82827277761E+03  0.49496830249E+03 -0.60386241364E+03  0.11382797732E+04  0.12699999809E+01 0. -1.
</event>
<event>
 5   0  0.1207228E-04  0.2297697E+04  0.7818609E-02  0.8478830E-01
        1   -1    0    0  501    0  0.00000000000E+00  0.00000000000E+00  0.15376691118E+04  0.15376691118E+04  0.50400001928E-02 0. -1.
       -1   -1    0    0    0  501  0.00000000000E+00  0.00000000000E+00 -0.85834668244E+03  0.85834668246E+03  0.50400001928E-02 0.  1.
    10030    2    1    2    0    0  0.00000000000E+00  0.00000000000E+00  0.67932242939E+03  0.23960157943E+04  0.22976972654E+04 0.  0.
        1    1    3    3  502    0 -0.35383242188E+03  0.49821051001E+03 -0.67481972349E+03  0.91038055465E+03  0.50400001928E-02 0.  1.
       -1    1    3    3    0  502  0.35383242188E+03 -0.49821051001E+03  0.13541421529E+04  0.14856352397E+04  0.50400001928E-02 0. -1.
</event>
<event>
 5   0  0.2421737E-04  0.2014165E+04  0.7818609E-02  0.8600026E-01
       -2   -1    0    0    0  501  0.00000000000E+00  0.00000000000E+00  0.15281870128E+04  0.15281870128E+04  0.25500000920E-02 0.  1.
        2   -1    0    0  501    0  0.00000000000E+00  0.00000000000E+00 -0.66367228766E+03  0.66367228767E+03  0.25500000920E-02 0. -1.
    10030    2    1    2    0    0  0.00000000000E+00  0.00000000000E+00  0.86451472518E+03  0.21918593005E+04  0.20141652075E+04 0.  0.
        1    1    3    3  502    0 -0.69069941951E+03  0.21755862846E+03  0.11938713654E+04  0.13963259942E+04  0.50400001928E-02 0.  1.
       -1    1    3    3    0  502  0.69069941951E+03 -0.21755862846E+03 -0.32935664023E+03  0.79553330630E+03  0.50400001928E-02 0. -1.
</event>
<event>
 5   0  0.1324930E-04  0.1989367E+04  0.7818609E-02  0.8611608E-01
        1   -1    0    0  501    0  0.00000000000E+00  0.00000000000E+00  0.13596294232E+04  0.13596294232E+04  0.50400001928E-02 0.  1.
       -1   -1    0    0    0  501  0.00000000000E+00  0.00000000000E+00 -0.72769446241E+03  0.72769446243E+03  0.50400001928E-02 0. -1.
    10030    2    1    2    0    0  0.00000000000E+00  0.00000000000E+00  0.63193496080E+03  0.20873238857E+04  0.19893665346E+04 0.  0.
        5    1    3    3  502    0 -0.41382488970E+03  0.85303551185E+03  0.63152921472E+03  0.11391979033E+04  0.46999998093E+01 0.  1.
       -5    1    3    3    0  502  0.41382488970E+03 -0.85303551185E+03  0.40574607474E+00  0.94812598236E+03  0.46999998093E+01 0. -1.
</event>
<event>
 5   0  0.1324930E-04  0.2011758E+04  0.7818609E-02  0.8601143E-01
       -1   -1    0    0    0  501  0.00000000000E+00  0.00000000000E+00  0.68761071978E+03  0.68761071980E+03  0.50400001928E-02 0.  1.
        1   -1    0    0  501    0  0.00000000000E+00  0.00000000000E+00 -0.14714617202E+04  0.14714617202E+04  0.50400001928E-02 0. -1.
    10030    2    1    2    0    0  0.00000000000E+00  0.00000000000E+00 -0.78385100043E+03  0.21590724400E+04  0.20117582883E+04 0.  0.
        5    1    3    3  502    0 -0.43482465913E+03 -0.18655464427E+02  0.58131422956E+03  0.72620164832E+03  0.46999998093E+01 0.  1.
       -5    1    3    3    0  502  0.43482465913E+03  0.18655464427E+02 -0.13651652300E+04  0.14328707917E+04  0.46999998093E+01 0. -1.
</event>
<event>
 5   0  0.1258546E-04  0.2019722E+04  0.7818609E-02  0.8597455E-01
        1   -1    0    0  501    0  0.00000000000E+00  0.00000000000E+00  0.10807388614E+04  0.10807388614E+04  0.50400001928E-02 0.  1.
       -1   -1    0    0    0  501  0.00000000000E+00  0.00000000000E+00 -0.94363106286E+03  0.94363106288E+03  0.50400001928E-02 0. -1.
    10030    2    1    2    0    0  0.00000000000E+00  0.00000000000E+00  0.13710779850E+03  0.20243699242E+04  0.20197215258E+04 0.  0.
        4    1    3    3  502    0  0.83989172121E+03  0.52783205424E+03 -0.12107022607E+03  0.99934198019E+03  0.12699999809E+01 0. -1.
       -4    1    3    3    0  502 -0.83989172121E+03 -0.52783205424E+03  0.25817802456E+03  0.10250279441E+04  0.12699999809E+01 0.  1.
</event>
<event>
 5   0  0.1231056E-04  0.2003357E+04  0.7818609E-02  0.8605053E-01
        1   -1    0    0  501    0  0.00000000000E+00  0.00000000000E+00  0.23466261872E+04  0.23466261873E+04  0.50400001928E-02 0. -1.
       -1   -1    0    0    0  501  0.00000000000E+00  0.00000000000E+00 -0.42757553526E+03  0.42757553529E+03  0.50400001928E-02 0.  1.
    10030    2    1    2    0    0  0.00000000000E+00  0.00000000000E+00  0.19190506520E+04  0.27742017225E+04  0.20033571305E+04 0.  0.
        3    1    3    3  502    0  0.26829425070E+03  0.55749551881E+03 -0.13135587210E+03  0.63248512535E+03  0.10100000352E+00 0.  1.
       -3    1    3    3    0  502 -0.26829425070E+03 -0.55749551881E+03  0.20504065241E+04  0.21417165972E+04  0.10100000352E+00 0. -1.
</event>
<event>
 5   0  0.1231056E-04  0.2113344E+04  0.7818609E-02  0.8555388E-01
        1   -1    0    0  501    0  0.00000000000E+00  0.00000000000E+00  0.90781063434E+03  0.90781063435E+03  0.50400001928E-02 0. -1.
       -1   -1    0    0    0  501  0.00000000000E+00  0.00000000000E+00 -0.12299437498E+04  0.12299437498E+04  0.50400001928E-02 0.  1.
    10030    2    1    2    0    0  0.00000000000E+00  0.00000000000E+00 -0.32213311544E+03  0.21377543841E+04  0.21133442840E+04 0.  0.
        3    1    3    3  502    0 -0.15142753686E+03  0.10314093946E+04 -0.33574690508E+03  0.10951993575E+04  0.10100000352E+00 0.  1.
       -3    1    3    3    0  502  0.15142753686E+03 -0.10314093946E+04  0.13613789633E+02  0.10425550267E+04  0.10100000352E+00 0. -1.
</event>
<event>
 5   0  0.1258546E-04  0.2041608E+04  0.7818609E-02  0.8587411E-01
       -1   -1    0    0    0  501  0.00000000000E+00  0.00000000000E+00  0.73456883937E+03  0.73456883939E+03  0.50400001928E-02 0. -1.
        1   -1    0    0  501    0  0.00000000000E+00  0.00000000000E+00 -0.14185754015E+04  0.14185754015E+04  0.50400001928E-02 0.  1.
    10030    2    1    2    0    0  0.00000000000E+00  0.00000000000E+00 -0.68400656210E+03  0.21531442409E+04  0.20416084701E+04 0.  0.
        4    1    3    3  502    0  0.45011387420E+03  0.65537697902E+03 -0.10172294422E+04  0.12910766187E+04  0.12699999809E+01 0.  1.
       -4    1    3    3    0  502 -0.45011387420E+03 -0.65537697902E+03  0.33322288014E+03  0.86206762213E+03  0.12699999809E+01 0. -1.
</event>
<event>
 5   0  0.1231056E-04  0.1695039E+04  0.7818609E-02  0.8764199E-01
       -1   -1    0    0    0  501  0.00000000000E+00  0.00000000000E+00  0.38114889328E+03  0.38114889331E+03  0.50400001928E-02 0. -1.
        1   -1    0    0  501    0  0.00000000000E+00  0.00000000000E+00 -0.18845371503E+04  0.18845371503E+04  0.50400001928E-02 0.  1.
    10030    2    1    2    0    0  0.00000000000E+00  0.00000000000E+00 -0.15033882570E+04  0.22656860436E+04  0.16950389367E+04 0.  0.
        3    1    3    3  502    0 -0.61553797094E+03 -0.56728191131E+03 -0.92898889153E+03  0.12504863579E+04  0.10100000352E+00 0. -1.
       -3    1    3    3    0  502  0.61553797094E+03  0.56728191131E+03 -0.57439936548E+03  0.10151996857E+04  0.10100000352E+00 0.  1.
</event>
<event>
 5   0  0.1207228E-04  0.1980125E+04  0.7818609E-02  0.8615969E-01
       -1   -1    0    0    0  501  0.00000000000E+00  0.00000000000E+00  0.12593513436E+04  0.12593513436E+04  0.50400001928E-02 0. -1.
        1   -1    0    0  501    0  0.00000000000E+00  0.00000000000E+00 -0.77835636227E+03  0.77835636229E+03  0.50400001928E-02 0.  1.
    10030    2    1    2    0    0  0.00000000000E+00  0.00000000000E+00  0.48099498132E+03  0.20377077059E+04  0.19801253805E+04 0.  0.
        1    1    3    3  502    0  0.65412913002E+03  0.40535370215E+03  0.88153065621E+03  0.11701678685E+04  0.50400001928E-02 0. -1.
       -1    1    3    3    0  502 -0.65412913002E+03 -0.40535370215E+03 -0.40053567489E+03  0.86753983740E+03  0.50400001928E-02 0.  1.
</event>
<event>
 5   0  0.1324930E-04  0.1979294E+04  0.7818609E-02  0.8616363E-01
        1   -1    0    0  501    0  0.00000000000E+00  0.00000000000E+00  0.79261493925E+03  0.79261493927E+03  0.50400001928E-02 0.  1.
       -1   -1    0    0    0  501  0.00000000000E+00  0.00000000000E+00 -0.12356584385E+04  0.12356584385E+04  0.50400001928E-02 0. -1.
    10030    2    1    2    0    0  0.00000000000E+00  0.00000000000E+00 -0.44304349921E+03  0.20282733777E+04  0.19792941552E+04 0.  0.
        5    1    3    3  502    0 -0.11714324712E+03 -0.20882458314E+03  0.76247383354E+03  0.79919877609E+03  0.46999998093E+01 0.  1.
       -5    1    3    3    0  502  0.11714324712E+03  0.20882458314E+03 -0.12055173328E+04  0.12290746017E+04  0.46999998093E+01 0. -1.
</event>
<event>
 5   0  0.2488886E-04  0.2047341E+04  0.7818609E-02  0.8584801E-01
        2   -1    0    0  501    0  0.00000000000E+00  0.00000000000E+00  0.82188524779E+03  0.82188524780E+03  0.25500000920E-02 0. -1.
       -2   -1    0    0    0  501  0.00000000000E+00  0.00000000000E+00 -0.12749974259E+04  0.12749974259E+04  0.25500000920E-02 0.  1.
    10030    2    1    2    0    0  0.00000000000E+00  0.00000000000E+00 -0.45311217810E+03  0.20968826737E+04  0.20473412762E+04 0.  0.
        3    1    3    3  502    0  0.23267413395E+03 -0.34895121898E+03  0.72984810906E+03  0.84177341270E+03  0.10100000352E+00 0. -1.
       -3    1    3    3    0  502 -0.23267413395E+03  0.34895121898E+03 -0.11829602872E+04  0.12551092610E+04  0.10100000352E+00 0.  1.
</event>
<event>
 5   0  0.2463085E-04  0.1794376E+04  0.7818609E-02  0.8709296E-01
        2   -1    0    0  501    0  0.00000000000E+00  0.00000000000E+00  0.81793704312E+03  0.81793704313E+03  0.25500000920E-02 0. -1.
       -2   -1    0    0    0  501  0.00000000000E+00  0.00000000000E+00 -0.98411773729E+03  0.98411773729E+03  0.25500000920E-02 0.  1.
    10030    2    1    2    0    0  0.00000000000E+00  0.00000000000E+00 -0.16618069416E+03  0.18020547804E+04  0.17943760499E+04 0.  0.
        2    1    3    3  502    0 -0.62135153822E+03 -0.34563672212E+03  0.46642931074E+03  0.85035215037E+03  0.25500000920E-02 0. -1.
       -2    1    3    3    0  502  0.62135153822E+03  0.34563672212E+03 -0.63261000490E+03  0.95170263004E+03  0.25500000920E-02 0.  1.
</event>
<event>
 5   0  0.1324930E-04  0.1983860E+04  0.7818609E-02  0.8614204E-01
       -1   -1    0    0    0  501  0.00000000000E+00  0.00000000000E+00  0.12287274885E+04  0.12287274885E+04  0.50400001928E-02 0. -1.
        1   -1    0    0  501    0  0.00000000000E+00  0.00000000000E+00 -0.80076760662E+03  0.80076760663E+03  0.50400001928E-02 0.  1.
    10030    2    1    2    0    0  0.00000000000E+00  0.00000000000E+00  0.42795988187E+03  0.20294950951E+04  0.19838600456E+04 0.  0.
        5    1    3    3  502    0  0.61214460795E+03  0.61543386154E+03 -0.27708632027E+03  0.91119634429E+03  0.46999998093E+01 0.  1.
       -5    1    3    3    0  502 -0.61214460795E+03 -0.61543386154E+03  0.70504620214E+03  0.11182987508E+04  0.46999998093E+01 0. -1.
</event>
<event>
 5   0  0.2421737E-04  0.2135322E+04  0.7818609E-02  0.8545841E-01
        2   -1    0    0  501    0  0.00000000000E+00  0.00000000000E+00  0.19343322237E+04  0.19343322237E+04  0.25500000920E-02 0. -1.
       -2   -1    0    0    0  501  0.00000000000E+00  0.00000000000E+00 -0.58929887530E+03  0.58929887531E+03  0.25500000920E-02 0.  1.
    10030    2    1    2    0    0  0.00000000000E+00  0.00000000000E+00  0.13450333484E+04  0.25236310990E+04  0.21353218061E+04 0.  0.
        1    1    3    3  502    0  0.43805324505E+03 -0.89832597005E+03  0.11163319947E+04  0.14983582070E+04  0.50400001928E-02 0. -1.
       -1    1    3    3    0  502 -0.43805324505E+03  0.89832597005E+03  0.22870135369E+03  0.10252728920E+04  0.50400001928E-02 0.  1.
</event>
<event>
 5   0  0.2421737E-04  0.2028560E+04  0.7818609E-02  0.8593383E-01
        2   -1    0    0  501    0  0.00000000000E+00  0.00000000000E+00  0.96241711351E+03  0.96241711351E+03  0.25500000920E-02 0.  1.
       -2   -1    0    0    0  501  0.00000000000E+00  0.00000000000E+00 -0.10689376077E+04  0.10689376078E+04  0.25500000920E-02 0. -1.
    10030    2    1    2    0    0  0.00000000000E+00  0.00000000000E+00 -0.10652049424E+03  0.20313547213E+04  0.20285599296E+04 0.  0.
        1    1    3    3  502    0 -0.18645944388E+03  0.98782257399E+03 -0.18836567908E+03  0.10227620402E+04  0.50400001928E-02 0. -1.
       -1    1    3    3    0  502  0.18645944388E+03 -0.98782257399E+03  0.81845184843E+02  0.10085926810E+04  0.50400001928E-02 0.  1.
</event>
<event>
 5   0  0.2540506E-04  0.1980634E+04  0.7818609E-02  0.8615729E-01
        2   -1    0    0  501    0  0.00000000000E+00  0.00000000000E+00  0.14590166207E+04  0.14590166207E+04  0.25500000920E-02 0. -1.
       -2   -1    0    0    0  501  0.00000000000E+00  0.00000000000E+00 -0.67218424766E+03  0.67218424766E+03  0.25500000920E-02 0.  1.
    10030    2    1    2    0    0  0.00000000000E+00  0.00000000000E+00  0.78683237301E+03  0.21312008683E+04  0.19806342312E+04 0.  0.
        4    1    3    3  502    0 -0.53674979989E+03 -0.78919971420E+03  0.10915588970E+03  0.96065246459E+03  0.12699999809E+01 0. -1.
       -4    1    3    3    0  502  0.53674979989E+03  0.78919971420E+03  0.67767648331E+03  0.11705484037E+04  0.12699999809E+01 0.  1.
</event>
<event>
 5   0  0.2463085E-04  0.1842967E+04  0.7818609E-02  0.8683778E-01
        2   -1    0    0  501    0  0.00000000000E+00  0.00000000000E+00  0.15572803660E+04  0.15572803660E+04  0.25500000920E-02 0.  1.
       -2   -1    0    0    0  501  0.00000000000E+00  0.00000000000E+00 -0.54526565854E+03  0.54526565854E+03  0.25500000920E-02 0. -1.
    10030    2    1    2    0    0  0.00000000000E+00  0.00000000000E+00  0.10120147075E+04  0.21025460245E+04  0.18429666349E+04 0.  0.
        2    1    3    3  502    0  0.66393565598E+03 -0.81738191429E+02 -0.21700616673E+03  0.70326621106E+03  0.25500000920E-02 0. -1.
       -2    1    3    3    0  502 -0.66393565598E+03  0.81738191429E+02  0.12290208742E+04  0.13992798135E+04  0.25500000920E-02 0.  1.
</event>
<event>
 5   0  0.1324930E-04  0.1941817E+04  0.7818609E-02  0.8634317E-01
        1   -1    0    0  501    0  0.00000000000E+00  0.00000000000E+00  0.80644495627E+03  0.80644495629E+03  0.50400001928E-02 0.  1.
       -1   -1    0    0    0  501  0.00000000000E+00  0.00000000000E+00 -0.11689123012E+04  0.11689123012E+04  0.50400001928E-02 0. -1.
    10030    2    1    2    0    0  0.00000000000E+00  0.00000000000E+00 -0.36246734489E+03  0.19753572575E+04  0.19418171177E+04 0.  0.
        5    1    3    3  502    0 -0.82304408547E+03 -0.42151561850E+03  0.11979024763E+03  0.93244237177E+03  0.46999998093E+01 0.  1.
       -5    1    3    3    0  502  0.82304408547E+03  0.42151561850E+03 -0.48225759252E+03  0.10429148857E+04  0.46999998093E+01 0. -1.
</event>
<event>
 5   0  0.2463085E-04  0.1984664E+04  0.7818609E-02  0.8613825E-01
       -2   -1    0    0    0  501  0.00000000000E+00  0.00000000000E+00  0.15375519564E+04  0.15375519564E+04  0.25500000920E-02 0. -1.
        2   -1    0    0  501    0  0.00000000000E+00  0.00000000000E+00 -0.64044822438E+03  0.64044822438E+03  0.25500000920E-02 0.  1.
    10030    2    1    2    0    0  0.00000000000E+00  0.00000000000E+00  0.89710373207E+03  0.21780001808E+04  0.19846636193E+04 0.  0.
        2    1    3    3  502    0  0.78931092068E+03 -0.44481790813E+03  0.89276480376E+03  0.12719684335E+04  0.25500000920E-02 0. -1.
       -2    1    3    3    0  502 -0.78931092068E+03  0.44481790813E+03  0.43389283064E+01  0.90603174735E+03  0.25500000920E-02 0.  1.
</event>
<event>
 5   0  0.1324930E-04  0.2380621E+04  0.7818609E-02  0.8446795E-01
        1   -1    0    0  501    0  0.00000000000E+00  0.00000000000E+00  0.89631615784E+03  0.89631615785E+03  0.50400001928E-02 0. -1.
       -1   -1    0    0    0  501  0.00000000000E+00  0.00000000000E+00 -0.15807360435E+04  0.15807360435E+04  0.50400001928E-02 0.  1.
    10030    2    1    2    0    0  0.00000000000E+00  0.00000000000E+00 -0.68441988564E+03  0.24770522013E+04  0.23806211434E+04 0.  0.
        5    1    3    3  502    0 -0.27175698667E+03  0.95722691633E+03  0.33745833728E+03  0.10507309116E+04  0.46999998093E+01 0. -1.
       -5    1    3    3    0  502  0.27175698667E+03 -0.95722691633E+03 -0.10218782229E+04  0.14263212898E+04  0.46999998093E+01 0.  1.
</event>
<event>
 5   0  0.1210633E-04  0.2004772E+04  0.7818609E-02  0.8604393E-01
       -1   -1    0    0    0  501  0.00000000000E+00  0.00000000000E+00  0.60593722372E+03  0.60593722375E+03  0.50400001928E-02 0. -1.
        1   -1    0    0  501    0  0.00000000000E+00  0.00000000000E+00 -0.16582200733E+04  0.16582200733E+04  0.50400001928E-02 0.  1.
    10030    2    1    2    0    0  0.00000000000E+00  0.00000000000E+00 -0.10522828496E+04  0.22641572971E+04  0.20047715756E+04 0.  0.
        2    1    3    3  502    0 -0.69741712794E+03  0.26231353105E+03  0.23111738581E+03  0.78013735005E+03  0.25500000920E-02 0. -1.
       -2    1    3    3    0  502  0.69741712794E+03 -0.26231353105E+03 -0.12834002354E+04  0.14840199470E+04  0.25500000920E-02 0.  1.
</event>
<event>
 5   0  0.1210633E-04  0.2008403E+04  0.7818609E-02  0.8602702E-01
        1   -1    0    0  501    0  0.00000000000E+00  0.00000000000E+00  0.56212344152E+03  0.56212344154E+03  0.50400001928E-02 0.  1.
       -1   -1    0    0    0  501  0.00000000000E+00  0.00000000000E+00 -0.17939479538E+04  0.17939479538E+04  0.50400001928E-02 0. -1.
    10030    2    1    2    0    0  0.00000000000E+00  0.00000000000E+00 -0.12318245123E+04  0.23560713954E+04  0.20084025470E+04 0.  0.
        2    1    3    3  502    0 -0.71429452775E+03 -0.97746394764E+02 -0.14359545746E+04  0.16067783203E+04  0.25500000920E-02 0. -1.
       -2    1    3    3    0  502  0.71429452775E+03  0.97746394764E+02  0.20413006232E+03  0.74929307511E+03  0.25500000920E-02 0.  1.
</event>
<event>
 5   0  0.1210633E-04  0.1883484E+04  0.7818609E-02  0.8663121E-01
       -1   -1    0    0    0  501  0.00000000000E+00  0.00000000000E+00  0.51126362604E+03  0.51126362607E+03  0.50400001928E-02 0. -1.
        1   -1    0    0  501    0  0.00000000000E+00  0.00000000000E+00 -0.17346784674E+04  0.17346784674E+04  0.50400001928E-02 0.  1.
    10030    2    1    2    0    0  0.00000000000E+00  0.00000000000E+00 -0.12234148413E+04  0.22459420935E+04  0.18834840093E+04 0.  0.
        2    1    3    3  502    0 -0.65884839920E+03 -0.65434634423E+03 -0.79883944730E+03  0.12249060429E+04  0.25500000920E-02 0.  1.
       -2    1    3    3    0  502  0.65884839920E+03  0.65434634423E+03 -0.42457539403E+03  0.10210360506E+04  0.25500000920E-02 0. -1.
</event>
<event>
 5   0  0.2421737E-04  0.1745048E+04  0.7818609E-02  0.8736081E-01
        2   -1    0    0  501    0  0.00000000000E+00  0.00000000000E+00  0.13806228808E+04  0.13806228808E+04  0.25500000920E-02 0.  1.
       -2   -1    0    0    0  501  0.00000000000E+00  0.00000000000E+00 -0.55141627212E+03  0.55141627213E+03  0.25500000920E-02 0. -1.
    10030    2    1    2    0    0  0.00000000000E+00  0.00000000000E+00  0.82920660865E+03  0.19320391529E+04  0.17450477611E+04 0.  0.
        1    1    3    3  502    0 -0.41590219970E+02  0.19262623040E+03 -0.52645494022E+03  0.56212935801E+03  0.50400001928E-02 0. -1.
       -1    1    3    3    0  502  0.41590219970E+02 -0.19262623040E+03  0.13556615489E+04  0.13699097949E+04  0.50400001928E-02 0.  1.
</event>
<event>
 5   0  0.2540506E-04  0.2048004E+04  0.7818609E-02  0.8584500E-01
        2   -1    0    0  501    0  0.00000000000E+00  0.00000000000E+00  0.91632428842E+03  0.91632428842E+03  0.25500000920E-02 0.  1.
       -2   -1    0    0    0  501  0.00000000000E+00  0.00000000000E+00 -0.11443334555E+04  0.11443334555E+04  0.25500000920E-02 0. -1.
    10030    2    1    2    0    0  0.00000000000E+00  0.00000000000E+00 -0.22800916705E+03  0.20606577439E+04  0.20480044329E+04 0.  0.
        4    1    3    3  502    0 -0.29674464000E+03  0.70179340288E+03  0.57433288391E+03  0.95416520379E+03  0.12699999809E+01 0.  1.
       -4    1    3    3    0  502  0.29674464000E+03 -0.70179340288E+03 -0.80234205096E+03  0.11064925401E+04  0.12699999809E+01 0. -1.
</event>
<event>
 5   0  0.1231056E-04  0.2021232E+04  0.7818609E-02  0.8596758E-01
        1   -1    0    0  501    0  0.00000000000E+00  0.00000000000E+00  0.83432422657E+03  0.83432422659E+03  0.50400001928E-02 0. -1.
       -1   -1    0    0    0  501  0.00000000000E+00  0.00000000000E+00 -0.12241574476E+04  0.12241574477E+04  0.50400001928E-02 0.  1.
    10030    2    1    2    0    0  0.00000000000E+00  0.00000000000E+00 -0.38983322107E+03  0.20584816742E+04  0.20212315214E+04 0.  0.
        3    1    3    3  502    0 -0.26659085747E+03 -0.96475889393E+03 -0.52650377623E+02  0.10022985988E+04  0.10100000352E+00 0. -1.
       -3    1    3    3    0  502  0.26659085747E+03  0.96475889393E+03 -0.33718284345E+03  0.10561830754E+04  0.10100000352E+00 0.  1.
</event>
<event>
 5   0  0.2488886E-04  0.1970724E+04  0.7818609E-02  0.8620432E-01
        2   -1    0    0  501    0  0.00000000000E+00  0.00000000000E+00  0.12278256105E+04  0.12278256105E+04  0.25500000920E-02 0.  1.
       -2   -1    0    0    0  501  0.00000000000E+00  0.00000000000E+00 -0.79077902753E+03  0.79077902753E+03  0.25500000920E-02 0. -1.
    10030    2    1    2    0    0  0.00000000000E+00  0.00000000000E+00  0.43704658298E+03  0.20186046380E+04  0.19707244782E+04 0.  0.
        3    1    3    3  502    0  0.76513044544E+03 -0.62025201572E+02 -0.41427845036E+03  0.87229488638E+03  0.10100000352E+00 0. -1.
       -3    1    3    3    0  502 -0.76513044544E+03  0.62025201572E+02  0.85132503334E+03  0.11463097517E+04  0.10100000352E+00 0.  1.
</event>
<event>
 5   0  0.1231056E-04  0.1986688E+04  0.7818609E-02  0.8612870E-01
       -1   -1    0    0    0  501  0.00000000000E+00  0.00000000000E+00  0.11300655770E+04  0.11300655770E+04  0.50400001928E-02 0. -1.
        1   -1    0    0  501    0  0.00000000000E+00  0.00000000000E+00 -0.87316374159E+03  0.87316374160E+03  0.50400001928E-02 0.  1.
    10030    2    1    2    0    0  0.00000000000E+00  0.00000000000E+00  0.25690183541E+03  0.20032293186E+04  0.19866879850E+04 0.  0.
        3    1    3    3  502    0 -0.36945062341E+03  0.20454908015E+03 -0.77814481005E+03  0.88534933497E+03  0.10100000352E+00 0.  1.
       -3    1    3    3    0  502  0.36945062341E+03 -0.20454908015E+03  0.10350466455E+04  0.11178799836E+04  0.10100000352E+00 0. -1.
</event>
<event>
 5   0  0.1210633E-04  0.1800145E+04  0.7818609E-02  0.8706222E-01
        1   -1    0    0  501    0  0.00000000000E+00  0.00000000000E+00  0.16464711347E+04  0.16464711347E+04  0.50400001928E-02 0. -1.
       -1   -1    0    0    0  501  0.00000000000E+00  0.00000000000E+00 -0.49204073693E+03  0.49204073696E+03  0.50400001928E-02 0.  1.
    10030    2    1    2    0    0  0.00000000000E+00  0.00000000000E+00  0.11544303977E+04  0.21385118716E+04  0.18001454058E+04 0.  0.
        2    1    3    3  502    0 -0.66253783291E+03  0.49208350956E+03  0.15049167606E+03  0.83889826856E+03  0.25500000920E-02 0.  1.
       -2    1    3    3    0  502  0.66253783291E+03 -0.49208350956E+03  0.10039387217E+04  0.12996136031E+04  0.25500000920E-02 0. -1.
</event>
<event>
 5   0  0.2463085E-04  0.1990767E+04  0.7818609E-02  0.8610950E-01
        2   -1    0    0  501    0  0.00000000000E+00  0.00000000000E+00  0.22704091390E+04  0.22704091390E+04  0.25500000920E-02 0.  1.
       -2   -1    0    0    0  501  0.00000000000E+00  0.00000000000E+00 -0.43639202672E+03  0.43639202673E+03  0.25500000920E-02 0. -1.
    10030    2    1    2    0    0  0.00000000000E+00  0.00000000000E+00  0.18340171123E+04  0.27068011657E+04  0.19907671342E+04 0.  0.
        2    1    3    3  502    0 -0.52471708043E+03  0.26460405662E+03 -0.17535085535E+03  0.61326278523E+03  0.25500000920E-02 0. -1.
       -2    1    3    3    0  502  0.52471708043E+03 -0.26460405662E+03  0.20093679676E+04  0.20935383805E+04  0.25500000920E-02 0.  1.
</event>
<event>
 5   0  0.9099125E-05  0.1966358E+04  0.7818609E-02  0.8622513E-01
       -3   -1    0    0    0  501  0.00000000000E+00  0.00000000000E+00  0.99665010265E+03  0.99665010776E+03  0.10100000352E+00 0. -1.
        3   -1    0    0  501    0  0.00000000000E+00  0.00000000000E+00 -0.96989016686E+03  0.96989017212E+03  0.10100000352E+00 0.  1.
    10030    2    1    2    0    0  0.00000000000E+00  0.00000000000E+00  0.26759935784E+02  0.19665402799E+04  0.19663582019E+04 0.  0.
        2    1    3    3  502    0  0.47406116372E+03  0.21925412310E+03 -0.81966462063E+03  0.97193438449E+03  0.25500000920E-02 0.  1.
       -2    1    3    3    0  502 -0.47406116372E+03 -0.21925412310E+03  0.84642455641E+03  0.99460589539E+03  0.25500000920E-02 0. -1.
</event>
<event>
 5   0  0.1207228E-04  0.1778505E+04  0.7818609E-02  0.8717814E-01
       -1   -1    0    0    0  501  0.00000000000E+00  0.00000000000E+00  0.39490279763E+03  0.39490279767E+03  0.50400001928E-02 0.  1.
        1   -1    0    0  501    0  0.00000000000E+00  0.00000000000E+00 -0.20024431756E+04  0.20024431756E+04  0.50400001928E-02 0. -1.
    10030    2    1    2    0    0  0.00000000000E+00  0.00000000000E+00 -0.16075403780E+04  0.23973459733E+04  0.17785054537E+04 0.  0.
        1    1    3    3  502    0  0.61340583226E+02 -0.97406328271E+01 -0.19995159098E+04  0.20004802974E+04  0.50400001928E-02 0. -1.
       -1    1    3    3    0  502 -0.61340583226E+02  0.97406328271E+01  0.39197553180E+03  0.39686567581E+03  0.50400001928E-02 0.  1.
</event>
<event>
 5   0  0.2540506E-04  0.1994529E+04  0.7818609E-02  0.8609183E-01
       -2   -1    0    0    0  501  0.00000000000E+00  0.00000000000E+00  0.11744333473E+04  0.11744333473E+04  0.25500000920E-02 0.  1.
        2   -1    0    0  501    0  0.00000000000E+00  0.00000000000E+00 -0.84682224745E+03  0.84682224745E+03  0.25500000920E-02 0. -1.
    10030    2    1    2    0    0  0.00000000000E+00  0.00000000000E+00  0.32761109988E+03  0.20212555948E+04  0.19945288032E+04 0.  0.
        4    1    3    3  502    0  0.29269703581E+03 -0.79342150465E+03 -0.37180819323E+03  0.92381393379E+03  0.12699999809E+01 0. -1.
       -4    1    3    3    0  502 -0.29269703581E+03  0.79342150465E+03  0.69941929311E+03  0.10974416610E+04  0.12699999809E+01 0.  1.
</event>
<event>
 5   0  0.1207228E-04  0.1917441E+04  0.7818609E-02  0.8646223E-01
       -1   -1    0    0    0  501  0.00000000000E+00  0.00000000000E+00  0.97815560490E+03  0.97815560491E+03  0.50400001928E-02 0.  1.
        1   -1    0    0  501    0  0.00000000000E+00  0.00000000000E+00 -0.93967199960E+03  0.93967199961E+03  0.50400001928E-02 0. -1.
    10030    2    1    2    0    0  0.00000000000E+00  0.00000000000E+00  0.38483605297E+02  0.19178276045E+04  0.19174414549E+04 0.  0.
        1    1    3    3  502    0  0.43756790196E+03  0.14341867473E+02  0.87233447860E+03  0.97603217189E+03  0.50400001928E-02 0.  1.
       -1    1    3    3    0  502 -0.43756790196E+03 -0.14341867473E+02 -0.83385087330E+03  0.94179543263E+03  0.50400001928E-02 0. -1.
</event>
<event>
 5   0  0.2540506E-04  0.2090042E+04  0.7818609E-02  0.8565643E-01
        2   -1    0    0  501    0  0.00000000000E+00  0.00000000000E+00  0.11401056104E+04  0.11401056104E+04  0.25500000920E-02 0.  1.
       -2   -1    0    0    0  501  0.00000000000E+00  0.00000000000E+00 -0.95786627180E+03  0.95786627180E+03  0.25500000920E-02 0. -1.
    10030    2    1    2    0    0  0.00000000000E+00  0.00000000000E+00  0.18223933861E+03  0.20979718822E+04  0.20900418278E+04 0.  0.
        4    1    3    3  502    0 -0.97519673679E+03 -0.16623951704E+03  0.42918057775E+03  0.10783514426E+04  0.12699999809E+01 0. -1.
       -4    1    3    3    0  502  0.97519673679E+03  0.16623951704E+03 -0.24694123914E+03  0.10196204396E+04  0.12699999809E+01 0.  1.
</event>
<event>
 5   0  0.2596061E-04  0.1992938E+04  0.7818609E-02  0.8609929E-01
        2   -1    0    0  501    0  0.00000000000E+00  0.00000000000E+00  0.13558449459E+04  0.13558449459E+04  0.25500000920E-02 0. -1.
       -2   -1    0    0    0  501  0.00000000000E+00  0.00000000000E+00 -0.73234831177E+03  0.73234831177E+03  0.25500000920E-02 0.  1.
    10030    2    1    2    0    0  0.00000000000E+00  0.00000000000E+00  0.62349663411E+03  0.20881932577E+04  0.19929382902E+04 0.  0.
        5    1    3    3  502    0 -0.37095933953E+03  0.83760483408E+03  0.72258063006E+03  0.11667637064E+04  0.46999998093E+01 0. -1.
       -5    1    3    3    0  502  0.37095933953E+03 -0.83760483408E+03 -0.99083995953E+02  0.92142955124E+03  0.46999998093E+01 0.  1.
</event>
<event>
 5   0  0.1258546E-04  0.1971998E+04  0.7818609E-02  0.8619825E-01
       -1   -1    0    0    0  501  0.00000000000E+00  0.00000000000E+00  0.87895723727E+03  0.87895723728E+03  0.50400001928E-02 0. -1.
        1   -1    0    0  501    0  0.00000000000E+00  0.00000000000E+00 -0.11060767639E+04  0.11060767639E+04  0.50400001928E-02 0.  1.
    10030    2    1    2    0    0  0.00000000000E+00  0.00000000000E+00 -0.22711952666E+03  0.19850340012E+04  0.19719981508E+04 0.  0.
        4    1    3    3  502    0 -0.26588000730E+03 -0.19505449770E+03  0.82180516496E+03  0.88549634523E+03  0.12699999809E+01 0. -1.
       -4    1    3    3    0  502  0.26588000730E+03  0.19505449770E+03 -0.10489246916E+04  0.10995376560E+04  0.12699999809E+01 0.  1.
</event>
<event>
 5   0  0.2596061E-04  0.2069007E+04  0.7818609E-02  0.8575020E-01
       -2   -1    0    0    0  501  0.00000000000E+00  0.00000000000E+00  0.78562997303E+03  0.78562997304E+03  0.25500000920E-02 0. -1.
        2   -1    0    0  501    0  0.00000000000E+00  0.00000000000E+00 -0.13622159336E+04  0.13622159336E+04  0.25500000920E-02 0.  1.
    10030    2    1    2    0    0  0.00000000000E+00  0.00000000000E+00 -0.57658596052E+03  0.21478459066E+04  0.20690071698E+04 0.  0.
        5    1    3    3  502    0  0.25417595940E+03  0.85762690442E+03  0.25116820413E+03  0.92910542043E+03  0.46999998093E+01 0.  1.
       -5    1    3    3    0  502 -0.25417595940E+03 -0.85762690442E+03 -0.82775416465E+03  0.12187404862E+04  0.46999998093E+01 0. -1.
</event>
<event>
 5   0  0.9099125E-05  0.2005019E+04  0.7818609E-02  0.8604278E-01
       -4   -1    0    0    0  501  0.00000000000E+00  0.00000000000E+00  0.84741564149E+03  0.84741659315E+03  0.12699999809E+01 0.  1.
        4   -1    0    0  501    0  0.00000000000E+00  0.00000000000E+00 -0.11859863712E+04  0.11859870512E+04  0.12699999809E+01 0. -1.
    10030    2    1    2    0    0  0.00000000000E+00  0.00000000000E+00 -0.33857072976E+03  0.20334036444E+04  0.20050187635E+04 0.  0.
        3    1    3    3  502    0 -0.52503450040E+03 -0.32762334379E+03  0.63056674294E+03  0.88352289699E+03  0.10100000352E+00 0.  1.
       -3    1    3    3    0  502  0.52503450040E+03  0.32762334379E+03 -0.96913747270E+03  0.11498807474E+04  0.10100000352E+00 0. -1.
</event>
<event>
 5   0  0.2463085E-04  0.2000407E+04  0.7818609E-02  0.8606431E-01
        2   -1    0    0  501    0  0.00000000000E+00  0.00000000000E+00  0.13137666625E+04  0.13137666625E+04  0.25500000920E-02 0.  1.
       -2   -1    0    0    0  501  0.00000000000E+00  0.00000000000E+00 -0.76147983915E+03  0.76147983916E+03  0.25500000920E-02 0. -1.
    10030    2    1    2    0    0  0.00000000000E+00  0.00000000000E+00  0.55228682333E+03  0.20752465016E+04  0.20004067855E+04 0.  0.
        2    1    3    3  502    0 -0.30772902868E+03  0.46144167277E+03 -0.58733092674E+03  0.80782621273E+03  0.25500000920E-02 0. -1.
       -2    1    3    3    0  502  0.30772902868E+03 -0.46144167277E+03  0.11396177501E+04  0.12674202889E+04  0.25500000920E-02 0.  1.
</event>
<event>
 5   0  0.1324930E-04  0.1985082E+04  0.7818609E-02  0.8613627E-01
        1   -1    0    0  501    0  0.00000000000E+00  0.00000000000E+00  0.75166606080E+03  0.75166606082E+03  0.50400001928E-02 0. -1.
       -1   -1    0    0    0  501  0.00000000000E+00  0.00000000000E+00 -0.13106054073E+04  0.13106054073E+04  0.50400001928E-02 0.  1.
    10030    2    1    2    0    0  0.00000000000E+00  0.00000000000E+00 -0.55893934649E+03  0.20622714681E+04  0.19850819669E+04 0.  0.
        5    1    3    3  502    0  0.14772993666E+03  0.17051123181E+03 -0.12836029084E+04  0.13032868950E+04  0.46999998093E+01 0.  1.
       -5    1    3    3    0  502 -0.14772993666E+03 -0.17051123181E+03  0.72466356186E+03  0.75898457312E+03  0.46999998093E+01 0. -1.
</event>
</LesHouchesEvents>
